Generated by trjconv : CNT in water t=  40.00000
33518
    1C        C    1   2.842   2.768   4.745
    1C        C    2   2.898   2.718   4.865
    1C        C    3   2.837   2.767   4.981
    1C        C    4   2.852   2.777   4.262
    1C        C    5   2.899   2.724   4.384
    1C        C    6   2.847   2.773   4.506
    1C        C    7   3.012   2.632   4.623
    1C        C    8   2.900   2.718   4.626
    1C        C    9   3.073   2.596   4.745
    1C        C   10   3.009   2.631   4.866
    1C        C   11   3.183   2.493   4.979
    1C        C   12   3.059   2.560   4.976
    1C        C   13   2.848   2.770   3.772
    1C        C   14   2.903   2.724   3.894
    1C        C   15   2.851   2.773   4.016
    1C        C   16   3.019   2.646   4.140
    1C        C   17   2.904   2.728   4.140
    1C        C   18   3.080   2.611   4.262
    1C        C   19   3.015   2.644   4.383
    1C        C   20   3.212   2.556   4.503
    1C        C   21   3.078   2.602   4.502
    1C        C   22   3.276   2.536   4.627
    1C        C   23   3.204   2.540   4.749
    1C        C   24   3.412   2.481   4.863
    1C        C   25   3.269   2.492   4.865
    1C        C   26   3.489   2.475   4.980
    1C        C   27   2.851   2.769   3.283
    1C        C   28   2.903   2.722   3.405
    1C        C   29   2.852   2.769   3.529
    1C        C   30   3.016   2.637   3.649
    1C        C   31   2.901   2.719   3.652
    1C        C   32   3.075   2.604   3.772
    1C        C   33   3.018   2.642   3.896
    1C        C   34   3.208   2.551   4.016
    1C        C   35   3.077   2.604   4.018
    1C        C   36   3.279   2.534   4.137
    1C        C   37   3.211   2.559   4.258
    1C        C   38   3.417   2.509   4.381
    1C        C   39   3.279   2.535   4.380
    1C        C   40   3.488   2.505   4.503
    1C        C   41   3.415   2.510   4.624
    1C        C   42   3.630   2.489   4.744
    1C        C   43   3.488   2.488   4.743
    1C        C   44   3.702   2.493   4.865
    1C        C   45   3.628   2.478   4.984
    1C        C   46   2.841   2.757   2.792
    1C        C   47   2.891   2.709   2.915
    1C        C   48   2.842   2.756   3.039
    1C        C   49   3.012   2.630   3.162
    1C        C   50   2.900   2.716   3.161
    1C        C   51   3.081   2.607   3.283
    1C        C   52   3.021   2.644   3.405
    1C        C   53   3.209   2.548   3.525
    1C        C   54   3.081   2.606   3.527
    1C        C   55   3.274   2.526   3.649
    1C        C   56   3.205   2.548   3.770
    1C        C   57   3.412   2.504   3.894
    1C        C   58   3.273   2.529   3.892
    1C        C   59   3.487   2.506   4.014
    1C        C   60   3.418   2.511   4.138
    1C        C   61   3.630   2.500   4.258
    1C        C   62   3.489   2.499   4.259
    1C        C   63   3.700   2.507   4.380
    1C        C   64   3.629   2.501   4.502
    1C        C   65   3.835   2.549   4.625
    1C        C   66   3.702   2.499   4.623
    1C        C   67   3.907   2.567   4.745
    1C        C   68   3.839   2.529   4.862
    1C        C   69   4.052   2.583   4.977
    1C        C   70   3.920   2.535   4.976
    1C        C   71   2.825   2.736   2.305
    1C        C   72   2.884   2.697   2.428
    1C        C   73   2.833   2.747   2.549
    1C        C   74   3.005   2.622   2.669
    1C        C   75   2.892   2.707   2.671
    1C        C   76   3.069   2.591   2.791
    1C        C   77   3.011   2.634   2.912
    1C        C   78   3.201   2.551   3.035
    1C        C   79   3.067   2.597   3.036
    1C        C   80   3.274   2.535   3.155
    1C        C   81   3.211   2.552   3.281
    1C        C   82   3.415   2.497   3.402
    1C        C   83   3.277   2.526   3.403
    1C        C   84   3.484   2.499   3.526
    1C        C   85   3.415   2.509   3.649
    1C        C   86   3.624   2.507   3.767
    1C        C   87   3.483   2.501   3.772
    1C        C   88   3.695   2.518   3.889
    1C        C   89   3.628   2.509   4.013
    1C        C   90   3.836   2.549   4.135
    1C        C   91   3.699   2.513   4.135
    1C        C   92   3.902   2.573   4.258
    1C        C   93   3.836   2.545   4.380
    1C        C   94   4.029   2.630   4.499
    1C        C   95   3.900   2.573   4.502
    1C        C   96   4.095   2.664   4.619
    1C        C   97   4.037   2.625   4.742
    1C        C   98   4.191   2.767   4.860
    1C        C   99   4.103   2.655   4.864
    1C        C  100   4.211   2.844   4.975
    1C        C  101   2.818   2.727   2.068
    1C        C  102   2.988   2.588   2.190
    1C        C  103   2.881   2.683   2.186
    1C        C  104   3.062   2.570   2.311
    1C        C  105   3.001   2.618   2.429
    1C        C  106   3.200   2.532   2.550
    1C        C  107   3.069   2.586   2.549
    1C        C  108   3.270   2.519   2.672
    1C        C  109   3.203   2.545   2.794
    1C        C  110   3.412   2.502   2.916
    1C        C  111   3.274   2.530   2.915
    1C        C  112   3.484   2.493   3.038
    1C        C  113   3.412   2.503   3.159
    1C        C  114   3.625   2.493   3.280
    1C        C  115   3.484   2.489   3.279
    1C        C  116   3.696   2.509   3.401
    1C        C  117   3.625   2.501   3.523
    1C        C  118   3.831   2.550   3.644
    1C        C  119   3.696   2.510   3.645
    1C        C  120   3.899   2.571   3.767
    1C        C  121   3.833   2.548   3.889
    1C        C  122   4.025   2.639   4.010
    1C        C  123   3.899   2.574   4.011
    1C        C  124   4.084   2.676   4.133
    1C        C  125   4.026   2.640   4.257
    1C        C  126   4.196   2.767   4.377
    1C        C  127   4.089   2.675   4.379
    1C        C  128   4.244   2.822   4.499
    1C        C  129   4.193   2.766   4.618
    1C        C  130   4.327   2.935   4.738
    1C        C  131   4.244   2.819   4.738
    1C        C  132   4.356   3.001   4.860
    1C        C  133   4.288   2.960   4.975
    1C        C  134   3.172   2.462   2.083
    1C        C  135   3.038   2.503   2.086
    1C        C  136   3.261   2.480   2.189
    1C        C  137   3.195   2.521   2.307
    1C        C  138   3.407   2.489   2.428
    1C        C  139   3.268   2.512   2.428
    1C        C  140   3.480   2.485   2.549
    1C        C  141   3.409   2.497   2.671
    1C        C  142   3.622   2.499   2.791
    1C        C  143   3.481   2.493   2.793
    1C        C  144   3.694   2.504   2.912
    1C        C  145   3.625   2.495   3.035
    1C        C  146   3.831   2.542   3.156
    1C        C  147   3.696   2.503   3.157
    1C        C  148   3.900   2.565   3.277
    1C        C  149   3.833   2.544   3.400
    1C        C  150   4.029   2.627   3.521
    1C        C  151   3.901   2.567   3.522
    1C        C  152   4.083   2.669   3.644
    1C        C  153   4.022   2.640   3.768
    1C        C  154   4.200   2.761   3.888
    1C        C  155   4.085   2.679   3.889
    1C        C  156   4.250   2.811   4.011
    1C        C  157   4.194   2.765   4.132
    1C        C  158   4.338   2.921   4.251
    1C        C  159   4.246   2.814   4.254
    1C        C  160   4.377   2.983   4.372
    1C        C  161   4.336   2.929   4.496
    1C        C  162   4.436   3.118   4.616
    1C        C  163   4.369   2.994   4.617
    1C        C  164   4.461   3.182   4.739
    1C        C  165   4.432   3.119   4.862
    1C        C  166   4.505   3.320   4.974
    1C        C  167   4.472   3.185   4.979
    1C        C  168   3.475   2.441   2.068
    1C        C  169   3.401   2.461   2.185
    1C        C  170   3.617   2.471   2.305
    1C        C  171   3.475   2.468   2.306
    1C        C  172   3.691   2.491   2.423
    1C        C  173   3.621   2.488   2.546
    1C        C  174   3.825   2.547   2.666
    1C        C  175   3.691   2.503   2.668
    1C        C  176   3.893   2.567   2.788
    1C        C  177   3.830   2.540   2.912
    1C        C  178   4.025   2.628   3.032
    1C        C  179   3.896   2.569   3.033
    1C        C  180   4.090   2.661   3.153
    1C        C  181   4.029   2.623   3.274
    1C        C  182   4.198   2.749   3.399
    1C        C  183   4.088   2.660   3.397
    1C        C  184   4.250   2.800   3.520
    1C        C  185   4.195   2.756   3.643
    1C        C  186   4.340   2.913   3.764
    1C        C  187   4.249   2.805   3.764
    1C        C  188   4.377   2.977   3.884
    1C        C  189   4.340   2.919   4.008
    1C        C  190   4.441   3.107   4.128
    1C        C  191   4.380   2.980   4.130
    1C        C  192   4.470   3.175   4.248
    1C        C  193   4.443   3.108   4.369
    1C        C  194   4.505   3.312   4.492
    1C        C  195   4.467   3.176   4.491
    1C        C  196   4.520   3.383   4.614
    1C        C  197   4.502   3.318   4.738
    1C        C  198   4.551   3.534   4.854
    1C        C  199   4.531   3.392   4.856
    1C        C  200   4.584   3.620   4.963
    1C        C  201   3.613   2.416   2.077
    1C        C  202   3.829   2.510   2.183
    1C        C  203   3.692   2.468   2.184
    1C        C  204   3.900   2.539   2.303
    1C        C  205   3.829   2.523   2.424
    1C        C  206   4.023   2.617   2.543
    1C        C  207   3.896   2.554   2.544
    1C        C  208   4.085   2.658   2.664
    1C        C  209   4.022   2.626   2.786
    1C        C  210   4.193   2.750   2.907
    1C        C  211   4.084   2.661   2.908
    1C        C  212   4.251   2.794   3.028
    1C        C  213   4.203   2.745   3.152
    1C        C  214   4.340   2.904   3.274
    1C        C  215   4.252   2.793   3.276
    1C        C  216   4.373   2.968   3.395
    1C        C  217   4.339   2.910   3.519
    1C        C  218   4.441   3.097   3.638
    1C        C  219   4.379   2.970   3.640
    1C        C  220   4.461   3.169   3.758
    1C        C  221   4.438   3.105   3.881
    1C        C  222   4.505   3.305   4.006
    1C        C  223   4.469   3.168   4.003
    1C        C  224   4.512   3.381   4.125
    1C        C  225   4.505   3.312   4.248
    1C        C  226   4.518   3.523   4.368
    1C        C  227   4.515   3.382   4.370
    1C        C  228   4.512   3.593   4.490
    1C        C  229   4.528   3.524   4.613
    1C        C  230   4.495   3.738   4.727
    1C        C  231   4.535   3.602   4.730
    1C        C  232   4.498   3.818   4.843
    1C        C  233   4.547   3.755   4.958
    1C        C  234   4.011   2.620   2.061
    1C        C  235   3.901   2.535   2.066
    1C        C  236   4.082   2.651   2.178
    1C        C  237   4.026   2.604   2.300
    1C        C  238   4.196   2.737   2.422
    1C        C  239   4.085   2.648   2.420
    1C        C  240   4.252   2.788   2.541
    1C        C  241   4.196   2.745   2.663
    1C        C  242   4.338   2.904   2.783
    1C        C  243   4.247   2.796   2.785
    1C        C  244   4.380   2.959   2.907
    1C        C  245   4.344   2.900   3.030
    1C        C  246   4.431   3.094   3.148
    1C        C  247   4.375   2.965   3.151
    1C        C  248   4.453   3.161   3.271
    1C        C  249   4.429   3.097   3.395
    1C        C  250   4.489   3.303   3.517
    1C        C  251   4.460   3.164   3.515
    1C        C  252   4.511   3.374   3.637
    1C        C  253   4.502   3.305   3.760
    1C        C  254   4.514   3.515   3.876
    1C        C  255   4.512   3.374   3.883
    1C        C  256   4.509   3.588   3.996
    1C        C  257   4.513   3.523   4.122
    1C        C  258   4.493   3.732   4.245
    1C        C  259   4.512   3.592   4.245
    1C        C  260   4.469   3.802   4.365
    1C        C  261   4.486   3.732   4.486
    1C        C  262   4.427   3.940   4.603
    1C        C  263   4.470   3.805   4.605
    1C        C  264   4.399   4.008   4.724
    1C        C  265   4.433   3.943   4.845
    1C        C  266   4.323   4.132   4.961
    1C        C  267   4.395   4.014   4.960
    1C        C  268   4.263   2.777   2.064
    1C        C  269   4.196   2.734   2.179
    1C        C  270   4.343   2.890   2.300
    1C        C  271   4.249   2.784   2.300
    1C        C  272   4.386   2.953   2.419
    1C        C  273   4.346   2.894   2.541
    1C        C  274   4.454   3.081   2.662
    1C        C  275   4.383   2.960   2.661
    1C        C  276   4.480   3.149   2.784
    1C        C  277   4.447   3.083   2.904
    1C        C  278   4.500   3.291   3.024
    1C        C  279   4.465   3.154   3.025
    1C        C  280   4.507   3.362   3.146
    1C        C  281   4.495   3.296   3.271
    1C        C  282   4.511   3.509   3.391
    1C        C  283   4.502   3.368   3.392
    1C        C  284   4.512   3.584   3.511
    1C        C  285   4.516   3.515   3.634
    1C        C  286   4.489   3.727   3.753
    1C        C  287   4.512   3.588   3.755
    1C        C  288   4.470   3.793   3.877
    1C        C  289   4.488   3.727   4.000
    1C        C  290   4.431   3.933   4.117
    1C        C  291   4.476   3.799   4.122
    1C        C  292   4.396   3.999   4.236
    1C        C  293   4.423   3.936   4.359
    1C        C  294   4.327   4.126   4.481
    1C        C  295   4.401   4.005   4.480
    1C        C  296   4.284   4.186   4.602
    1C        C  297   4.323   4.128   4.725
    1C        C  298   4.199   4.312   4.838
    1C        C  299   4.280   4.195   4.843
    1C        C  300   4.174   4.408   4.941
    1C        C  301   4.351   2.885   2.064
    1C        C  302   4.467   3.071   2.177
    1C        C  303   4.396   2.947   2.181
    1C        C  304   4.477   3.145   2.298
    1C        C  305   4.448   3.080   2.420
    1C        C  306   4.508   3.286   2.538
    1C        C  307   4.477   3.148   2.540
    1C        C  308   4.520   3.357   2.659
    1C        C  309   4.507   3.288   2.781
    1C        C  310   4.516   3.502   2.899
    1C        C  311   4.513   3.361   2.902
    1C        C  312   4.514   3.574   3.021
    1C        C  313   4.515   3.503   3.143
    1C        C  314   4.484   3.713   3.265
    1C        C  315   4.510   3.574   3.266
    1C        C  316   4.474   3.789   3.384
    1C        C  317   4.493   3.724   3.508
    1C        C  318   4.427   3.927   3.629
    1C        C  319   4.476   3.794   3.629
    1C        C  320   4.394   3.991   3.751
    1C        C  321   4.418   3.925   3.873
    1C        C  322   4.314   4.110   3.992
    1C        C  323   4.390   3.991   3.995
    1C        C  324   4.279   4.173   4.114
    1C        C  325   4.323   4.121   4.238
    1C        C  326   4.182   4.279   4.353
    1C        C  327   4.285   4.182   4.359
    1C        C  328   4.132   4.332   4.474
    1C        C  329   4.190   4.291   4.596
    1C        C  330   4.028   4.438   4.713
    1C        C  331   4.140   4.350   4.714
    1C        C  332   3.971   4.490   4.831
    1C        C  333   4.054   4.480   4.943
    1C        C  334   4.555   3.267   2.066
    1C        C  335   4.539   3.127   2.066
    1C        C  336   4.540   3.350   2.178
    1C        C  337   4.520   3.280   2.298
    1C        C  338   4.532   3.498   2.414
    1C        C  339   4.524   3.357   2.417
    1C        C  340   4.526   3.572   2.534
    1C        C  341   4.524   3.499   2.655
    1C        C  342   4.489   3.710   2.774
    1C        C  343   4.516   3.571   2.776
    1C        C  344   4.474   3.779   2.896
    1C        C  345   4.486   3.712   3.020
    1C        C  346   4.425   3.915   3.136
    1C        C  347   4.467   3.781   3.142
    1C        C  348   4.392   3.980   3.257
    1C        C  349   4.422   3.920   3.381
    1C        C  350   4.321   4.104   3.502
    1C        C  351   4.398   3.986   3.504
    1C        C  352   4.280   4.165   3.622
    1C        C  353   4.321   4.112   3.746
    1C        C  354   4.179   4.270   3.864
    1C        C  355   4.275   4.166   3.868
    1C        C  356   4.125   4.318   3.986
    1C        C  357   4.176   4.270   4.108
    1C        C  358   4.014   4.406   4.230
    1C        C  359   4.129   4.324   4.230
    1C        C  360   3.957   4.451   4.351
    1C        C  361   4.021   4.419   4.473
    1C        C  362   3.830   4.518   4.591
    1C        C  363   3.962   4.467   4.592
    1C        C  364   3.763   4.548   4.711
    1C        C  365   3.841   4.545   4.829
    1C        C  366   3.629   4.586   4.948
    1C        C  367   3.767   4.570   4.945
    1C        C  368   4.511   3.564   2.054
    1C        C  369   4.530   3.491   2.172
    1C        C  370   4.501   3.706   2.284
    1C        C  371   4.519   3.566   2.291
    1C        C  372   4.482   3.776   2.406
    1C        C  373   4.498   3.711   2.530
    1C        C  374   4.425   3.910   2.647
    1C        C  375   4.474   3.778   2.652
    1C        C  376   4.392   3.972   2.770
    1C        C  377   4.430   3.913   2.893
    1C        C  378   4.323   4.099   3.011
    1C        C  379   4.400   3.981   3.013
    1C        C  380   4.273   4.153   3.132
    1C        C  381   4.314   4.098   3.256
    1C        C  382   4.178   4.258   3.376
    1C        C  383   4.275   4.156   3.378
    1C        C  384   4.125   4.308   3.497
    1C        C  385   4.182   4.267   3.620
    1C        C  386   4.008   4.392   3.744
    1C        C  387   4.125   4.313   3.741
    1C        C  388   3.946   4.431   3.865
    1C        C  389   4.008   4.397   3.987
    1C        C  390   3.819   4.491   4.108
    1C        C  391   3.950   4.440   4.108
    1C        C  392   3.753   4.513   4.231
    1C        C  393   3.826   4.503   4.352
    1C        C  394   3.618   4.554   4.473
    1C        C  395   3.758   4.536   4.471
    1C        C  396   3.547   4.567   4.595
    1C        C  397   3.623   4.566   4.714
    1C        C  398   3.410   4.553   4.840
    1C        C  399   3.549   4.576   4.834
    1C        C  400   3.342   4.522   4.959
    1C        C  401   4.501   3.703   2.049
    1C        C  402   4.447   3.915   2.163
    1C        C  403   4.494   3.782   2.165
    1C        C  404   4.410   3.977   2.284
    1C        C  405   4.427   3.906   2.405
    1C        C  406   4.321   4.094   2.522
    1C        C  407   4.398   3.976   2.525
    1C        C  408   4.279   4.149   2.645
    1C        C  409   4.318   4.092   2.768
    1C        C  410   4.174   4.251   2.888
    1C        C  411   4.273   4.150   2.889
    1C        C  412   4.124   4.300   3.010
    1C        C  413   4.174   4.254   3.134
    1C        C  414   4.003   4.379   3.250
    1C        C  415   4.126   4.309   3.255
    1C        C  416   3.944   4.411   3.375
    1C        C  417   4.006   4.384   3.499
    1C        C  418   3.813   4.472   3.618
    1C        C  419   3.943   4.417   3.621
    1C        C  420   3.749   4.504   3.740
    1C        C  421   3.817   4.487   3.863
    1C        C  422   3.611   4.537   3.987
    1C        C  423   3.750   4.510   3.986
    1C        C  424   3.542   4.546   4.110
    1C        C  425   3.615   4.542   4.230
    1C        C  426   3.403   4.548   4.356
    1C        C  427   3.545   4.551   4.352
    1C        C  428   3.335   4.536   4.479
    1C        C  429   3.406   4.553   4.600
    1C        C  430   3.194   4.519   4.723
    1C        C  431   3.334   4.548   4.721
    1C        C  432   3.125   4.495   4.844
    1C        C  433   3.206   4.494   4.959
    1C        C  434   4.384   4.124   2.048
    1C        C  435   4.439   3.996   2.049
    1C        C  436   4.306   4.167   2.161
    1C        C  437   4.338   4.100   2.282
    1C        C  438   4.186   4.255   2.401
    1C        C  439   4.282   4.152   2.400
    1C        C  440   4.131   4.301   2.523
    1C        C  441   4.183   4.254   2.645
    1C        C  442   4.002   4.371   2.764
    1C        C  443   4.123   4.297   2.765
    1C        C  444   3.942   4.411   2.885
    1C        C  445   4.006   4.379   3.006
    1C        C  446   3.810   4.463   3.129
    1C        C  447   3.942   4.413   3.128
    1C        C  448   3.747   4.489   3.253
    1C        C  449   3.815   4.468   3.376
    1C        C  450   3.607   4.524   3.495
    1C        C  451   3.745   4.492   3.496
    1C        C  452   3.543   4.537   3.621
    1C        C  453   3.611   4.530   3.745
    1C        C  454   3.398   4.539   3.865
    1C        C  455   3.539   4.545   3.866
    1C        C  456   3.332   4.530   3.990
    1C        C  457   3.401   4.537   4.113
    1C        C  458   3.193   4.503   4.236
    1C        C  459   3.331   4.532   4.236
    1C        C  460   3.125   4.490   4.359
    1C        C  461   3.196   4.515   4.479
    1C        C  462   3.002   4.429   4.604
    1C        C  463   3.128   4.493   4.601
    1C        C  464   2.931   4.404   4.723
    1C        C  465   2.990   4.446   4.846
    1C        C  466   2.800   4.338   4.960
    1C        C  467   2.907   4.428   4.961
    1C        C  468   4.129   4.288   2.040
    1C        C  469   4.192   4.254   2.161
    1C        C  470   4.007   4.373   2.278
    1C        C  471   4.128   4.298   2.279
    1C        C  472   3.943   4.404   2.400
    1C        C  473   4.011   4.375   2.521
    1C        C  474   3.811   4.457   2.640
    1C        C  475   3.943   4.406   2.640
    1C        C  476   3.745   4.486   2.762
    1C        C  477   3.812   4.467   2.885
    1C        C  478   3.606   4.516   3.010
    1C        C  479   3.744   4.490   3.007
    1C        C  480   3.536   4.529   3.132
    1C        C  481   3.609   4.516   3.253
    1C        C  482   3.395   4.530   3.378
    1C        C  483   3.536   4.528   3.373
    1C        C  484   3.327   4.527   3.502
    1C        C  485   3.402   4.538   3.622
    1C        C  486   3.190   4.502   3.743
    1C        C  487   3.329   4.531   3.743
    1C        C  488   3.129   4.474   3.867
    1C        C  489   3.195   4.494   3.990
    1C        C  490   3.005   4.407   4.115
    1C        C  491   3.129   4.474   4.114
    1C        C  492   2.945   4.376   4.239
    1C        C  493   3.004   4.418   4.360
    1C        C  494   2.833   4.296   4.485
    1C        C  495   2.942   4.386   4.483
    1C        C  496   2.777   4.252   4.608
    1C        C  497   2.819   4.317   4.726
    1C        C  498   2.664   4.166   4.844
    1C        C  499   2.755   4.274   4.844
    1C        C  500   2.598   4.116   4.957
    1C        C  501   4.005   4.351   2.040
    1C        C  502   3.817   4.465   2.155
    1C        C  503   3.944   4.404   2.155
    1C        C  504   3.744   4.480   2.276
    1C        C  505   3.813   4.459   2.397
    1C        C  506   3.606   4.514   2.519
    1C        C  507   3.742   4.475   2.518
    1C        C  508   3.535   4.513   2.641
    1C        C  509   3.606   4.507   2.763
    1C        C  510   3.396   4.520   2.886
    1C        C  511   3.537   4.518   2.886
    1C        C  512   3.325   4.522   3.009
    1C        C  513   3.395   4.529   3.131
    1C        C  514   3.189   4.492   3.252
    1C        C  515   3.326   4.525   3.255
    1C        C  516   3.126   4.464   3.375
    1C        C  517   3.191   4.492   3.497
    1C        C  518   3.000   4.409   3.624
    1C        C  519   3.125   4.476   3.621
    1C        C  520   2.942   4.372   3.748
    1C        C  521   3.003   4.409   3.870
    1C        C  522   2.837   4.281   3.995
    1C        C  523   2.942   4.375   3.992
    1C        C  524   2.788   4.234   4.118
    1C        C  525   2.832   4.290   4.240
    1C        C  526   2.699   4.131   4.365
    1C        C  527   2.782   4.245   4.364
    1C        C  528   2.656   4.074   4.487
    1C        C  529   2.688   4.143   4.606
    1C        C  530   2.580   3.961   4.731
    1C        C  531   2.638   4.091   4.727
    1C        C  532   2.543   3.902   4.855
    1C        C  533   2.528   3.995   4.963
    1C        C  534   3.617   4.557   2.037
    1C        C  535   3.748   4.506   2.040
    1C        C  536   3.537   4.530   2.152
    1C        C  537   3.604   4.507   2.275
    1C        C  538   3.395   4.515   2.401
    1C        C  539   3.536   4.523   2.397
    1C        C  540   3.322   4.512   2.522
    1C        C  541   3.394   4.517   2.643
    1C        C  542   3.185   4.482   2.763
    1C        C  543   3.323   4.513   2.765
    1C        C  544   3.120   4.467   2.887
    1C        C  545   3.188   4.489   3.009
    1C        C  546   2.995   4.401   3.134
    1C        C  547   3.119   4.468   3.131
    1C        C  548   2.938   4.365   3.258
    1C        C  549   2.999   4.402   3.380
    1C        C  550   2.833   4.274   3.505
    1C        C  551   2.940   4.366   3.504
    1C        C  552   2.783   4.227   3.629
    1C        C  553   2.832   4.283   3.749
    1C        C  554   2.701   4.119   3.875
    1C        C  555   2.788   4.230   3.872
    1C        C  556   2.660   4.063   3.998
    1C        C  557   2.699   4.124   4.119
    1C        C  558   2.598   3.943   4.247
    1C        C  559   2.661   4.069   4.244
    1C        C  560   2.564   3.880   4.369
    1C        C  561   2.589   3.950   4.489
    1C        C  562   2.532   3.749   4.615
    1C        C  563   2.560   3.888   4.612
    1C        C  564   2.521   3.680   4.738
    1C        C  565   2.519   3.760   4.855
    1C        C  566   2.526   3.549   4.977
    1C        C  567   2.523   3.688   4.975
    1C        C  568   3.322   4.482   2.040
    1C        C  569   3.396   4.507   2.156
    1C        C  570   3.186   4.475   2.277
    1C        C  571   3.324   4.509   2.279
    1C        C  572   3.115   4.458   2.398
    1C        C  573   3.183   4.484   2.519
    1C        C  574   2.989   4.404   2.648
    1C        C  575   3.114   4.468   2.642
    1C        C  576   2.930   4.364   2.770
    1C        C  577   2.993   4.405   2.890
    1C        C  578   2.826   4.272   3.013
    1C        C  579   2.936   4.360   3.012
    1C        C  580   2.778   4.222   3.137
    1C        C  581   2.831   4.273   3.257
    1C        C  582   2.704   4.109   3.383
    1C        C  583   2.785   4.225   3.382
    1C        C  584   2.665   4.054   3.507
    1C        C  585   2.697   4.115   3.630
    1C        C  586   2.593   3.934   3.755
    1C        C  587   2.659   4.059   3.754
    1C        C  588   2.567   3.871   3.879
    1C        C  589   2.598   3.936   4.001
    1C        C  590   2.545   3.735   4.125
    1C        C  591   2.579   3.872   4.126
    1C        C  592   2.531   3.671   4.250
    1C        C  593   2.533   3.742   4.372
    1C        C  594   2.511   3.535   4.497
    1C        C  595   2.515   3.677   4.495
    1C        C  596   2.519   3.464   4.618
    1C        C  597   2.517   3.538   4.739
    1C        C  598   2.538   3.329   4.863
    1C        C  599   2.528   3.469   4.862
    1C        C  600   2.535   3.254   4.981
    1C        C  601   3.192   4.437   2.039
    1C        C  602   2.985   4.385   2.160
    1C        C  603   3.118   4.437   2.158
    1C        C  604   2.925   4.357   2.286
    1C        C  605   2.987   4.399   2.405
    1C        C  606   2.819   4.272   2.528
    1C        C  607   2.929   4.360   2.528
    1C        C  608   2.772   4.219   2.651
    1C        C  609   2.825   4.269   2.772
    1C        C  610   2.684   4.109   2.895
    1C        C  611   2.774   4.219   2.893
    1C        C  612   2.652   4.050   3.020
    1C        C  613   2.690   4.112   3.141
    1C        C  614   2.586   3.928   3.266
    1C        C  615   2.655   4.051   3.264
    1C        C  616   2.567   3.864   3.390
    1C        C  617   2.601   3.928   3.511
    1C        C  618   2.532   3.729   3.639
    1C        C  619   2.569   3.865   3.634
    1C        C  620   2.522   3.661   3.763
    1C        C  621   2.531   3.735   3.883
    1C        C  622   2.509   3.523   4.010
    1C        C  623   2.527   3.663   4.005
    1C        C  624   2.511   3.456   4.134
    1C        C  625   2.515   3.530   4.255
    1C        C  626   2.533   3.320   4.378
    1C        C  627   2.514   3.460   4.377
    1C        C  628   2.555   3.251   4.499
    1C        C  629   2.546   3.325   4.619
    1C        C  630   2.599   3.122   4.743
    1C        C  631   2.555   3.257   4.742
    1C        C  632   2.619   3.053   4.865
    1C        C  633   2.564   3.117   4.980
    1C        C  634   2.777   4.308   2.060
    1C        C  635   2.889   4.392   2.053
    1C        C  636   2.745   4.229   2.171
    1C        C  637   2.811   4.273   2.288
    1C        C  638   2.677   4.106   2.411
    1C        C  639   2.765   4.217   2.410
    1C        C  640   2.638   4.047   2.533
    1C        C  641   2.685   4.108   2.652
    1C        C  642   2.591   3.918   2.776
    1C        C  643   2.648   4.047   2.774
    1C        C  644   2.567   3.853   2.899
    1C        C  645   2.592   3.922   3.020
    1C        C  646   2.528   3.724   3.149
    1C        C  647   2.561   3.861   3.143
    1C        C  648   2.512   3.655   3.272
    1C        C  649   2.528   3.728   3.392
    1C        C  650   2.510   3.520   3.519
    1C        C  651   2.518   3.661   3.516
    1C        C  652   2.515   3.452   3.642
    1C        C  653   2.514   3.520   3.766
    1C        C  654   2.531   3.311   3.887
    1C        C  655   2.508   3.450   3.889
    1C        C  656   2.543   3.245   4.011
    1C        C  657   2.531   3.317   4.133
    1C        C  658   2.606   3.121   4.258
    1C        C  659   2.552   3.251   4.256
    1C        C  660   2.635   3.056   4.380
    1C        C  661   2.599   3.117   4.503
    1C        C  662   2.707   2.933   4.626
    1C        C  663   2.631   3.052   4.624
    1C        C  664   2.748   2.875   4.748
    1C        C  665   2.695   2.931   4.867
    1C        C  666   2.744   2.870   4.983
    1C        C  667   2.688   4.022   2.054
    1C        C  668   2.683   4.102   2.168
    1C        C  669   2.588   3.911   2.289
    1C        C  670   2.644   4.042   2.290
    1C        C  671   2.560   3.847   2.412
    1C        C  672   2.584   3.916   2.533
    1C        C  673   2.508   3.720   2.659
    1C        C  674   2.554   3.853   2.656
    1C        C  675   2.510   3.649   2.782
    1C        C  676   2.529   3.717   2.904
    1C        C  677   2.509   3.510   3.032
    1C        C  678   2.516   3.651   3.028
    1C        C  679   2.503   3.440   3.155
    1C        C  680   2.511   3.514   3.275
    1C        C  681   2.526   3.305   3.401
    1C        C  682   2.516   3.446   3.398
    1C        C  683   2.550   3.240   3.524
    1C        C  684   2.535   3.313   3.644
    1C        C  685   2.607   3.112   3.772
    1C        C  686   2.553   3.242   3.765
    1C        C  687   2.637   3.050   3.896
    1C        C  688   2.599   3.116   4.016
    1C        C  689   2.712   2.935   4.139
    1C        C  690   2.637   3.055   4.137
    1C        C  691   2.754   2.878   4.262
    1C        C  692   2.710   2.936   4.383
    1C        C  693   2.754   2.879   4.504
    1C        C  694   2.629   3.895   2.056
    1C        C  695   2.529   3.702   2.177
    1C        C  696   2.579   3.834   2.172
    1C        C  697   2.509   3.636   2.301
    1C        C  698   2.523   3.711   2.419
    1C        C  699   2.479   3.503   2.545
    1C        C  700   2.497   3.644   2.541
    1C        C  701   2.501   3.435   2.667
    1C        C  702   2.505   3.508   2.788
    1C        C  703   2.528   3.298   2.913
    1C        C  704   2.511   3.438   2.910
    1C        C  705   2.552   3.232   3.035
    1C        C  706   2.532   3.302   3.156
    1C        C  707   2.599   3.104   3.280
    1C        C  708   2.545   3.235   3.280
    1C        C  709   2.630   3.044   3.404
    1C        C  710   2.602   3.109   3.526
    1C        C  711   2.714   2.931   3.648
    1C        C  712   2.636   3.049   3.649
    1C        C  713   2.759   2.880   3.771
    1C        C  714   2.715   2.933   3.895
    1C        C  715   2.755   2.877   4.018
    1C        C  716   2.455   3.499   2.061
    1C        C  717   2.494   3.634   2.060
    1C        C  718   2.461   3.423   2.182
    1C        C  719   2.483   3.496   2.302
    1C        C  720   2.512   3.290   2.425
    1C        C  721   2.484   3.428   2.425
    1C        C  722   2.531   3.223   2.547
    1C        C  723   2.524   3.296   2.668
    1C        C  724   2.593   3.097   2.789
    1C        C  725   2.540   3.228   2.791
    1C        C  726   2.623   3.034   2.912
    1C        C  727   2.596   3.097   3.036
    1C        C  728   2.706   2.919   3.157
    1C        C  729   2.628   3.036   3.159
    1C        C  730   2.752   2.871   3.282
    1C        C  731   2.709   2.926   3.404
    1C        C  732   2.759   2.875   3.526
    1C        C  733   2.488   3.196   2.072
    1C        C  734   2.487   3.282   2.182
    1C        C  735   2.584   3.090   2.303
    1C        C  736   2.520   3.217   2.304
    1C        C  737   2.615   3.025   2.424
    1C        C  738   2.583   3.091   2.545
    1C        C  739   2.694   2.911   2.670
    1C        C  740   2.618   3.030   2.667
    1C        C  741   2.740   2.856   2.792
    1C        C  742   2.699   2.915   2.913
    1C        C  743   2.746   2.860   3.035
    1C        C  744   2.541   3.067   2.074
    1C        C  745   2.684   2.896   2.186
    1C        C  746   2.608   3.015   2.186
    1C        C  747   2.727   2.839   2.308
    1C        C  748   2.690   2.905   2.427
    1C        C  749   2.738   2.853   2.549
    1C        C  750   2.733   2.836   2.069
    1C        C  751   3.659   2.296   2.004
    1C        O  752   3.643   2.184   2.061
    1C        O  753   3.643   2.281   1.866
    1C        C  754   4.639   3.060   1.980
    1C        O  755   4.613   3.037   1.859
    1C        O  756   4.724   2.958   2.022
    1C        C  757   4.408   4.217   1.936
    1C        O  758   4.489   4.312   1.954
    1C        O  759   4.383   4.178   1.804
    1C        C  760   3.577   4.667   1.947
    1C        O  761   3.540   4.781   1.985
    1C        O  762   3.578   4.662   1.807
    1C        C  763   2.869   4.525   1.992
    1C        O  764   2.896   4.552   1.871
    1C        O  765   2.780   4.618   2.047
    1C        C  766   2.373   3.466   1.942
    1C        O  767   2.428   3.433   1.834
    1C        O  768   2.237   3.431   1.948
    1C        C  769   4.693   3.582   5.056
    1C        O  770   4.662   3.605   5.176
    1C        O  771   4.823   3.600   5.005
    1C        C  772   4.284   4.479   5.011
    1C        O  773   4.310   4.440   5.128
    1C        O  774   4.322   4.606   4.967
    1C        C  775   4.141   2.504   5.066
    1C        O  776   4.184   2.386   5.055
    1C        O  777   4.143   2.538   5.202
    1C        C  778   2.886   4.550   5.043
    1C        O  779   2.793   4.633   5.027
    1C        O  780   2.914   4.557   5.180
    1C        C  781   2.460   3.042   5.056
    1C        O  782   2.352   3.014   4.997
    1C        O  783   2.475   3.013   5.191
    1C        C  784   2.393   4.008   5.022
    1C        O  785   2.305   4.078   4.963
    1C        O  786   2.351   3.950   5.143
    1C        C  787   2.938   2.429   2.006
    1C        O  788   2.914   2.444   1.883
    1C        O  789   2.858   2.331   2.063
    1C        C  790   3.195   2.380   5.073
    1C        O  791   3.204   2.262   5.030
    1C        O  792   3.145   2.384   5.204
    1C        H  793   4.265   3.034   5.048
    1C        H  794   4.145   2.828   5.057
    1C        H  795   4.515   3.118   5.051
    1C        H  796   4.531   3.359   5.070
    1C        H  797   4.520   3.794   5.054
    1C        H  798   4.458   4.003   5.046
    1C        H  799   4.345   4.201   5.040
    1C        H  800   4.013   4.514   5.036
    1C        H  801   3.816   4.575   5.040
    1C        H  802   3.596   4.643   5.033
    1C        H  803   3.385   4.564   5.047
    1C        H  804   3.175   4.431   5.039
    1C        H  805   3.880   2.499   5.069
    1C        H  806   3.678   2.493   5.078
    1C        H  807   3.001   2.555   5.065
    1C        H  808   3.438   2.484   5.073
    1C        H  809   2.855   2.724   5.078
    1C        H  810   2.751   2.933   5.070
    1C        H  811   2.484   3.287   5.070
    1C        H  812   2.567   3.505   5.065
    1C        H  813   2.545   3.743   5.064
    1C        H  814   2.644   4.141   5.050
    1C        H  815   2.727   4.362   5.035
    1C        H  816   2.702   2.873   1.974
    1C        H  817   2.883   2.727   1.983
    1C        H  818   3.204   2.416   1.992
    1C        H  819   3.434   2.453   1.970
    1C        H  820   3.895   2.462   1.987
    1C        H  821   4.049   2.630   1.961
    1C        H  822   4.257   2.718   1.975
    1C        H  823   4.385   2.910   1.966
    1C        H  824   4.516   3.307   1.975
    1C        H  825   4.451   3.516   1.980
    1C        H  826   4.512   3.754   1.956
    1C        H  827   3.804   4.518   1.950
    1C        H  828   3.957   4.359   1.945
    1C        H  829   4.155   4.240   1.948
    1C        H  830   4.495   3.967   1.962
    1C        H  831   2.585   3.863   1.964
    1C        H  832   2.779   4.019   1.997
    1C        H  833   2.692   4.344   2.006
    1C        H  834   3.371   4.502   1.946
    1C        H  835   3.141   4.437   1.945
    1C        H  836   2.546   3.015   1.981
    1C        H  837   2.416   3.216   1.995
    1C        H  838   2.496   3.685   1.966
    2V3OU   H29  839   2.801   3.559   1.035
    2V3OU   C27  840   2.777   3.501   1.128
    2V3OU   H27  841   2.720   3.571   1.194
    2V3OU   H28  842   2.723   3.407   1.100
    2V3OU   O11  843   2.905   3.475   1.185
    2V3OU   C15  844   2.918   3.398   1.298
    2V3OU   C13  845   3.048   3.380   1.350
    2V3OU   C14  846   3.075   3.269   1.430
    2V3OU   C16  847   2.972   3.189   1.478
    2V3OU    H6  848   2.991   3.104   1.544
    2V3OU   C12  849   3.213   3.228   1.465
    2V3OU    O2  850   3.246   3.125   1.527
    2V3OU   C10  851   3.321   3.311   1.408
    2V3OU    C8  852   3.454   3.276   1.425
    2V3OU   O10  853   3.486   3.158   1.486
    2V3OU   H26  854   3.400   3.118   1.505
    2V3OU    C6  855   3.567   3.354   1.384
    2V3OU    C5  856   3.536   3.469   1.312
    2V3OU    C4  857   3.703   3.294   1.397
    2V3OU    H4  858   3.719   3.220   1.481
    2V3OU    H5  859   3.712   3.230   1.304
    2V3OU    C2  860   3.816   3.396   1.385
    2V3OU    O6  861   3.802   3.467   1.509
    2V3OU   H21  862   3.763   3.554   1.489
    2V3OU    C3  863   3.782   3.495   1.274
    2V3OU    H2  864   3.864   3.571   1.265
    2V3OU    H3  865   3.781   3.434   1.181
    2V3OU   C25  866   3.950   3.324   1.367
    2V3OU    O7  867   3.997   3.303   1.255
    2V3OU   C26  868   4.031   3.290   1.491
    2V3OU   H22  869   4.067   3.387   1.533
    2V3OU   H23  870   4.119   3.227   1.463
    2V3OU    O8  871   3.966   3.209   1.586
    2V3OU   H24  872   3.934   3.263   1.660
    2V3OU    C1  873   3.647   3.564   1.279
    2V3OU    H1  874   3.626   3.616   1.181
    2V3OU    O3  875   3.658   3.655   1.389
    2V3OU   C19  876   3.614   3.791   1.373
    2V3OU    H9  877   3.518   3.811   1.319
    2V3OU    O4  878   3.710   3.845   1.286
    2V3OU   C20  879   3.842   3.876   1.333
    2V3OU   H10  880   3.897   3.778   1.349
    2V3OU   C24  881   3.608   3.855   1.512
    2V3OU   H16  882   3.542   3.793   1.578
    2V3OU   H17  883   3.564   3.957   1.500
    2V3OU   C23  884   3.750   3.875   1.566
    2V3OU   H15  885   3.791   3.772   1.592
    2V3OU    N1  886   3.733   3.951   1.689
    2V3OU   H19  887   3.808   3.927   1.750
    2V3OU   H20  888   3.650   3.929   1.740
    2V3OU   C21  889   3.848   3.946   1.468
    2V3OU   H11  890   3.949   3.919   1.512
    2V3OU    O5  891   3.830   4.087   1.473
    2V3OU   H18  892   3.777   4.102   1.553
    2V3OU   C22  893   3.912   3.945   1.217
    2V3OU   H12  894   3.860   4.042   1.195
    2V3OU   H13  895   3.915   3.879   1.127
    2V3OU   H14  896   4.021   3.961   1.241
    2V3OU   C11  897   3.157   3.474   1.319
    2V3OU    O1  898   3.133   3.586   1.269
    2V3OU    C9  899   3.298   3.433   1.340
    2V3OU    C7  900   3.401   3.507   1.283
    2V3OU    O9  901   3.384   3.615   1.198
    2V3OU   H25  902   3.290   3.638   1.194
    2V3OU   C17  903   2.818   3.314   1.349
    2V3OU    H7  904   2.712   3.333   1.329
    2V3OU   C18  905   2.840   3.210   1.439
    2V3OU    H8  906   2.756   3.152   1.480
    3SOL     OW  907   0.563   3.893   0.474
    3SOL    HW1  908   0.466   3.867   0.464
    3SOL    HW2  909   0.569   3.987   0.507
    4SOL     OW  910   5.413   1.005   2.296
    4SOL    HW1  911   5.441   1.081   2.354
    4SOL    HW2  912   5.454   0.921   2.329
    5SOL     OW  913   3.653   2.988   1.232
    5SOL    HW1  914   3.721   3.004   1.304
    5SOL    HW2  915   3.570   2.951   1.273
    6SOL     OW  916   2.690   2.453   0.554
    6SOL    HW1  917   2.614   2.514   0.530
    6SOL    HW2  918   2.776   2.502   0.544
    7SOL     OW  919   6.069   0.981   1.483
    7SOL    HW1  920   5.982   1.021   1.454
    7SOL    HW2  921   6.123   0.958   1.403
    8SOL     OW  922   3.134   1.841   3.494
    8SOL    HW1  923   3.066   1.770   3.514
    8SOL    HW2  924   3.198   1.808   3.425
    9SOL     OW  925   0.276   4.108   5.784
    9SOL    HW1  926   0.372   4.091   5.805
    9SOL    HW2  927   0.227   4.133   5.868
   10SOL     OW  928   0.569   4.216   0.627
   10SOL    HW1  929   0.567   4.168   0.715
   10SOL    HW2  930   0.659   4.259   0.615
   11SOL     OW  931   4.149   6.657   6.794
   11SOL    HW1  932   4.177   6.567   6.761
   11SOL    HW2  933   4.050   6.665   6.788
   12SOL     OW  934   5.656   6.341   2.323
   12SOL    HW1  935   5.747   6.349   2.363
   12SOL    HW2  936   5.596   6.290   2.384
   13SOL     OW  937   1.589   0.110   3.414
   13SOL    HW1  938   1.677   0.063   3.413
   13SOL    HW2  939   1.603   0.209   3.405
   14SOL     OW  940   2.995   0.296   2.753
   14SOL    HW1  941   3.061   0.304   2.678
   14SOL    HW2  942   3.042   0.262   2.834
   15SOL     OW  943   2.718   6.759   6.362
   15SOL    HW1  944   2.644   6.717   6.414
   15SOL    HW2  945   2.763   6.690   6.306
   16SOL     OW  946   6.532   1.714   6.674
   16SOL    HW1  947   6.601   1.740   6.741
   16SOL    HW2  948   6.467   1.789   6.662
   17SOL     OW  949   4.538   6.268   3.025
   17SOL    HW1  950   4.464   6.333   3.041
   17SOL    HW2  951   4.585   6.249   3.111
   18SOL     OW  952   1.435   1.347   0.317
   18SOL    HW1  953   1.482   1.307   0.239
   18SOL    HW2  954   1.471   1.309   0.402
   19SOL     OW  955   0.904   6.989   1.570
   19SOL    HW1  956   0.970   6.938   1.625
   19SOL    HW2  957   0.930   6.985   1.473
   20SOL     OW  958   3.412   0.681   4.208
   20SOL    HW1  959   3.452   0.592   4.229
   20SOL    HW2  960   3.484   0.746   4.185
   21SOL     OW  961   2.938   2.890   1.660
   21SOL    HW1  962   2.954   2.804   1.708
   21SOL    HW2  963   2.840   2.913   1.663
   22SOL     OW  964   1.013   1.214   5.179
   22SOL    HW1  965   0.934   1.219   5.119
   22SOL    HW2  966   1.048   1.120   5.181
   23SOL     OW  967   3.229   5.747   4.596
   23SOL    HW1  968   3.155   5.727   4.659
   23SOL    HW2  969   3.252   5.844   4.600
   24SOL     OW  970   4.048   1.228   4.756
   24SOL    HW1  971   4.034   1.315   4.709
   24SOL    HW2  972   4.121   1.237   4.824
   25SOL     OW  973   2.607   5.059   1.224
   25SOL    HW1  974   2.622   4.968   1.186
   25SOL    HW2  975   2.590   5.052   1.322
   26SOL     OW  976   5.913   1.030   3.118
   26SOL    HW1  977   5.940   1.126   3.127
   26SOL    HW2  978   5.974   0.984   3.054
   27SOL     OW  979   6.138   6.802   2.095
   27SOL    HW1  980   6.200   6.857   2.040
   27SOL    HW2  981   6.177   6.711   2.108
   28SOL     OW  982   3.182   0.295   0.832
   28SOL    HW1  983   3.185   0.320   0.735
   28SOL    HW2  984   3.274   0.298   0.870
   29SOL     OW  985   4.128   2.769   1.685
   29SOL    HW1  986   4.046   2.712   1.676
   29SOL    HW2  987   4.209   2.710   1.691
   30SOL     OW  988   4.218   1.222   4.977
   30SOL    HW1  989   4.243   1.143   5.033
   30SOL    HW2  990   4.268   1.303   5.010
   31SOL     OW  991   0.517   1.203   5.037
   31SOL    HW1  992   0.508   1.146   4.955
   31SOL    HW2  993   0.467   1.160   5.112
   32SOL     OW  994   0.049   1.637   1.810
   32SOL    HW1  995   0.095   1.549   1.798
   32SOL    HW2  996   6.980   1.622   1.847
   33SOL     OW  997   1.797   2.142   5.332
   33SOL    HW1  998   1.786   2.050   5.371
   33SOL    HW2  999   1.813   2.207   5.406
   34SOL     OW 1000   0.799   0.447   4.733
   34SOL    HW1 1001   0.713   0.396   4.742
   34SOL    HW2 1002   0.860   0.398   4.671
   35SOL     OW 1003   3.639   1.977   6.221
   35SOL    HW1 1004   3.708   1.996   6.291
   35SOL    HW2 1005   3.549   2.004   6.255
   36SOL     OW 1006   1.210   1.714   5.762
   36SOL    HW1 1007   1.188   1.621   5.732
   36SOL    HW2 1008   1.125   1.761   5.787
   37SOL     OW 1009   2.405   6.415   0.718
   37SOL    HW1 1010   2.466   6.346   0.679
   37SOL    HW2 1011   2.320   6.419   0.665
   38SOL     OW 1012   6.834   6.169   1.695
   38SOL    HW1 1013   6.744   6.197   1.661
   38SOL    HW2 1014   6.878   6.110   1.627
   39SOL     OW 1015   0.037   2.697   5.814
   39SOL    HW1 1016   0.132   2.721   5.790
   39SOL    HW2 1017   6.999   2.724   5.739
   40SOL     OW 1018   6.867   0.853   1.429
   40SOL    HW1 1019   6.899   0.785   1.494
   40SOL    HW2 1020   6.774   0.830   1.400
   41SOL     OW 1021   1.394   0.718   6.089
   41SOL    HW1 1022   1.451   0.684   6.015
   41SOL    HW2 1023   1.387   0.648   6.160
   42SOL     OW 1024   3.938   0.181   0.645
   42SOL    HW1 1025   4.003   0.125   0.696
   42SOL    HW2 1026   3.945   0.160   0.547
   43SOL     OW 1027   4.850   5.699   5.156
   43SOL    HW1 1028   4.796   5.661   5.080
   43SOL    HW2 1029   4.813   5.667   5.243
   44SOL     OW 1030   0.422   3.221   6.680
   44SOL    HW1 1031   0.357   3.292   6.653
   44SOL    HW2 1032   0.407   3.197   6.776
   45SOL     OW 1033   2.827   0.372   1.390
   45SOL    HW1 1034   2.805   0.442   1.459
   45SOL    HW2 1035   2.844   0.285   1.436
   46SOL     OW 1036   1.207   5.097   3.977
   46SOL    HW1 1037   1.137   5.132   4.039
   46SOL    HW2 1038   1.295   5.139   3.998
   47SOL     OW 1039   5.302   4.708   2.818
   47SOL    HW1 1040   5.244   4.785   2.843
   47SOL    HW2 1041   5.269   4.667   2.733
   48SOL     OW 1042   0.987   1.282   5.517
   48SOL    HW1 1043   0.951   1.243   5.432
   48SOL    HW2 1044   0.911   1.302   5.579
   49SOL     OW 1045   5.563   2.705   0.348
   49SOL    HW1 1046   5.556   2.779   0.414
   49SOL    HW2 1047   5.504   2.725   0.269
   50SOL     OW 1048   0.056   3.578   4.829
   50SOL    HW1 1049   0.060   3.567   4.730
   50SOL    HW2 1050   0.020   3.668   4.852
   51SOL     OW 1051   2.649   5.578   2.826
   51SOL    HW1 1052   2.734   5.597   2.776
   51SOL    HW2 1053   2.573   5.572   2.761
   52SOL     OW 1054   0.759   2.266   1.639
   52SOL    HW1 1055   0.826   2.287   1.568
   52SOL    HW2 1056   0.800   2.204   1.706
   53SOL     OW 1057   4.833   6.351   4.169
   53SOL    HW1 1058   4.922   6.326   4.208
   53SOL    HW2 1059   4.818   6.298   4.085
   54SOL     OW 1060   4.687   5.569   5.941
   54SOL    HW1 1061   4.766   5.594   5.997
   54SOL    HW2 1062   4.643   5.651   5.906
   55SOL     OW 1063   3.345   2.238   0.685
   55SOL    HW1 1064   3.259   2.216   0.640
   55SOL    HW2 1065   3.341   2.330   0.724
   56SOL     OW 1066   0.740   6.668   1.534
   56SOL    HW1 1067   0.755   6.767   1.540
   56SOL    HW2 1068   0.642   6.650   1.524
   57SOL     OW 1069   5.806   1.491   1.164
   57SOL    HW1 1070   5.801   1.510   1.066
   57SOL    HW2 1071   5.844   1.570   1.212
   58SOL     OW 1072   0.118   0.129   6.459
   58SOL    HW1 1073   0.192   0.128   6.527
   58SOL    HW2 1074   0.039   0.177   6.497
   59SOL     OW 1075   0.802   0.159   4.896
   59SOL    HW1 1076   0.827   0.066   4.919
   59SOL    HW2 1077   0.884   0.212   4.873
   60SOL     OW 1078   5.078   0.001   4.945
   60SOL    HW1 1079   5.101   6.930   4.918
   60SOL    HW2 1080   5.024   7.022   5.029
   61SOL     OW 1081   4.258   0.181   5.042
   61SOL    HW1 1082   4.230   0.176   5.138
   61SOL    HW2 1083   4.180   0.213   4.987
   62SOL     OW 1084   3.199   1.287   5.009
   62SOL    HW1 1085   3.143   1.207   5.032
   62SOL    HW2 1086   3.151   1.342   4.941
   63SOL     OW 1087   6.922   3.416   3.464
   63SOL    HW1 1088   6.950   3.466   3.545
   63SOL    HW2 1089   6.922   3.318   3.483
   64SOL     OW 1090   0.320   2.466   5.178
   64SOL    HW1 1091   0.347   2.522   5.100
   64SOL    HW2 1092   0.376   2.491   5.258
   65SOL     OW 1093   0.418   3.460   5.707
   65SOL    HW1 1094   0.496   3.476   5.768
   65SOL    HW2 1095   0.419   3.529   5.634
   66SOL     OW 1096   2.631   1.024   1.047
   66SOL    HW1 1097   2.542   0.993   1.080
   66SOL    HW2 1098   2.664   0.961   0.977
   67SOL     OW 1099   4.394   5.474   3.870
   67SOL    HW1 1100   4.389   5.408   3.945
   67SOL    HW2 1101   4.489   5.483   3.840
   68SOL     OW 1102   5.451   2.718   6.431
   68SOL    HW1 1103   5.535   2.765   6.457
   68SOL    HW2 1104   5.391   2.708   6.511
   69SOL     OW 1105   2.531   2.802   5.801
   69SOL    HW1 1106   2.570   2.736   5.737
   69SOL    HW2 1107   2.601   2.866   5.832
   70SOL     OW 1108   6.481   6.142   1.910
   70SOL    HW1 1109   6.397   6.127   1.963
   70SOL    HW2 1110   6.530   6.055   1.900
   71SOL     OW 1111   2.115   3.429   3.006
   71SOL    HW1 1112   2.118   3.478   2.919
   71SOL    HW2 1113   2.148   3.489   3.079
   72SOL     OW 1114   3.251   5.632   3.922
   72SOL    HW1 1115   3.284   5.697   3.989
   72SOL    HW2 1116   3.202   5.680   3.849
   73SOL     OW 1117   3.622   2.326   6.528
   73SOL    HW1 1118   3.546   2.391   6.523
   73SOL    HW2 1119   3.664   2.316   6.438
   74SOL     OW 1120   5.376   6.567   6.370
   74SOL    HW1 1121   5.425   6.509   6.304
   74SOL    HW2 1122   5.309   6.624   6.321
   75SOL     OW 1123   3.815   4.918   5.342
   75SOL    HW1 1124   3.726   4.883   5.313
   75SOL    HW2 1125   3.815   5.018   5.335
   76SOL     OW 1126   2.606   2.991   1.337
   76SOL    HW1 1127   2.663   2.915   1.368
   76SOL    HW2 1128   2.657   3.044   1.269
   77SOL     OW 1129   5.357   4.845   6.483
   77SOL    HW1 1130   5.448   4.810   6.458
   77SOL    HW2 1131   5.316   4.784   6.551
   78SOL     OW 1132   6.796   6.219   6.060
   78SOL    HW1 1133   6.746   6.194   5.977
   78SOL    HW2 1134   6.758   6.305   6.096
   79SOL     OW 1135   3.311   6.771   0.122
   79SOL    HW1 1136   3.355   6.858   0.142
   79SOL    HW2 1137   3.216   6.774   0.153
   80SOL     OW 1138   6.943   1.090   4.004
   80SOL    HW1 1139   6.963   1.187   3.995
   80SOL    HW2 1140   6.963   1.043   3.918
   81SOL     OW 1141   1.623   0.219   4.336
   81SOL    HW1 1142   1.651   0.123   4.341
   81SOL    HW2 1143   1.663   0.270   4.412
   82SOL     OW 1144   7.016   4.422   5.878
   82SOL    HW1 1145   0.048   4.479   5.816
   82SOL    HW2 1146   0.047   4.398   5.958
   83SOL     OW 1147   6.845   6.960   6.654
   83SOL    HW1 1148   6.886   6.921   6.572
   83SOL    HW2 1149   6.759   7.006   6.630
   84SOL     OW 1150   6.121   3.595   1.810
   84SOL    HW1 1151   6.102   3.685   1.772
   84SOL    HW2 1152   6.046   3.569   1.871
   85SOL     OW 1153   0.891   1.501   5.221
   85SOL    HW1 1154   0.955   1.576   5.203
   85SOL    HW2 1155   0.937   1.413   5.208
   86SOL     OW 1156   2.156   1.127   4.818
   86SOL    HW1 1157   2.125   1.078   4.737
   86SOL    HW2 1158   2.175   1.222   4.794
   87SOL     OW 1159   4.533   0.004   1.378
   87SOL    HW1 1160   4.518   0.069   1.452
   87SOL    HW2 1161   4.530   6.934   1.413
   88SOL     OW 1162   5.708   0.568   0.211
   88SOL    HW1 1163   5.697   0.565   0.310
   88SOL    HW2 1164   5.618   0.563   0.167
   89SOL     OW 1165   2.539   1.741   5.769
   89SOL    HW1 1166   2.475   1.737   5.692
   89SOL    HW2 1167   2.491   1.776   5.850
   90SOL     OW 1168   6.555   6.007   3.673
   90SOL    HW1 1169   6.565   5.982   3.576
   90SOL    HW2 1170   6.515   6.098   3.680
   91SOL     OW 1171   4.389   5.161   4.948
   91SOL    HW1 1172   4.450   5.094   4.908
   91SOL    HW2 1173   4.367   5.231   4.881
   92SOL     OW 1174   3.250   6.499   1.560
   92SOL    HW1 1175   3.203   6.461   1.480
   92SOL    HW2 1176   3.288   6.588   1.537
   93SOL     OW 1177   3.494   4.602   5.993
   93SOL    HW1 1178   3.560   4.534   6.023
   93SOL    HW2 1179   3.401   4.573   6.017
   94SOL     OW 1180   2.502   6.295   1.618
   94SOL    HW1 1181   2.510   6.378   1.675
   94SOL    HW2 1182   2.470   6.321   1.527
   95SOL     OW 1183   6.376   0.232   5.214
   95SOL    HW1 1184   6.465   0.264   5.245
   95SOL    HW2 1185   6.384   0.194   5.122
   96SOL     OW 1186   1.504   6.935   5.125
   96SOL    HW1 1187   1.547   6.853   5.088
   96SOL    HW2 1188   1.406   6.918   5.136
   97SOL     OW 1189   6.104   2.886   4.805
   97SOL    HW1 1190   6.072   2.815   4.868
   97SOL    HW2 1191   6.182   2.933   4.847
   98SOL     OW 1192   5.850   2.108   5.781
   98SOL    HW1 1193   5.897   2.088   5.866
   98SOL    HW2 1194   5.820   2.022   5.738
   99SOL     OW 1195   4.106   2.325   1.127
   99SOL    HW1 1196   4.018   2.372   1.122
   99SOL    HW2 1197   4.094   2.236   1.173
  100SOL     OW 1198   6.042   4.835   6.672
  100SOL    HW1 1199   6.130   4.876   6.647
  100SOL    HW2 1200   6.049   4.794   6.763
  101SOL     OW 1201   0.839   6.502   4.182
  101SOL    HW1 1202   0.821   6.446   4.263
  101SOL    HW2 1203   0.877   6.445   4.109
  102SOL     OW 1204   4.793   0.500   3.327
  102SOL    HW1 1205   4.827   0.446   3.404
  102SOL    HW2 1206   4.695   0.485   3.315
  103SOL     OW 1207   3.525   1.844   1.625
  103SOL    HW1 1208   3.430   1.815   1.614
  103SOL    HW2 1209   3.546   1.853   1.723
  104SOL     OW 1210   7.020   5.891   1.773
  104SOL    HW1 1211   6.995   5.917   1.867
  104SOL    HW2 1212   0.096   5.881   1.767
  105SOL     OW 1213   4.978   1.438   5.743
  105SOL    HW1 1214   4.919   1.391   5.808
  105SOL    HW2 1215   5.065   1.462   5.787
  106SOL     OW 1216   3.578   6.517   0.623
  106SOL    HW1 1217   3.602   6.545   0.530
  106SOL    HW2 1218   3.526   6.590   0.667
  107SOL     OW 1219   2.557   3.203   1.071
  107SOL    HW1 1220   2.542   3.267   1.147
  107SOL    HW2 1221   2.474   3.151   1.054
  108SOL     OW 1222   4.820   4.581   5.152
  108SOL    HW1 1223   4.826   4.642   5.231
  108SOL    HW2 1224   4.750   4.511   5.169
  109SOL     OW 1225   5.921   0.746   1.397
  109SOL    HW1 1226   5.900   0.839   1.426
  109SOL    HW2 1227   6.008   0.718   1.439
  110SOL     OW 1228   2.806   5.923   4.912
  110SOL    HW1 1229   2.894   5.958   4.879
  110SOL    HW2 1230   2.813   5.897   5.008
  111SOL     OW 1231   3.617   0.997   3.415
  111SOL    HW1 1232   3.553   0.930   3.376
  111SOL    HW2 1233   3.600   1.006   3.513
  112SOL     OW 1234   6.849   0.914   6.509
  112SOL    HW1 1235   6.778   0.884   6.572
  112SOL    HW2 1236   6.866   1.012   6.523
  113SOL     OW 1237   6.884   6.380   3.877
  113SOL    HW1 1238   6.942   6.361   3.798
  113SOL    HW2 1239   6.796   6.415   3.847
  114SOL     OW 1240   1.460   6.737   0.129
  114SOL    HW1 1241   1.549   6.697   0.151
  114SOL    HW2 1242   1.472   6.811   0.063
  115SOL     OW 1243   5.634   1.010   5.484
  115SOL    HW1 1244   5.699   0.963   5.425
  115SOL    HW2 1245   5.546   1.019   5.437
  116SOL     OW 1246   5.885   4.344   2.633
  116SOL    HW1 1247   5.816   4.414   2.649
  116SOL    HW2 1248   5.903   4.296   2.719
  117SOL     OW 1249   1.194   6.636   6.142
  117SOL    HW1 1250   1.205   6.732   6.169
  117SOL    HW2 1251   1.284   6.594   6.129
  118SOL     OW 1252   2.008   0.236   2.799
  118SOL    HW1 1253   1.959   0.261   2.882
  118SOL    HW2 1254   2.064   0.313   2.769
  119SOL     OW 1255   6.782   2.699   6.360
  119SOL    HW1 1256   6.781   2.641   6.279
  119SOL    HW2 1257   6.787   2.642   6.442
  120SOL     OW 1258   5.635   6.638   1.444
  120SOL    HW1 1259   5.629   6.560   1.381
  120SOL    HW2 1260   5.663   6.605   1.535
  121SOL     OW 1261   2.587   3.317   6.010
  121SOL    HW1 1262   2.620   3.290   5.920
  121SOL    HW2 1263   2.633   3.261   6.080
  122SOL     OW 1264   0.518   3.118   4.480
  122SOL    HW1 1265   0.549   3.207   4.512
  122SOL    HW2 1266   0.420   3.108   4.497
  123SOL     OW 1267   0.841   1.908   1.658
  123SOL    HW1 1268   0.874   1.962   1.581
  123SOL    HW2 1269   0.816   1.816   1.626
  124SOL     OW 1270   4.872   3.388   0.857
  124SOL    HW1 1271   4.860   3.291   0.879
  124SOL    HW2 1272   4.803   3.415   0.789
  125SOL     OW 1273   2.109   3.477   1.715
  125SOL    HW1 1274   2.160   3.460   1.800
  125SOL    HW2 1275   2.021   3.430   1.719
  126SOL     OW 1276   3.644   4.432   0.791
  126SOL    HW1 1277   3.633   4.409   0.888
  126SOL    HW2 1278   3.592   4.368   0.735
  127SOL     OW 1279   1.121   5.148   6.003
  127SOL    HW1 1280   1.145   5.243   5.987
  127SOL    HW2 1281   1.052   5.119   5.936
  128SOL     OW 1282   4.468   2.704   1.141
  128SOL    HW1 1283   4.428   2.754   1.219
  128SOL    HW2 1284   4.518   2.624   1.175
  129SOL     OW 1285   2.433   3.789   6.534
  129SOL    HW1 1286   2.456   3.791   6.437
  129SOL    HW2 1287   2.394   3.877   6.561
  130SOL     OW 1288   1.734   2.484   4.729
  130SOL    HW1 1289   1.664   2.416   4.750
  130SOL    HW2 1290   1.804   2.485   4.800
  131SOL     OW 1291   5.572   1.846   2.604
  131SOL    HW1 1292   5.478   1.814   2.610
  131SOL    HW2 1293   5.590   1.883   2.513
  132SOL     OW 1294   0.212   2.695   1.950
  132SOL    HW1 1295   0.213   2.692   2.050
  132SOL    HW2 1296   0.226   2.603   1.914
  133SOL     OW 1297   6.846   5.690   2.384
  133SOL    HW1 1298   6.894   5.623   2.441
  133SOL    HW2 1299   6.756   5.709   2.423
  134SOL     OW 1300   0.716   3.877   2.411
  134SOL    HW1 1301   0.790   3.823   2.452
  134SOL    HW2 1302   0.637   3.818   2.395
  135SOL     OW 1303   3.989   1.500   4.107
  135SOL    HW1 1304   4.061   1.528   4.043
  135SOL    HW2 1305   4.026   1.432   4.171
  136SOL     OW 1306   4.923   5.069   5.558
  136SOL    HW1 1307   4.982   5.107   5.486
  136SOL    HW2 1308   4.834   5.115   5.555
  137SOL     OW 1309   3.319   0.837   5.768
  137SOL    HW1 1310   3.296   0.863   5.674
  137SOL    HW2 1311   3.380   0.905   5.808
  138SOL     OW 1312   5.966   4.708   5.024
  138SOL    HW1 1313   5.871   4.735   5.010
  138SOL    HW2 1314   5.970   4.611   5.049
  139SOL     OW 1315   2.979   5.959   5.354
  139SOL    HW1 1316   3.030   5.874   5.373
  139SOL    HW2 1317   3.011   6.031   5.415
  140SOL     OW 1318   6.458   4.652   4.521
  140SOL    HW1 1319   6.521   4.614   4.588
  140SOL    HW2 1320   6.404   4.726   4.563
  141SOL     OW 1321   1.178   2.248   2.308
  141SOL    HW1 1322   1.152   2.309   2.233
  141SOL    HW2 1323   1.116   2.262   2.385
  142SOL     OW 1324   1.581   5.518   1.802
  142SOL    HW1 1325   1.504   5.472   1.756
  142SOL    HW2 1326   1.565   5.520   1.900
  143SOL     OW 1327   5.084   4.306   1.901
  143SOL    HW1 1328   5.003   4.361   1.885
  143SOL    HW2 1329   5.090   4.235   1.830
  144SOL     OW 1330   2.566   6.248   0.987
  144SOL    HW1 1331   2.468   6.265   0.987
  144SOL    HW2 1332   2.583   6.149   0.991
  145SOL     OW 1333   6.608   5.141   0.725
  145SOL    HW1 1334   6.662   5.060   0.705
  145SOL    HW2 1335   6.516   5.130   0.688
  146SOL     OW 1336   6.353   5.183   0.595
  146SOL    HW1 1337   6.282   5.163   0.528
  146SOL    HW2 1338   6.413   5.255   0.560
  147SOL     OW 1339   5.906   2.471   1.141
  147SOL    HW1 1340   5.911   2.524   1.226
  147SOL    HW2 1341   5.834   2.403   1.149
  148SOL     OW 1342   0.940   5.192   5.777
  148SOL    HW1 1343   0.917   5.281   5.738
  148SOL    HW2 1344   0.987   5.137   5.707
  149SOL     OW 1345   3.132   1.142   6.079
  149SOL    HW1 1346   3.040   1.183   6.085
  149SOL    HW2 1347   3.165   1.149   5.985
  150SOL     OW 1348   0.349   5.895   5.903
  150SOL    HW1 1349   0.276   5.932   5.847
  150SOL    HW2 1350   0.311   5.829   5.968
  151SOL     OW 1351   3.840   0.856   1.542
  151SOL    HW1 1352   3.805   0.763   1.555
  151SOL    HW2 1353   3.825   0.909   1.625
  152SOL     OW 1354   3.426   1.082   4.654
  152SOL    HW1 1355   3.403   0.991   4.686
  152SOL    HW2 1356   3.424   1.084   4.554
  153SOL     OW 1357   1.497   0.491   3.072
  153SOL    HW1 1358   1.451   0.404   3.053
  153SOL    HW2 1359   1.542   0.485   3.161
  154SOL     OW 1360   6.156   2.140   3.051
  154SOL    HW1 1361   6.080   2.078   3.071
  154SOL    HW2 1362   6.242   2.097   3.078
  155SOL     OW 1363   0.452   1.348   2.735
  155SOL    HW1 1364   0.525   1.288   2.767
  155SOL    HW2 1365   0.367   1.296   2.725
  156SOL     OW 1366   0.484   2.268   1.693
  156SOL    HW1 1367   0.581   2.277   1.712
  156SOL    HW2 1368   0.454   2.175   1.713
  157SOL     OW 1369   6.084   2.913   2.580
  157SOL    HW1 1370   6.060   2.980   2.510
  157SOL    HW2 1371   6.012   2.843   2.586
  158SOL     OW 1372   1.482   1.653   3.774
  158SOL    HW1 1373   1.398   1.627   3.822
  158SOL    HW2 1374   1.467   1.738   3.724
  159SOL     OW 1375   4.875   3.417   2.322
  159SOL    HW1 1376   4.925   3.364   2.253
  159SOL    HW2 1377   4.812   3.480   2.275
  160SOL     OW 1378   6.303   4.514   5.772
  160SOL    HW1 1379   6.268   4.421   5.783
  160SOL    HW2 1380   6.354   4.540   5.854
  161SOL     OW 1381   3.519   4.563   5.716
  161SOL    HW1 1382   3.436   4.522   5.679
  161SOL    HW2 1383   3.508   4.579   5.814
  162SOL     OW 1384   4.770   6.310   2.191
  162SOL    HW1 1385   4.787   6.224   2.238
  162SOL    HW2 1386   4.695   6.358   2.235
  163SOL     OW 1387   5.129   0.467   1.840
  163SOL    HW1 1388   5.052   0.419   1.883
  163SOL    HW2 1389   5.185   0.402   1.789
  164SOL     OW 1390   6.319   3.090   1.498
  164SOL    HW1 1391   6.224   3.068   1.475
  164SOL    HW2 1392   6.354   3.157   1.434
  165SOL     OW 1393   5.882   4.213   6.369
  165SOL    HW1 1394   5.802   4.186   6.423
  165SOL    HW2 1395   5.867   4.303   6.329
  166SOL     OW 1396   1.649   0.303   1.377
  166SOL    HW1 1397   1.662   0.367   1.302
  166SOL    HW2 1398   1.562   0.322   1.422
  167SOL     OW 1399   6.757   3.071   0.610
  167SOL    HW1 1400   6.693   3.070   0.687
  167SOL    HW2 1401   6.722   3.130   0.538
  168SOL     OW 1402   2.749   5.468   1.443
  168SOL    HW1 1403   2.831   5.414   1.459
  168SOL    HW2 1404   2.668   5.411   1.458
  169SOL     OW 1405   1.213   0.141   1.283
  169SOL    HW1 1406   1.119   0.134   1.316
  169SOL    HW2 1407   1.252   0.049   1.275
  170SOL     OW 1408   0.549   1.473   3.063
  170SOL    HW1 1409   0.569   1.505   2.970
  170SOL    HW2 1410   0.633   1.436   3.103
  171SOL     OW 1411   3.296   3.784   0.552
  171SOL    HW1 1412   3.336   3.731   0.477
  171SOL    HW2 1413   3.365   3.802   0.622
  172SOL     OW 1414   6.985   3.167   1.176
  172SOL    HW1 1415   6.913   3.177   1.107
  172SOL    HW2 1416   6.978   3.077   1.218
  173SOL     OW 1417   0.306   6.194   5.646
  173SOL    HW1 1418   0.269   6.273   5.596
  173SOL    HW2 1419   0.405   6.197   5.644
  174SOL     OW 1420   2.631   5.651   3.349
  174SOL    HW1 1421   2.616   5.645   3.250
  174SOL    HW2 1422   2.679   5.735   3.371
  175SOL     OW 1423   0.622   5.646   2.796
  175SOL    HW1 1424   0.690   5.709   2.759
  175SOL    HW2 1425   0.553   5.627   2.727
  176SOL     OW 1426   3.237   5.273   0.662
  176SOL    HW1 1427   3.180   5.243   0.585
  176SOL    HW2 1428   3.334   5.258   0.640
  177SOL     OW 1429   4.502   2.506   3.230
  177SOL    HW1 1430   4.490   2.478   3.135
  177SOL    HW2 1431   4.544   2.597   3.233
  178SOL     OW 1432   5.533   4.328   5.811
  178SOL    HW1 1433   5.625   4.316   5.849
  178SOL    HW2 1434   5.534   4.309   5.713
  179SOL     OW 1435   3.165   6.922   1.156
  179SOL    HW1 1436   3.135   6.830   1.183
  179SOL    HW2 1437   3.088   6.985   1.160
  180SOL     OW 1438   1.488   2.371   6.730
  180SOL    HW1 1439   1.406   2.355   6.675
  180SOL    HW2 1440   1.468   2.352   6.826
  181SOL     OW 1441   3.148   3.021   4.624
  181SOL    HW1 1442   3.132   2.922   4.631
  181SOL    HW2 1443   3.081   3.069   4.681
  182SOL     OW 1444   4.663   2.766   5.040
  182SOL    HW1 1445   4.678   2.833   4.967
  182SOL    HW2 1446   4.676   2.810   5.129
  183SOL     OW 1447   5.749   1.663   2.255
  183SOL    HW1 1448   5.804   1.591   2.212
  183SOL    HW2 1449   5.806   1.743   2.272
  184SOL     OW 1450   0.446   4.509   2.992
  184SOL    HW1 1451   0.380   4.562   3.046
  184SOL    HW2 1452   0.453   4.416   3.029
  185SOL     OW 1453   2.641   3.309   6.426
  185SOL    HW1 1454   2.717   3.266   6.475
  185SOL    HW2 1455   2.587   3.365   6.489
  186SOL     OW 1456   6.073   6.407   3.681
  186SOL    HW1 1457   6.007   6.367   3.745
  186SOL    HW2 1458   6.025   6.465   3.615
  187SOL     OW 1459   5.742   0.646   4.251
  187SOL    HW1 1460   5.797   0.726   4.228
  187SOL    HW2 1461   5.755   0.574   4.183
  188SOL     OW 1462   6.115   2.383   4.407
  188SOL    HW1 1463   6.136   2.368   4.503
  188SOL    HW2 1464   6.018   2.366   4.390
  189SOL     OW 1465   1.741   4.351   2.712
  189SOL    HW1 1466   1.757   4.260   2.675
  189SOL    HW2 1467   1.702   4.410   2.641
  190SOL     OW 1468   2.912   1.165   6.882
  190SOL    HW1 1469   2.984   1.113   6.835
  190SOL    HW2 1470   2.876   1.234   6.820
  191SOL     OW 1471   4.193   6.207   5.970
  191SOL    HW1 1472   4.195   6.266   6.051
  191SOL    HW2 1473   4.107   6.222   5.920
  192SOL     OW 1474   6.867   0.211   1.030
  192SOL    HW1 1475   6.836   0.121   1.000
  192SOL    HW2 1476   6.874   0.272   0.951
  193SOL     OW 1477   5.601   4.174   0.134
  193SOL    HW1 1478   5.701   4.171   0.133
  193SOL    HW2 1479   5.566   4.146   0.045
  194SOL     OW 1480   4.515   0.236   4.549
  194SOL    HW1 1481   4.445   0.241   4.620
  194SOL    HW2 1482   4.473   0.234   4.459
  195SOL     OW 1483   6.601   5.393   3.706
  195SOL    HW1 1484   6.681   5.420   3.760
  195SOL    HW2 1485   6.592   5.293   3.708
  196SOL     OW 1486   1.177   0.967   0.947
  196SOL    HW1 1487   1.276   0.966   0.932
  196SOL    HW2 1488   1.147   1.060   0.968
  197SOL     OW 1489   1.986   0.891   0.699
  197SOL    HW1 1490   1.941   0.981   0.698
  197SOL    HW2 1491   2.036   0.880   0.785
  198SOL     OW 1492   2.573   1.316   4.194
  198SOL    HW1 1493   2.546   1.410   4.172
  198SOL    HW2 1494   2.642   1.285   4.129
  199SOL     OW 1495   0.949   1.736   4.504
  199SOL    HW1 1496   0.949   1.802   4.429
  199SOL    HW2 1497   0.932   1.644   4.467
  200SOL     OW 1498   6.343   1.984   0.001
  200SOL    HW1 1499   6.318   1.986   0.098
  200SOL    HW2 1500   6.274   2.031   6.970
  201SOL     OW 1501   0.341   1.025   6.399
  201SOL    HW1 1502   0.330   1.080   6.316
  201SOL    HW2 1503   0.250   1.003   6.436
  202SOL     OW 1504   5.113   7.006   0.476
  202SOL    HW1 1505   5.171   6.977   0.400
  202SOL    HW2 1506   5.029   6.951   0.477
  203SOL     OW 1507   6.327   2.869   6.161
  203SOL    HW1 1508   6.425   2.850   6.156
  203SOL    HW2 1509   6.304   2.942   6.096
  204SOL     OW 1510   6.194   0.793   5.092
  204SOL    HW1 1511   6.261   0.719   5.093
  204SOL    HW2 1512   6.190   0.833   5.000
  205SOL     OW 1513   1.960   3.817   2.746
  205SOL    HW1 1514   1.902   3.811   2.827
  205SOL    HW2 1515   2.042   3.870   2.767
  206SOL     OW 1516   0.010   3.242   0.668
  206SOL    HW1 1517   7.016   3.145   0.649
  206SOL    HW2 1518   7.001   3.297   0.591
  207SOL     OW 1519   6.232   2.705   4.597
  207SOL    HW1 1520   6.185   2.758   4.667
  207SOL    HW2 1521   6.171   2.692   4.518
  208SOL     OW 1522   1.140   3.370   5.256
  208SOL    HW1 1523   1.098   3.310   5.189
  208SOL    HW2 1524   1.120   3.336   5.348
  209SOL     OW 1525   6.670   4.481   3.057
  209SOL    HW1 1526   6.687   4.393   3.013
  209SOL    HW2 1527   6.632   4.545   2.990
  210SOL     OW 1528   4.589   3.034   0.318
  210SOL    HW1 1529   4.652   3.013   0.394
  210SOL    HW2 1530   4.637   3.023   0.231
  211SOL     OW 1531   1.356   1.346   2.078
  211SOL    HW1 1532   1.295   1.345   2.157
  211SOL    HW2 1533   1.365   1.439   2.043
  212SOL     OW 1534   1.963   3.895   2.048
  212SOL    HW1 1535   1.982   3.824   1.980
  212SOL    HW2 1536   1.865   3.908   2.057
  213SOL     OW 1537   1.355   4.922   0.945
  213SOL    HW1 1538   1.271   4.868   0.950
  213SOL    HW2 1539   1.342   4.998   0.881
  214SOL     OW 1540   5.560   7.011   2.251
  214SOL    HW1 1541   5.631   0.056   2.273
  214SOL    HW2 1542   5.545   7.009   2.152
  215SOL     OW 1543   2.136   5.121   2.844
  215SOL    HW1 1544   2.186   5.159   2.767
  215SOL    HW2 1545   2.196   5.064   2.899
  216SOL     OW 1546   1.317   6.166   2.902
  216SOL    HW1 1547   1.330   6.067   2.914
  216SOL    HW2 1548   1.376   6.215   2.966
  217SOL     OW 1549   0.894   4.668   5.648
  217SOL    HW1 1550   0.872   4.645   5.553
  217SOL    HW2 1551   0.913   4.583   5.698
  218SOL     OW 1552   2.410   1.859   5.119
  218SOL    HW1 1553   2.400   1.917   5.038
  218SOL    HW2 1554   2.413   1.763   5.090
  219SOL     OW 1555   4.446   2.277   1.414
  219SOL    HW1 1556   4.417   2.322   1.330
  219SOL    HW2 1557   4.527   2.323   1.450
  220SOL     OW 1558   3.539   6.550   1.354
  220SOL    HW1 1559   3.617   6.506   1.399
  220SOL    HW2 1560   3.465   6.484   1.343
  221SOL     OW 1561   5.168   4.733   1.934
  221SOL    HW1 1562   5.091   4.785   1.969
  221SOL    HW2 1563   5.179   4.751   1.836
  222SOL     OW 1564   1.975   4.414   6.426
  222SOL    HW1 1565   1.927   4.445   6.508
  222SOL    HW2 1566   1.970   4.485   6.355
  223SOL     OW 1567   6.286   2.572   5.009
  223SOL    HW1 1568   6.295   2.569   5.108
  223SOL    HW2 1569   6.294   2.480   4.971
  224SOL     OW 1570   3.079   2.002   5.523
  224SOL    HW1 1571   3.072   2.059   5.441
  224SOL    HW2 1572   3.163   2.025   5.573
  225SOL     OW 1573   3.903   6.607   6.163
  225SOL    HW1 1574   3.927   6.671   6.236
  225SOL    HW2 1575   3.979   6.600   6.099
  226SOL     OW 1576   1.353   2.766   6.749
  226SOL    HW1 1577   1.404   2.775   6.835
  226SOL    HW2 1578   1.394   2.824   6.679
  227SOL     OW 1579   1.661   3.637   1.429
  227SOL    HW1 1580   1.589   3.635   1.498
  227SOL    HW2 1581   1.633   3.582   1.350
  228SOL     OW 1582   0.725   0.233   2.142
  228SOL    HW1 1583   0.680   0.161   2.090
  228SOL    HW2 1584   0.746   0.310   2.082
  229SOL     OW 1585   3.685   6.914   6.275
  229SOL    HW1 1586   3.679   6.860   6.360
  229SOL    HW2 1587   3.602   6.970   6.265
  230SOL     OW 1588   5.726   5.676   5.574
  230SOL    HW1 1589   5.662   5.600   5.565
  230SOL    HW2 1590   5.701   5.730   5.655
  231SOL     OW 1591   5.330   1.841   6.827
  231SOL    HW1 1592   5.400   1.834   6.898
  231SOL    HW2 1593   5.266   1.765   6.836
  232SOL     OW 1594   0.935   1.731   6.012
  232SOL    HW1 1595   0.931   1.745   5.913
  232SOL    HW2 1596   1.007   1.665   6.033
  233SOL     OW 1597   3.328   1.674   2.978
  233SOL    HW1 1598   3.261   1.640   3.044
  233SOL    HW2 1599   3.400   1.724   3.025
  234SOL     OW 1600   5.128   0.618   0.666
  234SOL    HW1 1601   5.056   0.630   0.598
  234SOL    HW2 1602   5.099   0.549   0.733
  235SOL     OW 1603   4.824   3.011   2.685
  235SOL    HW1 1604   4.861   2.923   2.656
  235SOL    HW2 1605   4.837   3.078   2.611
  236SOL     OW 1606   4.253   4.430   6.116
  236SOL    HW1 1607   4.334   4.463   6.067
  236SOL    HW2 1608   4.178   4.415   6.051
  237SOL     OW 1609   6.012   3.592   2.834
  237SOL    HW1 1610   5.944   3.659   2.865
  237SOL    HW2 1611   6.066   3.632   2.760
  238SOL     OW 1612   6.275   2.015   0.596
  238SOL    HW1 1613   6.202   1.951   0.570
  238SOL    HW2 1614   6.264   2.040   0.692
  239SOL     OW 1615   1.159   3.164   0.240
  239SOL    HW1 1616   1.084   3.100   0.223
  239SOL    HW2 1617   1.246   3.123   0.214
  240SOL     OW 1618   4.879   3.516   3.933
  240SOL    HW1 1619   4.788   3.476   3.921
  240SOL    HW2 1620   4.949   3.449   3.907
  241SOL     OW 1621   2.170   1.878   4.042
  241SOL    HW1 1622   2.134   1.831   3.962
  241SOL    HW2 1623   2.270   1.877   4.039
  242SOL     OW 1624   3.696   3.443   2.793
  242SOL    HW1 1625   3.653   3.382   2.727
  242SOL    HW2 1626   3.631   3.464   2.867
  243SOL     OW 1627   3.854   2.576   6.393
  243SOL    HW1 1628   3.767   2.622   6.411
  243SOL    HW2 1629   3.837   2.493   6.340
  244SOL     OW 1630   4.909   3.125   4.690
  244SOL    HW1 1631   5.009   3.134   4.683
  244SOL    HW2 1632   4.872   3.207   4.733
  245SOL     OW 1633   3.617   0.662   3.123
  245SOL    HW1 1634   3.612   0.720   3.042
  245SOL    HW2 1635   3.568   0.705   3.199
  246SOL     OW 1636   6.649   1.444   2.326
  246SOL    HW1 1637   6.636   1.373   2.395
  246SOL    HW2 1638   6.619   1.410   2.236
  247SOL     OW 1639   1.416   1.605   1.944
  247SOL    HW1 1640   1.500   1.599   1.892
  247SOL    HW2 1641   1.406   1.697   1.982
  248SOL     OW 1642   2.387   2.961   1.780
  248SOL    HW1 1643   2.322   2.906   1.728
  248SOL    HW2 1644   2.349   3.053   1.793
  249SOL     OW 1645   4.774   6.339   4.821
  249SOL    HW1 1646   4.701   6.284   4.860
  249SOL    HW2 1647   4.812   6.400   4.891
  250SOL     OW 1648   4.291   2.421   0.421
  250SOL    HW1 1649   4.285   2.462   0.512
  250SOL    HW2 1650   4.216   2.455   0.364
  251SOL     OW 1651   3.722   4.583   5.326
  251SOL    HW1 1652   3.813   4.623   5.312
  251SOL    HW2 1653   3.654   4.656   5.327
  252SOL     OW 1654   6.711   6.770   5.672
  252SOL    HW1 1655   6.733   6.673   5.663
  252SOL    HW2 1656   6.748   6.805   5.758
  253SOL     OW 1657   4.151   6.386   6.269
  253SOL    HW1 1658   4.188   6.470   6.230
  253SOL    HW2 1659   4.227   6.325   6.293
  254SOL     OW 1660   6.147   2.282   5.649
  254SOL    HW1 1661   6.158   2.203   5.709
  254SOL    HW2 1662   6.065   2.332   5.674
  255SOL     OW 1663   1.069   4.044   6.716
  255SOL    HW1 1664   1.012   4.089   6.786
  255SOL    HW2 1665   1.165   4.067   6.731
  256SOL     OW 1666   5.446   2.253   4.997
  256SOL    HW1 1667   5.406   2.330   4.947
  256SOL    HW2 1668   5.392   2.171   4.979
  257SOL     OW 1669   4.951   6.496   2.267
  257SOL    HW1 1670   4.938   6.593   2.248
  257SOL    HW2 1671   4.881   6.442   2.220
  258SOL     OW 1672   1.850   3.237   6.244
  258SOL    HW1 1673   1.923   3.169   6.236
  258SOL    HW2 1674   1.890   3.327   6.259
  259SOL     OW 1675   3.883   6.701   3.675
  259SOL    HW1 1676   3.867   6.749   3.589
  259SOL    HW2 1677   3.804   6.713   3.735
  260SOL     OW 1678   3.673   5.290   2.922
  260SOL    HW1 1679   3.729   5.207   2.912
  260SOL    HW2 1680   3.699   5.337   3.006
  261SOL     OW 1681   4.425   5.049   0.135
  261SOL    HW1 1682   4.428   5.002   0.223
  261SOL    HW2 1683   4.504   5.022   0.079
  262SOL     OW 1684   0.737   4.414   6.638
  262SOL    HW1 1685   0.642   4.408   6.666
  262SOL    HW2 1686   0.743   4.409   6.538
  263SOL     OW 1687   0.949   6.739   4.214
  263SOL    HW1 1688   1.003   6.744   4.298
  263SOL    HW2 1689   0.901   6.651   4.210
  264SOL     OW 1690   6.324   3.803   6.336
  264SOL    HW1 1691   6.225   3.792   6.344
  264SOL    HW2 1692   6.358   3.749   6.259
  265SOL     OW 1693   6.581   0.323   3.511
  265SOL    HW1 1694   6.637   0.241   3.505
  265SOL    HW2 1695   6.638   0.402   3.536
  266SOL     OW 1696   3.479   1.009   5.889
  266SOL    HW1 1697   3.524   0.955   5.960
  266SOL    HW2 1698   3.523   1.098   5.881
  267SOL     OW 1699   2.149   0.164   3.918
  267SOL    HW1 1700   2.143   0.079   3.866
  267SOL    HW2 1701   2.066   0.177   3.971
  268SOL     OW 1702   3.011   2.478   1.278
  268SOL    HW1 1703   3.021   2.554   1.341
  268SOL    HW2 1704   2.932   2.423   1.303
  269SOL     OW 1705   4.322   2.161   0.357
  269SOL    HW1 1706   4.291   2.245   0.401
  269SOL    HW2 1707   4.417   2.143   0.384
  270SOL     OW 1708   5.603   0.962   6.964
  270SOL    HW1 1709   5.675   0.897   6.986
  270SOL    HW2 1710   5.514   0.921   6.984
  271SOL     OW 1711   0.582   3.497   6.514
  271SOL    HW1 1712   0.532   3.432   6.456
  271SOL    HW2 1713   0.638   3.556   6.456
  272SOL     OW 1714   3.359   5.744   3.363
  272SOL    HW1 1715   3.334   5.838   3.386
  272SOL    HW2 1716   3.327   5.683   3.436
  273SOL     OW 1717   1.968   4.718   6.284
  273SOL    HW1 1718   2.041   4.701   6.218
  273SOL    HW2 1719   1.890   4.760   6.237
  274SOL     OW 1720   5.094   2.670   3.632
  274SOL    HW1 1721   4.999   2.640   3.639
  274SOL    HW2 1722   5.130   2.646   3.542
  275SOL     OW 1723   6.065   6.576   1.128
  275SOL    HW1 1724   6.047   6.670   1.156
  275SOL    HW2 1725   6.020   6.513   1.191
  276SOL     OW 1726   0.626   0.700   4.970
  276SOL    HW1 1727   0.624   0.782   5.027
  276SOL    HW2 1728   0.721   0.672   4.957
  277SOL     OW 1729   2.190   4.486   1.034
  277SOL    HW1 1730   2.156   4.500   1.127
  277SOL    HW2 1731   2.151   4.555   0.973
  278SOL     OW 1732   0.633   3.294   2.483
  278SOL    HW1 1733   0.653   3.230   2.409
  278SOL    HW2 1734   0.599   3.243   2.562
  279SOL     OW 1735   6.438   1.279   3.809
  279SOL    HW1 1736   6.481   1.367   3.789
  279SOL    HW2 1737   6.354   1.269   3.756
  280SOL     OW 1738   1.597   4.891   2.088
  280SOL    HW1 1739   1.664   4.885   2.163
  280SOL    HW2 1740   1.513   4.844   2.115
  281SOL     OW 1741   2.448   4.662   1.304
  281SOL    HW1 1742   2.516   4.615   1.361
  281SOL    HW2 1743   2.494   4.714   1.233
  282SOL     OW 1744   2.665   1.514   6.003
  282SOL    HW1 1745   2.750   1.548   6.042
  282SOL    HW2 1746   2.684   1.441   5.937
  283SOL     OW 1747   3.629   2.107   5.967
  283SOL    HW1 1748   3.544   2.159   5.978
  283SOL    HW2 1749   3.630   2.030   6.030
  284SOL     OW 1750   1.220   3.984   4.275
  284SOL    HW1 1751   1.240   3.907   4.214
  284SOL    HW2 1752   1.244   3.959   4.369
  285SOL     OW 1753   4.887   5.030   4.250
  285SOL    HW1 1754   4.897   4.969   4.329
  285SOL    HW2 1755   4.826   5.106   4.274
  286SOL     OW 1756   3.029   3.425   6.927
  286SOL    HW1 1757   3.104   3.359   6.925
  286SOL    HW2 1758   3.038   3.488   6.850
  287SOL     OW 1759   1.526   2.736   0.384
  287SOL    HW1 1760   1.565   2.801   0.318
  287SOL    HW2 1761   1.593   2.719   0.456
  288SOL     OW 1762   4.621   3.439   0.731
  288SOL    HW1 1763   4.563   3.384   0.792
  288SOL    HW2 1764   4.649   3.523   0.778
  289SOL     OW 1765   3.805   5.506   6.319
  289SOL    HW1 1766   3.876   5.444   6.355
  289SOL    HW2 1767   3.740   5.527   6.392
  290SOL     OW 1768   1.656   1.293   4.525
  290SOL    HW1 1769   1.734   1.303   4.464
  290SOL    HW2 1770   1.607   1.209   4.503
  291SOL     OW 1771   6.023   2.203   2.833
  291SOL    HW1 1772   6.100   2.173   2.890
  291SOL    HW2 1773   6.005   2.299   2.850
  292SOL     OW 1774   3.023   0.229   4.062
  292SOL    HW1 1775   3.009   0.211   3.965
  292SOL    HW2 1776   3.086   0.306   4.073
  293SOL     OW 1777   3.430   4.990   3.413
  293SOL    HW1 1778   3.364   4.953   3.478
  293SOL    HW2 1779   3.470   5.073   3.450
  294SOL     OW 1780   4.522   0.909   0.722
  294SOL    HW1 1781   4.550   0.919   0.627
  294SOL    HW2 1782   4.558   0.823   0.759
  295SOL     OW 1783   5.810   6.817   3.136
  295SOL    HW1 1784   5.737   6.855   3.081
  295SOL    HW2 1785   5.772   6.748   3.199
  296SOL     OW 1786   2.530   2.149   3.172
  296SOL    HW1 1787   2.567   2.231   3.129
  296SOL    HW2 1788   2.535   2.073   3.108
  297SOL     OW 1789   1.625   5.260   1.987
  297SOL    HW1 1790   1.674   5.256   1.900
  297SOL    HW2 1791   1.667   5.329   2.047
  298SOL     OW 1792   6.710   4.731   0.900
  298SOL    HW1 1793   6.695   4.801   0.830
  298SOL    HW2 1794   6.702   4.640   0.859
  299SOL     OW 1795   5.896   2.567   4.704
  299SOL    HW1 1796   5.883   2.662   4.675
  299SOL    HW2 1797   5.821   2.540   4.764
  300SOL     OW 1798   6.676   0.017   2.231
  300SOL    HW1 1799   6.727   0.059   2.307
  300SOL    HW2 1800   6.694   0.067   2.147
  301SOL     OW 1801   4.344   2.652   5.626
  301SOL    HW1 1802   4.314   2.731   5.679
  301SOL    HW2 1803   4.435   2.669   5.589
  302SOL     OW 1804   0.875   6.206   3.775
  302SOL    HW1 1805   0.784   6.170   3.751
  302SOL    HW2 1806   0.943   6.163   3.717
  303SOL     OW 1807   6.080   6.816   3.025
  303SOL    HW1 1808   6.047   6.800   2.932
  303SOL    HW2 1809   6.007   6.797   3.090
  304SOL     OW 1810   3.632   6.840   3.593
  304SOL    HW1 1811   3.664   6.751   3.560
  304SOL    HW2 1812   3.587   6.828   3.681
  305SOL     OW 1813   1.617   4.183   1.191
  305SOL    HW1 1814   1.649   4.090   1.209
  305SOL    HW2 1815   1.550   4.210   1.260
  306SOL     OW 1816   1.981   0.610   3.712
  306SOL    HW1 1817   2.039   0.566   3.780
  306SOL    HW2 1818   1.969   0.550   3.633
  307SOL     OW 1819   3.231   0.340   1.672
  307SOL    HW1 1820   3.160   0.400   1.709
  307SOL    HW2 1821   3.319   0.364   1.713
  308SOL     OW 1822   1.002   4.628   3.916
  308SOL    HW1 1823   1.030   4.723   3.903
  308SOL    HW2 1824   1.081   4.568   3.912
  309SOL     OW 1825   3.288   4.878   5.146
  309SOL    HW1 1826   3.354   4.844   5.079
  309SOL    HW2 1827   3.288   4.818   5.226
  310SOL     OW 1828   1.212   5.573   6.363
  310SOL    HW1 1829   1.122   5.538   6.389
  310SOL    HW2 1830   1.277   5.554   6.437
  311SOL     OW 1831   6.993   0.681   1.639
  311SOL    HW1 1832   0.027   0.600   1.628
  311SOL    HW2 1833   0.029   0.761   1.651
  312SOL     OW 1834   3.674   1.070   5.616
  312SOL    HW1 1835   3.681   1.109   5.708
  312SOL    HW2 1836   3.594   1.010   5.611
  313SOL     OW 1837   0.481   4.794   0.521
  313SOL    HW1 1838   0.562   4.769   0.466
  313SOL    HW2 1839   0.486   4.747   0.609
  314SOL     OW 1840   3.322   6.079   1.498
  314SOL    HW1 1841   3.227   6.064   1.468
  314SOL    HW2 1842   3.337   6.034   1.586
  315SOL     OW 1843   1.164   3.590   2.841
  315SOL    HW1 1844   1.098   3.516   2.853
  315SOL    HW2 1845   1.234   3.561   2.775
  316SOL     OW 1846   2.107   3.408   4.919
  316SOL    HW1 1847   2.012   3.394   4.948
  316SOL    HW2 1848   2.146   3.320   4.891
  317SOL     OW 1849   6.540   1.056   7.002
  317SOL    HW1 1850   6.567   1.082   0.072
  317SOL    HW2 1851   6.594   1.107   6.935
  318SOL     OW 1852   2.846   4.424   1.216
  318SOL    HW1 1853   2.928   4.377   1.185
  318SOL    HW2 1854   2.867   4.519   1.236
  319SOL     OW 1855   1.551   0.023   6.697
  319SOL    HW1 1856   1.515   0.109   6.731
  319SOL    HW2 1857   1.644   0.037   6.663
  320SOL     OW 1858   5.663   3.086   0.701
  320SOL    HW1 1859   5.730   3.160   0.710
  320SOL    HW2 1860   5.628   3.062   0.792
  321SOL     OW 1861   2.148   1.270   2.557
  321SOL    HW1 1862   2.124   1.317   2.471
  321SOL    HW2 1863   2.185   1.180   2.536
  322SOL     OW 1864   3.522   2.142   5.622
  322SOL    HW1 1865   3.441   2.096   5.658
  322SOL    HW2 1866   3.591   2.074   5.597
  323SOL     OW 1867   0.394   4.554   1.897
  323SOL    HW1 1868   0.464   4.612   1.854
  323SOL    HW2 1869   0.432   4.513   1.980
  324SOL     OW 1870   0.701   2.934   4.385
  324SOL    HW1 1871   0.643   2.989   4.445
  324SOL    HW2 1872   0.793   2.974   4.382
  325SOL     OW 1873   2.179   2.003   3.079
  325SOL    HW1 1874   2.114   1.960   3.016
  325SOL    HW2 1875   2.192   2.099   3.054
  326SOL     OW 1876   1.975   4.232   5.255
  326SOL    HW1 1877   1.939   4.314   5.210
  326SOL    HW2 1878   1.907   4.159   5.251
  327SOL     OW 1879   6.114   5.020   6.393
  327SOL    HW1 1880   6.145   5.109   6.426
  327SOL    HW2 1881   6.174   4.949   6.429
  328SOL     OW 1882   3.742   5.679   1.996
  328SOL    HW1 1883   3.706   5.763   1.956
  328SOL    HW2 1884   3.795   5.701   2.078
  329SOL     OW 1885   3.327   4.104   2.687
  329SOL    HW1 1886   3.393   4.089   2.761
  329SOL    HW2 1887   3.360   4.178   2.628
  330SOL     OW 1888   2.678   2.098   2.092
  330SOL    HW1 1889   2.688   2.088   1.993
  330SOL    HW2 1890   2.683   2.194   2.117
  331SOL     OW 1891   5.739   4.238   5.417
  331SOL    HW1 1892   5.676   4.315   5.409
  331SOL    HW2 1893   5.707   4.177   5.490
  332SOL     OW 1894   4.441   2.092   3.246
  332SOL    HW1 1895   4.369   2.162   3.248
  332SOL    HW2 1896   4.516   2.122   3.189
  333SOL     OW 1897   4.508   5.903   0.391
  333SOL    HW1 1898   4.495   5.859   0.302
  333SOL    HW2 1899   4.457   5.989   0.393
  334SOL     OW 1900   5.095   6.440   2.588
  334SOL    HW1 1901   5.161   6.504   2.630
  334SOL    HW2 1902   5.090   6.458   2.490
  335SOL     OW 1903   3.521   6.865   2.963
  335SOL    HW1 1904   3.558   6.905   3.048
  335SOL    HW2 1905   3.520   6.935   2.892
  336SOL     OW 1906   3.539   0.242   4.752
  336SOL    HW1 1907   3.627   0.241   4.801
  336SOL    HW2 1908   3.481   0.313   4.790
  337SOL     OW 1909   0.168   4.661   2.025
  337SOL    HW1 1910   0.087   4.661   1.967
  337SOL    HW2 1911   0.247   4.633   1.971
  338SOL     OW 1912   2.473   2.041   1.721
  338SOL    HW1 1913   2.559   2.072   1.762
  338SOL    HW2 1914   2.398   2.097   1.755
  339SOL     OW 1915   4.595   1.402   2.949
  339SOL    HW1 1916   4.525   1.354   2.896
  339SOL    HW2 1917   4.609   1.352   3.035
  340SOL     OW 1918   4.698   4.319   4.757
  340SOL    HW1 1919   4.780   4.273   4.790
  340SOL    HW2 1920   4.669   4.388   4.823
  341SOL     OW 1921   4.516   4.930   5.696
  341SOL    HW1 1922   4.547   4.945   5.602
  341SOL    HW2 1923   4.486   5.017   5.735
  342SOL     OW 1924   5.652   3.745   0.172
  342SOL    HW1 1925   5.676   3.698   0.086
  342SOL    HW2 1926   5.729   3.737   0.236
  343SOL     OW 1927   2.238   0.633   2.287
  343SOL    HW1 1928   2.175   0.556   2.283
  343SOL    HW2 1929   2.290   0.629   2.373
  344SOL     OW 1930   4.237   6.495   0.332
  344SOL    HW1 1931   4.323   6.444   0.325
  344SOL    HW2 1932   4.180   6.454   0.404
  345SOL     OW 1933   1.500   1.561   6.034
  345SOL    HW1 1934   1.559   1.586   5.957
  345SOL    HW2 1935   1.521   1.620   6.112
  346SOL     OW 1936   3.606   0.810   4.544
  346SOL    HW1 1937   3.523   0.808   4.488
  346SOL    HW2 1938   3.658   0.726   4.529
  347SOL     OW 1939   4.423   6.627   5.898
  347SOL    HW1 1940   4.409   6.672   5.987
  347SOL    HW2 1941   4.386   6.534   5.902
  348SOL     OW 1942   2.426   6.266   2.869
  348SOL    HW1 1943   2.369   6.283   2.789
  348SOL    HW2 1944   2.491   6.341   2.880
  349SOL     OW 1945   2.745   5.063   2.101
  349SOL    HW1 1946   2.822   5.016   2.056
  349SOL    HW2 1947   2.696   4.998   2.158
  350SOL     OW 1948   4.466   3.267   0.859
  350SOL    HW1 1949   4.450   3.186   0.804
  350SOL    HW2 1950   4.526   3.244   0.936
  351SOL     OW 1951   3.043   1.650   0.598
  351SOL    HW1 1952   3.108   1.719   0.566
  351SOL    HW2 1953   2.954   1.694   0.615
  352SOL     OW 1954   2.830   2.020   6.019
  352SOL    HW1 1955   2.746   2.026   6.074
  352SOL    HW2 1956   2.819   1.949   5.949
  353SOL     OW 1957   2.127   0.102   1.225
  353SOL    HW1 1958   2.195   0.030   1.238
  353SOL    HW2 1959   2.143   0.176   1.290
  354SOL     OW 1960   5.119   0.332   2.394
  354SOL    HW1 1961   5.080   0.403   2.336
  354SOL    HW2 1962   5.061   0.320   2.475
  355SOL     OW 1963   1.246   0.962   2.119
  355SOL    HW1 1964   1.149   0.941   2.132
  355SOL    HW2 1965   1.285   0.997   2.204
  356SOL     OW 1966   3.732   0.220   2.992
  356SOL    HW1 1967   3.650   0.277   2.997
  356SOL    HW2 1968   3.750   0.195   2.897
  357SOL     OW 1969   1.294   4.767   5.336
  357SOL    HW1 1970   1.271   4.761   5.239
  357SOL    HW2 1971   1.210   4.766   5.390
  358SOL     OW 1972   5.071   1.212   3.066
  358SOL    HW1 1973   5.010   1.273   3.016
  358SOL    HW2 1974   5.027   1.184   3.151
  359SOL     OW 1975   0.665   1.833   0.200
  359SOL    HW1 1976   0.714   1.793   0.277
  359SOL    HW2 1977   0.589   1.774   0.174
  360SOL     OW 1978   5.138   0.253   0.349
  360SOL    HW1 1979   5.084   0.179   0.389
  360SOL    HW2 1980   5.218   0.271   0.407
  361SOL     OW 1981   3.345   0.773   2.814
  361SOL    HW1 1982   3.274   0.788   2.882
  361SOL    HW2 1983   3.348   0.850   2.751
  362SOL     OW 1984   2.749   3.823   1.048
  362SOL    HW1 1985   2.812   3.880   0.995
  362SOL    HW2 1986   2.774   3.827   1.145
  363SOL     OW 1987   4.466   4.543   3.558
  363SOL    HW1 1988   4.472   4.635   3.598
  363SOL    HW2 1989   4.453   4.476   3.631
  364SOL     OW 1990   2.310   5.991   6.138
  364SOL    HW1 1991   2.396   5.988   6.188
  364SOL    HW2 1992   2.280   5.897   6.117
  365SOL     OW 1993   4.636   0.172   2.906
  365SOL    HW1 1994   4.676   0.090   2.947
  365SOL    HW2 1995   4.565   0.209   2.967
  366SOL     OW 1996   5.239   1.434   0.270
  366SOL    HW1 1997   5.272   1.373   0.342
  366SOL    HW2 1998   5.266   1.528   0.290
  367SOL     OW 1999   4.461   2.162   2.620
  367SOL    HW1 2000   4.414   2.074   2.622
  367SOL    HW2 2001   4.403   2.231   2.578
  368SOL     OW 2002   1.032   5.074   5.229
  368SOL    HW1 2003   0.991   4.983   5.218
  368SOL    HW2 2004   0.960   5.140   5.250
  369SOL     OW 2005   0.789   3.919   1.354
  369SOL    HW1 2006   0.827   3.979   1.425
  369SOL    HW2 2007   0.848   3.840   1.342
  370SOL     OW 2008   3.703   1.646   6.607
  370SOL    HW1 2009   3.743   1.738   6.605
  370SOL    HW2 2010   3.670   1.622   6.516
  371SOL     OW 2011   3.378   2.889   6.308
  371SOL    HW1 2012   3.323   2.864   6.228
  371SOL    HW2 2013   3.475   2.876   6.287
  372SOL     OW 2014   2.286   5.317   7.007
  372SOL    HW1 2015   2.294   5.303   0.083
  372SOL    HW2 2016   2.218   5.254   6.970
  373SOL     OW 2017   6.135   6.953   6.429
  373SOL    HW1 2018   6.196   6.879   6.458
  373SOL    HW2 2019   6.074   6.978   6.504
  374SOL     OW 2020   4.631   1.021   1.245
  374SOL    HW1 2021   4.703   0.969   1.200
  374SOL    HW2 2022   4.544   1.005   1.199
  375SOL     OW 2023   6.633   4.199   0.676
  375SOL    HW1 2024   6.701   4.134   0.641
  375SOL    HW2 2025   6.660   4.228   0.768
  376SOL     OW 2026   1.959   3.887   4.860
  376SOL    HW1 2027   1.942   3.802   4.909
  376SOL    HW2 2028   2.000   3.954   4.922
  377SOL     OW 2029   5.277   1.455   4.758
  377SOL    HW1 2030   5.321   1.367   4.775
  377SOL    HW2 2031   5.342   1.518   4.717
  378SOL     OW 2032   5.703   2.122   5.176
  378SOL    HW1 2033   5.633   2.165   5.233
  378SOL    HW2 2034   5.663   2.097   5.087
  379SOL     OW 2035   6.741   2.768   1.389
  379SOL    HW1 2036   6.815   2.711   1.353
  379SOL    HW2 2037   6.740   2.761   1.489
  380SOL     OW 2038   1.257   1.937   0.325
  380SOL    HW1 2039   1.247   2.037   0.324
  380SOL    HW2 2040   1.217   1.898   0.243
  381SOL     OW 2041   4.593   5.271   0.162
  381SOL    HW1 2042   4.633   5.292   0.073
  381SOL    HW2 2043   4.526   5.197   0.152
  382SOL     OW 2044   2.782   5.354   0.449
  382SOL    HW1 2045   2.742   5.377   0.538
  382SOL    HW2 2046   2.723   5.289   0.402
  383SOL     OW 2047   6.494   1.903   0.444
  383SOL    HW1 2048   6.447   1.877   0.360
  383SOL    HW2 2049   6.431   1.953   0.504
  384SOL     OW 2050   0.873   5.513   5.130
  384SOL    HW1 2051   0.911   5.470   5.212
  384SOL    HW2 2052   0.885   5.452   5.052
  385SOL     OW 2053   4.544   5.271   1.851
  385SOL    HW1 2054   4.538   5.354   1.795
  385SOL    HW2 2055   4.577   5.295   1.943
  386SOL     OW 2056   2.712   6.264   4.428
  386SOL    HW1 2057   2.673   6.183   4.385
  386SOL    HW2 2058   2.697   6.344   4.369
  387SOL     OW 2059   6.673   0.487   6.098
  387SOL    HW1 2060   6.647   0.582   6.083
  387SOL    HW2 2061   6.751   0.464   6.039
  388SOL     OW 2062   0.093   1.802   4.218
  388SOL    HW1 2063   0.104   1.757   4.306
  388SOL    HW2 2064   0.167   1.868   4.205
  389SOL     OW 2065   4.884   3.642   1.878
  389SOL    HW1 2066   4.912   3.557   1.923
  389SOL    HW2 2067   4.876   3.714   1.947
  390SOL     OW 2068   3.868   2.601   6.851
  390SOL    HW1 2069   3.880   2.691   6.809
  390SOL    HW2 2070   3.881   2.609   6.950
  391SOL     OW 2071   3.992   3.892   3.848
  391SOL    HW1 2072   4.067   3.955   3.869
  391SOL    HW2 2073   3.995   3.815   3.911
  392SOL     OW 2074   1.983   3.950   1.556
  392SOL    HW1 2075   2.028   3.915   1.473
  392SOL    HW2 2076   2.021   3.905   1.636
  393SOL     OW 2077   1.294   5.726   1.600
  393SOL    HW1 2078   1.378   5.781   1.597
  393SOL    HW2 2079   1.275   5.690   1.509
  394SOL     OW 2080   6.299   1.038   6.107
  394SOL    HW1 2081   6.320   1.118   6.049
  394SOL    HW2 2082   6.240   0.975   6.055
  395SOL     OW 2083   6.079   4.457   6.959
  395SOL    HW1 2084   6.099   4.518   0.013
  395SOL    HW2 2085   6.165   4.423   6.920
  396SOL     OW 2086   0.872   0.871   1.307
  396SOL    HW1 2087   0.789   0.888   1.256
  396SOL    HW2 2088   0.853   0.877   1.405
  397SOL     OW 2089   4.733   2.360   4.778
  397SOL    HW1 2090   4.806   2.321   4.833
  397SOL    HW2 2091   4.662   2.396   4.838
  398SOL     OW 2092   0.299   1.555   2.865
  398SOL    HW1 2093   0.203   1.544   2.840
  398SOL    HW2 2094   0.354   1.486   2.817
  399SOL     OW 2095   5.703   6.138   3.273
  399SOL    HW1 2096   5.768   6.078   3.226
  399SOL    HW2 2097   5.740   6.230   3.280
  400SOL     OW 2098   6.814   6.444   3.098
  400SOL    HW1 2099   6.739   6.381   3.119
  400SOL    HW2 2100   6.859   6.472   3.184
  401SOL     OW 2101   1.048   5.878   4.902
  401SOL    HW1 2102   1.006   5.956   4.948
  401SOL    HW2 2103   0.985   5.800   4.904
  402SOL     OW 2104   6.028   1.290   3.784
  402SOL    HW1 2105   6.102   1.299   3.717
  402SOL    HW2 2106   5.956   1.232   3.746
  403SOL     OW 2107   2.867   1.823   4.922
  403SOL    HW1 2108   2.873   1.845   5.019
  403SOL    HW2 2109   2.857   1.907   4.869
  404SOL     OW 2110   3.043   5.279   3.746
  404SOL    HW1 2111   3.023   5.313   3.838
  404SOL    HW2 2112   2.958   5.258   3.698
  405SOL     OW 2113   2.836   4.758   3.905
  405SOL    HW1 2114   2.844   4.700   3.986
  405SOL    HW2 2115   2.795   4.846   3.930
  406SOL     OW 2116   0.434   6.835   6.393
  406SOL    HW1 2117   0.446   6.736   6.384
  406SOL    HW2 2118   0.430   6.858   6.491
  407SOL     OW 2119   2.141   3.635   4.228
  407SOL    HW1 2120   2.138   3.561   4.295
  407SOL    HW2 2121   2.069   3.702   4.250
  408SOL     OW 2122   2.633   2.374   2.190
  408SOL    HW1 2123   2.730   2.372   2.164
  408SOL    HW2 2124   2.625   2.402   2.286
  409SOL     OW 2125   0.198   2.921   2.367
  409SOL    HW1 2126   0.267   2.960   2.306
  409SOL    HW2 2127   0.107   2.955   2.341
  410SOL     OW 2128   1.774   3.173   1.853
  410SOL    HW1 2129   1.774   3.207   1.759
  410SOL    HW2 2130   1.864   3.136   1.875
  411SOL     OW 2131   6.889   1.533   0.841
  411SOL    HW1 2132   6.982   1.541   0.805
  411SOL    HW2 2133   6.822   1.553   0.769
  412SOL     OW 2134   1.803   4.689   2.787
  412SOL    HW1 2135   1.734   4.706   2.858
  412SOL    HW2 2136   1.767   4.714   2.698
  413SOL     OW 2137   6.152   4.821   2.138
  413SOL    HW1 2138   6.224   4.821   2.069
  413SOL    HW2 2139   6.154   4.907   2.188
  414SOL     OW 2140   2.275   6.872   3.121
  414SOL    HW1 2141   2.194   6.818   3.142
  414SOL    HW2 2142   2.316   6.906   3.205
  415SOL     OW 2143   5.940   2.780   0.019
  415SOL    HW1 2144   5.898   2.710   0.076
  415SOL    HW2 2145   5.872   2.848   7.016
  416SOL     OW 2146   5.974   3.093   6.529
  416SOL    HW1 2147   6.071   3.112   6.539
  416SOL    HW2 2148   5.938   3.144   6.451
  417SOL     OW 2149   2.354   2.605   5.664
  417SOL    HW1 2150   2.369   2.648   5.753
  417SOL    HW2 2151   2.422   2.533   5.650
  418SOL     OW 2152   3.761   6.079   6.253
  418SOL    HW1 2153   3.688   6.042   6.195
  418SOL    HW2 2154   3.810   6.150   6.203
  419SOL     OW 2155   5.337   0.856   7.009
  419SOL    HW1 2156   5.255   0.913   7.013
  419SOL    HW2 2157   5.353   0.813   0.075
  420SOL     OW 2158   3.621   6.793   1.218
  420SOL    HW1 2159   3.592   6.709   1.264
  420SOL    HW2 2160   3.713   6.779   1.180
  421SOL     OW 2161   4.835   3.922   2.905
  421SOL    HW1 2162   4.928   3.955   2.891
  421SOL    HW2 2163   4.776   4.000   2.927
  422SOL     OW 2164   4.012   2.053   1.794
  422SOL    HW1 2165   4.075   2.074   1.869
  422SOL    HW2 2166   3.947   1.984   1.824
  423SOL     OW 2167   3.146   1.424   6.366
  423SOL    HW1 2168   3.047   1.411   6.371
  423SOL    HW2 2169   3.167   1.521   6.371
  424SOL     OW 2170   1.761   3.916   4.626
  424SOL    HW1 2171   1.827   3.876   4.689
  424SOL    HW2 2172   1.808   3.978   4.563
  425SOL     OW 2173   3.332   1.468   0.273
  425SOL    HW1 2174   3.360   1.372   0.277
  425SOL    HW2 2175   3.274   1.482   0.193
  426SOL     OW 2176   2.256   2.202   3.523
  426SOL    HW1 2177   2.162   2.211   3.556
  426SOL    HW2 2178   2.261   2.232   3.428
  427SOL     OW 2179   4.461   1.582   4.065
  427SOL    HW1 2180   4.369   1.601   4.030
  427SOL    HW2 2181   4.494   1.660   4.118
  428SOL     OW 2182   2.022   1.847   6.413
  428SOL    HW1 2183   1.944   1.898   6.450
  428SOL    HW2 2184   2.095   1.843   6.482
  429SOL     OW 2185   6.936   6.567   3.377
  429SOL    HW1 2186   6.936   6.654   3.328
  429SOL    HW2 2187   7.020   6.559   3.431
  430SOL     OW 2188   2.349   1.263   3.555
  430SOL    HW1 2189   2.300   1.179   3.576
  430SOL    HW2 2190   2.296   1.342   3.586
  431SOL     OW 2191   2.595   1.015   1.728
  431SOL    HW1 2192   2.569   1.099   1.776
  431SOL    HW2 2193   2.693   1.017   1.707
  432SOL     OW 2194   5.163   1.722   1.243
  432SOL    HW1 2195   5.089   1.719   1.176
  432SOL    HW2 2196   5.237   1.780   1.209
  433SOL     OW 2197   2.339   4.712   0.320
  433SOL    HW1 2198   2.352   4.626   0.271
  433SOL    HW2 2199   2.329   4.694   0.418
  434SOL     OW 2200   3.782   5.730   2.622
  434SOL    HW1 2201   3.764   5.632   2.633
  434SOL    HW2 2202   3.817   5.767   2.708
  435SOL     OW 2203   2.994   2.597   6.302
  435SOL    HW1 2204   3.081   2.555   6.278
  435SOL    HW2 2205   2.973   2.578   6.398
  436SOL     OW 2206   5.308   6.616   2.554
  436SOL    HW1 2207   5.339   6.656   2.468
  436SOL    HW2 2208   5.385   6.610   2.617
  437SOL     OW 2209   6.793   0.811   5.585
  437SOL    HW1 2210   6.829   0.718   5.578
  437SOL    HW2 2211   6.858   0.876   5.546
  438SOL     OW 2212   0.750   4.188   2.098
  438SOL    HW1 2213   0.740   4.157   2.004
  438SOL    HW2 2214   0.847   4.199   2.119
  439SOL     OW 2215   0.497   0.673   6.185
  439SOL    HW1 2216   0.518   0.770   6.195
  439SOL    HW2 2217   0.581   0.622   6.169
  440SOL     OW 2218   3.465   1.830   1.208
  440SOL    HW1 2219   3.468   1.737   1.245
  440SOL    HW2 2220   3.510   1.832   1.119
  441SOL     OW 2221   0.656   4.600   2.344
  441SOL    HW1 2222   0.704   4.688   2.348
  441SOL    HW2 2223   0.560   4.613   2.369
  442SOL     OW 2224   3.705   3.181   4.960
  442SOL    HW1 2225   3.703   3.232   4.874
  442SOL    HW2 2226   3.791   3.201   5.008
  443SOL     OW 2227   4.609   2.659   2.841
  443SOL    HW1 2228   4.612   2.659   2.741
  443SOL    HW2 2229   4.647   2.744   2.876
  444SOL     OW 2230   3.884   2.552   1.121
  444SOL    HW1 2231   3.832   2.478   1.164
  444SOL    HW2 2232   3.823   2.604   1.061
  445SOL     OW 2233   2.378   5.531   3.183
  445SOL    HW1 2234   2.364   5.630   3.178
  445SOL    HW2 2235   2.450   5.504   3.119
  446SOL     OW 2236   6.478   6.970   0.826
  446SOL    HW1 2237   6.406   6.905   0.800
  446SOL    HW2 2238   6.480   6.979   0.925
  447SOL     OW 2239   5.972   3.607   6.780
  447SOL    HW1 2240   6.061   3.571   6.806
  447SOL    HW2 2241   5.982   3.670   6.703
  448SOL     OW 2242   3.530   6.362   3.909
  448SOL    HW1 2243   3.600   6.357   3.837
  448SOL    HW2 2244   3.508   6.269   3.939
  449SOL     OW 2245   0.641   3.967   4.747
  449SOL    HW1 2246   0.629   3.876   4.786
  449SOL    HW2 2247   0.571   3.983   4.677
  450SOL     OW 2248   6.734   3.844   2.871
  450SOL    HW1 2249   6.683   3.767   2.833
  450SOL    HW2 2250   6.738   3.918   2.804
  451SOL     OW 2251   2.132   1.942   0.060
  451SOL    HW1 2252   2.097   1.998   0.136
  451SOL    HW2 2253   2.133   1.997   6.999
  452SOL     OW 2254   3.975   5.155   1.636
  452SOL    HW1 2255   4.014   5.235   1.683
  452SOL    HW2 2256   3.914   5.186   1.563
  453SOL     OW 2257   4.540   0.486   0.120
  453SOL    HW1 2258   4.518   0.407   0.062
  453SOL    HW2 2259   4.457   0.540   0.135
  454SOL     OW 2260   6.569   3.071   4.070
  454SOL    HW1 2261   6.488   3.054   4.127
  454SOL    HW2 2262   6.641   3.006   4.094
  455SOL     OW 2263   5.564   5.378   0.072
  455SOL    HW1 2264   5.628   5.385   7.018
  455SOL    HW2 2265   5.562   5.284   0.106
  456SOL     OW 2266   1.675   0.722   2.939
  456SOL    HW1 2267   1.700   0.770   3.023
  456SOL    HW2 2268   1.637   0.633   2.962
  457SOL     OW 2269   2.928   5.925   0.112
  457SOL    HW1 2270   3.005   5.893   0.168
  457SOL    HW2 2271   2.859   5.852   0.107
  458SOL     OW 2272   3.215   1.279   3.639
  458SOL    HW1 2273   3.155   1.357   3.657
  458SOL    HW2 2274   3.215   1.218   3.718
  459SOL     OW 2275   2.667   0.949   3.300
  459SOL    HW1 2276   2.710   0.994   3.222
  459SOL    HW2 2277   2.737   0.915   3.362
  460SOL     OW 2278   0.822   1.433   6.716
  460SOL    HW1 2279   0.744   1.493   6.734
  460SOL    HW2 2280   0.907   1.480   6.739
  461SOL     OW 2281   1.223   7.015   5.409
  461SOL    HW1 2282   1.306   6.959   5.403
  461SOL    HW2 2283   1.206   0.017   5.505
  462SOL     OW 2284   3.619   3.919   5.152
  462SOL    HW1 2285   3.604   3.964   5.064
  462SOL    HW2 2286   3.578   3.974   5.225
  463SOL     OW 2287   5.193   6.274   2.776
  463SOL    HW1 2288   5.289   6.256   2.755
  463SOL    HW2 2289   5.155   6.337   2.709
  464SOL     OW 2290   4.412   6.209   4.725
  464SOL    HW1 2291   4.458   6.257   4.651
  464SOL    HW2 2292   4.466   6.128   4.751
  465SOL     OW 2293   0.113   5.004   0.135
  465SOL    HW1 2294   0.113   4.987   0.233
  465SOL    HW2 2295   0.123   4.918   0.085
  466SOL     OW 2296   3.607   4.933   4.494
  466SOL    HW1 2297   3.681   4.866   4.497
  466SOL    HW2 2298   3.598   4.977   4.584
  467SOL     OW 2299   6.658   6.910   1.764
  467SOL    HW1 2300   6.729   6.854   1.723
  467SOL    HW2 2301   6.574   6.857   1.773
  468SOL     OW 2302   2.601   6.120   6.202
  468SOL    HW1 2303   2.678   6.111   6.138
  468SOL    HW2 2304   2.568   6.215   6.202
  469SOL     OW 2305   3.324   4.692   5.360
  469SOL    HW1 2306   3.347   4.681   5.457
  469SOL    HW2 2307   3.265   4.617   5.330
  470SOL     OW 2308   1.808   5.239   2.284
  470SOL    HW1 2309   1.751   5.165   2.248
  470SOL    HW2 2310   1.866   5.205   2.358
  471SOL     OW 2311   1.637   1.874   4.236
  471SOL    HW1 2312   1.541   1.875   4.263
  471SOL    HW2 2313   1.648   1.822   4.151
  472SOL     OW 2314   5.296   4.172   6.150
  472SOL    HW1 2315   5.226   4.219   6.203
  472SOL    HW2 2316   5.286   4.073   6.163
  473SOL     OW 2317   5.787   3.193   2.145
  473SOL    HW1 2318   5.688   3.206   2.146
  473SOL    HW2 2319   5.832   3.281   2.162
  474SOL     OW 2320   4.732   5.260   3.274
  474SOL    HW1 2321   4.804   5.328   3.286
  474SOL    HW2 2322   4.643   5.305   3.278
  475SOL     OW 2323   4.493   1.294   0.496
  475SOL    HW1 2324   4.526   1.348   0.574
  475SOL    HW2 2325   4.566   1.286   0.428
  476SOL     OW 2326   1.145   2.783   0.295
  476SOL    HW1 2327   1.072   2.844   0.263
  476SOL    HW2 2328   1.223   2.790   0.234
  477SOL     OW 2329   6.385   5.461   3.541
  477SOL    HW1 2330   6.315   5.533   3.546
  477SOL    HW2 2331   6.428   5.450   3.631
  478SOL     OW 2332   6.433   5.220   2.617
  478SOL    HW1 2333   6.411   5.127   2.647
  478SOL    HW2 2334   6.442   5.280   2.697
  479SOL     OW 2335   3.141   3.687   2.931
  479SOL    HW1 2336   3.154   3.672   3.029
  479SOL    HW2 2337   3.209   3.752   2.897
  480SOL     OW 2338   0.547   0.891   1.620
  480SOL    HW1 2339   0.516   0.878   1.715
  480SOL    HW2 2340   0.505   0.975   1.584
  481SOL     OW 2341   6.063   5.984   0.697
  481SOL    HW1 2342   6.074   6.083   0.685
  481SOL    HW2 2343   6.149   5.945   0.731
  482SOL     OW 2344   3.704   5.115   2.322
  482SOL    HW1 2345   3.653   5.036   2.287
  482SOL    HW2 2346   3.658   5.150   2.403
  483SOL     OW 2347   6.431   0.467   4.219
  483SOL    HW1 2348   6.428   0.487   4.121
  483SOL    HW2 2349   6.372   0.530   4.268
  484SOL     OW 2350   2.377   4.799   3.200
  484SOL    HW1 2351   2.442   4.875   3.208
  484SOL    HW2 2352   2.428   4.714   3.190
  485SOL     OW 2353   4.912   2.716   0.789
  485SOL    HW1 2354   4.843   2.649   0.761
  485SOL    HW2 2355   4.952   2.687   0.876
  486SOL     OW 2356   6.176   6.202   5.041
  486SOL    HW1 2357   6.101   6.163   5.094
  486SOL    HW2 2358   6.145   6.222   4.948
  487SOL     OW 2359   0.162   0.424   6.618
  487SOL    HW1 2360   0.081   0.371   6.595
  487SOL    HW2 2361   0.233   0.408   6.550
  488SOL     OW 2362   1.783   5.747   2.967
  488SOL    HW1 2363   1.721   5.672   2.993
  488SOL    HW2 2364   1.814   5.794   3.050
  489SOL     OW 2365   2.648   4.685   5.481
  489SOL    HW1 2366   2.611   4.745   5.551
  489SOL    HW2 2367   2.742   4.660   5.504
  490SOL     OW 2368   1.558   3.310   5.200
  490SOL    HW1 2369   1.504   3.354   5.128
  490SOL    HW2 2370   1.579   3.216   5.173
  491SOL     OW 2371   5.837   3.649   0.980
  491SOL    HW1 2372   5.854   3.557   1.015
  491SOL    HW2 2373   5.924   3.696   0.965
  492SOL     OW 2374   1.529   2.221   5.689
  492SOL    HW1 2375   1.483   2.266   5.612
  492SOL    HW2 2376   1.498   2.127   5.696
  493SOL     OW 2377   1.487   5.778   3.803
  493SOL    HW1 2378   1.508   5.681   3.788
  493SOL    HW2 2379   1.572   5.831   3.799
  494SOL     OW 2380   3.033   0.464   3.840
  494SOL    HW1 2381   3.075   0.375   3.822
  494SOL    HW2 2382   3.034   0.519   3.756
  495SOL     OW 2383   3.918   4.784   0.001
  495SOL    HW1 2384   3.835   4.780   0.056
  495SOL    HW2 2385   3.995   4.750   0.054
  496SOL     OW 2386   4.899   1.149   3.334
  496SOL    HW1 2387   4.817   1.205   3.349
  496SOL    HW2 2388   4.967   1.169   3.405
  497SOL     OW 2389   4.808   2.840   1.068
  497SOL    HW1 2390   4.878   2.770   1.078
  497SOL    HW2 2391   4.731   2.803   1.015
  498SOL     OW 2392   0.321   0.266   1.209
  498SOL    HW1 2393   0.368   0.319   1.279
  498SOL    HW2 2394   0.386   0.238   1.138
  499SOL     OW 2395   2.772   0.022   6.790
  499SOL    HW1 2396   2.805   6.982   6.719
  499SOL    HW2 2397   2.673   0.035   6.780
  500SOL     OW 2398   6.090   1.883   6.629
  500SOL    HW1 2399   6.145   1.837   6.698
  500SOL    HW2 2400   6.051   1.814   6.567
  501SOL     OW 2401   1.520   2.316   4.624
  501SOL    HW1 2402   1.590   2.245   4.614
  501SOL    HW2 2403   1.429   2.274   4.618
  502SOL     OW 2404   2.323   3.162   6.836
  502SOL    HW1 2405   2.383   3.089   6.869
  502SOL    HW2 2406   2.319   3.159   6.736
  503SOL     OW 2407   3.969   4.918   1.143
  503SOL    HW1 2408   3.889   4.910   1.202
  503SOL    HW2 2409   3.941   4.906   1.048
  504SOL     OW 2410   6.614   0.370   0.035
  504SOL    HW1 2411   6.569   0.419   0.109
  504SOL    HW2 2412   6.642   0.280   0.066
  505SOL     OW 2413   6.385   3.531   5.694
  505SOL    HW1 2414   6.413   3.604   5.632
  505SOL    HW2 2415   6.338   3.459   5.641
  506SOL     OW 2416   2.414   5.520   1.801
  506SOL    HW1 2417   2.387   5.473   1.885
  506SOL    HW2 2418   2.499   5.480   1.766
  507SOL     OW 2419   2.999   0.011   3.103
  507SOL    HW1 2420   3.098   0.021   3.117
  507SOL    HW2 2421   2.962   0.097   3.068
  508SOL     OW 2422   0.576   5.324   3.526
  508SOL    HW1 2423   0.490   5.331   3.474
  508SOL    HW2 2424   0.615   5.233   3.512
  509SOL     OW 2425   4.555   0.478   5.958
  509SOL    HW1 2426   4.492   0.525   6.020
  509SOL    HW2 2427   4.613   0.546   5.912
  510SOL     OW 2428   6.588   4.519   6.895
  510SOL    HW1 2429   6.533   4.556   6.820
  510SOL    HW2 2430   6.639   4.594   6.939
  511SOL     OW 2431   0.706   1.600   0.396
  511SOL    HW1 2432   0.794   1.619   0.440
  511SOL    HW2 2433   0.633   1.614   0.463
  512SOL     OW 2434   1.074   2.046   4.120
  512SOL    HW1 2435   1.140   2.110   4.160
  512SOL    HW2 2436   1.023   2.001   4.194
  513SOL     OW 2437   5.695   5.860   2.834
  513SOL    HW1 2438   5.683   5.760   2.834
  513SOL    HW2 2439   5.793   5.882   2.831
  514SOL     OW 2440   4.783   1.457   4.483
  514SOL    HW1 2441   4.877   1.434   4.506
  514SOL    HW2 2442   4.723   1.379   4.503
  515SOL     OW 2443   3.338   0.889   0.231
  515SOL    HW1 2444   3.306   0.963   0.173
  515SOL    HW2 2445   3.431   0.863   0.204
  516SOL     OW 2446   0.643   5.960   2.064
  516SOL    HW1 2447   0.690   5.881   2.104
  516SOL    HW2 2448   0.603   6.016   2.137
  517SOL     OW 2449   3.430   4.672   1.066
  517SOL    HW1 2450   3.336   4.691   1.093
  517SOL    HW2 2451   3.478   4.627   1.141
  518SOL     OW 2452   2.573   6.481   3.681
  518SOL    HW1 2453   2.664   6.441   3.697
  518SOL    HW2 2454   2.573   6.529   3.594
  519SOL     OW 2455   6.631   0.165   2.752
  519SOL    HW1 2456   6.595   0.081   2.792
  519SOL    HW2 2457   6.713   0.194   2.802
  520SOL     OW 2458   3.107   5.513   0.815
  520SOL    HW1 2459   3.120   5.426   0.768
  520SOL    HW2 2460   3.025   5.558   0.780
  521SOL     OW 2461   6.813   6.197   5.137
  521SOL    HW1 2462   6.797   6.267   5.068
  521SOL    HW2 2463   6.725   6.168   5.175
  522SOL     OW 2464   3.763   4.744   6.724
  522SOL    HW1 2465   3.831   4.748   6.650
  522SOL    HW2 2466   3.763   4.830   6.774
  523SOL     OW 2467   2.037   6.897   5.850
  523SOL    HW1 2468   1.959   6.836   5.838
  523SOL    HW2 2469   2.038   6.965   5.777
  524SOL     OW 2470   6.746   1.159   0.998
  524SOL    HW1 2471   6.667   1.211   1.031
  524SOL    HW2 2472   6.822   1.169   1.063
  525SOL     OW 2473   1.078   3.578   3.535
  525SOL    HW1 2474   1.007   3.608   3.599
  525SOL    HW2 2475   1.168   3.599   3.572
  526SOL     OW 2476   3.891   6.577   4.636
  526SOL    HW1 2477   3.958   6.509   4.609
  526SOL    HW2 2478   3.931   6.668   4.629
  527SOL     OW 2479   0.205   0.932   0.989
  527SOL    HW1 2480   0.148   0.894   0.916
  527SOL    HW2 2481   0.297   0.893   0.983
  528SOL     OW 2482   6.756   1.560   4.418
  528SOL    HW1 2483   6.674   1.603   4.455
  528SOL    HW2 2484   6.802   1.509   4.490
  529SOL     OW 2485   1.333   1.349   5.930
  529SOL    HW1 2486   1.244   1.394   5.919
  529SOL    HW2 2487   1.396   1.413   5.975
  530SOL     OW 2488   3.226   4.414   1.640
  530SOL    HW1 2489   3.318   4.387   1.611
  530SOL    HW2 2490   3.229   4.506   1.680
  531SOL     OW 2491   0.249   1.212   6.193
  531SOL    HW1 2492   0.342   1.241   6.216
  531SOL    HW2 2493   0.205   1.284   6.138
  532SOL     OW 2494   3.537   0.886   6.654
  532SOL    HW1 2495   3.468   0.815   6.663
  532SOL    HW2 2496   3.611   0.869   6.719
  533SOL     OW 2497   4.521   6.844   4.701
  533SOL    HW1 2498   4.545   6.778   4.772
  533SOL    HW2 2499   4.568   6.931   4.718
  534SOL     OW 2500   1.981   4.216   1.624
  534SOL    HW1 2501   2.054   4.211   1.692
  534SOL    HW2 2502   1.955   4.123   1.595
  535SOL     OW 2503   4.495   4.628   4.212
  535SOL    HW1 2504   4.543   4.541   4.206
  535SOL    HW2 2505   4.502   4.664   4.305
  536SOL     OW 2506   6.263   6.300   0.868
  536SOL    HW1 2507   6.336   6.300   0.800
  536SOL    HW2 2508   6.291   6.352   0.948
  537SOL     OW 2509   3.394   1.538   2.758
  537SOL    HW1 2510   3.375   1.586   2.844
  537SOL    HW2 2511   3.308   1.525   2.709
  538SOL     OW 2512   3.962   4.684   5.332
  538SOL    HW1 2513   3.930   4.775   5.358
  538SOL    HW2 2514   4.037   4.692   5.267
  539SOL     OW 2515   2.461   0.492   6.908
  539SOL    HW1 2516   2.484   0.415   6.968
  539SOL    HW2 2517   2.372   0.476   6.866
  540SOL     OW 2518   2.394   1.366   5.202
  540SOL    HW1 2519   2.340   1.408   5.275
  540SOL    HW2 2520   2.345   1.288   5.164
  541SOL     OW 2521   5.034   6.174   2.965
  541SOL    HW1 2522   5.079   6.101   3.017
  541SOL    HW2 2523   5.092   6.201   2.889
  542SOL     OW 2524   3.655   6.077   5.826
  542SOL    HW1 2525   3.618   6.107   5.914
  542SOL    HW2 2526   3.755   6.079   5.830
  543SOL     OW 2527   6.410   2.176   4.857
  543SOL    HW1 2528   6.411   2.112   4.780
  543SOL    HW2 2529   6.315   2.203   4.875
  544SOL     OW 2530   0.695   2.805   1.132
  544SOL    HW1 2531   0.758   2.745   1.182
  544SOL    HW2 2532   0.709   2.793   1.033
  545SOL     OW 2533   6.899   5.006   0.396
  545SOL    HW1 2534   6.863   5.007   0.303
  545SOL    HW2 2535   6.853   5.076   0.451
  546SOL     OW 2536   6.941   5.277   2.599
  546SOL    HW1 2537   6.964   5.226   2.682
  546SOL    HW2 2538   6.842   5.281   2.589
  547SOL     OW 2539   4.017   6.680   6.418
  547SOL    HW1 2540   3.922   6.685   6.448
  547SOL    HW2 2541   4.063   6.604   6.463
  548SOL     OW 2542   4.101   2.468   0.229
  548SOL    HW1 2543   4.150   2.398   0.177
  548SOL    HW2 2544   4.085   2.548   0.171
  549SOL     OW 2545   5.353   2.703   3.747
  549SOL    HW1 2546   5.365   2.643   3.827
  549SOL    HW2 2547   5.263   2.685   3.706
  550SOL     OW 2548   6.887   6.113   3.572
  550SOL    HW1 2549   6.813   6.080   3.631
  550SOL    HW2 2550   6.958   6.156   3.627
  551SOL     OW 2551   5.348   0.859   0.271
  551SOL    HW1 2552   5.399   0.801   0.334
  551SOL    HW2 2553   5.391   0.950   0.266
  552SOL     OW 2554   0.245   0.229   4.817
  552SOL    HW1 2555   0.154   0.202   4.786
  552SOL    HW2 2556   0.237   0.289   4.897
  553SOL     OW 2557   3.725   2.479   5.371
  553SOL    HW1 2558   3.651   2.544   5.351
  553SOL    HW2 2559   3.810   2.530   5.386
  554SOL     OW 2560   6.940   5.371   0.269
  554SOL    HW1 2561   6.890   5.455   0.249
  554SOL    HW2 2562   6.897   5.323   0.345
  555SOL     OW 2563   2.893   4.308   6.138
  555SOL    HW1 2564   2.960   4.251   6.185
  555SOL    HW2 2565   2.801   4.287   6.173
  556SOL     OW 2566   5.971   6.251   2.094
  556SOL    HW1 2567   5.891   6.310   2.096
  556SOL    HW2 2568   6.049   6.298   2.135
  557SOL     OW 2569   5.785   3.743   6.483
  557SOL    HW1 2570   5.707   3.801   6.507
  557SOL    HW2 2571   5.869   3.781   6.522
  558SOL     OW 2572   3.522   3.931   2.189
  558SOL    HW1 2573   3.501   3.879   2.272
  558SOL    HW2 2574   3.457   4.006   2.180
  559SOL     OW 2575   6.284   1.040   6.626
  559SOL    HW1 2576   6.209   1.005   6.682
  559SOL    HW2 2577   6.251   1.059   6.534
  560SOL     OW 2578   0.427   2.411   3.574
  560SOL    HW1 2579   0.488   2.414   3.494
  560SOL    HW2 2580   0.335   2.388   3.544
  561SOL     OW 2581   0.414   3.824   6.815
  561SOL    HW1 2582   0.402   3.834   6.913
  561SOL    HW2 2583   0.511   3.830   6.792
  562SOL     OW 2584   4.080   6.223   3.655
  562SOL    HW1 2585   3.984   6.194   3.659
  562SOL    HW2 2586   4.127   6.170   3.585
  563SOL     OW 2587   0.741   0.948   4.447
  563SOL    HW1 2588   0.775   1.014   4.380
  563SOL    HW2 2589   0.698   0.872   4.400
  564SOL     OW 2590   5.859   1.584   5.294
  564SOL    HW1 2591   5.953   1.597   5.261
  564SOL    HW2 2592   5.862   1.533   5.380
  565SOL     OW 2593   2.923   3.418   4.146
  565SOL    HW1 2594   2.908   3.497   4.204
  565SOL    HW2 2595   2.909   3.334   4.199
  566SOL     OW 2596   1.618   2.737   3.714
  566SOL    HW1 2597   1.626   2.783   3.803
  566SOL    HW2 2598   1.705   2.745   3.665
  567SOL     OW 2599   1.636   2.997   5.460
  567SOL    HW1 2600   1.597   3.088   5.470
  567SOL    HW2 2601   1.685   2.973   5.544
  568SOL     OW 2602   1.413   0.023   0.053
  568SOL    HW1 2603   1.356   0.031   0.135
  568SOL    HW2 2604   1.384   6.967   7.022
  569SOL     OW 2605   5.173   3.652   5.283
  569SOL    HW1 2606   5.143   3.747   5.287
  569SOL    HW2 2607   5.159   3.608   5.372
  570SOL     OW 2608   3.435   0.963   6.177
  570SOL    HW1 2609   3.463   0.976   6.273
  570SOL    HW2 2610   3.336   0.975   6.169
  571SOL     OW 2611   2.511   4.413   1.790
  571SOL    HW1 2612   2.581   4.440   1.724
  571SOL    HW2 2613   2.525   4.462   1.876
  572SOL     OW 2614   3.090   1.289   4.568
  572SOL    HW1 2615   3.121   1.321   4.478
  572SOL    HW2 2616   3.102   1.190   4.575
  573SOL     OW 2617   0.345   0.675   5.338
  573SOL    HW1 2618   0.386   0.681   5.248
  573SOL    HW2 2619   0.393   0.606   5.393
  574SOL     OW 2620   2.449   1.218   6.051
  574SOL    HW1 2621   2.475   1.204   5.956
  574SOL    HW2 2622   2.350   1.234   6.057
  575SOL     OW 2623   3.812   3.588   0.238
  575SOL    HW1 2624   3.860   3.500   0.241
  575SOL    HW2 2625   3.877   3.663   0.248
  576SOL     OW 2626   0.640   1.159   2.437
  576SOL    HW1 2627   0.621   1.141   2.533
  576SOL    HW2 2628   0.581   1.232   2.404
  577SOL     OW 2629   0.363   6.945   1.955
  577SOL    HW1 2630   0.411   6.899   2.029
  577SOL    HW2 2631   0.272   6.905   1.944
  578SOL     OW 2632   4.056   0.084   0.370
  578SOL    HW1 2633   4.021   0.081   0.276
  578SOL    HW2 2634   4.138   0.142   0.373
  579SOL     OW 2635   1.067   3.747   1.658
  579SOL    HW1 2636   1.045   3.761   1.754
  579SOL    HW2 2637   1.113   3.828   1.622
  580SOL     OW 2638   4.531   5.191   4.435
  580SOL    HW1 2639   4.494   5.271   4.388
  580SOL    HW2 2640   4.484   5.109   4.403
  581SOL     OW 2641   1.710   2.481   4.002
  581SOL    HW1 2642   1.740   2.388   4.024
  581SOL    HW2 2643   1.762   2.547   4.057
  582SOL     OW 2644   5.842   4.347   4.671
  582SOL    HW1 2645   5.815   4.434   4.713
  582SOL    HW2 2646   5.886   4.365   4.583
  583SOL     OW 2647   2.909   6.366   5.529
  583SOL    HW1 2648   2.913   6.325   5.438
  583SOL    HW2 2649   2.989   6.424   5.543
  584SOL     OW 2650   4.288   1.193   5.284
  584SOL    HW1 2651   4.200   1.173   5.242
  584SOL    HW2 2652   4.291   1.289   5.312
  585SOL     OW 2653   3.753   6.764   1.559
  585SOL    HW1 2654   3.727   6.850   1.515
  585SOL    HW2 2655   3.853   6.760   1.566
  586SOL     OW 2656   3.721   6.821   0.712
  586SOL    HW1 2657   3.754   6.841   0.620
  586SOL    HW2 2658   3.629   6.781   0.707
  587SOL     OW 2659   5.062   1.674   2.522
  587SOL    HW1 2660   5.085   1.733   2.445
  587SOL    HW2 2661   5.064   1.579   2.492
  588SOL     OW 2662   2.182   4.012   3.130
  588SOL    HW1 2663   2.208   3.981   3.039
  588SOL    HW2 2664   2.113   3.951   3.168
  589SOL     OW 2665   3.580   5.405   6.882
  589SOL    HW1 2666   3.521   5.382   6.805
  589SOL    HW2 2667   3.525   5.444   6.956
  590SOL     OW 2668   2.777   1.803   6.310
  590SOL    HW1 2669   2.727   1.792   6.396
  590SOL    HW2 2670   2.722   1.858   6.247
  591SOL     OW 2671   2.510   6.800   3.495
  591SOL    HW1 2672   2.486   6.873   3.431
  591SOL    HW2 2673   2.444   6.799   3.571
  592SOL     OW 2674   5.073   2.783   5.116
  592SOL    HW1 2675   5.001   2.715   5.131
  592SOL    HW2 2676   5.076   2.845   5.194
  593SOL     OW 2677   1.928   0.826   6.781
  593SOL    HW1 2678   1.994   0.826   6.856
  593SOL    HW2 2679   1.939   0.910   6.728
  594SOL     OW 2680   3.906   1.013   4.602
  594SOL    HW1 2681   3.959   1.094   4.629
  594SOL    HW2 2682   3.822   1.010   4.656
  595SOL     OW 2683   6.090   4.058   2.122
  595SOL    HW1 2684   6.071   4.154   2.101
  595SOL    HW2 2685   6.138   4.016   2.044
  596SOL     OW 2686   5.881   5.251   4.187
  596SOL    HW1 2687   5.784   5.249   4.165
  596SOL    HW2 2688   5.911   5.161   4.218
  597SOL     OW 2689   3.177   1.695   6.426
  597SOL    HW1 2690   3.134   1.782   6.405
  597SOL    HW2 2691   3.152   1.666   6.518
  598SOL     OW 2692   2.960   3.872   3.326
  598SOL    HW1 2693   3.005   3.904   3.409
  598SOL    HW2 2694   3.003   3.915   3.246
  599SOL     OW 2695   2.063   4.551   1.252
  599SOL    HW1 2696   2.134   4.562   1.322
  599SOL    HW2 2697   1.982   4.509   1.293
  600SOL     OW 2698   0.341   3.335   5.118
  600SOL    HW1 2699   0.400   3.407   5.154
  600SOL    HW2 2700   0.255   3.334   5.167
  601SOL     OW 2701   6.909   6.468   5.848
  601SOL    HW1 2702   6.885   6.477   5.945
  601SOL    HW2 2703   6.968   6.388   5.836
  602SOL     OW 2704   1.181   0.562   3.563
  602SOL    HW1 2705   1.198   0.468   3.533
  602SOL    HW2 2706   1.253   0.622   3.528
  603SOL     OW 2707   1.368   1.364   3.974
  603SOL    HW1 2708   1.370   1.462   3.950
  603SOL    HW2 2709   1.403   1.352   4.066
  604SOL     OW 2710   5.087   2.797   1.308
  604SOL    HW1 2711   5.026   2.738   1.362
  604SOL    HW2 2712   5.155   2.839   1.368
  605SOL     OW 2713   5.808   6.397   1.305
  605SOL    HW1 2714   5.717   6.397   1.265
  605SOL    HW2 2715   5.870   6.343   1.248
  606SOL     OW 2716   3.006   6.575   5.204
  606SOL    HW1 2717   2.981   6.639   5.277
  606SOL    HW2 2718   3.075   6.512   5.237
  607SOL     OW 2719   1.384   3.051   6.173
  607SOL    HW1 2720   1.395   2.998   6.089
  607SOL    HW2 2721   1.467   3.104   6.190
  608SOL     OW 2722   3.153   1.531   0.078
  608SOL    HW1 2723   3.056   1.542   0.057
  608SOL    HW2 2724   3.199   1.487   0.001
  609SOL     OW 2725   3.675   3.206   2.273
  609SOL    HW1 2726   3.749   3.143   2.248
  609SOL    HW2 2727   3.643   3.186   2.365
  610SOL     OW 2728   4.903   2.941   1.833
  610SOL    HW1 2729   4.816   2.954   1.881
  610SOL    HW2 2730   4.893   2.868   1.766
  611SOL     OW 2731   3.640   1.571   2.065
  611SOL    HW1 2732   3.650   1.638   2.138
  611SOL    HW2 2733   3.543   1.566   2.038
  612SOL     OW 2734   4.414   4.989   4.320
  612SOL    HW1 2735   4.381   4.896   4.304
  612SOL    HW2 2736   4.453   5.026   4.236
  613SOL     OW 2737   4.310   5.068   6.345
  613SOL    HW1 2738   4.287   5.151   6.395
  613SOL    HW2 2739   4.408   5.066   6.327
  614SOL     OW 2740   3.137   6.384   6.283
  614SOL    HW1 2741   3.047   6.360   6.246
  614SOL    HW2 2742   3.134   6.380   6.383
  615SOL     OW 2743   6.870   4.826   3.395
  615SOL    HW1 2744   6.931   4.801   3.320
  615SOL    HW2 2745   6.923   4.863   3.470
  616SOL     OW 2746   5.989   2.625   3.913
  616SOL    HW1 2747   6.005   2.642   4.010
  616SOL    HW2 2748   5.925   2.693   3.878
  617SOL     OW 2749   2.287   0.258   6.336
  617SOL    HW1 2750   2.286   0.250   6.236
  617SOL    HW2 2751   2.371   0.305   6.364
  618SOL     OW 2752   2.378   0.740   3.774
  618SOL    HW1 2753   2.382   0.681   3.694
  618SOL    HW2 2754   2.282   0.759   3.797
  619SOL     OW 2755   1.081   2.276   6.948
  619SOL    HW1 2756   1.041   2.346   6.890
  619SOL    HW2 2757   1.009   2.237   7.006
  620SOL     OW 2758   4.494   3.373   0.491
  620SOL    HW1 2759   4.528   3.408   0.578
  620SOL    HW2 2760   4.520   3.435   0.418
  621SOL     OW 2761   0.248   5.560   1.141
  621SOL    HW1 2762   0.274   5.506   1.221
  621SOL    HW2 2763   0.152   5.544   1.120
  622SOL     OW 2764   0.250   1.231   0.300
  622SOL    HW1 2765   0.197   1.266   0.377
  622SOL    HW2 2766   0.339   1.200   0.332
  623SOL     OW 2767   6.689   5.249   5.191
  623SOL    HW1 2768   6.753   5.193   5.139
  623SOL    HW2 2769   6.732   5.275   5.278
  624SOL     OW 2770   0.658   1.647   1.343
  624SOL    HW1 2771   0.579   1.682   1.292
  624SOL    HW2 2772   0.742   1.681   1.302
  625SOL     OW 2773   1.392   1.221   2.715
  625SOL    HW1 2774   1.451   1.144   2.691
  625SOL    HW2 2775   1.425   1.263   2.800
  626SOL     OW 2776   2.978   5.711   4.729
  626SOL    HW1 2777   2.998   5.616   4.753
  626SOL    HW2 2778   2.906   5.746   4.789
  627SOL     OW 2779   4.716   6.343   6.644
  627SOL    HW1 2780   4.738   6.439   6.663
  627SOL    HW2 2781   4.754   6.286   6.717
  628SOL     OW 2782   5.835   4.169   2.909
  628SOL    HW1 2783   5.846   4.214   2.998
  628SOL    HW2 2784   5.922   4.126   2.883
  629SOL     OW 2785   1.850   0.209   0.878
  629SOL    HW1 2786   1.916   0.183   0.807
  629SOL    HW2 2787   1.765   0.239   0.834
  630SOL     OW 2788   2.566   1.446   2.267
  630SOL    HW1 2789   2.658   1.444   2.228
  630SOL    HW2 2790   2.511   1.516   2.222
  631SOL     OW 2791   2.763   0.833   4.663
  631SOL    HW1 2792   2.776   0.740   4.697
  631SOL    HW2 2793   2.844   0.862   4.612
  632SOL     OW 2794   2.954   0.787   1.216
  632SOL    HW1 2795   2.875   0.732   1.246
  632SOL    HW2 2796   3.014   0.730   1.160
  633SOL     OW 2797   2.269   0.276   5.073
  633SOL    HW1 2798   2.250   0.351   5.136
  633SOL    HW2 2799   2.227   0.192   5.107
  634SOL     OW 2800   2.917   5.847   1.684
  634SOL    HW1 2801   2.875   5.904   1.755
  634SOL    HW2 2802   2.953   5.763   1.726
  635SOL     OW 2803   3.487   0.062   2.767
  635SOL    HW1 2804   3.401   0.014   2.747
  635SOL    HW2 2805   3.485   0.152   2.723
  636SOL     OW 2806   4.703   4.880   6.073
  636SOL    HW1 2807   4.777   4.865   6.007
  636SOL    HW2 2808   4.632   4.811   6.059
  637SOL     OW 2809   5.844   5.307   6.309
  637SOL    HW1 2810   5.847   5.210   6.282
  637SOL    HW2 2811   5.927   5.353   6.277
  638SOL     OW 2812   5.281   1.652   3.256
  638SOL    HW1 2813   5.215   1.712   3.300
  638SOL    HW2 2814   5.266   1.654   3.157
  639SOL     OW 2815   4.494   3.841   1.650
  639SOL    HW1 2816   4.564   3.778   1.616
  639SOL    HW2 2817   4.408   3.791   1.664
  640SOL     OW 2818   2.623   2.917   5.512
  640SOL    HW1 2819   2.662   2.840   5.462
  640SOL    HW2 2820   2.533   2.939   5.475
  641SOL     OW 2821   6.934   6.211   4.576
  641SOL    HW1 2822   6.981   6.181   4.493
  641SOL    HW2 2823   6.848   6.160   4.586
  642SOL     OW 2824   1.105   4.335   6.178
  642SOL    HW1 2825   1.191   4.373   6.142
  642SOL    HW2 2826   1.126   4.275   6.255
  643SOL     OW 2827   5.971   6.255   4.775
  643SOL    HW1 2828   5.913   6.213   4.844
  643SOL    HW2 2829   5.949   6.353   4.768
  644SOL     OW 2830   2.876   6.462   1.330
  644SOL    HW1 2831   2.789   6.418   1.306
  644SOL    HW2 2832   2.951   6.398   1.313
  645SOL     OW 2833   0.269   2.799   3.071
  645SOL    HW1 2834   0.361   2.836   3.081
  645SOL    HW2 2835   0.214   2.862   3.015
  646SOL     OW 2836   1.300   3.021   4.628
  646SOL    HW1 2837   1.291   3.119   4.610
  646SOL    HW2 2838   1.390   3.002   4.667
  647SOL     OW 2839   5.390   3.643   0.214
  647SOL    HW1 2840   5.420   3.663   0.121
  647SOL    HW2 2841   5.435   3.705   0.278
  648SOL     OW 2842   4.294   2.378   4.333
  648SOL    HW1 2843   4.233   2.326   4.393
  648SOL    HW2 2844   4.266   2.367   4.238
  649SOL     OW 2845   4.568   4.419   1.417
  649SOL    HW1 2846   4.656   4.417   1.466
  649SOL    HW2 2847   4.508   4.348   1.454
  650SOL     OW 2848   5.111   4.867   0.822
  650SOL    HW1 2849   5.034   4.920   0.855
  650SOL    HW2 2850   5.079   4.777   0.790
  651SOL     OW 2851   1.745   5.723   6.747
  651SOL    HW1 2852   1.805   5.737   6.826
  651SOL    HW2 2853   1.752   5.628   6.717
  652SOL     OW 2854   4.901   2.107   1.981
  652SOL    HW1 2855   4.893   2.206   1.972
  652SOL    HW2 2856   4.883   2.080   2.075
  653SOL     OW 2857   2.899   4.873   2.436
  653SOL    HW1 2858   2.829   4.802   2.443
  653SOL    HW2 2859   2.969   4.846   2.370
  654SOL     OW 2860   6.901   4.783   6.464
  654SOL    HW1 2861   6.970   4.852   6.487
  654SOL    HW2 2862   6.921   4.745   6.373
  655SOL     OW 2863   1.162   1.913   0.044
  655SOL    HW1 2864   1.190   1.821   0.016
  655SOL    HW2 2865   1.199   1.980   7.002
  656SOL     OW 2866   1.743   6.389   1.379
  656SOL    HW1 2867   1.822   6.435   1.340
  656SOL    HW2 2868   1.763   6.360   1.473
  657SOL     OW 2869   4.346   0.737   6.832
  657SOL    HW1 2870   4.415   0.681   6.786
  657SOL    HW2 2871   4.259   0.688   6.834
  658SOL     OW 2872   3.849   5.422   6.971
  658SOL    HW1 2873   3.830   5.493   0.016
  658SOL    HW2 2874   3.762   5.387   6.934
  659SOL     OW 2875   3.915   0.735   5.977
  659SOL    HW1 2876   4.011   0.762   5.990
  659SOL    HW2 2877   3.856   0.812   6.000
  660SOL     OW 2878   3.739   6.423   3.334
  660SOL    HW1 2879   3.837   6.441   3.325
  660SOL    HW2 2880   3.704   6.389   3.247
  661SOL     OW 2881   5.736   5.281   2.604
  661SOL    HW1 2882   5.722   5.201   2.547
  661SOL    HW2 2883   5.708   5.261   2.698
  662SOL     OW 2884   4.290   1.658   6.958
  662SOL    HW1 2885   4.376   1.709   6.958
  662SOL    HW2 2886   4.213   1.721   6.951
  663SOL     OW 2887   1.123   4.207   4.961
  663SOL    HW1 2888   1.032   4.168   4.972
  663SOL    HW2 2889   1.149   4.203   4.864
  664SOL     OW 2890   6.142   0.218   6.733
  664SOL    HW1 2891   6.234   0.223   6.693
  664SOL    HW2 2892   6.116   0.123   6.744
  665SOL     OW 2893   0.879   4.075   1.535
  665SOL    HW1 2894   0.938   4.024   1.598
  665SOL    HW2 2895   0.835   4.150   1.585
  666SOL     OW 2896   4.514   1.110   2.027
  666SOL    HW1 2897   4.517   1.018   2.065
  666SOL    HW2 2898   4.543   1.107   1.932
  667SOL     OW 2899   0.659   0.608   1.721
  667SOL    HW1 2900   0.702   0.650   1.801
  667SOL    HW2 2901   0.694   0.516   1.708
  668SOL     OW 2902   5.896   3.108   6.784
  668SOL    HW1 2903   5.858   3.196   6.813
  668SOL    HW2 2904   5.910   3.109   6.685
  669SOL     OW 2905   5.277   1.683   2.963
  669SOL    HW1 2906   5.275   1.781   2.943
  669SOL    HW2 2907   5.214   1.635   2.903
  670SOL     OW 2908   3.708   2.068   2.513
  670SOL    HW1 2909   3.609   2.080   2.522
  670SOL    HW2 2910   3.736   2.093   2.420
  671SOL     OW 2911   1.633   5.866   1.893
  671SOL    HW1 2912   1.701   5.794   1.876
  671SOL    HW2 2913   1.578   5.841   1.973
  672SOL     OW 2914   0.648   0.079   1.617
  672SOL    HW1 2915   0.604   0.018   1.683
  672SOL    HW2 2916   0.736   0.042   1.589
  673SOL     OW 2917   6.008   6.558   6.571
  673SOL    HW1 2918   5.915   6.549   6.536
  673SOL    HW2 2919   6.067   6.599   6.502
  674SOL     OW 2920   5.316   0.447   4.228
  674SOL    HW1 2921   5.406   0.490   4.226
  674SOL    HW2 2922   5.267   0.467   4.143
  675SOL     OW 2923   0.444   3.970   2.011
  675SOL    HW1 2924   0.425   3.873   1.994
  675SOL    HW2 2925   0.515   4.002   1.949
  676SOL     OW 2926   2.388   6.219   6.705
  676SOL    HW1 2927   2.468   6.261   6.748
  676SOL    HW2 2928   2.366   6.268   6.621
  677SOL     OW 2929   5.810   1.205   1.132
  677SOL    HW1 2930   5.818   1.303   1.115
  677SOL    HW2 2931   5.723   1.172   1.094
  678SOL     OW 2932   1.020   5.496   3.971
  678SOL    HW1 2933   0.991   5.401   3.982
  678SOL    HW2 2934   1.113   5.498   3.932
  679SOL     OW 2935   4.527   1.701   5.577
  679SOL    HW1 2936   4.572   1.728   5.492
  679SOL    HW2 2937   4.543   1.771   5.647
  680SOL     OW 2938   5.752   6.646   3.835
  680SOL    HW1 2939   5.735   6.713   3.762
  680SOL    HW2 2940   5.835   6.671   3.884
  681SOL     OW 2941   4.403   4.892   2.500
  681SOL    HW1 2942   4.477   4.838   2.460
  681SOL    HW2 2943   4.442   4.965   2.556
  682SOL     OW 2944   6.963   1.639   2.812
  682SOL    HW1 2945   6.971   1.737   2.793
  682SOL    HW2 2946   6.868   1.616   2.831
  683SOL     OW 2947   3.257   4.411   0.848
  683SOL    HW1 2948   3.215   4.423   0.758
  683SOL    HW2 2949   3.217   4.477   0.912
  684SOL     OW 2950   6.770   1.524   6.110
  684SOL    HW1 2951   6.693   1.516   6.047
  684SOL    HW2 2952   6.762   1.455   6.182
  685SOL     OW 2953   3.251   6.827   3.376
  685SOL    HW1 2954   3.320   6.757   3.356
  685SOL    HW2 2955   3.286   6.917   3.350
  686SOL     OW 2956   4.069   0.535   5.458
  686SOL    HW1 2957   4.032   0.534   5.551
  686SOL    HW2 2958   4.146   0.470   5.452
  687SOL     OW 2959   0.325   0.932   4.592
  687SOL    HW1 2960   0.234   0.969   4.613
  687SOL    HW2 2961   0.368   0.988   4.521
  688SOL     OW 2962   5.721   2.561   6.896
  688SOL    HW1 2963   5.740   2.613   6.812
  688SOL    HW2 2964   5.806   2.523   6.932
  689SOL     OW 2965   2.346   5.789   6.815
  689SOL    HW1 2966   2.256   5.829   6.798
  689SOL    HW2 2967   2.335   5.702   6.862
  690SOL     OW 2968   5.782   3.572   3.793
  690SOL    HW1 2969   5.765   3.484   3.748
  690SOL    HW2 2970   5.858   3.618   3.747
  691SOL     OW 2971   6.031   1.269   2.400
  691SOL    HW1 2972   5.962   1.253   2.329
  691SOL    HW2 2973   6.078   1.183   2.420
  692SOL     OW 2974   1.395   0.736   3.526
  692SOL    HW1 2975   1.448   0.793   3.589
  692SOL    HW2 2976   1.441   0.733   3.437
  693SOL     OW 2977   5.543   4.629   2.915
  693SOL    HW1 2978   5.455   4.659   2.877
  693SOL    HW2 2979   5.559   4.674   3.003
  694SOL     OW 2980   3.907   5.353   4.092
  694SOL    HW1 2981   3.819   5.368   4.046
  694SOL    HW2 2982   3.980   5.396   4.038
  695SOL     OW 2983   4.774   6.642   3.463
  695SOL    HW1 2984   4.853   6.658   3.522
  695SOL    HW2 2985   4.691   6.641   3.518
  696SOL     OW 2986   5.824   4.009   1.996
  696SOL    HW1 2987   5.834   3.910   2.003
  696SOL    HW2 2988   5.910   4.053   2.024
  697SOL     OW 2989   0.230   6.329   2.521
  697SOL    HW1 2990   0.231   6.339   2.620
  697SOL    HW2 2991   0.268   6.240   2.496
  698SOL     OW 2992   5.532   6.440   6.191
  698SOL    HW1 2993   5.622   6.404   6.218
  698SOL    HW2 2994   5.535   6.466   6.094
  699SOL     OW 2995   3.796   3.722   0.756
  699SOL    HW1 2996   3.836   3.657   0.820
  699SOL    HW2 2997   3.761   3.673   0.676
  700SOL     OW 2998   3.583   0.107   5.435
  700SOL    HW1 2999   3.558   0.037   5.502
  700SOL    HW2 3000   3.521   0.185   5.446
  701SOL     OW 3001   4.582   4.859   2.226
  701SOL    HW1 3002   4.666   4.805   2.223
  701SOL    HW2 3003   4.593   4.934   2.291
  702SOL     OW 3004   4.312   0.259   4.732
  702SOL    HW1 3005   4.264   0.344   4.752
  702SOL    HW2 3006   4.359   0.227   4.815
  703SOL     OW 3007   3.601   3.008   0.247
  703SOL    HW1 3008   3.522   2.949   0.233
  703SOL    HW2 3009   3.665   2.963   0.311
  704SOL     OW 3010   4.030   1.156   6.574
  704SOL    HW1 3011   4.053   1.207   6.491
  704SOL    HW2 3012   4.014   1.220   6.649
  705SOL     OW 3013   0.230   6.236   6.037
  705SOL    HW1 3014   0.190   6.326   6.052
  705SOL    HW2 3015   0.157   6.168   6.024
  706SOL     OW 3016   3.996   0.244   4.965
  706SOL    HW1 3017   3.964   0.262   4.872
  706SOL    HW2 3018   3.928   0.188   5.013
  707SOL     OW 3019   3.203   5.251   4.637
  707SOL    HW1 3020   3.251   5.186   4.579
  707SOL    HW2 3021   3.107   5.257   4.608
  708SOL     OW 3022   3.437   5.934   3.625
  708SOL    HW1 3023   3.382   5.972   3.551
  708SOL    HW2 3024   3.518   5.889   3.587
  709SOL     OW 3025   2.237   0.141   2.026
  709SOL    HW1 3026   2.221   0.235   1.995
  709SOL    HW2 3027   2.307   0.140   2.097
  710SOL     OW 3028   4.912   3.871   2.590
  710SOL    HW1 3029   4.824   3.859   2.636
  710SOL    HW2 3030   4.976   3.918   2.652
  711SOL     OW 3031   0.420   1.224   1.167
  711SOL    HW1 3032   0.453   1.305   1.217
  711SOL    HW2 3033   0.421   1.242   1.069
  712SOL     OW 3034   5.415   3.749   6.933
  712SOL    HW1 3035   5.374   3.715   6.848
  712SOL    HW2 3036   5.513   3.759   6.921
  713SOL     OW 3037   4.072   2.868   6.172
  713SOL    HW1 3038   3.983   2.909   6.191
  713SOL    HW2 3039   4.081   2.851   6.074
  714SOL     OW 3040   4.613   6.694   2.994
  714SOL    HW1 3041   4.530   6.671   3.044
  714SOL    HW2 3042   4.605   6.662   2.900
  715SOL     OW 3043   6.366   4.601   5.049
  715SOL    HW1 3044   6.345   4.584   4.952
  715SOL    HW2 3045   6.461   4.575   5.067
  716SOL     OW 3046   3.329   1.706   3.706
  716SOL    HW1 3047   3.304   1.801   3.687
  716SOL    HW2 3048   3.393   1.673   3.637
  717SOL     OW 3049   5.089   5.165   3.505
  717SOL    HW1 3050   5.143   5.224   3.444
  717SOL    HW2 3051   4.992   5.186   3.494
  718SOL     OW 3052   6.203   2.117   5.431
  718SOL    HW1 3053   6.129   2.095   5.368
  718SOL    HW2 3054   6.165   2.149   5.518
  719SOL     OW 3055   4.564   5.895   2.777
  719SOL    HW1 3056   4.534   5.826   2.711
  719SOL    HW2 3057   4.532   5.985   2.747
  720SOL     OW 3058   2.898   1.310   1.654
  720SOL    HW1 3059   2.930   1.405   1.653
  720SOL    HW2 3060   2.854   1.288   1.567
  721SOL     OW 3061   6.907   3.064   1.962
  721SOL    HW1 3062   6.939   3.027   2.049
  721SOL    HW2 3063   6.980   3.058   1.894
  722SOL     OW 3064   5.756   6.210   1.496
  722SOL    HW1 3065   5.784   6.267   1.419
  722SOL    HW2 3066   5.669   6.243   1.533
  723SOL     OW 3067   2.085   0.879   4.409
  723SOL    HW1 3068   2.060   0.891   4.505
  723SOL    HW2 3069   2.152   0.949   4.383
  724SOL     OW 3070   1.297   2.158   4.288
  724SOL    HW1 3071   1.364   2.228   4.316
  724SOL    HW2 3072   1.221   2.158   4.353
  725SOL     OW 3073   1.945   4.552   2.991
  725SOL    HW1 3074   1.894   4.603   2.922
  725SOL    HW2 3075   1.914   4.457   2.991
  726SOL     OW 3076   2.254   3.838   0.758
  726SOL    HW1 3077   2.265   3.739   0.770
  726SOL    HW2 3078   2.162   3.864   0.785
  727SOL     OW 3079   3.629   5.268   4.793
  727SOL    HW1 3080   3.540   5.312   4.804
  727SOL    HW2 3081   3.619   5.169   4.804
  728SOL     OW 3082   6.134   2.879   3.889
  728SOL    HW1 3083   6.085   2.794   3.870
  728SOL    HW2 3084   6.109   2.948   3.821
  729SOL     OW 3085   0.922   4.912   0.374
  729SOL    HW1 3086   1.000   4.850   0.365
  729SOL    HW2 3087   0.851   4.885   0.309
  730SOL     OW 3088   4.291   1.290   3.209
  730SOL    HW1 3089   4.268   1.323   3.300
  730SOL    HW2 3090   4.257   1.354   3.140
  731SOL     OW 3091   4.906   5.011   4.887
  731SOL    HW1 3092   4.987   4.953   4.897
  731SOL    HW2 3093   4.852   4.979   4.809
  732SOL     OW 3094   4.351   0.511   3.982
  732SOL    HW1 3095   4.348   0.411   3.980
  732SOL    HW2 3096   4.361   0.542   4.077
  733SOL     OW 3097   7.018   4.941   4.156
  733SOL    HW1 3098   6.949   4.900   4.214
  733SOL    HW2 3099   6.986   4.941   4.061
  734SOL     OW 3100   5.946   6.218   2.996
  734SOL    HW1 3101   5.952   6.263   2.907
  734SOL    HW2 3102   5.895   6.132   2.987
  735SOL     OW 3103   4.214   0.534   2.426
  735SOL    HW1 3104   4.256   0.456   2.472
  735SOL    HW2 3105   4.261   0.552   2.341
  736SOL     OW 3106   1.787   1.682   3.723
  736SOL    HW1 3107   1.776   1.778   3.694
  736SOL    HW2 3108   1.757   1.672   3.817
  737SOL     OW 3109   3.119   0.971   6.288
  737SOL    HW1 3110   3.131   1.050   6.228
  737SOL    HW2 3111   3.027   0.933   6.275
  738SOL     OW 3112   1.547   5.125   0.243
  738SOL    HW1 3113   1.495   5.197   0.290
  738SOL    HW2 3114   1.641   5.124   0.279
  739SOL     OW 3115   1.226   0.284   3.506
  739SOL    HW1 3116   1.292   0.286   3.431
  739SOL    HW2 3117   1.265   0.235   3.584
  740SOL     OW 3118   5.143   3.253   3.327
  740SOL    HW1 3119   5.047   3.260   3.354
  740SOL    HW2 3120   5.153   3.176   3.264
  741SOL     OW 3121   3.183   1.324   3.207
  741SOL    HW1 3122   3.112   1.314   3.276
  741SOL    HW2 3123   3.147   1.298   3.118
  742SOL     OW 3124   1.805   0.311   2.325
  742SOL    HW1 3125   1.779   0.318   2.421
  742SOL    HW2 3126   1.723   0.293   2.270
  743SOL     OW 3127   0.126   6.343   3.224
  743SOL    HW1 3128   0.147   6.437   3.252
  743SOL    HW2 3129   0.070   6.345   3.141
  744SOL     OW 3130   4.886   1.610   1.107
  744SOL    HW1 3131   4.800   1.651   1.138
  744SOL    HW2 3132   4.933   1.568   1.184
  745SOL     OW 3133   1.971   6.635   5.316
  745SOL    HW1 3134   1.958   6.711   5.253
  745SOL    HW2 3135   1.890   6.576   5.313
  746SOL     OW 3136   6.694   5.474   5.032
  746SOL    HW1 3137   6.633   5.488   4.954
  746SOL    HW2 3138   6.653   5.409   5.095
  747SOL     OW 3139   4.516   5.147   2.713
  747SOL    HW1 3140   4.450   5.184   2.778
  747SOL    HW2 3141   4.608   5.175   2.741
  748SOL     OW 3142   6.050   4.281   1.286
  748SOL    HW1 3143   6.119   4.288   1.215
  748SOL    HW2 3144   6.094   4.289   1.376
  749SOL     OW 3145   4.610   4.403   5.137
  749SOL    HW1 3146   4.512   4.419   5.129
  749SOL    HW2 3147   4.626   4.305   5.151
  750SOL     OW 3148   2.493   2.031   3.416
  750SOL    HW1 3149   2.418   2.070   3.470
  750SOL    HW2 3150   2.512   2.090   3.338
  751SOL     OW 3151   4.153   0.732   0.878
  751SOL    HW1 3152   4.204   0.671   0.939
  751SOL    HW2 3153   4.119   0.680   0.800
  752SOL     OW 3154   3.678   2.952   4.599
  752SOL    HW1 3155   3.652   2.918   4.508
  752SOL    HW2 3156   3.639   2.893   4.669
  753SOL     OW 3157   3.749   4.064   3.581
  753SOL    HW1 3158   3.805   4.147   3.586
  753SOL    HW2 3159   3.808   3.985   3.566
  754SOL     OW 3160   5.049   0.271   6.812
  754SOL    HW1 3161   5.011   0.341   6.872
  754SOL    HW2 3162   5.080   0.194   6.868
  755SOL     OW 3163   4.740   4.894   5.138
  755SOL    HW1 3164   4.658   4.849   5.103
  755SOL    HW2 3165   4.820   4.838   5.116
  756SOL     OW 3166   3.568   5.525   5.738
  756SOL    HW1 3167   3.570   5.593   5.664
  756SOL    HW2 3168   3.614   5.562   5.818
  757SOL     OW 3169   1.471   6.965   1.993
  757SOL    HW1 3170   1.569   6.943   2.001
  757SOL    HW2 3171   1.458   0.005   1.916
  758SOL     OW 3172   4.304   1.151   4.246
  758SOL    HW1 3173   4.232   1.214   4.274
  758SOL    HW2 3174   4.378   1.202   4.203
  759SOL     OW 3175   6.939   3.217   3.757
  759SOL    HW1 3176   6.970   3.192   3.665
  759SOL    HW2 3177   6.839   3.227   3.757
  760SOL     OW 3178   6.448   5.677   3.753
  760SOL    HW1 3179   6.452   5.751   3.821
  760SOL    HW2 3180   6.410   5.713   3.668
  761SOL     OW 3181   4.418   4.795   6.053
  761SOL    HW1 3182   4.335   4.806   5.999
  761SOL    HW2 3183   4.408   4.841   6.141
  762SOL     OW 3184   3.949   5.608   3.551
  762SOL    HW1 3185   3.927   5.646   3.641
  762SOL    HW2 3186   4.043   5.575   3.551
  763SOL     OW 3187   5.524   0.990   0.472
  763SOL    HW1 3188   5.482   1.032   0.552
  763SOL    HW2 3189   5.517   1.052   0.394
  764SOL     OW 3190   4.986   6.628   5.413
  764SOL    HW1 3191   5.014   6.715   5.453
  764SOL    HW2 3192   5.037   6.554   5.457
  765SOL     OW 3193   5.766   6.047   0.455
  765SOL    HW1 3194   5.818   5.961   0.450
  765SOL    HW2 3195   5.684   6.039   0.397
  766SOL     OW 3196   2.411   2.217   4.100
  766SOL    HW1 3197   2.384   2.124   4.125
  766SOL    HW2 3198   2.397   2.231   4.002
  767SOL     OW 3199   6.660   6.429   3.721
  767SOL    HW1 3200   6.694   6.423   3.627
  767SOL    HW2 3201   6.569   6.388   3.727
  768SOL     OW 3202   2.499   5.622   2.230
  768SOL    HW1 3203   2.476   5.542   2.175
  768SOL    HW2 3204   2.545   5.690   2.173
  769SOL     OW 3205   3.750   1.476   5.328
  769SOL    HW1 3206   3.815   1.508   5.397
  769SOL    HW2 3207   3.740   1.546   5.257
  770SOL     OW 3208   0.689   4.965   5.673
  770SOL    HW1 3209   0.779   4.971   5.717
  770SOL    HW2 3210   0.620   5.003   5.733
  771SOL     OW 3211   1.661   4.782   2.534
  771SOL    HW1 3212   1.709   4.827   2.458
  771SOL    HW2 3213   1.595   4.845   2.574
  772SOL     OW 3214   5.492   5.164   0.260
  772SOL    HW1 3215   5.545   5.174   0.344
  772SOL    HW2 3216   5.414   5.103   0.277
  773SOL     OW 3217   1.866   4.889   4.227
  773SOL    HW1 3218   1.874   4.792   4.248
  773SOL    HW2 3219   1.912   4.908   4.140
  774SOL     OW 3220   2.054   1.894   3.608
  774SOL    HW1 3221   2.046   1.872   3.511
  774SOL    HW2 3222   2.003   1.977   3.628
  775SOL     OW 3223   1.310   4.228   2.643
  775SOL    HW1 3224   1.229   4.282   2.663
  775SOL    HW2 3225   1.292   4.167   2.566
  776SOL     OW 3226   3.318   5.632   6.394
  776SOL    HW1 3227   3.251   5.651   6.465
  776SOL    HW2 3228   3.284   5.664   6.306
  777SOL     OW 3229   1.942   3.381   6.821
  777SOL    HW1 3230   2.010   3.419   6.884
  777SOL    HW2 3231   1.870   3.335   6.874
  778SOL     OW 3232   3.794   5.525   6.684
  778SOL    HW1 3233   3.781   5.521   6.783
  778SOL    HW2 3234   3.715   5.569   6.642
  779SOL     OW 3235   5.615   2.066   3.268
  779SOL    HW1 3236   5.655   2.158   3.274
  779SOL    HW2 3237   5.682   1.998   3.297
  780SOL     OW 3238   6.504   1.281   4.082
  780SOL    HW1 3239   6.549   1.366   4.107
  780SOL    HW2 3240   6.497   1.275   3.983
  781SOL     OW 3241   0.658   4.905   6.347
  781SOL    HW1 3242   0.681   4.993   6.305
  781SOL    HW2 3243   0.668   4.912   6.447
  782SOL     OW 3244   2.128   4.234   5.492
  782SOL    HW1 3245   2.091   4.187   5.572
  782SOL    HW2 3246   2.054   4.250   5.427
  783SOL     OW 3247   6.520   4.929   6.381
  783SOL    HW1 3248   6.543   4.987   6.303
  783SOL    HW2 3249   6.593   4.935   6.449
  784SOL     OW 3250   2.453   5.585   0.033
  784SOL    HW1 3251   2.393   5.641   0.091
  784SOL    HW2 3252   2.411   5.496   0.017
  785SOL     OW 3253   0.582   0.368   4.188
  785SOL    HW1 3254   0.659   0.432   4.188
  785SOL    HW2 3255   0.574   0.327   4.279
  786SOL     OW 3256   5.789   0.794   4.671
  786SOL    HW1 3257   5.745   0.765   4.586
  786SOL    HW2 3258   5.832   0.715   4.714
  787SOL     OW 3259   1.988   6.474   1.238
  787SOL    HW1 3260   2.015   6.556   1.186
  787SOL    HW2 3261   2.060   6.453   1.304
  788SOL     OW 3262   2.177   2.998   2.366
  788SOL    HW1 3263   2.120   3.062   2.314
  788SOL    HW2 3264   2.150   2.904   2.344
  789SOL     OW 3265   3.871   5.487   2.361
  789SOL    HW1 3266   3.821   5.436   2.432
  789SOL    HW2 3267   3.864   5.439   2.274
  790SOL     OW 3268   0.187   3.510   1.863
  790SOL    HW1 3269   0.227   3.476   1.948
  790SOL    HW2 3270   0.088   3.514   1.872
  791SOL     OW 3271   2.984   0.940   3.678
  791SOL    HW1 3272   2.954   0.850   3.710
  791SOL    HW2 3273   3.061   0.971   3.733
  792SOL     OW 3274   2.575   0.273   1.160
  792SOL    HW1 3275   2.541   0.361   1.127
  792SOL    HW2 3276   2.668   0.284   1.197
  793SOL     OW 3277   1.776   5.457   5.010
  793SOL    HW1 3278   1.833   5.433   5.089
  793SOL    HW2 3279   1.830   5.449   4.926
  794SOL     OW 3280   3.439   3.819   2.415
  794SOL    HW1 3281   3.348   3.854   2.437
  794SOL    HW2 3282   3.487   3.795   2.499
  795SOL     OW 3283   4.800   0.398   5.542
  795SOL    HW1 3284   4.890   0.369   5.575
  795SOL    HW2 3285   4.787   0.366   5.448
  796SOL     OW 3286   0.822   2.166   6.836
  796SOL    HW1 3287   0.758   2.168   6.913
  796SOL    HW2 3288   0.839   2.259   6.804
  797SOL     OW 3289   3.582   6.983   1.526
  797SOL    HW1 3290   3.567   0.010   1.440
  797SOL    HW2 3291   3.524   6.902   1.527
  798SOL     OW 3292   5.011   4.241   1.376
  798SOL    HW1 3293   4.975   4.333   1.362
  798SOL    HW2 3294   4.936   4.176   1.381
  799SOL     OW 3295   3.494   2.542   5.788
  799SOL    HW1 3296   3.416   2.561   5.729
  799SOL    HW2 3297   3.548   2.468   5.749
  800SOL     OW 3298   5.464   2.924   2.738
  800SOL    HW1 3299   5.463   2.841   2.683
  800SOL    HW2 3300   5.497   3.000   2.683
  801SOL     OW 3301   1.945   5.743   6.930
  801SOL    HW1 3302   2.007   5.666   6.947
  801SOL    HW2 3303   1.994   5.828   6.946
  802SOL     OW 3304   4.319   2.597   6.516
  802SOL    HW1 3305   4.240   2.537   6.508
  802SOL    HW2 3306   4.310   2.673   6.450
  803SOL     OW 3307   2.425   2.463   3.771
  803SOL    HW1 3308   2.496   2.447   3.702
  803SOL    HW2 3309   2.365   2.383   3.776
  804SOL     OW 3310   5.192   0.393   3.129
  804SOL    HW1 3311   5.180   0.393   3.030
  804SOL    HW2 3312   5.152   0.310   3.168
  805SOL     OW 3313   3.439   1.252   4.202
  805SOL    HW1 3314   3.413   1.306   4.282
  805SOL    HW2 3315   3.505   1.303   4.147
  806SOL     OW 3316   3.500   6.094   6.073
  806SOL    HW1 3317   3.479   6.106   6.170
  806SOL    HW2 3318   3.453   6.164   6.019
  807SOL     OW 3319   1.518   5.886   6.706
  807SOL    HW1 3320   1.449   5.878   6.634
  807SOL    HW2 3321   1.589   5.817   6.692
  808SOL     OW 3322   5.265   2.543   6.138
  808SOL    HW1 3323   5.338   2.508   6.079
  808SOL    HW2 3324   5.211   2.467   6.174
  809SOL     OW 3325   3.366   6.644   6.416
  809SOL    HW1 3326   3.414   6.610   6.335
  809SOL    HW2 3327   3.290   6.703   6.387
  810SOL     OW 3328   3.571   3.675   0.107
  810SOL    HW1 3329   3.618   3.740   0.048
  810SOL    HW2 3330   3.638   3.616   0.153
  811SOL     OW 3331   5.322   5.449   4.247
  811SOL    HW1 3332   5.382   5.477   4.173
  811SOL    HW2 3333   5.227   5.472   4.223
  812SOL     OW 3334   1.197   3.359   1.207
  812SOL    HW1 3335   1.165   3.351   1.113
  812SOL    HW2 3336   1.130   3.409   1.261
  813SOL     OW 3337   3.085   1.444   4.823
  813SOL    HW1 3338   3.081   1.387   4.741
  813SOL    HW2 3339   3.029   1.525   4.809
  814SOL     OW 3340   0.371   4.837   1.741
  814SOL    HW1 3341   0.285   4.886   1.750
  814SOL    HW2 3342   0.355   4.748   1.699
  815SOL     OW 3343   4.532   1.444   3.756
  815SOL    HW1 3344   4.564   1.413   3.667
  815SOL    HW2 3345   4.455   1.386   3.785
  816SOL     OW 3346   5.115   3.781   6.179
  816SOL    HW1 3347   5.040   3.800   6.115
  816SOL    HW2 3348   5.112   3.686   6.207
  817SOL     OW 3349   6.855   5.035   6.232
  817SOL    HW1 3350   6.759   5.046   6.207
  817SOL    HW2 3351   6.874   5.085   6.317
  818SOL     OW 3352   6.944   1.341   5.130
  818SOL    HW1 3353   6.911   1.418   5.186
  818SOL    HW2 3354   6.881   1.264   5.139
  819SOL     OW 3355   5.629   3.289   1.411
  819SOL    HW1 3356   5.533   3.287   1.380
  819SOL    HW2 3357   5.647   3.377   1.456
  820SOL     OW 3358   2.515   2.108   5.267
  820SOL    HW1 3359   2.434   2.167   5.272
  820SOL    HW2 3360   2.494   2.026   5.213
  821SOL     OW 3361   4.659   3.615   6.742
  821SOL    HW1 3362   4.663   3.712   6.765
  821SOL    HW2 3363   4.599   3.603   6.662
  822SOL     OW 3364   0.183   4.707   3.415
  822SOL    HW1 3365   0.211   4.640   3.483
  822SOL    HW2 3366   0.149   4.789   3.462
  823SOL     OW 3367   2.194   2.522   4.584
  823SOL    HW1 3368   2.237   2.597   4.635
  823SOL    HW2 3369   2.110   2.556   4.542
  824SOL     OW 3370   5.369   0.655   6.665
  824SOL    HW1 3371   5.295   0.718   6.688
  824SOL    HW2 3372   5.344   0.562   6.693
  825SOL     OW 3373   5.727   5.315   0.747
  825SOL    HW1 3374   5.808   5.370   0.767
  825SOL    HW2 3375   5.649   5.352   0.799
  826SOL     OW 3376   3.860   1.992   0.529
  826SOL    HW1 3377   3.955   1.971   0.505
  826SOL    HW2 3378   3.819   2.048   0.458
  827SOL     OW 3379   3.682   3.581   4.899
  827SOL    HW1 3380   3.690   3.500   4.842
  827SOL    HW2 3381   3.715   3.561   4.991
  828SOL     OW 3382   0.800   6.167   6.292
  828SOL    HW1 3383   0.710   6.155   6.333
  828SOL    HW2 3384   0.807   6.259   6.254
  829SOL     OW 3385   3.904   3.395   1.802
  829SOL    HW1 3386   3.835   3.466   1.813
  829SOL    HW2 3387   3.938   3.366   1.891
  830SOL     OW 3388   6.594   3.929   5.686
  830SOL    HW1 3389   6.692   3.919   5.670
  830SOL    HW2 3390   6.579   4.000   5.756
  831SOL     OW 3391   5.665   1.298   3.195
  831SOL    HW1 3392   5.611   1.239   3.134
  831SOL    HW2 3393   5.628   1.294   3.287
  832SOL     OW 3394   3.119   2.148   4.578
  832SOL    HW1 3395   3.088   2.073   4.637
  832SOL    HW2 3396   3.042   2.207   4.555
  833SOL     OW 3397   4.393   2.750   7.009
  833SOL    HW1 3398   4.406   2.847   6.988
  833SOL    HW2 3399   4.344   2.706   6.935
  834SOL     OW 3400   5.593   2.948   0.480
  834SOL    HW1 3401   5.517   2.990   0.431
  834SOL    HW2 3402   5.599   2.987   0.572
  835SOL     OW 3403   6.637   6.587   5.210
  835SOL    HW1 3404   6.732   6.577   5.180
  835SOL    HW2 3405   6.614   6.512   5.273
  836SOL     OW 3406   5.560   0.448   3.933
  836SOL    HW1 3407   5.536   0.378   3.865
  836SOL    HW2 3408   5.495   0.524   3.928
  837SOL     OW 3409   1.542   0.312   6.756
  837SOL    HW1 3410   1.543   0.303   6.855
  837SOL    HW2 3411   1.629   0.349   6.725
  838SOL     OW 3412   1.786   5.608   3.427
  838SOL    HW1 3413   1.739   5.605   3.339
  838SOL    HW2 3414   1.796   5.515   3.462
  839SOL     OW 3415   1.195   2.214   0.240
  839SOL    HW1 3416   1.131   2.271   0.292
  839SOL    HW2 3417   1.186   2.235   0.143
  840SOL     OW 3418   4.365   5.432   0.287
  840SOL    HW1 3419   4.434   5.364   0.263
  840SOL    HW2 3420   4.275   5.400   0.258
  841SOL     OW 3421   2.727   5.140   6.236
  841SOL    HW1 3422   2.654   5.110   6.298
  841SOL    HW2 3423   2.697   5.222   6.187
  842SOL     OW 3424   4.515   6.660   0.524
  842SOL    HW1 3425   4.451   6.585   0.538
  842SOL    HW2 3426   4.606   6.623   0.502
  843SOL     OW 3427   1.602   0.602   1.849
  843SOL    HW1 3428   1.621   0.596   1.947
  843SOL    HW2 3429   1.588   0.698   1.823
  844SOL     OW 3430   6.692   0.120   1.609
  844SOL    HW1 3431   6.641   0.127   1.523
  844SOL    HW2 3432   6.666   0.036   1.656
  845SOL     OW 3433   4.134   1.737   2.033
  845SOL    HW1 3434   4.076   1.799   1.980
  845SOL    HW2 3435   4.140   1.649   1.986
  846SOL     OW 3436   1.546   1.501   1.380
  846SOL    HW1 3437   1.450   1.493   1.408
  846SOL    HW2 3438   1.558   1.455   1.292
  847SOL     OW 3439   2.461   3.384   1.258
  847SOL    HW1 3440   2.510   3.424   1.335
  847SOL    HW2 3441   2.427   3.456   1.199
  848SOL     OW 3442   6.450   6.074   0.508
  848SOL    HW1 3443   6.360   6.095   0.471
  848SOL    HW2 3444   6.504   6.158   0.517
  849SOL     OW 3445   5.537   3.097   6.570
  849SOL    HW1 3446   5.597   3.019   6.553
  849SOL    HW2 3447   5.521   3.106   6.669
  850SOL     OW 3448   1.752   1.059   4.313
  850SOL    HW1 3449   1.712   1.125   4.250
  850SOL    HW2 3450   1.834   1.097   4.356
  851SOL     OW 3451   4.895   2.526   6.271
  851SOL    HW1 3452   4.824   2.541   6.339
  851SOL    HW2 3453   4.895   2.430   6.243
  852SOL     OW 3454   6.649   5.052   1.972
  852SOL    HW1 3455   6.744   5.021   1.984
  852SOL    HW2 3456   6.647   5.125   1.903
  853SOL     OW 3457   3.386   3.052   0.459
  853SOL    HW1 3458   3.413   3.127   0.520
  853SOL    HW2 3459   3.328   3.089   0.386
  854SOL     OW 3460   0.321   7.019   5.746
  854SOL    HW1 3461   0.277   0.044   5.823
  854SOL    HW2 3462   0.253   6.964   5.698
  855SOL     OW 3463   4.573   2.223   0.078
  855SOL    HW1 3464   4.667   2.256   0.070
  855SOL    HW2 3465   4.550   2.171   7.019
  856SOL     OW 3466   1.850   5.547   1.602
  856SOL    HW1 3467   1.885   5.493   1.526
  856SOL    HW2 3468   1.919   5.551   1.675
  857SOL     OW 3469   6.784   5.752   5.048
  857SOL    HW1 3470   6.862   5.797   5.091
  857SOL    HW2 3471   6.780   5.656   5.078
  858SOL     OW 3472   3.380   3.982   0.149
  858SOL    HW1 3473   3.314   3.908   0.150
  858SOL    HW2 3474   3.458   3.959   0.208
  859SOL     OW 3475   4.765   5.594   5.393
  859SOL    HW1 3476   4.793   5.506   5.354
  859SOL    HW2 3477   4.748   5.583   5.491
  860SOL     OW 3478   4.498   2.749   6.243
  860SOL    HW1 3479   4.559   2.798   6.181
  860SOL    HW2 3480   4.515   2.651   6.237
  861SOL     OW 3481   1.215   5.676   2.511
  861SOL    HW1 3482   1.206   5.719   2.422
  861SOL    HW2 3483   1.295   5.617   2.512
  862SOL     OW 3484   0.909   4.316   4.048
  862SOL    HW1 3485   0.956   4.271   4.124
  862SOL    HW2 3486   0.886   4.410   4.074
  863SOL     OW 3487   5.747   0.826   1.659
  863SOL    HW1 3488   5.694   0.750   1.696
  863SOL    HW2 3489   5.711   0.852   1.570
  864SOL     OW 3490   5.932   5.606   2.730
  864SOL    HW1 3491   5.890   5.627   2.642
  864SOL    HW2 3492   5.861   5.585   2.797
  865SOL     OW 3493   1.200   5.069   4.555
  865SOL    HW1 3494   1.276   5.122   4.592
  865SOL    HW2 3495   1.157   5.017   4.629
  866SOL     OW 3496   3.754   0.159   1.609
  866SOL    HW1 3497   3.698   0.230   1.651
  866SOL    HW2 3498   3.695   0.082   1.583
  867SOL     OW 3499   5.708   3.529   5.470
  867SOL    HW1 3500   5.683   3.435   5.493
  867SOL    HW2 3501   5.628   3.576   5.432
  868SOL     OW 3502   0.390   2.115   2.389
  868SOL    HW1 3503   0.429   2.113   2.481
  868SOL    HW2 3504   0.307   2.060   2.387
  869SOL     OW 3505   6.621   3.174   2.550
  869SOL    HW1 3506   6.663   3.261   2.526
  869SOL    HW2 3507   6.688   3.101   2.542
  870SOL     OW 3508   3.735   4.975   1.973
  870SOL    HW1 3509   3.819   4.927   1.944
  870SOL    HW2 3510   3.659   4.910   1.974
  871SOL     OW 3511   4.916   1.870   3.597
  871SOL    HW1 3512   4.818   1.852   3.591
  871SOL    HW2 3513   4.949   1.853   3.690
  872SOL     OW 3514   1.296   2.088   5.030
  872SOL    HW1 3515   1.363   2.029   4.984
  872SOL    HW2 3516   1.297   2.178   4.988
  873SOL     OW 3517   4.161   6.916   6.401
  873SOL    HW1 3518   4.145   6.969   6.318
  873SOL    HW2 3519   4.099   6.838   6.403
  874SOL     OW 3520   6.141   3.852   1.690
  874SOL    HW1 3521   6.177   3.916   1.758
  874SOL    HW2 3522   6.173   3.878   1.599
  875SOL     OW 3523   5.370   5.854   2.366
  875SOL    HW1 3524   5.300   5.805   2.315
  875SOL    HW2 3525   5.326   5.919   2.429
  876SOL     OW 3526   6.071   0.404   6.490
  876SOL    HW1 3527   6.144   0.469   6.469
  876SOL    HW2 3528   6.111   0.316   6.516
  877SOL     OW 3529   1.156   3.367   6.898
  877SOL    HW1 3530   1.072   3.384   6.949
  877SOL    HW2 3531   1.235   3.395   6.953
  878SOL     OW 3532   3.885   6.641   4.153
  878SOL    HW1 3533   3.933   6.602   4.232
  878SOL    HW2 3534   3.927   6.605   4.069
  879SOL     OW 3535   5.788   0.097   6.505
  879SOL    HW1 3536   5.838   0.083   6.420
  879SOL    HW2 3537   5.736   0.182   6.500
  880SOL     OW 3538   3.207   3.710   3.220
  880SOL    HW1 3539   3.283   3.649   3.197
  880SOL    HW2 3540   3.230   3.762   3.303
  881SOL     OW 3541   4.118   1.977   0.423
  881SOL    HW1 3542   4.152   2.045   0.359
  881SOL    HW2 3543   4.184   1.963   0.496
  882SOL     OW 3544   2.035   3.292   3.383
  882SOL    HW1 3545   2.067   3.278   3.477
  882SOL    HW2 3546   1.981   3.213   3.354
  883SOL     OW 3547   2.367   6.567   3.050
  883SOL    HW1 3548   2.428   6.550   2.973
  883SOL    HW2 3549   2.367   6.665   3.071
  884SOL     OW 3550   2.686   3.565   6.220
  884SOL    HW1 3551   2.734   3.633   6.165
  884SOL    HW2 3552   2.671   3.483   6.166
  885SOL     OW 3553   4.255   2.824   6.364
  885SOL    HW1 3554   4.342   2.812   6.316
  885SOL    HW2 3555   4.185   2.853   6.299
  886SOL     OW 3556   3.624   1.206   6.758
  886SOL    HW1 3557   3.554   1.148   6.797
  886SOL    HW2 3558   3.587   1.297   6.742
  887SOL     OW 3559   4.897   1.191   5.140
  887SOL    HW1 3560   4.824   1.230   5.085
  887SOL    HW2 3561   4.865   1.107   5.183
  888SOL     OW 3562   6.851   6.735   1.663
  888SOL    HW1 3563   6.842   6.635   1.662
  888SOL    HW2 3564   6.850   6.769   1.569
  889SOL     OW 3565   0.284   3.542   0.298
  889SOL    HW1 3566   0.328   3.453   0.295
  889SOL    HW2 3567   0.343   3.610   0.254
  890SOL     OW 3568   2.336   6.139   4.228
  890SOL    HW1 3569   2.358   6.232   4.259
  890SOL    HW2 3570   2.247   6.112   4.266
  891SOL     OW 3571   5.414   4.804   2.526
  891SOL    HW1 3572   5.394   4.884   2.581
  891SOL    HW2 3573   5.511   4.781   2.533
  892SOL     OW 3574   2.810   4.512   0.784
  892SOL    HW1 3575   2.777   4.542   0.694
  892SOL    HW2 3576   2.900   4.470   0.774
  893SOL     OW 3577   1.286   5.060   3.044
  893SOL    HW1 3578   1.355   5.029   3.109
  893SOL    HW2 3579   1.253   5.151   3.072
  894SOL     OW 3580   0.880   4.302   0.703
  894SOL    HW1 3581   0.953   4.319   0.769
  894SOL    HW2 3582   0.877   4.378   0.637
  895SOL     OW 3583   6.986   5.191   3.714
  895SOL    HW1 3584   6.962   5.285   3.739
  895SOL    HW2 3585   0.061   5.176   3.730
  896SOL     OW 3586   0.685   0.717   6.541
  896SOL    HW1 3587   0.626   0.783   6.587
  896SOL    HW2 3588   0.644   0.626   6.546
  897SOL     OW 3589   5.118   1.248   0.577
  897SOL    HW1 3590   5.132   1.149   0.564
  897SOL    HW2 3591   5.031   1.274   0.536
  898SOL     OW 3592   3.705   0.603   2.618
  898SOL    HW1 3593   3.627   0.608   2.680
  898SOL    HW2 3594   3.735   0.508   2.610
  899SOL     OW 3595   6.668   5.909   7.022
  899SOL    HW1 3596   6.737   5.899   6.950
  899SOL    HW2 3597   6.578   5.891   6.985
  900SOL     OW 3598   4.924   5.190   0.671
  900SOL    HW1 3599   4.953   5.195   0.576
  900SOL    HW2 3600   4.979   5.251   0.727
  901SOL     OW 3601   0.725   0.095   3.134
  901SOL    HW1 3602   0.744   0.161   3.206
  901SOL    HW2 3603   0.641   0.122   3.086
  902SOL     OW 3604   6.713   3.121   1.562
  902SOL    HW1 3605   6.789   3.175   1.598
  902SOL    HW2 3606   6.743   3.070   1.482
  903SOL     OW 3607   0.327   1.518   1.421
  903SOL    HW1 3608   0.271   1.463   1.483
  903SOL    HW2 3609   0.408   1.465   1.393
  904SOL     OW 3610   2.382   1.004   3.128
  904SOL    HW1 3611   2.315   1.078   3.130
  904SOL    HW2 3612   2.408   0.979   3.222
  905SOL     OW 3613   6.210   1.880   6.366
  905SOL    HW1 3614   6.179   1.785   6.365
  905SOL    HW2 3615   6.230   1.909   6.459
  906SOL     OW 3616   5.266   2.687   0.513
  906SOL    HW1 3617   5.339   2.636   0.558
  906SOL    HW2 3618   5.246   2.646   0.424
  907SOL     OW 3619   5.259   4.372   6.478
  907SOL    HW1 3620   5.353   4.407   6.477
  907SOL    HW2 3621   5.216   4.388   6.389
  908SOL     OW 3622   0.738   4.297   3.606
  908SOL    HW1 3623   0.705   4.293   3.700
  908SOL    HW2 3624   0.827   4.344   3.604
  909SOL     OW 3625   5.276   5.958   5.816
  909SOL    HW1 3626   5.339   6.022   5.860
  909SOL    HW2 3627   5.304   5.864   5.837
  910SOL     OW 3628   3.342   4.487   0.474
  910SOL    HW1 3629   3.275   4.424   0.437
  910SOL    HW2 3630   3.296   4.567   0.513
  911SOL     OW 3631   1.181   4.389   5.434
  911SOL    HW1 3632   1.198   4.295   5.405
  911SOL    HW2 3633   1.265   4.428   5.472
  912SOL     OW 3634   5.064   1.473   4.536
  912SOL    HW1 3635   5.047   1.502   4.630
  912SOL    HW2 3636   5.093   1.378   4.535
  913SOL     OW 3637   4.982   6.799   2.880
  913SOL    HW1 3638   5.072   6.755   2.884
  913SOL    HW2 3639   4.918   6.741   2.829
  914SOL     OW 3640   3.246   6.493   6.049
  914SOL    HW1 3641   3.195   6.445   6.120
  914SOL    HW2 3642   3.322   6.543   6.090
  915SOL     OW 3643   5.202   5.875   1.253
  915SOL    HW1 3644   5.156   5.788   1.271
  915SOL    HW2 3645   5.253   5.903   1.334
  916SOL     OW 3646   1.213   3.027   2.710
  916SOL    HW1 3647   1.273   3.105   2.688
  916SOL    HW2 3648   1.268   2.943   2.712
  917SOL     OW 3649   0.779   6.733   6.734
  917SOL    HW1 3650   0.751   6.648   6.689
  917SOL    HW2 3651   0.844   6.712   6.807
  918SOL     OW 3652   3.368   6.639   6.917
  918SOL    HW1 3653   3.272   6.621   6.898
  918SOL    HW2 3654   3.376   6.697   6.997
  919SOL     OW 3655   4.919   1.024   5.685
  919SOL    HW1 3656   4.827   1.061   5.681
  919SOL    HW2 3657   4.918   0.935   5.729
  920SOL     OW 3658   2.865   5.027   1.741
  920SOL    HW1 3659   2.962   5.009   1.757
  920SOL    HW2 3660   2.811   4.948   1.771
  921SOL     OW 3661   4.608   5.610   4.560
  921SOL    HW1 3662   4.594   5.579   4.654
  921SOL    HW2 3663   4.574   5.704   4.550
  922SOL     OW 3664   3.335   3.385   3.504
  922SOL    HW1 3665   3.243   3.374   3.467
  922SOL    HW2 3666   3.329   3.405   3.602
  923SOL     OW 3667   2.275   3.442   5.498
  923SOL    HW1 3668   2.239   3.406   5.412
  923SOL    HW2 3669   2.289   3.367   5.563
  924SOL     OW 3670   0.336   3.335   1.005
  924SOL    HW1 3671   0.406   3.297   1.065
  924SOL    HW2 3672   0.369   3.421   0.966
  925SOL     OW 3673   0.516   1.396   0.142
  925SOL    HW1 3674   0.607   1.358   0.126
  925SOL    HW2 3675   0.500   1.406   0.240
  926SOL     OW 3676   1.926   1.802   1.757
  926SOL    HW1 3677   1.914   1.787   1.855
  926SOL    HW2 3678   1.886   1.890   1.732
  927SOL     OW 3679   6.927   3.396   4.163
  927SOL    HW1 3680   7.003   3.379   4.226
  927SOL    HW2 3681   6.923   3.323   4.095
  928SOL     OW 3682   3.136   5.116   5.448
  928SOL    HW1 3683   3.113   5.077   5.358
  928SOL    HW2 3684   3.233   5.140   5.450
  929SOL     OW 3685   0.464   1.822   4.346
  929SOL    HW1 3686   0.513   1.878   4.413
  929SOL    HW2 3687   0.404   1.880   4.292
  930SOL     OW 3688   5.633   5.482   4.404
  930SOL    HW1 3689   5.644   5.551   4.333
  930SOL    HW2 3690   5.619   5.526   4.492
  931SOL     OW 3691   6.056   0.909   3.324
  931SOL    HW1 3692   6.071   0.810   3.319
  931SOL    HW2 3693   6.010   0.940   3.241
  932SOL     OW 3694   3.311   0.605   3.762
  932SOL    HW1 3695   3.268   0.639   3.678
  932SOL    HW2 3696   3.254   0.630   3.840
  933SOL     OW 3697   1.171   5.534   1.730
  933SOL    HW1 3698   1.196   5.443   1.699
  933SOL    HW2 3699   1.227   5.602   1.682
  934SOL     OW 3700   1.952   3.106   0.263
  934SOL    HW1 3701   1.871   3.165   0.272
  934SOL    HW2 3702   1.931   3.015   0.301
  935SOL     OW 3703   5.623   2.914   5.720
  935SOL    HW1 3704   5.604   2.917   5.818
  935SOL    HW2 3705   5.543   2.881   5.671
  936SOL     OW 3706   2.115   0.774   5.912
  936SOL    HW1 3707   2.164   0.690   5.933
  936SOL    HW2 3708   2.082   0.816   5.996
  937SOL     OW 3709   3.357   2.219   6.106
  937SOL    HW1 3710   3.357   2.307   6.154
  937SOL    HW2 3711   3.357   2.145   6.172
  938SOL     OW 3712   5.254   6.256   4.883
  938SOL    HW1 3713   5.327   6.204   4.928
  938SOL    HW2 3714   5.204   6.197   4.820
  939SOL     OW 3715   1.421   0.287   5.695
  939SOL    HW1 3716   1.517   0.314   5.682
  939SOL    HW2 3717   1.418   0.195   5.734
  940SOL     OW 3718   2.069   5.724   0.780
  940SOL    HW1 3719   1.998   5.795   0.776
  940SOL    HW2 3720   2.077   5.690   0.873
  941SOL     OW 3721   3.842   6.755   0.968
  941SOL    HW1 3722   3.785   6.775   0.888
  941SOL    HW2 3723   3.914   6.823   0.976
  942SOL     OW 3724   6.575   5.083   0.302
  942SOL    HW1 3725   6.552   4.987   0.318
  942SOL    HW2 3726   6.654   5.089   0.241
  943SOL     OW 3727   3.516   5.656   1.415
  943SOL    HW1 3728   3.420   5.682   1.423
  943SOL    HW2 3729   3.572   5.715   1.473
  944SOL     OW 3730   6.664   6.043   3.396
  944SOL    HW1 3731   6.749   6.075   3.437
  944SOL    HW2 3732   6.669   5.944   3.382
  945SOL     OW 3733   0.489   5.736   6.431
  945SOL    HW1 3734   0.544   5.656   6.407
  945SOL    HW2 3735   0.541   5.819   6.413
  946SOL     OW 3736   5.894   2.136   4.028
  946SOL    HW1 3737   5.929   2.214   4.079
  946SOL    HW2 3738   5.810   2.102   4.071
  947SOL     OW 3739   3.964   3.935   3.010
  947SOL    HW1 3740   3.963   3.984   2.923
  947SOL    HW2 3741   3.987   3.839   2.994
  948SOL     OW 3742   3.383   1.024   4.072
  948SOL    HW1 3743   3.469   0.975   4.085
  948SOL    HW2 3744   3.398   1.122   4.082
  949SOL     OW 3745   2.973   0.338   5.891
  949SOL    HW1 3746   3.008   0.403   5.824
  949SOL    HW2 3747   2.904   0.383   5.948
  950SOL     OW 3748   7.005   0.106   1.944
  950SOL    HW1 3749   6.990   0.083   1.848
  950SOL    HW2 3750   6.985   0.203   1.959
  951SOL     OW 3751   1.050   0.104   3.350
  951SOL    HW1 3752   0.967   0.159   3.338
  951SOL    HW2 3753   1.120   0.160   3.393
  952SOL     OW 3754   3.707   1.833   3.271
  952SOL    HW1 3755   3.687   1.814   3.368
  952SOL    HW2 3756   3.790   1.785   3.244
  953SOL     OW 3757   0.718   5.477   5.994
  953SOL    HW1 3758   0.648   5.490   5.924
  953SOL    HW2 3759   0.778   5.557   5.997
  954SOL     OW 3760   4.386   6.538   2.583
  954SOL    HW1 3761   4.395   6.440   2.599
  954SOL    HW2 3762   4.462   6.586   2.628
  955SOL     OW 3763   2.319   4.993   1.120
  955SOL    HW1 3764   2.381   5.056   1.166
  955SOL    HW2 3765   2.263   5.044   1.054
  956SOL     OW 3766   4.251   0.266   1.020
  956SOL    HW1 3767   4.249   0.366   1.028
  956SOL    HW2 3768   4.193   0.227   1.091
  957SOL     OW 3769   5.981   6.840   3.353
  957SOL    HW1 3770   5.917   6.820   3.279
  957SOL    HW2 3771   5.972   6.936   3.380
  958SOL     OW 3772   5.429   6.260   1.897
  958SOL    HW1 3773   5.453   6.163   1.909
  958SOL    HW2 3774   5.350   6.281   1.956
  959SOL     OW 3775   5.067   0.189   3.267
  959SOL    HW1 3776   4.977   0.233   3.268
  959SOL    HW2 3777   5.059   0.098   3.226
  960SOL     OW 3778   1.720   6.169   6.171
  960SOL    HW1 3779   1.620   6.168   6.161
  960SOL    HW2 3780   1.762   6.192   6.084
  961SOL     OW 3781   4.047   1.376   3.722
  961SOL    HW1 3782   4.011   1.283   3.715
  961SOL    HW2 3783   4.118   1.378   3.793
  962SOL     OW 3784   0.246   0.292   4.538
  962SOL    HW1 3785   0.167   0.309   4.597
  962SOL    HW2 3786   0.272   0.196   4.543
  963SOL     OW 3787   5.791   2.758   1.608
  963SOL    HW1 3788   5.703   2.741   1.652
  963SOL    HW2 3789   5.836   2.836   1.652
  964SOL     OW 3790   3.697   6.648   5.033
  964SOL    HW1 3791   3.645   6.671   5.115
  964SOL    HW2 3792   3.785   6.695   5.034
  965SOL     OW 3793   4.874   2.468   3.960
  965SOL    HW1 3794   4.818   2.386   3.945
  965SOL    HW2 3795   4.963   2.441   3.996
  966SOL     OW 3796   5.207   1.234   3.941
  966SOL    HW1 3797   5.277   1.239   3.871
  966SOL    HW2 3798   5.237   1.282   4.023
  967SOL     OW 3799   3.920   5.071   6.281
  967SOL    HW1 3800   3.948   5.072   6.185
  967SOL    HW2 3801   3.956   5.152   6.327
  968SOL     OW 3802   3.620   0.607   1.160
  968SOL    HW1 3803   3.523   0.586   1.151
  968SOL    HW2 3804   3.649   0.669   1.087
  969SOL     OW 3805   2.712   3.771   6.569
  969SOL    HW1 3806   2.620   3.787   6.532
  969SOL    HW2 3807   2.780   3.789   6.498
  970SOL     OW 3808   4.834   6.911   5.393
  970SOL    HW1 3809   4.827   6.853   5.311
  970SOL    HW2 3810   4.743   6.943   5.418
  971SOL     OW 3811   5.287   3.627   3.468
  971SOL    HW1 3812   5.250   3.564   3.400
  971SOL    HW2 3813   5.252   3.719   3.450
  972SOL     OW 3814   0.444   2.005   0.797
  972SOL    HW1 3815   0.498   2.036   0.876
  972SOL    HW2 3816   0.459   2.068   0.721
  973SOL     OW 3817   0.064   2.707   4.506
  973SOL    HW1 3818   0.082   2.802   4.534
  973SOL    HW2 3819   0.109   2.645   4.570
  974SOL     OW 3820   0.434   3.679   1.967
  974SOL    HW1 3821   0.432   3.584   1.998
  974SOL    HW2 3822   0.423   3.682   1.868
  975SOL     OW 3823   2.849   0.484   2.267
  975SOL    HW1 3824   2.806   0.394   2.272
  975SOL    HW2 3825   2.846   0.517   2.173
  976SOL     OW 3826   6.986   2.894   3.755
  976SOL    HW1 3827   0.043   2.942   3.717
  976SOL    HW2 3828   7.010   2.855   3.844
  977SOL     OW 3829   6.303   1.428   2.457
  977SOL    HW1 3830   6.341   1.458   2.370
  977SOL    HW2 3831   6.260   1.339   2.447
  978SOL     OW 3832   4.766   3.026   0.519
  978SOL    HW1 3833   4.835   3.085   0.477
  978SOL    HW2 3834   4.798   2.997   0.610
  979SOL     OW 3835   0.164   4.849   6.517
  979SOL    HW1 3836   0.208   4.897   6.442
  979SOL    HW2 3837   0.164   4.751   6.499
  980SOL     OW 3838   4.395   1.366   4.617
  980SOL    HW1 3839   4.326   1.407   4.677
  980SOL    HW2 3840   4.404   1.421   4.533
  981SOL     OW 3841   0.689   6.118   5.386
  981SOL    HW1 3842   0.750   6.164   5.322
  981SOL    HW2 3843   0.633   6.051   5.337
  982SOL     OW 3844   0.271   0.658   6.814
  982SOL    HW1 3845   0.369   0.654   6.794
  982SOL    HW2 3846   0.258   0.666   6.913
  983SOL     OW 3847   0.340   3.636   2.939
  983SOL    HW1 3848   0.326   3.691   2.856
  983SOL    HW2 3849   0.434   3.649   2.971
  984SOL     OW 3850   0.549   3.415   3.756
  984SOL    HW1 3851   0.522   3.508   3.733
  984SOL    HW2 3852   0.483   3.376   3.822
  985SOL     OW 3853   5.657   5.788   4.869
  985SOL    HW1 3854   5.733   5.723   4.877
  985SOL    HW2 3855   5.598   5.779   4.949
  986SOL     OW 3856   4.151   5.851   1.497
  986SOL    HW1 3857   4.080   5.808   1.441
  986SOL    HW2 3858   4.206   5.912   1.440
  987SOL     OW 3859   4.880   4.617   4.677
  987SOL    HW1 3860   4.910   4.559   4.602
  987SOL    HW2 3861   4.896   4.571   4.764
  988SOL     OW 3862   2.930   4.836   2.056
  988SOL    HW1 3863   3.001   4.833   1.986
  988SOL    HW2 3864   2.873   4.754   2.048
  989SOL     OW 3865   0.285   2.741   0.963
  989SOL    HW1 3866   0.198   2.757   1.009
  989SOL    HW2 3867   0.291   2.801   0.882
  990SOL     OW 3868   3.676   0.362   5.194
  990SOL    HW1 3869   3.729   0.437   5.234
  990SOL    HW2 3870   3.736   0.284   5.177
  991SOL     OW 3871   1.233   5.960   4.069
  991SOL    HW1 3872   1.263   6.050   4.100
  991SOL    HW2 3873   1.265   5.945   3.976
  992SOL     OW 3874   6.599   2.559   0.024
  992SOL    HW1 3875   6.619   2.656   0.038
  992SOL    HW2 3876   6.602   2.512   0.112
  993SOL     OW 3877   1.761   4.640   6.974
  993SOL    HW1 3878   1.731   4.578   0.024
  993SOL    HW2 3879   1.688   4.650   6.906
  994SOL     OW 3880   2.566   0.137   1.653
  994SOL    HW1 3881   2.650   0.128   1.707
  994SOL    HW2 3882   2.547   0.233   1.636
  995SOL     OW 3883   5.903   3.957   5.440
  995SOL    HW1 3884   5.963   4.022   5.395
  995SOL    HW2 3885   5.809   3.990   5.437
  996SOL     OW 3886   4.174   6.493   5.036
  996SOL    HW1 3887   4.233   6.533   5.106
  996SOL    HW2 3888   4.145   6.402   5.065
  997SOL     OW 3889   1.785   6.456   3.401
  997SOL    HW1 3890   1.837   6.392   3.457
  997SOL    HW2 3891   1.699   6.478   3.448
  998SOL     OW 3892   4.547   0.005   0.234
  998SOL    HW1 3893   4.590   0.084   0.278
  998SOL    HW2 3894   4.484   6.984   0.299
  999SOL     OW 3895   5.491   2.959   2.313
  999SOL    HW1 3896   5.421   2.896   2.348
  999SOL    HW2 3897   5.572   2.907   2.286
 1000SOL     OW 3898   5.266   1.710   2.105
 1000SOL    HW1 3899   5.181   1.677   2.147
 1000SOL    HW2 3900   5.259   1.808   2.088
 1001SOL     OW 3901   2.788   6.572   2.706
 1001SOL    HW1 3902   2.717   6.595   2.638
 1001SOL    HW2 3903   2.860   6.641   2.702
 1002SOL     OW 3904   4.244   2.465   0.680
 1002SOL    HW1 3905   4.180   2.390   0.693
 1002SOL    HW2 3906   4.326   2.449   0.735
 1003SOL     OW 3907   0.583   0.585   3.366
 1003SOL    HW1 3908   0.596   0.604   3.268
 1003SOL    HW2 3909   0.642   0.646   3.419
 1004SOL     OW 3910   5.109   1.774   4.205
 1004SOL    HW1 3911   5.034   1.717   4.239
 1004SOL    HW2 3912   5.104   1.865   4.247
 1005SOL     OW 3913   0.562   5.636   1.720
 1005SOL    HW1 3914   0.473   5.602   1.751
 1005SOL    HW2 3915   0.590   5.712   1.778
 1006SOL     OW 3916   2.269   4.317   1.680
 1006SOL    HW1 3917   2.317   4.339   1.765
 1006SOL    HW2 3918   2.307   4.234   1.641
 1007SOL     OW 3919   4.802   1.045   6.207
 1007SOL    HW1 3920   4.820   0.950   6.232
 1007SOL    HW2 3921   4.869   1.076   6.140
 1008SOL     OW 3922   0.504   4.901   4.774
 1008SOL    HW1 3923   0.546   4.959   4.704
 1008SOL    HW2 3924   0.565   4.895   4.853
 1009SOL     OW 3925   6.475   5.831   6.107
 1009SOL    HW1 3926   6.453   5.771   6.184
 1009SOL    HW2 3927   6.452   5.926   6.132
 1010SOL     OW 3928   3.000   3.527   0.365
 1010SOL    HW1 3929   3.021   3.624   0.359
 1010SOL    HW2 3930   2.993   3.500   0.461
 1011SOL     OW 3931   6.744   4.898   2.342
 1011SOL    HW1 3932   6.711   4.861   2.255
 1011SOL    HW2 3933   6.771   4.993   2.329
 1012SOL     OW 3934   5.846   6.064   2.576
 1012SOL    HW1 3935   5.788   5.997   2.530
 1012SOL    HW2 3936   5.825   6.156   2.541
 1013SOL     OW 3937   0.755   0.385   5.870
 1013SOL    HW1 3938   0.794   0.420   5.956
 1013SOL    HW2 3939   0.666   0.345   5.888
 1014SOL     OW 3940   1.144   4.752   4.547
 1014SOL    HW1 3941   1.082   4.689   4.502
 1014SOL    HW2 3942   1.187   4.812   4.479
 1015SOL     OW 3943   2.162   6.426   0.063
 1015SOL    HW1 3944   2.135   6.432   6.990
 1015SOL    HW2 3945   2.212   6.341   0.079
 1016SOL     OW 3946   0.023   4.481   0.886
 1016SOL    HW1 3947   0.113   4.510   0.852
 1016SOL    HW2 3948   7.008   4.412   0.825
 1017SOL     OW 3949   2.172   0.884   2.747
 1017SOL    HW1 3950   2.264   0.921   2.762
 1017SOL    HW2 3951   2.123   0.880   2.834
 1018SOL     OW 3952   6.054   6.286   4.514
 1018SOL    HW1 3953   6.032   6.302   4.611
 1018SOL    HW2 3954   6.111   6.204   4.507
 1019SOL     OW 3955   5.930   4.053   1.144
 1019SOL    HW1 3956   5.878   4.009   1.217
 1019SOL    HW2 3957   5.970   4.138   1.178
 1020SOL     OW 3958   5.381   1.351   1.540
 1020SOL    HW1 3959   5.305   1.405   1.505
 1020SOL    HW2 3960   5.458   1.412   1.562
 1021SOL     OW 3961   1.035   6.950   0.869
 1021SOL    HW1 3962   1.070   0.020   0.883
 1021SOL    HW2 3963   1.085   6.887   0.928
 1022SOL     OW 3964   2.243   5.052   6.284
 1022SOL    HW1 3965   2.149   5.087   6.279
 1022SOL    HW2 3966   2.270   5.016   6.194
 1023SOL     OW 3967   0.689   1.894   2.125
 1023SOL    HW1 3968   0.756   1.936   2.063
 1023SOL    HW2 3969   0.630   1.832   2.073
 1024SOL     OW 3970   1.844   2.065   4.332
 1024SOL    HW1 3971   1.925   2.035   4.283
 1024SOL    HW2 3972   1.762   2.041   4.279
 1025SOL     OW 3973   4.845   4.273   1.068
 1025SOL    HW1 3974   4.840   4.179   1.036
 1025SOL    HW2 3975   4.754   4.306   1.091
 1026SOL     OW 3976   3.050   3.067   2.146
 1026SOL    HW1 3977   3.057   3.148   2.087
 1026SOL    HW2 3978   3.051   2.984   2.090
 1027SOL     OW 3979   6.562   6.450   0.090
 1027SOL    HW1 3980   6.596   6.467   7.020
 1027SOL    HW2 3981   6.557   6.535   0.141
 1028SOL     OW 3982   1.087   4.689   2.954
 1028SOL    HW1 3983   1.129   4.640   3.030
 1028SOL    HW2 3984   1.152   4.757   2.919
 1029SOL     OW 3985   1.101   0.936   4.993
 1029SOL    HW1 3986   1.010   0.975   4.978
 1029SOL    HW2 3987   1.122   0.937   5.091
 1030SOL     OW 3988   3.914   3.354   0.615
 1030SOL    HW1 3989   3.973   3.431   0.594
 1030SOL    HW2 3990   3.969   3.277   0.646
 1031SOL     OW 3991   4.358   3.128   0.443
 1031SOL    HW1 3992   4.390   3.214   0.483
 1031SOL    HW2 3993   4.431   3.088   0.388
 1032SOL     OW 3994   1.439   1.214   0.967
 1032SOL    HW1 3995   1.404   1.304   0.939
 1032SOL    HW2 3996   1.476   1.166   0.887
 1033SOL     OW 3997   6.646   0.496   2.225
 1033SOL    HW1 3998   6.620   0.471   2.318
 1033SOL    HW2 3999   6.743   0.521   2.223
 1034SOL     OW 4000   2.642   0.871   5.182
 1034SOL    HW1 4001   2.636   0.962   5.224
 1034SOL    HW2 4002   2.639   0.880   5.083
 1035SOL     OW 4003   1.421   0.261   0.525
 1035SOL    HW1 4004   1.338   0.295   0.570
 1035SOL    HW2 4005   1.422   0.294   0.431
 1036SOL     OW 4006   4.773   1.375   1.922
 1036SOL    HW1 4007   4.720   1.411   1.999
 1036SOL    HW2 4008   4.870   1.387   1.940
 1037SOL     OW 4009   1.549   3.719   3.130
 1037SOL    HW1 4010   1.568   3.730   3.032
 1037SOL    HW2 4011   1.583   3.799   3.180
 1038SOL     OW 4012   1.960   6.202   0.117
 1038SOL    HW1 4013   1.997   6.121   0.072
 1038SOL    HW2 4014   1.973   6.282   0.057
 1039SOL     OW 4015   2.916   3.639   3.173
 1039SOL    HW1 4016   3.011   3.626   3.203
 1039SOL    HW2 4017   2.877   3.718   3.220
 1040SOL     OW 4018   3.697   1.597   3.065
 1040SOL    HW1 4019   3.631   1.663   3.102
 1040SOL    HW2 4020   3.784   1.607   3.113
 1041SOL     OW 4021   6.737   6.671   6.469
 1041SOL    HW1 4022   6.825   6.658   6.515
 1041SOL    HW2 4023   6.674   6.599   6.499
 1042SOL     OW 4024   5.303   3.853   3.956
 1042SOL    HW1 4025   5.248   3.838   4.038
 1042SOL    HW2 4026   5.363   3.775   3.941
 1043SOL     OW 4027   2.614   2.162   3.805
 1043SOL    HW1 4028   2.661   2.095   3.863
 1043SOL    HW2 4029   2.516   2.147   3.809
 1044SOL     OW 4030   5.571   4.489   2.386
 1044SOL    HW1 4031   5.558   4.401   2.339
 1044SOL    HW2 4032   5.481   4.526   2.412
 1045SOL     OW 4033   2.257   0.189   2.677
 1045SOL    HW1 4034   2.185   0.180   2.746
 1045SOL    HW2 4035   2.269   0.285   2.654
 1046SOL     OW 4036   2.619   2.130   1.210
 1046SOL    HW1 4037   2.542   2.066   1.217
 1046SOL    HW2 4038   2.696   2.084   1.166
 1047SOL     OW 4039   3.945   0.780   3.432
 1047SOL    HW1 4040   4.002   0.859   3.451
 1047SOL    HW2 4041   3.931   0.772   3.333
 1048SOL     OW 4042   0.883   0.061   1.837
 1048SOL    HW1 4043   0.962   0.006   1.865
 1048SOL    HW2 4044   0.873   0.057   1.738
 1049SOL     OW 4045   3.896   0.033   0.138
 1049SOL    HW1 4046   3.892   6.968   0.091
 1049SOL    HW2 4047   3.804   0.070   0.148
 1050SOL     OW 4048   2.519   1.245   4.698
 1050SOL    HW1 4049   2.606   1.197   4.686
 1050SOL    HW2 4050   2.486   1.232   4.791
 1051SOL     OW 4051   1.984   1.793   5.357
 1051SOL    HW1 4052   1.893   1.800   5.397
 1051SOL    HW2 4053   1.980   1.740   5.272
 1052SOL     OW 4054   4.217   2.112   6.907
 1052SOL    HW1 4055   4.189   2.124   7.002
 1052SOL    HW2 4056   4.311   2.143   6.896
 1053SOL     OW 4057   4.875   2.671   4.309
 1053SOL    HW1 4058   4.927   2.745   4.350
 1053SOL    HW2 4059   4.922   2.637   4.228
 1054SOL     OW 4060   4.558   5.520   6.518
 1054SOL    HW1 4061   4.601   5.579   6.586
 1054SOL    HW2 4062   4.565   5.425   6.546
 1055SOL     OW 4063   5.155   5.726   6.643
 1055SOL    HW1 4064   5.065   5.701   6.609
 1055SOL    HW2 4065   5.223   5.660   6.609
 1056SOL     OW 4066   3.619   3.872   0.419
 1056SOL    HW1 4067   3.698   3.899   0.364
 1056SOL    HW2 4068   3.639   3.784   0.463
 1057SOL     OW 4069   3.097   3.169   6.314
 1057SOL    HW1 4070   3.076   3.199   6.407
 1057SOL    HW2 4071   3.110   3.249   6.256
 1058SOL     OW 4072   2.992   2.101   2.030
 1058SOL    HW1 4073   2.948   2.187   2.054
 1058SOL    HW2 4074   2.993   2.089   1.931
 1059SOL     OW 4075   2.469   6.054   2.467
 1059SOL    HW1 4076   2.485   6.148   2.436
 1059SOL    HW2 4077   2.444   5.997   2.389
 1060SOL     OW 4078   6.120   0.418   5.242
 1060SOL    HW1 4079   6.101   0.326   5.276
 1060SOL    HW2 4080   6.045   0.479   5.267
 1061SOL     OW 4081   0.031   3.717   6.524
 1061SOL    HW1 4082   0.114   3.761   6.560
 1061SOL    HW2 4083   0.057   3.638   6.469
 1062SOL     OW 4084   3.149   5.114   5.179
 1062SOL    HW1 4085   3.194   5.034   5.141
 1062SOL    HW2 4086   3.191   5.197   5.142
 1063SOL     OW 4087   2.945   6.526   3.884
 1063SOL    HW1 4088   2.953   6.609   3.829
 1063SOL    HW2 4089   2.875   6.539   3.955
 1064SOL     OW 4090   0.779   3.460   0.341
 1064SOL    HW1 4091   0.849   3.431   0.275
 1064SOL    HW2 4092   0.735   3.379   0.380
 1065SOL     OW 4093   6.169   0.960   4.825
 1065SOL    HW1 4094   6.098   0.997   4.766
 1065SOL    HW2 4095   6.234   1.033   4.848
 1066SOL     OW 4096   4.907   6.191   1.155
 1066SOL    HW1 4097   4.890   6.109   1.210
 1066SOL    HW2 4098   4.924   6.164   1.060
 1067SOL     OW 4099   2.857   1.410   0.227
 1067SOL    HW1 4100   2.857   1.442   0.132
 1067SOL    HW2 4101   2.949   1.417   0.265
 1068SOL     OW 4102   6.144   2.895   1.727
 1068SOL    HW1 4103   6.240   2.921   1.725
 1068SOL    HW2 4104   6.136   2.797   1.747
 1069SOL     OW 4105   6.823   2.987   2.520
 1069SOL    HW1 4106   6.795   2.953   2.430
 1069SOL    HW2 4107   6.759   2.954   2.590
 1070SOL     OW 4108   0.715   0.473   2.522
 1070SOL    HW1 4109   0.747   0.533   2.596
 1070SOL    HW2 4110   0.787   0.465   2.453
 1071SOL     OW 4111   0.599   2.878   6.180
 1071SOL    HW1 4112   0.535   2.807   6.149
 1071SOL    HW2 4113   0.548   2.949   6.228
 1072SOL     OW 4114   2.101   1.428   2.349
 1072SOL    HW1 4115   2.006   1.450   2.373
 1072SOL    HW2 4116   2.108   1.415   2.250
 1073SOL     OW 4117   5.283   2.333   2.793
 1073SOL    HW1 4118   5.379   2.344   2.815
 1073SOL    HW2 4119   5.272   2.254   2.731
 1074SOL     OW 4120   3.703   4.989   1.437
 1074SOL    HW1 4121   3.747   5.079   1.444
 1074SOL    HW2 4122   3.687   4.953   1.529
 1075SOL     OW 4123   6.504   3.758   4.888
 1075SOL    HW1 4124   6.495   3.695   4.811
 1075SOL    HW2 4125   6.413   3.788   4.917
 1076SOL     OW 4126   2.046   4.074   5.051
 1076SOL    HW1 4127   2.143   4.060   5.031
 1076SOL    HW2 4128   2.037   4.129   5.135
 1077SOL     OW 4129   0.046   6.270   0.595
 1077SOL    HW1 4130   6.988   6.249   0.539
 1077SOL    HW2 4131   0.073   6.188   0.645
 1078SOL     OW 4132   5.882   6.076   4.099
 1078SOL    HW1 4133   5.867   6.033   4.188
 1078SOL    HW2 4134   5.840   6.021   4.028
 1079SOL     OW 4135   0.906   6.805   1.207
 1079SOL    HW1 4136   0.831   6.867   1.189
 1079SOL    HW2 4137   0.872   6.711   1.209
 1080SOL     OW 4138   4.352   5.772   0.595
 1080SOL    HW1 4139   4.436   5.803   0.550
 1080SOL    HW2 4140   4.365   5.775   0.694
 1081SOL     OW 4141   6.638   6.590   3.392
 1081SOL    HW1 4142   6.635   6.493   3.414
 1081SOL    HW2 4143   6.733   6.622   3.393
 1082SOL     OW 4144   4.518   0.016   6.992
 1082SOL    HW1 4145   4.448   6.968   6.981
 1082SOL    HW2 4146   4.551   0.015   0.064
 1083SOL     OW 4147   6.017   3.930   2.341
 1083SOL    HW1 4148   6.041   3.956   2.247
 1083SOL    HW2 4149   5.962   4.002   2.382
 1084SOL     OW 4150   5.472   0.801   5.252
 1084SOL    HW1 4151   5.423   0.887   5.235
 1084SOL    HW2 4152   5.434   0.729   5.194
 1085SOL     OW 4153   1.767   3.094   5.221
 1085SOL    HW1 4154   1.805   3.183   5.246
 1085SOL    HW2 4155   1.740   3.045   5.304
 1086SOL     OW 4156   5.877   4.727   1.937
 1086SOL    HW1 4157   5.944   4.734   2.011
 1086SOL    HW2 4158   5.788   4.758   1.970
 1087SOL     OW 4159   3.961   0.535   5.747
 1087SOL    HW1 4160   3.862   0.538   5.736
 1087SOL    HW2 4161   3.990   0.604   5.814
 1088SOL     OW 4162   6.923   5.573   4.340
 1088SOL    HW1 4163   6.851   5.627   4.384
 1088SOL    HW2 4164   6.907   5.571   4.241
 1089SOL     OW 4165   5.751   5.416   3.841
 1089SOL    HW1 4166   5.789   5.478   3.911
 1089SOL    HW2 4167   5.774   5.322   3.865
 1090SOL     OW 4168   5.816   2.811   5.316
 1090SOL    HW1 4169   5.836   2.861   5.232
 1090SOL    HW2 4170   5.729   2.762   5.307
 1091SOL     OW 4171   2.157   3.614   3.186
 1091SOL    HW1 4172   2.080   3.674   3.165
 1091SOL    HW2 4173   2.187   3.630   3.281
 1092SOL     OW 4174   0.975   6.570   0.867
 1092SOL    HW1 4175   0.973   6.542   0.963
 1092SOL    HW2 4176   0.882   6.570   0.830
 1093SOL     OW 4177   1.561   0.508   3.672
 1093SOL    HW1 4178   1.632   0.552   3.618
 1093SOL    HW2 4179   1.506   0.577   3.719
 1094SOL     OW 4180   0.238   0.036   2.642
 1094SOL    HW1 4181   0.254   0.066   2.548
 1094SOL    HW2 4182   0.325   0.016   2.686
 1095SOL     OW 4183   6.137   3.843   0.424
 1095SOL    HW1 4184   6.146   3.927   0.370
 1095SOL    HW2 4185   6.195   3.772   0.385
 1096SOL     OW 4186   1.991   6.167   2.038
 1096SOL    HW1 4187   1.971   6.105   2.115
 1096SOL    HW2 4188   2.050   6.121   1.972
 1097SOL     OW 4189   3.086   6.335   4.651
 1097SOL    HW1 4190   3.032   6.251   4.641
 1097SOL    HW2 4191   3.160   6.334   4.584
 1098SOL     OW 4192   6.928   3.693   0.247
 1098SOL    HW1 4193   6.831   3.669   0.257
 1098SOL    HW2 4194   6.983   3.638   0.309
 1099SOL     OW 4195   5.479   0.652   6.388
 1099SOL    HW1 4196   5.442   0.638   6.480
 1099SOL    HW2 4197   5.421   0.606   6.322
 1100SOL     OW 4198   4.622   1.909   5.019
 1100SOL    HW1 4199   4.553   1.845   5.051
 1100SOL    HW2 4200   4.578   1.987   4.975
 1101SOL     OW 4201   5.214   2.291   6.559
 1101SOL    HW1 4202   5.209   2.193   6.578
 1101SOL    HW2 4203   5.309   2.317   6.539
 1102SOL     OW 4204   2.895   0.729   3.845
 1102SOL    HW1 4205   2.811   0.677   3.835
 1102SOL    HW2 4206   2.966   0.672   3.888
 1103SOL     OW 4207   3.545   5.979   1.135
 1103SOL    HW1 4208   3.555   6.017   1.227
 1103SOL    HW2 4209   3.463   5.922   1.131
 1104SOL     OW 4210   7.007   2.182   4.265
 1104SOL    HW1 4211   7.012   2.184   4.165
 1104SOL    HW2 4212   0.076   2.170   4.303
 1105SOL     OW 4213   5.152   0.814   6.645
 1105SOL    HW1 4214   5.129   0.843   6.552
 1105SOL    HW2 4215   5.073   0.771   6.688
 1106SOL     OW 4216   6.237   1.762   1.324
 1106SOL    HW1 4217   6.163   1.813   1.367
 1106SOL    HW2 4218   6.302   1.732   1.394
 1107SOL     OW 4219   1.057   1.612   0.189
 1107SOL    HW1 4220   0.999   1.670   0.132
 1107SOL    HW2 4221   1.047   1.639   0.285
 1108SOL     OW 4222   2.498   1.347   3.319
 1108SOL    HW1 4223   2.402   1.340   3.346
 1108SOL    HW2 4224   2.554   1.289   3.378
 1109SOL     OW 4225   5.029   1.854   5.093
 1109SOL    HW1 4226   5.111   1.823   5.142
 1109SOL    HW2 4227   5.041   1.838   4.995
 1110SOL     OW 4228   1.495   0.938   2.619
 1110SOL    HW1 4229   1.592   0.917   2.633
 1110SOL    HW2 4230   1.448   0.856   2.586
 1111SOL     OW 4231   5.790   3.184   6.271
 1111SOL    HW1 4232   5.699   3.198   6.311
 1111SOL    HW2 4233   5.803   3.087   6.251
 1112SOL     OW 4234   5.844   0.671   2.680
 1112SOL    HW1 4235   5.779   0.716   2.742
 1112SOL    HW2 4236   5.924   0.729   2.667
 1113SOL     OW 4237   6.440   2.815   3.069
 1113SOL    HW1 4238   6.483   2.903   3.049
 1113SOL    HW2 4239   6.469   2.747   3.002
 1114SOL     OW 4240   3.720   3.346   4.745
 1114SOL    HW1 4241   3.777   3.413   4.698
 1114SOL    HW2 4242   3.633   3.336   4.696
 1115SOL     OW 4243   1.877   4.576   5.926
 1115SOL    HW1 4244   1.860   4.675   5.926
 1115SOL    HW2 4245   1.870   4.541   5.833
 1116SOL     OW 4246   4.274   0.266   0.362
 1116SOL    HW1 4247   4.311   0.354   0.392
 1116SOL    HW2 4248   4.281   0.260   0.262
 1117SOL     OW 4249   1.839   2.587   2.054
 1117SOL    HW1 4250   1.876   2.511   2.107
 1117SOL    HW2 4251   1.880   2.587   1.963
 1118SOL     OW 4252   4.881   6.256   0.256
 1118SOL    HW1 4253   4.865   6.223   0.349
 1118SOL    HW2 4254   4.954   6.203   0.214
 1119SOL     OW 4255   3.582   4.937   3.780
 1119SOL    HW1 4256   3.490   4.939   3.819
 1119SOL    HW2 4257   3.580   4.976   3.688
 1120SOL     OW 4258   6.416   3.650   1.281
 1120SOL    HW1 4259   6.407   3.629   1.183
 1120SOL    HW2 4260   6.500   3.702   1.296
 1121SOL     OW 4261   6.098   4.256   5.529
 1121SOL    HW1 4262   6.169   4.242   5.599
 1121SOL    HW2 4263   6.010   4.226   5.566
 1122SOL     OW 4264   6.318   1.608   2.199
 1122SOL    HW1 4265   6.390   1.677   2.204
 1122SOL    HW2 4266   6.328   1.554   2.116
 1123SOL     OW 4267   3.862   2.035   4.702
 1123SOL    HW1 4268   3.769   2.048   4.736
 1123SOL    HW2 4269   3.864   2.052   4.603
 1124SOL     OW 4270   2.114   2.994   4.122
 1124SOL    HW1 4271   2.199   2.953   4.152
 1124SOL    HW2 4272   2.046   2.923   4.104
 1125SOL     OW 4273   1.195   3.212   3.628
 1125SOL    HW1 4274   1.146   3.263   3.558
 1125SOL    HW2 4275   1.150   3.224   3.717
 1126SOL     OW 4276   4.177   4.826   4.279
 1126SOL    HW1 4277   4.176   4.765   4.200
 1126SOL    HW2 4278   4.086   4.826   4.322
 1127SOL     OW 4279   6.344   6.751   1.508
 1127SOL    HW1 4280   6.327   6.661   1.467
 1127SOL    HW2 4281   6.296   6.821   1.455
 1128SOL     OW 4282   4.451   1.699   4.663
 1128SOL    HW1 4283   4.361   1.673   4.699
 1128SOL    HW2 4284   4.519   1.692   4.736
 1129SOL     OW 4285   1.172   0.567   0.267
 1129SOL    HW1 4286   1.083   0.564   0.312
 1129SOL    HW2 4287   1.160   0.579   0.169
 1130SOL     OW 4288   2.065   5.216   2.076
 1130SOL    HW1 4289   2.044   5.279   2.001
 1130SOL    HW2 4290   2.016   5.130   2.063
 1131SOL     OW 4291   1.819   5.497   3.906
 1131SOL    HW1 4292   1.782   5.483   3.997
 1131SOL    HW2 4293   1.884   5.424   3.885
 1132SOL     OW 4294   1.052   1.838   2.596
 1132SOL    HW1 4295   0.979   1.847   2.663
 1132SOL    HW2 4296   1.113   1.917   2.602
 1133SOL     OW 4297   1.352   6.537   6.811
 1133SOL    HW1 4298   1.422   6.527   6.739
 1133SOL    HW2 4299   1.363   6.464   6.878
 1134SOL     OW 4300   4.518   5.768   0.832
 1134SOL    HW1 4301   4.605   5.793   0.791
 1134SOL    HW2 4302   4.517   5.670   0.850
 1135SOL     OW 4303   1.342   0.121   3.298
 1135SOL    HW1 4304   1.422   0.088   3.349
 1135SOL    HW2 4305   1.288   0.043   3.268
 1136SOL     OW 4306   1.876   4.999   2.080
 1136SOL    HW1 4307   1.782   5.026   2.058
 1136SOL    HW2 4308   1.879   4.964   2.174
 1137SOL     OW 4309   1.199   5.505   4.330
 1137SOL    HW1 4310   1.194   5.405   4.324
 1137SOL    HW2 4311   1.194   5.544   4.238
 1138SOL     OW 4312   1.750   4.109   5.170
 1138SOL    HW1 4313   1.766   4.012   5.154
 1138SOL    HW2 4314   1.728   4.154   5.083
 1139SOL     OW 4315   2.574   5.567   4.759
 1139SOL    HW1 4316   2.587   5.543   4.663
 1139SOL    HW2 4317   2.562   5.665   4.768
 1140SOL     OW 4318   2.142   2.298   1.966
 1140SOL    HW1 4319   2.185   2.209   1.947
 1140SOL    HW2 4320   2.186   2.369   1.911
 1141SOL     OW 4321   6.268   4.683   5.292
 1141SOL    HW1 4322   6.280   4.635   5.206
 1141SOL    HW2 4323   6.265   4.617   5.367
 1142SOL     OW 4324   1.560   5.697   2.595
 1142SOL    HW1 4325   1.496   5.622   2.612
 1142SOL    HW2 4326   1.638   5.662   2.543
 1143SOL     OW 4327   6.909   4.187   1.847
 1143SOL    HW1 4328   6.948   4.150   1.932
 1143SOL    HW2 4329   6.971   4.170   1.771
 1144SOL     OW 4330   4.793   4.329   0.628
 1144SOL    HW1 4331   4.755   4.237   0.633
 1144SOL    HW2 4332   4.865   4.339   0.697
 1145SOL     OW 4333   6.223   0.196   0.316
 1145SOL    HW1 4334   6.165   0.228   0.390
 1145SOL    HW2 4335   6.282   0.122   0.348
 1146SOL     OW 4336   1.509   0.777   1.178
 1146SOL    HW1 4337   1.456   0.720   1.115
 1146SOL    HW2 4338   1.513   0.870   1.142
 1147SOL     OW 4339   1.992   6.301   1.028
 1147SOL    HW1 4340   2.083   6.265   1.006
 1147SOL    HW2 4341   2.000   6.370   1.100
 1148SOL     OW 4342   3.776   6.150   2.112
 1148SOL    HW1 4343   3.698   6.094   2.139
 1148SOL    HW2 4344   3.851   6.091   2.081
 1149SOL     OW 4345   4.905   2.687   1.703
 1149SOL    HW1 4346   4.969   2.614   1.682
 1149SOL    HW2 4347   4.887   2.689   1.801
 1150SOL     OW 4348   1.073   3.073   0.928
 1150SOL    HW1 4349   1.046   3.000   0.867
 1150SOL    HW2 4350   1.040   3.054   1.020
 1151SOL     OW 4351   5.311   5.179   4.257
 1151SOL    HW1 4352   5.408   5.162   4.273
 1151SOL    HW2 4353   5.294   5.278   4.262
 1152SOL     OW 4354   3.476   6.613   6.142
 1152SOL    HW1 4355   3.513   6.702   6.117
 1152SOL    HW2 4356   3.551   6.547   6.151
 1153SOL     OW 4357   6.195   6.896   1.295
 1153SOL    HW1 4358   6.200   6.931   1.202
 1153SOL    HW2 4359   6.104   6.859   1.312
 1154SOL     OW 4360   2.122   2.936   0.881
 1154SOL    HW1 4361   2.112   2.926   0.782
 1154SOL    HW2 4362   2.106   2.848   0.926
 1155SOL     OW 4363   3.677   5.804   3.566
 1155SOL    HW1 4364   3.662   5.709   3.537
 1155SOL    HW2 4365   3.726   5.805   3.653
 1156SOL     OW 4366   2.842   1.123   2.476
 1156SOL    HW1 4367   2.798   1.090   2.560
 1156SOL    HW2 4368   2.928   1.074   2.461
 1157SOL     OW 4369   2.678   1.620   0.886
 1157SOL    HW1 4370   2.625   1.698   0.920
 1157SOL    HW2 4371   2.630   1.578   0.810
 1158SOL     OW 4372   5.682   4.857   3.572
 1158SOL    HW1 4373   5.627   4.920   3.517
 1158SOL    HW2 4374   5.771   4.844   3.528
 1159SOL     OW 4375   5.741   4.675   0.635
 1159SOL    HW1 4376   5.737   4.764   0.591
 1159SOL    HW2 4377   5.650   4.647   0.665
 1160SOL     OW 4378   4.670   2.262   0.624
 1160SOL    HW1 4379   4.750   2.321   0.619
 1160SOL    HW2 4380   4.617   2.270   0.540
 1161SOL     OW 4381   6.278   5.311   0.960
 1161SOL    HW1 4382   6.243   5.399   0.990
 1161SOL    HW2 4383   6.202   5.249   0.940
 1162SOL     OW 4384   2.893   2.243   4.470
 1162SOL    HW1 4385   2.906   2.177   4.397
 1162SOL    HW2 4386   2.832   2.316   4.440
 1163SOL     OW 4387   5.590   2.275   1.739
 1163SOL    HW1 4388   5.654   2.262   1.814
 1163SOL    HW2 4389   5.536   2.357   1.756
 1164SOL     OW 4390   4.540   2.409   5.697
 1164SOL    HW1 4391   4.447   2.380   5.720
 1164SOL    HW2 4392   4.552   2.404   5.598
 1165SOL     OW 4393   4.728   6.814   3.260
 1165SOL    HW1 4394   4.734   6.899   3.312
 1165SOL    HW2 4395   4.758   6.737   3.317
 1166SOL     OW 4396   3.251   4.498   6.795
 1166SOL    HW1 4397   3.238   4.586   6.749
 1166SOL    HW2 4398   3.164   4.467   6.832
 1167SOL     OW 4399   4.793   4.229   3.063
 1167SOL    HW1 4400   4.761   4.240   3.158
 1167SOL    HW2 4401   4.821   4.318   3.027
 1168SOL     OW 4402   0.684   0.317   1.733
 1168SOL    HW1 4403   0.776   0.301   1.769
 1168SOL    HW2 4404   0.651   0.234   1.688
 1169SOL     OW 4405   4.592   1.820   5.352
 1169SOL    HW1 4406   4.571   1.916   5.370
 1169SOL    HW2 4407   4.691   1.810   5.340
 1170SOL     OW 4408   5.044   5.260   2.684
 1170SOL    HW1 4409   4.982   5.305   2.619
 1170SOL    HW2 4410   5.116   5.212   2.634
 1171SOL     OW 4411   0.315   6.020   0.906
 1171SOL    HW1 4412   0.331   6.003   1.004
 1171SOL    HW2 4413   0.216   6.015   0.888
 1172SOL     OW 4414   6.206   3.248   6.257
 1172SOL    HW1 4415   6.242   3.166   6.301
 1172SOL    HW2 4416   6.268   3.325   6.276
 1173SOL     OW 4417   3.466   2.560   0.540
 1173SOL    HW1 4418   3.394   2.515   0.487
 1173SOL    HW2 4419   3.456   2.660   0.533
 1174SOL     OW 4420   2.398   4.990   0.318
 1174SOL    HW1 4421   2.401   4.981   0.418
 1174SOL    HW2 4422   2.373   4.903   0.277
 1175SOL     OW 4423   3.073   3.116   4.078
 1175SOL    HW1 4424   3.170   3.132   4.096
 1175SOL    HW2 4425   3.056   3.124   3.980
 1176SOL     OW 4426   5.445   3.166   6.837
 1176SOL    HW1 4427   5.393   3.250   6.819
 1176SOL    HW2 4428   5.487   3.171   6.928
 1177SOL     OW 4429   1.419   1.910   4.864
 1177SOL    HW1 4430   1.398   1.813   4.850
 1177SOL    HW2 4431   1.512   1.929   4.833
 1178SOL     OW 4432   4.678   6.353   0.135
 1178SOL    HW1 4433   4.714   6.438   0.097
 1178SOL    HW2 4434   4.750   6.306   0.187
 1179SOL     OW 4435   0.328   5.962   0.222
 1179SOL    HW1 4436   0.287   5.958   0.130
 1179SOL    HW2 4437   0.309   6.052   0.262
 1180SOL     OW 4438   3.674   6.122   0.455
 1180SOL    HW1 4439   3.696   6.027   0.434
 1180SOL    HW2 4440   3.578   6.129   0.482
 1181SOL     OW 4441   6.637   6.490   6.850
 1181SOL    HW1 4442   6.590   6.507   6.763
 1181SOL    HW2 4443   6.703   6.563   6.866
 1182SOL     OW 4444   4.772   4.247   2.499
 1182SOL    HW1 4445   4.706   4.297   2.443
 1182SOL    HW2 4446   4.745   4.253   2.595
 1183SOL     OW 4447   1.592   3.992   6.727
 1183SOL    HW1 4448   1.659   4.047   6.777
 1183SOL    HW2 4449   1.616   3.895   6.734
 1184SOL     OW 4450   6.912   0.564   5.510
 1184SOL    HW1 4451   6.981   0.604   5.450
 1184SOL    HW2 4452   6.866   0.489   5.462
 1185SOL     OW 4453   6.275   1.093   7.007
 1185SOL    HW1 4454   6.374   1.104   7.013
 1185SOL    HW2 4455   6.242   1.134   6.922
 1186SOL     OW 4456   5.624   6.873   4.783
 1186SOL    HW1 4457   5.562   6.857   4.860
 1186SOL    HW2 4458   5.716   6.890   4.818
 1187SOL     OW 4459   6.517   1.546   5.969
 1187SOL    HW1 4460   6.482   1.469   5.915
 1187SOL    HW2 4461   6.456   1.564   6.045
 1188SOL     OW 4462   3.086   1.606   6.692
 1188SOL    HW1 4463   3.029   1.680   6.729
 1188SOL    HW2 4464   3.139   1.565   6.765
 1189SOL     OW 4465   5.267   3.525   3.741
 1189SOL    HW1 4466   5.351   3.550   3.790
 1189SOL    HW2 4467   5.266   3.570   3.652
 1190SOL     OW 4468   2.989   0.196   3.795
 1190SOL    HW1 4469   2.939   0.266   3.744
 1190SOL    HW2 4470   3.048   0.145   3.732
 1191SOL     OW 4471   4.071   6.383   2.837
 1191SOL    HW1 4472   4.033   6.307   2.890
 1191SOL    HW2 4473   4.087   6.354   2.743
 1192SOL     OW 4474   6.107   6.094   3.187
 1192SOL    HW1 4475   6.044   6.136   3.122
 1192SOL    HW2 4476   6.061   6.079   3.274
 1193SOL     OW 4477   7.000   5.734   4.704
 1193SOL    HW1 4478   6.981   5.663   4.773
 1193SOL    HW2 4479   6.917   5.788   4.689
 1194SOL     OW 4480   3.898   0.062   1.328
 1194SOL    HW1 4481   3.918   0.144   1.381
 1194SOL    HW2 4482   3.801   0.062   1.302
 1195SOL     OW 4483   4.813   2.527   3.341
 1195SOL    HW1 4484   4.893   2.579   3.314
 1195SOL    HW2 4485   4.738   2.546   3.278
 1196SOL     OW 4486   6.903   6.605   5.165
 1196SOL    HW1 4487   6.907   6.642   5.073
 1196SOL    HW2 4488   6.978   6.539   5.178
 1197SOL     OW 4489   2.044   6.325   0.347
 1197SOL    HW1 4490   1.983   6.296   0.421
 1197SOL    HW2 4491   2.036   6.261   0.270
 1198SOL     OW 4492   1.599   2.852   6.921
 1198SOL    HW1 4493   1.569   2.761   6.949
 1198SOL    HW2 4494   1.684   2.876   6.968
 1199SOL     OW 4495   6.451   3.667   2.149
 1199SOL    HW1 4496   6.406   3.635   2.233
 1199SOL    HW2 4497   6.439   3.599   2.077
 1200SOL     OW 4498   3.093   4.029   2.832
 1200SOL    HW1 4499   3.175   4.045   2.777
 1200SOL    HW2 4500   3.042   3.952   2.792
 1201SOL     OW 4501   1.336   1.876   4.306
 1201SOL    HW1 4502   1.358   1.831   4.392
 1201SOL    HW2 4503   1.336   1.975   4.319
 1202SOL     OW 4504   1.238   5.318   5.358
 1202SOL    HW1 4505   1.245   5.371   5.274
 1202SOL    HW2 4506   1.316   5.340   5.418
 1203SOL     OW 4507   3.475   6.126   5.460
 1203SOL    HW1 4508   3.453   6.122   5.363
 1203SOL    HW2 4509   3.422   6.057   5.509
 1204SOL     OW 4510   1.773   6.857   3.174
 1204SOL    HW1 4511   1.688   6.833   3.126
 1204SOL    HW2 4512   1.844   6.792   3.149
 1205SOL     OW 4513   5.883   3.708   1.968
 1205SOL    HW1 4514   5.877   3.609   1.971
 1205SOL    HW2 4515   5.874   3.745   2.060
 1206SOL     OW 4516   3.414   3.579   4.716
 1206SOL    HW1 4517   3.506   3.606   4.745
 1206SOL    HW2 4518   3.357   3.661   4.706
 1207SOL     OW 4519   1.032   6.031   2.669
 1207SOL    HW1 4520   1.080   5.949   2.699
 1207SOL    HW2 4521   0.986   6.073   2.747
 1208SOL     OW 4522   3.150   3.493   6.292
 1208SOL    HW1 4523   3.057   3.510   6.325
 1208SOL    HW2 4524   3.150   3.486   6.192
 1209SOL     OW 4525   3.994   6.432   5.527
 1209SOL    HW1 4526   3.964   6.500   5.460
 1209SOL    HW2 4527   4.010   6.476   5.615
 1210SOL     OW 4528   3.580   1.410   2.929
 1210SOL    HW1 4529   3.507   1.452   2.875
 1210SOL    HW2 4530   3.621   1.479   2.988
 1211SOL     OW 4531   0.845   2.488   0.529
 1211SOL    HW1 4532   0.853   2.561   0.462
 1211SOL    HW2 4533   0.756   2.494   0.575
 1212SOL     OW 4534   1.129   0.224   0.334
 1212SOL    HW1 4535   1.175   0.135   0.331
 1212SOL    HW2 4536   1.186   0.293   0.289
 1213SOL     OW 4537   5.576   3.023   1.617
 1213SOL    HW1 4538   5.637   3.070   1.553
 1213SOL    HW2 4539   5.481   3.031   1.585
 1214SOL     OW 4540   6.991   2.749   2.047
 1214SOL    HW1 4541   0.049   2.759   1.989
 1214SOL    HW2 4542   6.954   2.656   2.037
 1215SOL     OW 4543   1.545   5.995   3.060
 1215SOL    HW1 4544   1.531   6.077   3.116
 1215SOL    HW2 4545   1.642   5.987   3.036
 1216SOL     OW 4546   3.660   0.181   1.955
 1216SOL    HW1 4547   3.568   0.153   1.926
 1216SOL    HW2 4548   3.678   0.274   1.921
 1217SOL     OW 4549   2.857   4.602   6.931
 1217SOL    HW1 4550   2.877   4.544   7.009
 1217SOL    HW2 4551   2.768   4.645   6.943
 1218SOL     OW 4552   2.814   5.122   3.223
 1218SOL    HW1 4553   2.759   5.193   3.178
 1218SOL    HW2 4554   2.866   5.162   3.298
 1219SOL     OW 4555   3.357   6.119   2.072
 1219SOL    HW1 4556   3.339   6.186   2.000
 1219SOL    HW2 4557   3.453   6.092   2.069
 1220SOL     OW 4558   0.934   4.606   2.477
 1220SOL    HW1 4559   0.928   4.658   2.392
 1220SOL    HW2 4560   1.031   4.593   2.502
 1221SOL     OW 4561   4.873   4.408   6.354
 1221SOL    HW1 4562   4.792   4.356   6.381
 1221SOL    HW2 4563   4.884   4.488   6.414
 1222SOL     OW 4564   7.016   0.696   6.108
 1222SOL    HW1 4565   0.080   0.745   6.099
 1222SOL    HW2 4566   6.953   0.751   6.162
 1223SOL     OW 4567   3.527   6.263   1.026
 1223SOL    HW1 4568   3.615   6.304   1.050
 1223SOL    HW2 4569   3.517   6.175   1.071
 1224SOL     OW 4570   3.037   0.772   2.004
 1224SOL    HW1 4571   2.984   0.696   2.041
 1224SOL    HW2 4572   3.097   0.809   2.075
 1225SOL     OW 4573   2.793   3.704   5.998
 1225SOL    HW1 4574   2.864   3.702   5.927
 1225SOL    HW2 4575   2.771   3.798   6.021
 1226SOL     OW 4576   1.974   5.070   0.402
 1226SOL    HW1 4577   2.004   5.000   0.467
 1226SOL    HW2 4578   1.977   5.032   0.310
 1227SOL     OW 4579   0.726   3.862   5.872
 1227SOL    HW1 4580   0.733   3.839   5.774
 1227SOL    HW2 4581   0.814   3.845   5.916
 1228SOL     OW 4582   3.953   1.673   0.089
 1228SOL    HW1 4583   3.896   1.739   0.039
 1228SOL    HW2 4584   3.966   1.706   0.183
 1229SOL     OW 4585   2.707   4.254   6.558
 1229SOL    HW1 4586   2.772   4.193   6.603
 1229SOL    HW2 4587   2.749   4.343   6.545
 1230SOL     OW 4588   4.800   0.469   3.603
 1230SOL    HW1 4589   4.855   0.489   3.684
 1230SOL    HW2 4590   4.732   0.541   3.589
 1231SOL     OW 4591   1.261   3.857   4.509
 1231SOL    HW1 4592   1.352   3.825   4.535
 1231SOL    HW2 4593   1.192   3.800   4.552
 1232SOL     OW 4594   2.282   2.960   3.240
 1232SOL    HW1 4595   2.233   3.044   3.218
 1232SOL    HW2 4596   2.379   2.970   3.217
 1233SOL     OW 4597   1.017   2.663   4.309
 1233SOL    HW1 4598   0.940   2.692   4.252
 1233SOL    HW2 4599   1.082   2.738   4.319
 1234SOL     OW 4600   6.490   4.575   4.196
 1234SOL    HW1 4601   6.530   4.657   4.238
 1234SOL    HW2 4602   6.449   4.518   4.266
 1235SOL     OW 4603   6.806   5.973   3.825
 1235SOL    HW1 4604   6.808   5.976   3.925
 1235SOL    HW2 4605   6.712   5.957   3.793
 1236SOL     OW 4606   5.673   0.760   6.171
 1236SOL    HW1 4607   5.687   0.680   6.112
 1236SOL    HW2 4608   5.628   0.731   6.255
 1237SOL     OW 4609   2.169   4.677   6.091
 1237SOL    HW1 4610   2.183   4.771   6.059
 1237SOL    HW2 4611   2.246   4.650   6.148
 1238SOL     OW 4612   1.698   1.422   0.633
 1238SOL    HW1 4613   1.782   1.369   0.635
 1238SOL    HW2 4614   1.688   1.473   0.718
 1239SOL     OW 4615   0.758   0.478   5.597
 1239SOL    HW1 4616   0.765   0.458   5.695
 1239SOL    HW2 4617   0.736   0.395   5.547
 1240SOL     OW 4618   4.551   5.512   1.678
 1240SOL    HW1 4619   4.620   5.555   1.619
 1240SOL    HW2 4620   4.488   5.459   1.622
 1241SOL     OW 4621   0.303   1.979   4.159
 1241SOL    HW1 4622   0.321   2.063   4.210
 1241SOL    HW2 4623   0.369   1.970   4.085
 1242SOL     OW 4624   2.148   2.468   6.475
 1242SOL    HW1 4625   2.174   2.540   6.410
 1242SOL    HW2 4626   2.080   2.408   6.433
 1243SOL     OW 4627   2.400   5.207   5.036
 1243SOL    HW1 4628   2.445   5.180   5.121
 1243SOL    HW2 4629   2.302   5.185   5.041
 1244SOL     OW 4630   0.135   1.708   2.466
 1244SOL    HW1 4631   0.121   1.612   2.491
 1244SOL    HW2 4632   0.163   1.759   2.548
 1245SOL     OW 4633   2.744   3.385   5.702
 1245SOL    HW1 4634   2.824   3.401   5.644
 1245SOL    HW2 4635   2.661   3.400   5.650
 1246SOL     OW 4636   0.955   0.031   1.326
 1246SOL    HW1 4637   0.902   0.103   1.282
 1246SOL    HW2 4638   0.978   6.983   1.259
 1247SOL     OW 4639   1.327   6.911   6.637
 1247SOL    HW1 4640   1.401   6.970   6.670
 1247SOL    HW2 4641   1.359   6.858   6.559
 1248SOL     OW 4642   2.492   6.332   3.885
 1248SOL    HW1 4643   2.509   6.351   3.788
 1248SOL    HW2 4644   2.404   6.372   3.912
 1249SOL     OW 4645   5.806   2.970   2.969
 1249SOL    HW1 4646   5.806   3.015   2.880
 1249SOL    HW2 4647   5.876   3.012   3.027
 1250SOL     OW 4648   0.194   3.970   4.062
 1250SOL    HW1 4649   0.286   4.008   4.073
 1250SOL    HW2 4650   0.145   4.022   3.992
 1251SOL     OW 4651   3.519   0.716   6.162
 1251SOL    HW1 4652   3.546   0.686   6.254
 1251SOL    HW2 4653   3.479   0.808   6.167
 1252SOL     OW 4654   2.898   3.541   0.106
 1252SOL    HW1 4655   2.940   3.476   0.043
 1252SOL    HW2 4656   2.944   3.535   0.195
 1253SOL     OW 4657   4.662   0.660   2.654
 1253SOL    HW1 4658   4.607   0.743   2.647
 1253SOL    HW2 4659   4.654   0.608   2.569
 1254SOL     OW 4660   5.551   1.674   3.263
 1254SOL    HW1 4661   5.578   1.620   3.183
 1254SOL    HW2 4662   5.452   1.689   3.260
 1255SOL     OW 4663   6.179   0.419   0.731
 1255SOL    HW1 4664   6.134   0.393   0.816
 1255SOL    HW2 4665   6.244   0.493   0.748
 1256SOL     OW 4666   4.852   2.556   3.703
 1256SOL    HW1 4667   4.858   2.531   3.800
 1256SOL    HW2 4668   4.823   2.477   3.650
 1257SOL     OW 4669   6.176   0.895   4.151
 1257SOL    HW1 4670   6.090   0.935   4.182
 1257SOL    HW2 4671   6.217   0.954   4.081
 1258SOL     OW 4672   0.193   5.477   3.496
 1258SOL    HW1 4673   0.194   5.557   3.436
 1258SOL    HW2 4674   0.249   5.404   3.457
 1259SOL     OW 4675   5.017   2.365   5.191
 1259SOL    HW1 4676   4.954   2.442   5.202
 1259SOL    HW2 4677   4.995   2.316   5.107
 1260SOL     OW 4678   0.495   1.447   4.926
 1260SOL    HW1 4679   0.496   1.513   5.001
 1260SOL    HW2 4680   0.482   1.355   4.963
 1261SOL     OW 4681   6.600   3.957   0.967
 1261SOL    HW1 4682   6.648   4.043   0.949
 1261SOL    HW2 4683   6.582   3.911   0.881
 1262SOL     OW 4684   5.149   6.335   2.022
 1262SOL    HW1 4685   5.141   6.255   2.081
 1262SOL    HW2 4686   5.172   6.415   2.077
 1263SOL     OW 4687   0.100   2.492   3.607
 1263SOL    HW1 4688   0.110   2.396   3.583
 1263SOL    HW2 4689   0.009   2.508   3.646
 1264SOL     OW 4690   1.211   2.811   5.237
 1264SOL    HW1 4691   1.293   2.820   5.293
 1264SOL    HW2 4692   1.130   2.812   5.296
 1265SOL     OW 4693   5.510   0.316   5.472
 1265SOL    HW1 4694   5.587   0.260   5.502
 1265SOL    HW2 4695   5.476   0.281   5.385
 1266SOL     OW 4696   2.866   1.509   5.213
 1266SOL    HW1 4697   2.958   1.548   5.213
 1266SOL    HW2 4698   2.805   1.567   5.267
 1267SOL     OW 4699   3.259   6.983   2.652
 1267SOL    HW1 4700   3.251   6.920   2.575
 1267SOL    HW2 4701   3.237   0.053   2.622
 1268SOL     OW 4702   3.925   2.289   5.355
 1268SOL    HW1 4703   3.849   2.344   5.389
 1268SOL    HW2 4704   3.963   2.234   5.429
 1269SOL     OW 4705   5.512   1.785   3.796
 1269SOL    HW1 4706   5.597   1.787   3.743
 1269SOL    HW2 4707   5.515   1.707   3.859
 1270SOL     OW 4708   6.307   5.156   3.133
 1270SOL    HW1 4709   6.382   5.100   3.167
 1270SOL    HW2 4710   6.275   5.216   3.206
 1271SOL     OW 4711   1.752   1.347   1.904
 1271SOL    HW1 4712   1.754   1.366   1.805
 1271SOL    HW2 4713   1.693   1.268   1.921
 1272SOL     OW 4714   5.899   2.612   0.653
 1272SOL    HW1 4715   5.944   2.578   0.570
 1272SOL    HW2 4716   5.951   2.582   0.733
 1273SOL     OW 4717   1.848   4.426   5.705
 1273SOL    HW1 4718   1.792   4.416   5.623
 1273SOL    HW2 4719   1.879   4.335   5.734
 1274SOL     OW 4720   6.715   4.058   4.025
 1274SOL    HW1 4721   6.647   3.988   4.003
 1274SOL    HW2 4722   6.721   4.124   3.951
 1275SOL     OW 4723   2.081   1.523   3.012
 1275SOL    HW1 4724   1.989   1.503   3.045
 1275SOL    HW2 4725   2.138   1.554   3.088
 1276SOL     OW 4726   5.529   4.256   3.670
 1276SOL    HW1 4727   5.540   4.247   3.769
 1276SOL    HW2 4728   5.505   4.167   3.631
 1277SOL     OW 4729   1.110   5.836   6.794
 1277SOL    HW1 4730   1.038   5.905   6.803
 1277SOL    HW2 4731   1.070   5.745   6.792
 1278SOL     OW 4732   0.324   6.071   2.477
 1278SOL    HW1 4733   0.239   6.020   2.463
 1278SOL    HW2 4734   0.386   6.020   2.536
 1279SOL     OW 4735   2.893   3.140   0.802
 1279SOL    HW1 4736   2.912   3.106   0.710
 1279SOL    HW2 4737   2.956   3.215   0.824
 1280SOL     OW 4738   2.650   2.436   4.098
 1280SOL    HW1 4739   2.652   2.452   3.999
 1280SOL    HW2 4740   2.639   2.339   4.115
 1281SOL     OW 4741   5.440   6.114   5.025
 1281SOL    HW1 4742   5.513   6.182   5.015
 1281SOL    HW2 4743   5.479   6.025   5.048
 1282SOL     OW 4744   0.498   3.111   1.507
 1282SOL    HW1 4745   0.399   3.110   1.523
 1282SOL    HW2 4746   0.516   3.083   1.413
 1283SOL     OW 4747   6.932   1.276   4.288
 1283SOL    HW1 4748   6.928   1.293   4.190
 1283SOL    HW2 4749   6.869   1.202   4.312
 1284SOL     OW 4750   3.668   2.038   1.504
 1284SOL    HW1 4751   3.720   2.103   1.559
 1284SOL    HW2 4752   3.640   1.960   1.561
 1285SOL     OW 4753   4.346   1.453   4.338
 1285SOL    HW1 4754   4.269   1.514   4.360
 1285SOL    HW2 4755   4.365   1.458   4.241
 1286SOL     OW 4756   4.835   1.122   1.853
 1286SOL    HW1 4757   4.776   1.189   1.898
 1286SOL    HW2 4758   4.920   1.166   1.823
 1287SOL     OW 4759   4.848   5.179   5.956
 1287SOL    HW1 4760   4.835   5.142   6.048
 1287SOL    HW2 4761   4.931   5.140   5.916
 1288SOL     OW 4762   4.433   4.370   6.558
 1288SOL    HW1 4763   4.395   4.336   6.643
 1288SOL    HW2 4764   4.360   4.391   6.493
 1289SOL     OW 4765   7.008   6.823   0.351
 1289SOL    HW1 4766   7.011   6.906   0.407
 1289SOL    HW2 4767   0.070   6.815   0.299
 1290SOL     OW 4768   1.541   6.355   5.521
 1290SOL    HW1 4769   1.600   6.392   5.593
 1290SOL    HW2 4770   1.527   6.425   5.451
 1291SOL     OW 4771   5.814   5.499   3.572
 1291SOL    HW1 4772   5.784   5.452   3.655
 1291SOL    HW2 4773   5.747   5.567   3.546
 1292SOL     OW 4774   0.327   6.699   2.630
 1292SOL    HW1 4775   0.371   6.785   2.654
 1292SOL    HW2 4776   0.227   6.712   2.627
 1293SOL     OW 4777   4.825   0.893   1.127
 1293SOL    HW1 4778   4.921   0.888   1.154
 1293SOL    HW2 4779   4.796   0.803   1.093
 1294SOL     OW 4780   2.054   4.607   5.188
 1294SOL    HW1 4781   2.033   4.657   5.104
 1294SOL    HW2 4782   2.147   4.572   5.184
 1295SOL     OW 4783   6.889   4.642   0.203
 1295SOL    HW1 4784   6.916   4.664   0.296
 1295SOL    HW2 4785   6.933   4.556   0.175
 1296SOL     OW 4786   4.949   0.376   5.818
 1296SOL    HW1 4787   4.950   0.471   5.784
 1296SOL    HW2 4788   5.014   0.322   5.765
 1297SOL     OW 4789   6.057   6.731   0.050
 1297SOL    HW1 4790   6.071   6.805   7.008
 1297SOL    HW2 4791   6.065   6.643   0.003
 1298SOL     OW 4792   5.193   0.418   3.503
 1298SOL    HW1 4793   5.290   0.397   3.488
 1298SOL    HW2 4794   5.169   0.500   3.452
 1299SOL     OW 4795   1.114   3.659   4.654
 1299SOL    HW1 4796   1.072   3.743   4.689
 1299SOL    HW2 4797   1.203   3.645   4.699
 1300SOL     OW 4798   1.409   5.948   0.554
 1300SOL    HW1 4799   1.313   5.939   0.526
 1300SOL    HW2 4800   1.450   6.026   0.508
 1301SOL     OW 4801   6.485   0.904   0.385
 1301SOL    HW1 4802   6.571   0.864   0.415
 1301SOL    HW2 4803   6.464   0.985   0.440
 1302SOL     OW 4804   6.551   6.804   5.335
 1302SOL    HW1 4805   6.625   6.819   5.401
 1302SOL    HW2 4806   6.580   6.735   5.268
 1303SOL     OW 4807   3.025   6.797   1.817
 1303SOL    HW1 4808   2.965   6.825   1.743
 1303SOL    HW2 4809   3.107   6.754   1.779
 1304SOL     OW 4810   0.327   0.438   0.906
 1304SOL    HW1 4811   0.237   0.470   0.936
 1304SOL    HW2 4812   0.396   0.507   0.930
 1305SOL     OW 4813   4.239   4.147   6.279
 1305SOL    HW1 4814   4.239   4.232   6.227
 1305SOL    HW2 4815   4.211   4.166   6.373
 1306SOL     OW 4816   3.041   6.899   3.956
 1306SOL    HW1 4817   2.990   6.847   3.887
 1306SOL    HW2 4818   3.139   6.879   3.946
 1307SOL     OW 4819   1.980   2.850   4.434
 1307SOL    HW1 4820   2.080   2.856   4.438
 1307SOL    HW2 4821   1.951   2.759   4.462
 1308SOL     OW 4822   6.808   3.458   6.017
 1308SOL    HW1 4823   6.887   3.442   5.956
 1308SOL    HW2 4824   6.747   3.526   5.975
 1309SOL     OW 4825   5.566   3.900   6.539
 1309SOL    HW1 4826   5.509   3.818   6.546
 1309SOL    HW2 4827   5.583   3.938   6.630
 1310SOL     OW 4828   2.162   3.945   3.499
 1310SOL    HW1 4829   2.208   3.958   3.587
 1310SOL    HW2 4830   2.171   3.850   3.470
 1311SOL     OW 4831   5.300   4.978   0.305
 1311SOL    HW1 4832   5.322   4.928   0.389
 1311SOL    HW2 4833   5.227   4.930   0.256
 1312SOL     OW 4834   2.458   1.161   6.532
 1312SOL    HW1 4835   2.431   1.220   6.608
 1312SOL    HW2 4836   2.402   1.183   6.452
 1313SOL     OW 4837   5.902   4.944   1.745
 1313SOL    HW1 4838   5.886   4.861   1.798
 1313SOL    HW2 4839   5.966   5.003   1.794
 1314SOL     OW 4840   1.864   0.821   3.605
 1314SOL    HW1 4841   1.886   0.908   3.649
 1314SOL    HW2 4842   1.924   0.749   3.641
 1315SOL     OW 4843   6.521   0.817   2.981
 1315SOL    HW1 4844   6.539   0.741   3.044
 1315SOL    HW2 4845   6.550   0.903   3.023
 1316SOL     OW 4846   5.226   6.725   6.187
 1316SOL    HW1 4847   5.257   6.766   6.274
 1316SOL    HW2 4848   5.174   6.792   6.135
 1317SOL     OW 4849   3.514   2.991   5.094
 1317SOL    HW1 4850   3.417   2.994   5.070
 1317SOL    HW2 4851   3.562   3.066   5.048
 1318SOL     OW 4852   1.808   1.967   6.193
 1318SOL    HW1 4853   1.825   1.971   6.291
 1318SOL    HW2 4854   1.886   1.924   6.147
 1319SOL     OW 4855   6.736   0.844   0.475
 1319SOL    HW1 4856   6.776   0.921   0.524
 1319SOL    HW2 4857   6.789   0.761   0.492
 1320SOL     OW 4858   2.801   3.276   6.172
 1320SOL    HW1 4859   2.819   3.178   6.183
 1320SOL    HW2 4860   2.753   3.310   6.253
 1321SOL     OW 4861   0.400   2.519   1.052
 1321SOL    HW1 4862   0.406   2.466   0.966
 1321SOL    HW2 4863   0.358   2.608   1.033
 1322SOL     OW 4864   3.174   2.729   7.015
 1322SOL    HW1 4865   3.145   2.657   6.952
 1322SOL    HW2 4866   3.099   2.752   0.054
 1323SOL     OW 4867   3.999   0.273   1.613
 1323SOL    HW1 4868   3.904   0.243   1.614
 1323SOL    HW2 4869   4.017   0.324   1.528
 1324SOL     OW 4870   2.254   3.948   5.777
 1324SOL    HW1 4871   2.349   3.937   5.808
 1324SOL    HW2 4872   2.241   3.895   5.693
 1325SOL     OW 4873   3.850   6.182   4.937
 1325SOL    HW1 4874   3.815   6.267   4.977
 1325SOL    HW2 4875   3.826   6.179   4.840
 1326SOL     OW 4876   4.932   1.388   4.884
 1326SOL    HW1 4877   4.869   1.311   4.899
 1326SOL    HW2 4878   5.020   1.368   4.927
 1327SOL     OW 4879   4.800   6.020   2.548
 1327SOL    HW1 4880   4.731   6.091   2.559
 1327SOL    HW2 4881   4.875   6.055   2.491
 1328SOL     OW 4882   2.391   1.848   5.974
 1328SOL    HW1 4883   2.373   1.764   6.026
 1328SOL    HW2 4884   2.318   1.914   5.992
 1329SOL     OW 4885   1.426   3.243   3.953
 1329SOL    HW1 4886   1.382   3.153   3.947
 1329SOL    HW2 4887   1.469   3.266   3.865
 1330SOL     OW 4888   5.837   3.104   3.263
 1330SOL    HW1 4889   5.924   3.143   3.233
 1330SOL    HW2 4890   5.774   3.179   3.287
 1331SOL     OW 4891   4.504   2.582   3.659
 1331SOL    HW1 4892   4.534   2.662   3.711
 1331SOL    HW2 4893   4.416   2.550   3.694
 1332SOL     OW 4894   2.198   5.618   0.205
 1332SOL    HW1 4895   2.259   5.569   0.267
 1332SOL    HW2 4896   2.191   5.714   0.234
 1333SOL     OW 4897   3.445   3.528   2.956
 1333SOL    HW1 4898   3.465   3.520   3.053
 1333SOL    HW2 4899   3.372   3.464   2.931
 1334SOL     OW 4900   6.835   4.045   1.503
 1334SOL    HW1 4901   6.870   4.136   1.527
 1334SOL    HW2 4902   6.792   4.050   1.413
 1335SOL     OW 4903   6.651   3.455   3.389
 1335SOL    HW1 4904   6.618   3.370   3.348
 1335SOL    HW2 4905   6.749   3.450   3.404
 1336SOL     OW 4906   2.017   6.759   5.579
 1336SOL    HW1 4907   2.071   6.691   5.629
 1336SOL    HW2 4908   1.991   6.722   5.490
 1337SOL     OW 4909   0.669   0.025   1.994
 1337SOL    HW1 4910   0.631   6.956   1.999
 1337SOL    HW2 4911   0.721   0.035   1.909
 1338SOL     OW 4912   6.653   3.991   4.898
 1338SOL    HW1 4913   6.630   4.032   4.809
 1338SOL    HW2 4914   6.604   3.904   4.908
 1339SOL     OW 4915   5.880   1.336   6.712
 1339SOL    HW1 4916   5.824   1.394   6.653
 1339SOL    HW2 4917   5.823   1.268   6.757
 1340SOL     OW 4918   3.259   2.859   1.527
 1340SOL    HW1 4919   3.317   2.844   1.446
 1340SOL    HW2 4920   3.223   2.953   1.525
 1341SOL     OW 4921   5.298   5.649   6.323
 1341SOL    HW1 4922   5.286   5.587   6.401
 1341SOL    HW2 4923   5.233   5.725   6.330
 1342SOL     OW 4924   1.796   5.929   1.506
 1342SOL    HW1 4925   1.727   5.927   1.433
 1342SOL    HW2 4926   1.854   6.010   1.495
 1343SOL     OW 4927   4.808   5.984   2.941
 1343SOL    HW1 4928   4.857   6.071   2.932
 1343SOL    HW2 4929   4.735   5.981   2.873
 1344SOL     OW 4930   1.077   0.917   4.585
 1344SOL    HW1 4931   1.048   0.823   4.605
 1344SOL    HW2 4932   1.018   0.981   4.634
 1345SOL     OW 4933   1.719   6.815   6.219
 1345SOL    HW1 4934   1.667   6.893   6.253
 1345SOL    HW2 4935   1.705   6.805   6.121
 1346SOL     OW 4936   2.968   5.185   4.465
 1346SOL    HW1 4937   2.893   5.123   4.442
 1346SOL    HW2 4938   3.031   5.191   4.388
 1347SOL     OW 4939   1.884   0.617   6.125
 1347SOL    HW1 4940   1.813   0.547   6.127
 1347SOL    HW2 4941   1.853   0.694   6.068
 1348SOL     OW 4942   1.396   6.474   5.229
 1348SOL    HW1 4943   1.417   6.514   5.139
 1348SOL    HW2 4944   1.345   6.389   5.216
 1349SOL     OW 4945   5.270   4.119   4.199
 1349SOL    HW1 4946   5.222   4.169   4.127
 1349SOL    HW2 4947   5.352   4.076   4.161
 1350SOL     OW 4948   4.628   4.819   6.504
 1350SOL    HW1 4949   4.696   4.857   6.566
 1350SOL    HW2 4950   4.626   4.874   6.420
 1351SOL     OW 4951   0.233   2.042   5.973
 1351SOL    HW1 4952   0.153   2.098   5.996
 1351SOL    HW2 4953   0.233   1.959   6.029
 1352SOL     OW 4954   0.316   0.882   2.289
 1352SOL    HW1 4955   0.228   0.838   2.276
 1352SOL    HW2 4956   0.308   0.980   2.271
 1353SOL     OW 4957   6.451   1.247   6.681
 1353SOL    HW1 4958   6.429   1.336   6.641
 1353SOL    HW2 4959   6.366   1.197   6.698
 1354SOL     OW 4960   5.237   5.181   2.995
 1354SOL    HW1 4961   5.187   5.241   2.932
 1354SOL    HW2 4962   5.300   5.123   2.943
 1355SOL     OW 4963   4.450   3.522   5.346
 1355SOL    HW1 4964   4.387   3.560   5.279
 1355SOL    HW2 4965   4.539   3.506   5.303
 1356SOL     OW 4966   2.788   3.184   6.624
 1356SOL    HW1 4967   2.756   3.090   6.635
 1356SOL    HW2 4968   2.791   3.229   6.713
 1357SOL     OW 4969   1.467   2.572   5.572
 1357SOL    HW1 4970   1.374   2.572   5.610
 1357SOL    HW2 4971   1.484   2.485   5.527
 1358SOL     OW 4972   2.537   0.253   6.723
 1358SOL    HW1 4973   2.604   0.324   6.703
 1358SOL    HW2 4974   2.457   0.265   6.663
 1359SOL     OW 4975   6.123   4.376   0.301
 1359SOL    HW1 4976   6.064   4.438   0.249
 1359SOL    HW2 4977   6.110   4.393   0.399
 1360SOL     OW 4978   2.366   2.161   0.243
 1360SOL    HW1 4979   2.329   2.080   0.197
 1360SOL    HW2 4980   2.344   2.243   0.190
 1361SOL     OW 4981   6.425   5.165   5.223
 1361SOL    HW1 4982   6.514   5.207   5.205
 1361SOL    HW2 4983   6.421   5.137   5.319
 1362SOL     OW 4984   3.113   4.036   4.245
 1362SOL    HW1 4985   3.178   4.070   4.176
 1362SOL    HW2 4986   3.027   4.013   4.200
 1363SOL     OW 4987   0.421   6.434   3.191
 1363SOL    HW1 4988   0.463   6.399   3.274
 1363SOL    HW2 4989   0.489   6.432   3.117
 1364SOL     OW 4990   4.074   4.187   0.334
 1364SOL    HW1 4991   3.998   4.253   0.330
 1364SOL    HW2 4992   4.105   4.169   0.241
 1365SOL     OW 4993   6.207   2.590   6.484
 1365SOL    HW1 4994   6.186   2.602   6.387
 1365SOL    HW2 4995   6.152   2.653   6.538
 1366SOL     OW 4996   1.911   7.012   5.608
 1366SOL    HW1 4997   1.953   0.062   5.553
 1366SOL    HW2 4998   1.956   6.925   5.588
 1367SOL     OW 4999   2.980   1.583   2.670
 1367SOL    HW1 5000   2.899   1.539   2.709
 1367SOL    HW2 5001   2.960   1.679   2.652
 1368SOL     OW 5002   6.792   0.198   3.090
 1368SOL    HW1 5003   6.853   0.273   3.117
 1368SOL    HW2 5004   6.775   0.138   3.168
 1369SOL     OW 5005   0.348   0.445   2.244
 1369SOL    HW1 5006   0.369   0.504   2.167
 1369SOL    HW2 5007   0.432   0.400   2.275
 1370SOL     OW 5008   1.968   0.783   2.628
 1370SOL    HW1 5009   2.013   0.696   2.608
 1370SOL    HW2 5010   2.031   0.843   2.676
 1371SOL     OW 5011   3.100   0.845   6.596
 1371SOL    HW1 5012   3.105   0.760   6.544
 1371SOL    HW2 5013   3.169   0.909   6.563
 1372SOL     OW 5014   2.714   2.137   1.820
 1372SOL    HW1 5015   2.805   2.116   1.786
 1372SOL    HW2 5016   2.701   2.237   1.822
 1373SOL     OW 5017   1.763   6.032   0.274
 1373SOL    HW1 5018   1.668   6.060   0.268
 1373SOL    HW2 5019   1.818   6.087   0.212
 1374SOL     OW 5020   4.981   4.146   5.973
 1374SOL    HW1 5021   5.065   4.188   5.939
 1374SOL    HW2 5022   4.981   4.149   6.073
 1375SOL     OW 5023   0.782   3.905   4.491
 1375SOL    HW1 5024   0.718   3.920   4.567
 1375SOL    HW2 5025   0.733   3.864   4.414
 1376SOL     OW 5026   5.115   0.774   2.347
 1376SOL    HW1 5027   5.165   0.715   2.411
 1376SOL    HW2 5028   5.019   0.779   2.375
 1377SOL     OW 5029   0.508   4.366   4.707
 1377SOL    HW1 5030   0.491   4.367   4.805
 1377SOL    HW2 5031   0.499   4.272   4.673
 1378SOL     OW 5032   2.165   2.560   0.249
 1378SOL    HW1 5033   2.086   2.512   0.288
 1378SOL    HW2 5034   2.176   2.648   0.296
 1379SOL     OW 5035   4.027   6.142   1.283
 1379SOL    HW1 5036   3.985   6.061   1.240
 1379SOL    HW2 5037   4.123   6.122   1.304
 1380SOL     OW 5038   6.009   4.755   2.955
 1380SOL    HW1 5039   6.070   4.786   3.028
 1380SOL    HW2 5040   5.974   4.664   2.978
 1381SOL     OW 5041   4.635   6.921   2.589
 1381SOL    HW1 5042   4.580   6.965   2.659
 1381SOL    HW2 5043   4.730   6.952   2.597
 1382SOL     OW 5044   0.360   3.835   0.072
 1382SOL    HW1 5045   0.406   3.754   0.109
 1382SOL    HW2 5046   0.280   3.856   0.127
 1383SOL     OW 5047   2.835   0.211   0.923
 1383SOL    HW1 5048   2.885   0.218   0.836
 1383SOL    HW2 5049   2.768   0.285   0.929
 1384SOL     OW 5050   1.495   1.893   2.008
 1384SOL    HW1 5051   1.559   1.947   2.062
 1384SOL    HW2 5052   1.411   1.880   2.060
 1385SOL     OW 5053   5.136   3.856   4.156
 1385SOL    HW1 5054   5.162   3.952   4.153
 1385SOL    HW2 5055   5.131   3.826   4.251
 1386SOL     OW 5056   2.599   2.437   3.554
 1386SOL    HW1 5057   2.655   2.417   3.635
 1386SOL    HW2 5058   2.656   2.428   3.472
 1387SOL     OW 5059   3.170   0.699   4.029
 1387SOL    HW1 5060   3.083   0.743   4.052
 1387SOL    HW2 5061   3.239   0.727   4.095
 1388SOL     OW 5062   5.032   1.867   3.863
 1388SOL    HW1 5063   5.072   1.804   3.929
 1388SOL    HW2 5064   4.974   1.933   3.911
 1389SOL     OW 5065   0.045   0.050   3.801
 1389SOL    HW1 5066   0.045   0.108   3.720
 1389SOL    HW2 5067   0.120   7.006   3.796
 1390SOL     OW 5068   4.924   2.326   2.543
 1390SOL    HW1 5069   4.985   2.271   2.600
 1390SOL    HW2 5070   4.830   2.315   2.574
 1391SOL     OW 5071   5.769   1.222   5.190
 1391SOL    HW1 5072   5.714   1.304   5.207
 1391SOL    HW2 5073   5.866   1.243   5.206
 1392SOL     OW 5074   3.592   6.727   5.308
 1392SOL    HW1 5075   3.503   6.767   5.287
 1392SOL    HW2 5076   3.589   6.683   5.398
 1393SOL     OW 5077   5.088   0.472   0.021
 1393SOL    HW1 5078   5.108   0.377   7.022
 1393SOL    HW2 5079   5.029   0.476   0.102
 1394SOL     OW 5080   4.388   0.593   4.253
 1394SOL    HW1 5081   4.336   0.556   4.330
 1394SOL    HW2 5082   4.482   0.613   4.283
 1395SOL     OW 5083   0.536   5.435   2.338
 1395SOL    HW1 5084   0.512   5.443   2.241
 1395SOL    HW2 5085   0.546   5.526   2.377
 1396SOL     OW 5086   1.478   1.882   3.611
 1396SOL    HW1 5087   1.491   1.907   3.515
 1396SOL    HW2 5088   1.390   1.917   3.643
 1397SOL     OW 5089   2.189   4.822   5.393
 1397SOL    HW1 5090   2.215   4.730   5.424
 1397SOL    HW2 5091   2.250   4.850   5.319
 1398SOL     OW 5092   3.034   0.181   6.600
 1398SOL    HW1 5093   3.071   0.110   6.539
 1398SOL    HW2 5094   3.047   0.154   6.695
 1399SOL     OW 5095   4.031   0.163   6.963
 1399SOL    HW1 5096   3.987   0.117   0.018
 1399SOL    HW2 5097   3.986   0.251   6.947
 1400SOL     OW 5098   0.738   1.007   5.786
 1400SOL    HW1 5099   0.668   0.964   5.729
 1400SOL    HW2 5100   0.829   0.984   5.751
 1401SOL     OW 5101   4.984   0.084   2.176
 1401SOL    HW1 5102   4.945   0.007   2.227
 1401SOL    HW2 5103   5.069   0.055   2.131
 1402SOL     OW 5104   5.537   4.624   1.839
 1402SOL    HW1 5105   5.587   4.677   1.908
 1402SOL    HW2 5106   5.442   4.654   1.837
 1403SOL     OW 5107   3.237   3.262   6.934
 1403SOL    HW1 5108   3.302   3.305   6.996
 1403SOL    HW2 5109   3.253   3.163   6.932
 1404SOL     OW 5110   3.821   5.957   0.141
 1404SOL    HW1 5111   3.919   5.937   0.138
 1404SOL    HW2 5112   3.782   5.942   0.050
 1405SOL     OW 5113   0.842   3.354   6.895
 1405SOL    HW1 5114   0.878   3.441   6.928
 1405SOL    HW2 5115   0.765   3.371   6.833
 1406SOL     OW 5116   2.157   2.351   6.746
 1406SOL    HW1 5117   2.185   2.269   6.697
 1406SOL    HW2 5118   2.143   2.426   6.681
 1407SOL     OW 5119   6.811   2.418   1.581
 1407SOL    HW1 5120   6.747   2.465   1.520
 1407SOL    HW2 5121   6.898   2.469   1.582
 1408SOL     OW 5122   5.836   6.346   0.240
 1408SOL    HW1 5123   5.835   6.442   0.213
 1408SOL    HW2 5124   5.841   6.339   0.340
 1409SOL     OW 5125   6.187   2.056   5.811
 1409SOL    HW1 5126   6.133   2.055   5.895
 1409SOL    HW2 5127   6.269   2.000   5.824
 1410SOL     OW 5128   2.858   0.650   0.439
 1410SOL    HW1 5129   2.833   0.577   0.376
 1410SOL    HW2 5130   2.947   0.688   0.414
 1411SOL     OW 5131   3.918   6.175   6.942
 1411SOL    HW1 5132   3.844   6.234   6.909
 1411SOL    HW2 5133   3.950   6.209   0.007
 1412SOL     OW 5134   2.244   1.623   0.333
 1412SOL    HW1 5135   2.294   1.690   0.389
 1412SOL    HW2 5136   2.262   1.531   0.368
 1413SOL     OW 5137   2.385   1.572   5.004
 1413SOL    HW1 5138   2.396   1.510   5.082
 1413SOL    HW2 5139   2.474   1.602   4.971
 1414SOL     OW 5140   0.500   4.946   1.968
 1414SOL    HW1 5141   0.469   4.900   1.884
 1414SOL    HW2 5142   0.494   5.045   1.956
 1415SOL     OW 5143   3.799   2.045   5.513
 1415SOL    HW1 5144   3.801   2.028   5.414
 1415SOL    HW2 5145   3.883   2.093   5.539
 1416SOL     OW 5146   4.801   0.506   5.042
 1416SOL    HW1 5147   4.795   0.605   5.029
 1416SOL    HW2 5148   4.888   0.473   5.004
 1417SOL     OW 5149   3.730   3.369   4.275
 1417SOL    HW1 5150   3.693   3.438   4.337
 1417SOL    HW2 5151   3.725   3.279   4.318
 1418SOL     OW 5152   3.107   3.623   5.437
 1418SOL    HW1 5153   3.162   3.575   5.369
 1418SOL    HW2 5154   3.084   3.715   5.403
 1419SOL     OW 5155   0.223   5.319   2.005
 1419SOL    HW1 5156   0.170   5.272   2.076
 1419SOL    HW2 5157   0.207   5.417   2.010
 1420SOL     OW 5158   3.068   6.410   3.629
 1420SOL    HW1 5159   3.152   6.369   3.595
 1420SOL    HW2 5160   3.066   6.507   3.604
 1421SOL     OW 5161   1.767   5.461   0.800
 1421SOL    HW1 5162   1.747   5.490   0.707
 1421SOL    HW2 5163   1.726   5.525   0.865
 1422SOL     OW 5164   1.508   3.649   6.901
 1422SOL    HW1 5165   1.572   3.671   6.826
 1422SOL    HW2 5166   1.415   3.645   6.865
 1423SOL     OW 5167   5.083   1.185   4.551
 1423SOL    HW1 5168   5.154   1.177   4.620
 1423SOL    HW2 5169   5.001   1.135   4.582
 1424SOL     OW 5170   6.536   2.638   1.256
 1424SOL    HW1 5171   6.618   2.686   1.288
 1424SOL    HW2 5172   6.473   2.626   1.333
 1425SOL     OW 5173   5.582   6.530   3.108
 1425SOL    HW1 5174   5.507   6.499   3.049
 1425SOL    HW2 5175   5.547   6.600   3.172
 1426SOL     OW 5176   3.654   1.307   0.490
 1426SOL    HW1 5177   3.741   1.316   0.538
 1426SOL    HW2 5178   3.671   1.281   0.395
 1427SOL     OW 5179   0.898   0.762   3.910
 1427SOL    HW1 5180   0.938   0.778   4.001
 1427SOL    HW2 5181   0.964   0.712   3.854
 1428SOL     OW 5182   1.919   4.105   3.770
 1428SOL    HW1 5183   1.973   4.022   3.780
 1428SOL    HW2 5184   1.980   4.184   3.766
 1429SOL     OW 5185   6.349   0.410   1.496
 1429SOL    HW1 5186   6.270   0.369   1.449
 1429SOL    HW2 5187   6.366   0.360   1.581
 1430SOL     OW 5188   1.992   4.099   4.665
 1430SOL    HW1 5189   2.064   4.061   4.607
 1430SOL    HW2 5190   1.978   4.039   4.743
 1431SOL     OW 5191   3.587   2.179   0.560
 1431SOL    HW1 5192   3.500   2.196   0.606
 1431SOL    HW2 5193   3.600   2.081   0.548
 1432SOL     OW 5194   3.890   0.441   3.044
 1432SOL    HW1 5195   3.835   0.358   3.035
 1432SOL    HW2 5196   3.853   0.512   2.985
 1433SOL     OW 5197   2.883   2.092   4.235
 1433SOL    HW1 5198   2.925   2.005   4.261
 1433SOL    HW2 5199   2.951   2.151   4.192
 1434SOL     OW 5200   5.211   3.697   0.584
 1434SOL    HW1 5201   5.174   3.618   0.535
 1434SOL    HW2 5202   5.172   3.700   0.676
 1435SOL     OW 5203   0.064   6.086   3.914
 1435SOL    HW1 5204   6.995   6.125   3.906
 1435SOL    HW2 5205   0.127   6.156   3.947
 1436SOL     OW 5206   5.421   1.119   0.232
 1436SOL    HW1 5207   5.491   1.188   0.211
 1436SOL    HW2 5208   5.369   1.149   0.312
 1437SOL     OW 5209   4.262   1.888   0.976
 1437SOL    HW1 5210   4.208   1.862   0.896
 1437SOL    HW2 5211   4.357   1.903   0.950
 1438SOL     OW 5212   2.395   0.024   2.958
 1438SOL    HW1 5213   2.356   6.966   3.003
 1438SOL    HW2 5214   2.486   0.001   2.923
 1439SOL     OW 5215   0.364   5.392   5.037
 1439SOL    HW1 5216   0.363   5.457   5.113
 1439SOL    HW2 5217   0.358   5.443   4.951
 1440SOL     OW 5218   3.282   3.287   2.158
 1440SOL    HW1 5219   3.311   3.195   2.185
 1440SOL    HW2 5220   3.341   3.355   2.200
 1441SOL     OW 5221   0.457   2.010   5.724
 1441SOL    HW1 5222   0.453   1.927   5.668
 1441SOL    HW2 5223   0.394   2.079   5.687
 1442SOL     OW 5224   5.250   5.716   0.159
 1442SOL    HW1 5225   5.324   5.682   0.216
 1442SOL    HW2 5226   5.274   5.806   0.122
 1443SOL     OW 5227   1.359   3.485   4.077
 1443SOL    HW1 5228   1.366   3.403   4.020
 1443SOL    HW2 5229   1.371   3.566   4.019
 1444SOL     OW 5230   5.232   6.881   4.366
 1444SOL    HW1 5231   5.300   6.815   4.396
 1444SOL    HW2 5232   5.266   6.930   4.286
 1445SOL     OW 5233   6.648   2.242   0.645
 1445SOL    HW1 5234   6.555   2.232   0.611
 1445SOL    HW2 5235   6.651   2.317   0.712
 1446SOL     OW 5236   3.035   5.709   2.370
 1446SOL    HW1 5237   3.016   5.614   2.396
 1446SOL    HW2 5238   3.056   5.762   2.452
 1447SOL     OW 5239   6.654   0.574   4.658
 1447SOL    HW1 5240   6.598   0.655   4.644
 1447SOL    HW2 5241   6.721   0.591   4.730
 1448SOL     OW 5242   5.299   0.847   0.652
 1448SOL    HW1 5243   5.237   0.768   0.656
 1448SOL    HW2 5244   5.265   0.912   0.584
 1449SOL     OW 5245   4.618   5.554   0.253
 1449SOL    HW1 5246   4.634   5.458   0.229
 1449SOL    HW2 5247   4.547   5.591   0.194
 1450SOL     OW 5248   5.612   1.346   3.726
 1450SOL    HW1 5249   5.604   1.403   3.644
 1450SOL    HW2 5250   5.703   1.303   3.728
 1451SOL     OW 5251   1.174   0.092   1.751
 1451SOL    HW1 5252   1.208   0.002   1.723
 1451SOL    HW2 5253   1.172   0.097   1.851
 1452SOL     OW 5254   2.562   0.341   6.445
 1452SOL    HW1 5255   2.569   0.417   6.510
 1452SOL    HW2 5256   2.633   0.274   6.464
 1453SOL     OW 5257   5.501   4.369   4.363
 1453SOL    HW1 5258   5.403   4.349   4.374
 1453SOL    HW2 5259   5.517   4.467   4.379
 1454SOL     OW 5260   5.597   3.730   0.822
 1454SOL    HW1 5261   5.533   3.748   0.897
 1454SOL    HW2 5262   5.682   3.693   0.860
 1455SOL     OW 5263   1.842   2.159   1.905
 1455SOL    HW1 5264   1.917   2.154   1.840
 1455SOL    HW2 5265   1.755   2.160   1.855
 1456SOL     OW 5266   5.530   5.441   5.138
 1456SOL    HW1 5267   5.616   5.399   5.165
 1456SOL    HW2 5268   5.458   5.413   5.201
 1457SOL     OW 5269   1.989   1.034   4.631
 1457SOL    HW1 5270   1.889   1.022   4.626
 1457SOL    HW2 5271   2.016   1.115   4.580
 1458SOL     OW 5272   0.360   5.197   6.870
 1458SOL    HW1 5273   0.288   5.146   6.822
 1458SOL    HW2 5274   0.335   5.294   6.873
 1459SOL     OW 5275   2.525   6.633   1.553
 1459SOL    HW1 5276   2.609   6.583   1.574
 1459SOL    HW2 5277   2.520   6.648   1.454
 1460SOL     OW 5278   0.433   0.143   6.977
 1460SOL    HW1 5279   0.511   0.115   6.920
 1460SOL    HW2 5280   0.370   0.198   6.923
 1461SOL     OW 5281   5.036   4.505   2.641
 1461SOL    HW1 5282   5.045   4.495   2.542
 1461SOL    HW2 5283   5.013   4.601   2.662
 1462SOL     OW 5284   5.593   0.475   4.869
 1462SOL    HW1 5285   5.687   0.479   4.835
 1462SOL    HW2 5286   5.541   0.552   4.832
 1463SOL     OW 5287   1.158   2.461   5.464
 1463SOL    HW1 5288   1.219   2.442   5.388
 1463SOL    HW2 5289   1.185   2.405   5.543
 1464SOL     OW 5290   0.948   0.820   1.051
 1464SOL    HW1 5291   0.941   0.837   1.149
 1464SOL    HW2 5292   1.012   0.885   1.010
 1465SOL     OW 5293   1.727   0.604   3.475
 1465SOL    HW1 5294   1.786   0.678   3.507
 1465SOL    HW2 5295   1.646   0.641   3.431
 1466SOL     OW 5296   5.361   5.717   4.166
 1466SOL    HW1 5297   5.330   5.687   4.076
 1466SOL    HW2 5298   5.297   5.785   4.203
 1467SOL     OW 5299   0.057   4.035   4.306
 1467SOL    HW1 5300   0.112   3.983   4.241
 1467SOL    HW2 5301   0.048   4.129   4.274
 1468SOL     OW 5302   4.809   0.383   2.802
 1468SOL    HW1 5303   4.791   0.450   2.874
 1468SOL    HW2 5304   4.764   0.297   2.824
 1469SOL     OW 5305   0.487   0.833   2.069
 1469SOL    HW1 5306   0.407   0.866   2.118
 1469SOL    HW2 5307   0.475   0.736   2.045
 1470SOL     OW 5308   6.968   0.072   2.653
 1470SOL    HW1 5309   0.019   0.017   2.614
 1470SOL    HW2 5310   6.992   0.169   2.650
 1471SOL     OW 5311   6.248   1.277   0.956
 1471SOL    HW1 5312   6.221   1.345   1.024
 1471SOL    HW2 5313   6.186   1.282   0.877
 1472SOL     OW 5314   4.841   5.390   5.237
 1472SOL    HW1 5315   4.886   5.319   5.183
 1472SOL    HW2 5316   4.766   5.430   5.184
 1473SOL     OW 5317   7.002   3.703   4.066
 1473SOL    HW1 5318   7.000   3.625   4.128
 1473SOL    HW2 5319   0.072   3.740   4.060
 1474SOL     OW 5320   4.152   5.872   2.711
 1474SOL    HW1 5321   4.138   5.931   2.791
 1474SOL    HW2 5322   4.085   5.797   2.713
 1475SOL     OW 5323   6.179   6.607   2.672
 1475SOL    HW1 5324   6.226   6.625   2.586
 1475SOL    HW2 5325   6.233   6.544   2.727
 1476SOL     OW 5326   0.670   2.538   1.721
 1476SOL    HW1 5327   0.583   2.508   1.760
 1476SOL    HW2 5328   0.707   2.465   1.663
 1477SOL     OW 5329   2.741   6.492   4.821
 1477SOL    HW1 5330   2.701   6.508   4.912
 1477SOL    HW2 5331   2.713   6.402   4.788
 1478SOL     OW 5332   0.292   3.542   1.366
 1478SOL    HW1 5333   0.260   3.513   1.275
 1478SOL    HW2 5334   0.380   3.499   1.386
 1479SOL     OW 5335   1.750   5.456   0.329
 1479SOL    HW1 5336   1.723   5.430   0.236
 1479SOL    HW2 5337   1.774   5.374   0.381
 1480SOL     OW 5338   2.873   1.093   0.115
 1480SOL    HW1 5339   2.893   1.122   0.022
 1480SOL    HW2 5340   2.774   1.092   0.129
 1481SOL     OW 5341   6.763   3.237   0.083
 1481SOL    HW1 5342   6.691   3.306   0.082
 1481SOL    HW2 5343   6.801   3.227   7.014
 1482SOL     OW 5344   5.951   0.408   6.212
 1482SOL    HW1 5345   5.853   0.412   6.234
 1482SOL    HW2 5346   6.003   0.389   6.295
 1483SOL     OW 5347   6.685   2.221   0.053
 1483SOL    HW1 5348   6.631   2.290   0.102
 1483SOL    HW2 5349   6.647   2.208   6.984
 1484SOL     OW 5350   6.226   0.032   3.094
 1484SOL    HW1 5351   6.177   6.976   3.057
 1484SOL    HW2 5352   6.161   0.104   3.117
 1485SOL     OW 5353   5.504   3.590   4.190
 1485SOL    HW1 5354   5.543   3.679   4.215
 1485SOL    HW2 5355   5.563   3.517   4.225
 1486SOL     OW 5356   4.927   2.454   1.025
 1486SOL    HW1 5357   4.904   2.402   1.108
 1486SOL    HW2 5358   4.881   2.413   0.946
 1487SOL     OW 5359   0.422   6.990   5.458
 1487SOL    HW1 5360   0.476   6.974   5.376
 1487SOL    HW2 5361   0.350   0.035   5.438
 1488SOL     OW 5362   5.074   2.263   4.470
 1488SOL    HW1 5363   5.122   2.329   4.528
 1488SOL    HW2 5364   4.982   2.297   4.450
 1489SOL     OW 5365   3.310   5.083   4.866
 1489SOL    HW1 5366   3.299   5.178   4.835
 1489SOL    HW2 5367   3.221   5.038   4.868
 1490SOL     OW 5368   2.485   2.871   0.846
 1490SOL    HW1 5369   2.572   2.828   0.869
 1490SOL    HW2 5370   2.476   2.958   0.895
 1491SOL     OW 5371   0.692   1.982   4.463
 1491SOL    HW1 5372   0.683   2.066   4.409
 1491SOL    HW2 5373   0.760   1.996   4.535
 1492SOL     OW 5374   0.424   2.019   1.739
 1492SOL    HW1 5375   0.325   2.021   1.740
 1492SOL    HW2 5376   0.459   2.023   1.832
 1493SOL     OW 5377   6.407   2.841   4.909
 1493SOL    HW1 5378   6.392   2.764   4.971
 1493SOL    HW2 5379   6.496   2.831   4.864
 1494SOL     OW 5380   5.562   1.655   4.203
 1494SOL    HW1 5381   5.471   1.650   4.242
 1494SOL    HW2 5382   5.562   1.611   4.113
 1495SOL     OW 5383   1.095   3.925   2.433
 1495SOL    HW1 5384   1.025   3.962   2.372
 1495SOL    HW2 5385   1.167   3.993   2.446
 1496SOL     OW 5386   1.217   0.357   2.235
 1496SOL    HW1 5387   1.270   0.286   2.188
 1496SOL    HW2 5388   1.261   0.446   2.222
 1497SOL     OW 5389   6.054   5.400   6.088
 1497SOL    HW1 5390   6.014   5.412   5.997
 1497SOL    HW2 5391   6.097   5.310   6.095
 1498SOL     OW 5392   2.920   5.563   0.394
 1498SOL    HW1 5393   3.015   5.553   0.365
 1498SOL    HW2 5394   2.877   5.473   0.401
 1499SOL     OW 5395   0.661   4.198   4.437
 1499SOL    HW1 5396   0.661   4.109   4.392
 1499SOL    HW2 5397   0.651   4.270   4.369
 1500SOL     OW 5398   3.523   6.959   5.645
 1500SOL    HW1 5399   3.471   6.874   5.654
 1500SOL    HW2 5400   3.559   6.985   5.735
 1501SOL     OW 5401   3.691   0.096   0.727
 1501SOL    HW1 5402   3.773   0.117   0.673
 1501SOL    HW2 5403   3.693   7.021   0.752
 1502SOL     OW 5404   0.441   0.399   5.938
 1502SOL    HW1 5405   0.479   0.488   5.914
 1502SOL    HW2 5406   0.388   0.407   6.023
 1503SOL     OW 5407   3.376   4.012   5.309
 1503SOL    HW1 5408   3.392   3.963   5.395
 1503SOL    HW2 5409   3.358   3.946   5.236
 1504SOL     OW 5410   2.699   6.728   3.311
 1504SOL    HW1 5411   2.769   6.756   3.377
 1504SOL    HW2 5412   2.608   6.744   3.350
 1505SOL     OW 5413   5.409   6.832   3.110
 1505SOL    HW1 5414   5.470   6.911   3.101
 1505SOL    HW2 5415   5.388   6.817   3.206
 1506SOL     OW 5416   0.427   6.136   3.538
 1506SOL    HW1 5417   0.338   6.119   3.580
 1506SOL    HW2 5418   0.439   6.075   3.460
 1507SOL     OW 5419   1.974   1.445   0.123
 1507SOL    HW1 5420   1.985   1.544   0.119
 1507SOL    HW2 5421   2.019   1.403   0.044
 1508SOL     OW 5422   5.041   6.511   1.160
 1508SOL    HW1 5423   4.953   6.484   1.199
 1508SOL    HW2 5424   5.073   6.594   1.206
 1509SOL     OW 5425   5.703   1.553   6.433
 1509SOL    HW1 5426   5.698   1.627   6.366
 1509SOL    HW2 5427   5.697   1.591   6.525
 1510SOL     OW 5428   6.648   1.616   2.567
 1510SOL    HW1 5429   6.652   1.548   2.493
 1510SOL    HW2 5430   6.556   1.654   2.572
 1511SOL     OW 5431   0.685   2.693   0.149
 1511SOL    HW1 5432   0.665   2.598   0.174
 1511SOL    HW2 5433   0.749   2.695   0.072
 1512SOL     OW 5434   6.325   0.983   1.920
 1512SOL    HW1 5435   6.282   0.918   1.983
 1512SOL    HW2 5436   6.414   1.010   1.957
 1513SOL     OW 5437   2.335   0.725   2.545
 1513SOL    HW1 5438   2.420   0.774   2.566
 1513SOL    HW2 5439   2.269   0.739   2.618
 1514SOL     OW 5440   4.820   1.373   5.341
 1514SOL    HW1 5441   4.890   1.440   5.316
 1514SOL    HW2 5442   4.857   1.281   5.329
 1515SOL     OW 5443   5.655   5.290   5.775
 1515SOL    HW1 5444   5.742   5.327   5.807
 1515SOL    HW2 5445   5.661   5.190   5.771
 1516SOL     OW 5446   6.558   1.604   1.473
 1516SOL    HW1 5447   6.478   1.546   1.452
 1516SOL    HW2 5448   6.617   1.556   1.538
 1517SOL     OW 5449   3.293   5.272   2.378
 1517SOL    HW1 5450   3.319   5.228   2.293
 1517SOL    HW2 5451   3.361   5.341   2.402
 1518SOL     OW 5452   0.494   4.686   0.771
 1518SOL    HW1 5453   0.541   4.774   0.768
 1518SOL    HW2 5454   0.499   4.648   0.863
 1519SOL     OW 5455   0.304   4.145   0.958
 1519SOL    HW1 5456   0.332   4.051   0.939
 1519SOL    HW2 5457   0.229   4.144   1.024
 1520SOL     OW 5458   0.910   3.695   2.504
 1520SOL    HW1 5459   0.965   3.743   2.572
 1520SOL    HW2 5460   0.878   3.608   2.542
 1521SOL     OW 5461   2.536   5.075   5.284
 1521SOL    HW1 5462   2.590   5.041   5.361
 1521SOL    HW2 5463   2.518   5.001   5.219
 1522SOL     OW 5464   1.293   1.933   6.176
 1522SOL    HW1 5465   1.288   2.032   6.189
 1522SOL    HW2 5466   1.304   1.913   6.078
 1523SOL     OW 5467   5.846   1.083   1.359
 1523SOL    HW1 5468   5.759   1.087   1.408
 1523SOL    HW2 5469   5.835   1.123   1.268
 1524SOL     OW 5470   0.828   1.527   0.837
 1524SOL    HW1 5471   0.800   1.506   0.930
 1524SOL    HW2 5472   0.859   1.622   0.832
 1525SOL     OW 5473   5.253   1.762   5.216
 1525SOL    HW1 5474   5.300   1.846   5.246
 1525SOL    HW2 5475   5.283   1.685   5.273
 1526SOL     OW 5476   5.958   1.992   0.309
 1526SOL    HW1 5477   5.863   1.960   0.312
 1526SOL    HW2 5478   5.983   2.015   0.215
 1527SOL     OW 5479   3.003   1.032   5.639
 1527SOL    HW1 5480   2.916   1.046   5.590
 1527SOL    HW2 5481   2.984   0.997   5.731
 1528SOL     OW 5482   4.843   5.550   3.451
 1528SOL    HW1 5483   4.783   5.530   3.528
 1528SOL    HW2 5484   4.938   5.544   3.479
 1529SOL     OW 5485   1.859   6.862   5.229
 1529SOL    HW1 5486   1.892   6.956   5.233
 1529SOL    HW2 5487   1.761   6.861   5.248
 1530SOL     OW 5488   3.019   6.705   1.245
 1530SOL    HW1 5489   2.960   6.770   1.197
 1530SOL    HW2 5490   2.968   6.620   1.260
 1531SOL     OW 5491   5.969   1.151   6.390
 1531SOL    HW1 5492   5.898   1.092   6.351
 1531SOL    HW2 5493   6.059   1.119   6.361
 1532SOL     OW 5494   2.902   1.921   5.162
 1532SOL    HW1 5495   2.900   1.897   5.260
 1532SOL    HW2 5496   2.946   2.009   5.150
 1533SOL     OW 5497   4.738   2.934   0.110
 1533SOL    HW1 5498   4.710   2.968   0.020
 1533SOL    HW2 5499   4.824   2.978   0.137
 1534SOL     OW 5500   6.972   0.047   0.425
 1534SOL    HW1 5501   6.895   0.110   0.413
 1534SOL    HW2 5502   0.025   0.076   0.366
 1535SOL     OW 5503   5.090   4.530   4.487
 1535SOL    HW1 5504   5.123   4.436   4.491
 1535SOL    HW2 5505   5.144   4.582   4.421
 1536SOL     OW 5506   3.360   6.215   3.126
 1536SOL    HW1 5507   3.446   6.266   3.135
 1536SOL    HW2 5508   3.307   6.251   3.049
 1537SOL     OW 5509   2.591   6.030   4.319
 1537SOL    HW1 5510   2.501   6.048   4.278
 1537SOL    HW2 5511   2.641   5.966   4.261
 1538SOL     OW 5512   3.499   6.660   0.360
 1538SOL    HW1 5513   3.419   6.601   0.363
 1538SOL    HW2 5514   3.471   6.756   0.366
 1539SOL     OW 5515   2.501   6.512   2.114
 1539SOL    HW1 5516   2.487   6.422   2.155
 1539SOL    HW2 5517   2.592   6.546   2.139
 1540SOL     OW 5518   6.377   0.074   4.978
 1540SOL    HW1 5519   6.464   0.086   4.931
 1540SOL    HW2 5520   6.302   0.088   4.914
 1541SOL     OW 5521   5.529   1.797   2.270
 1541SOL    HW1 5522   5.611   1.741   2.258
 1541SOL    HW2 5523   5.460   1.772   2.202
 1542SOL     OW 5524   6.774   5.689   1.245
 1542SOL    HW1 5525   6.797   5.784   1.267
 1542SOL    HW2 5526   6.684   5.667   1.283
 1543SOL     OW 5527   3.031   3.344   3.475
 1543SOL    HW1 5528   3.017   3.315   3.380
 1543SOL    HW2 5529   3.052   3.264   3.531
 1544SOL     OW 5530   3.479   3.325   1.933
 1544SOL    HW1 5531   3.386   3.362   1.940
 1544SOL    HW2 5532   3.520   3.354   1.847
 1545SOL     OW 5533   0.404   6.734   5.309
 1545SOL    HW1 5534   0.364   6.818   5.346
 1545SOL    HW2 5535   0.503   6.738   5.318
 1546SOL     OW 5536   6.944   6.361   6.812
 1546SOL    HW1 5537   6.917   6.406   6.727
 1546SOL    HW2 5538   6.969   6.266   6.792
 1547SOL     OW 5539   2.914   6.185   0.175
 1547SOL    HW1 5540   3.010   6.210   0.162
 1547SOL    HW2 5541   2.904   6.086   0.164
 1548SOL     OW 5542   6.581   3.700   3.325
 1548SOL    HW1 5543   6.503   3.694   3.262
 1548SOL    HW2 5544   6.620   3.609   3.337
 1549SOL     OW 5545   6.857   2.201   1.000
 1549SOL    HW1 5546   6.898   2.137   0.935
 1549SOL    HW2 5547   6.799   2.151   1.065
 1550SOL     OW 5548   2.537   4.981   2.427
 1550SOL    HW1 5549   2.437   4.987   2.417
 1550SOL    HW2 5550   2.569   4.895   2.387
 1551SOL     OW 5551   0.526   2.833   1.731
 1551SOL    HW1 5552   0.584   2.751   1.737
 1551SOL    HW2 5553   0.552   2.887   1.651
 1552SOL     OW 5554   1.787   6.699   2.159
 1552SOL    HW1 5555   1.863   6.763   2.152
 1552SOL    HW2 5556   1.706   6.747   2.192
 1553SOL     OW 5557   5.876   1.661   5.776
 1553SOL    HW1 5558   5.946   1.730   5.755
 1553SOL    HW2 5559   5.887   1.630   5.870
 1554SOL     OW 5560   2.712   2.737   0.817
 1554SOL    HW1 5561   2.707   2.758   0.719
 1554SOL    HW2 5562   2.807   2.747   0.848
 1555SOL     OW 5563   4.176   1.484   0.994
 1555SOL    HW1 5564   4.099   1.454   1.050
 1555SOL    HW2 5565   4.250   1.417   1.001
 1556SOL     OW 5566   3.365   2.176   0.199
 1556SOL    HW1 5567   3.328   2.099   0.251
 1556SOL    HW2 5568   3.336   2.262   0.240
 1557SOL     OW 5569   1.432   2.632   0.949
 1557SOL    HW1 5570   1.430   2.667   1.042
 1557SOL    HW2 5571   1.426   2.708   0.884
 1558SOL     OW 5572   5.069   2.659   7.011
 1558SOL    HW1 5573   5.035   2.632   0.079
 1558SOL    HW2 5574   4.992   2.663   6.947
 1559SOL     OW 5575   2.758   6.153   3.509
 1559SOL    HW1 5576   2.785   6.223   3.575
 1559SOL    HW2 5577   2.726   6.197   3.425
 1560SOL     OW 5578   4.360   2.866   1.416
 1560SOL    HW1 5579   4.408   2.953   1.420
 1560SOL    HW2 5580   4.392   2.807   1.490
 1561SOL     OW 5581   6.099   6.239   0.212
 1561SOL    HW1 5582   6.135   6.179   0.140
 1561SOL    HW2 5583   6.001   6.254   0.196
 1562SOL     OW 5584   2.945   6.777   2.763
 1562SOL    HW1 5585   2.921   6.857   2.707
 1562SOL    HW2 5586   3.033   6.793   2.808
 1563SOL     OW 5587   2.001   3.857   3.906
 1563SOL    HW1 5588   1.985   3.894   3.997
 1563SOL    HW2 5589   1.950   3.772   3.895
 1564SOL     OW 5590   1.238   2.028   2.616
 1564SOL    HW1 5591   1.243   2.119   2.656
 1564SOL    HW2 5592   1.329   1.987   2.616
 1565SOL     OW 5593   4.831   1.736   5.257
 1565SOL    HW1 5594   4.861   1.642   5.238
 1565SOL    HW2 5595   4.893   1.801   5.215
 1566SOL     OW 5596   0.876   3.596   3.738
 1566SOL    HW1 5597   0.823   3.522   3.778
 1566SOL    HW2 5598   0.863   3.679   3.792
 1567SOL     OW 5599   5.369   0.732   4.943
 1567SOL    HW1 5600   5.431   0.738   4.866
 1567SOL    HW2 5601   5.275   0.743   4.912
 1568SOL     OW 5602   2.343   4.294   0.620
 1568SOL    HW1 5603   2.257   4.300   0.670
 1568SOL    HW2 5604   2.416   4.266   0.683
 1569SOL     OW 5605   2.098   0.867   2.269
 1569SOL    HW1 5606   2.144   0.778   2.274
 1569SOL    HW2 5607   2.128   0.924   2.346
 1570SOL     OW 5608   2.881   6.269   6.219
 1570SOL    HW1 5609   2.878   6.209   6.139
 1570SOL    HW2 5610   2.830   6.227   6.294
 1571SOL     OW 5611   0.133   1.386   4.394
 1571SOL    HW1 5612   0.068   1.353   4.325
 1571SOL    HW2 5613   0.135   1.486   4.393
 1572SOL     OW 5614   1.961   6.338   3.562
 1572SOL    HW1 5615   2.059   6.348   3.582
 1572SOL    HW2 5616   1.937   6.241   3.561
 1573SOL     OW 5617   5.557   6.268   0.320
 1573SOL    HW1 5618   5.525   6.195   0.259
 1573SOL    HW2 5619   5.656   6.272   0.317
 1574SOL     OW 5620   0.218   4.033   3.080
 1574SOL    HW1 5621   0.312   4.043   3.046
 1574SOL    HW2 5622   0.183   3.943   3.056
 1575SOL     OW 5623   6.925   2.350   0.621
 1575SOL    HW1 5624   6.841   2.296   0.624
 1575SOL    HW2 5625   6.940   2.383   0.528
 1576SOL     OW 5626   1.927   6.018   2.534
 1576SOL    HW1 5627   1.877   5.966   2.604
 1576SOL    HW2 5628   1.865   6.039   2.459
 1577SOL     OW 5629   3.973   5.978   4.134
 1577SOL    HW1 5630   3.890   6.030   4.114
 1577SOL    HW2 5631   3.960   5.926   4.219
 1578SOL     OW 5632   5.418   1.978   1.719
 1578SOL    HW1 5633   5.446   1.967   1.814
 1578SOL    HW2 5634   5.322   2.005   1.715
 1579SOL     OW 5635   1.417   3.110   2.012
 1579SOL    HW1 5636   1.452   3.115   2.105
 1579SOL    HW2 5637   1.479   3.055   1.956
 1580SOL     OW 5638   3.395   4.079   3.685
 1580SOL    HW1 5639   3.434   4.125   3.605
 1580SOL    HW2 5640   3.370   4.148   3.753
 1581SOL     OW 5641   4.658   4.883   5.437
 1581SOL    HW1 5642   4.751   4.886   5.398
 1581SOL    HW2 5643   4.634   4.789   5.460
 1582SOL     OW 5644   4.050   6.096   4.590
 1582SOL    HW1 5645   3.963   6.060   4.556
 1582SOL    HW2 5646   4.078   6.045   4.671
 1583SOL     OW 5647   0.967   5.395   4.891
 1583SOL    HW1 5648   1.059   5.357   4.877
 1583SOL    HW2 5649   0.898   5.326   4.869
 1584SOL     OW 5650   6.981   3.744   7.015
 1584SOL    HW1 5651   6.958   3.667   6.955
 1584SOL    HW2 5652   6.945   3.727   0.084
 1585SOL     OW 5653   5.135   6.517   4.529
 1585SOL    HW1 5654   5.057   6.457   4.547
 1585SOL    HW2 5655   5.112   6.611   4.552
 1586SOL     OW 5656   2.474   5.748   3.643
 1586SOL    HW1 5657   2.496   5.820   3.576
 1586SOL    HW2 5658   2.385   5.709   3.621
 1587SOL     OW 5659   3.872   6.428   0.136
 1587SOL    HW1 5660   3.823   6.342   0.151
 1587SOL    HW2 5661   3.967   6.409   0.112
 1588SOL     OW 5662   6.507   2.190   3.768
 1588SOL    HW1 5663   6.420   2.237   3.784
 1588SOL    HW2 5664   6.520   2.120   3.838
 1589SOL     OW 5665   6.839   1.728   4.204
 1589SOL    HW1 5666   6.933   1.753   4.182
 1589SOL    HW2 5667   6.838   1.670   4.285
 1590SOL     OW 5668   5.353   0.700   3.934
 1590SOL    HW1 5669   5.413   0.704   4.014
 1590SOL    HW2 5670   5.297   0.783   3.930
 1591SOL     OW 5671   0.141   5.763   0.428
 1591SOL    HW1 5672   0.136   5.664   0.414
 1591SOL    HW2 5673   0.228   5.785   0.473
 1592SOL     OW 5674   6.825   3.931   5.129
 1592SOL    HW1 5675   6.779   3.961   5.045
 1592SOL    HW2 5676   6.759   3.882   5.186
 1593SOL     OW 5677   3.693   5.885   1.527
 1593SOL    HW1 5678   3.706   5.960   1.462
 1593SOL    HW2 5679   3.684   5.923   1.619
 1594SOL     OW 5680   4.828   1.211   2.898
 1594SOL    HW1 5681   4.785   1.299   2.877
 1594SOL    HW2 5682   4.903   1.195   2.833
 1595SOL     OW 5683   0.276   3.569   6.805
 1595SOL    HW1 5684   0.322   3.522   6.880
 1595SOL    HW2 5685   0.328   3.651   6.780
 1596SOL     OW 5686   5.257   4.273   4.416
 1596SOL    HW1 5687   5.265   4.216   4.334
 1596SOL    HW2 5688   5.229   4.216   4.493
 1597SOL     OW 5689   4.142   6.595   1.058
 1597SOL    HW1 5690   4.057   6.596   1.005
 1597SOL    HW2 5691   4.130   6.538   1.139
 1598SOL     OW 5692   0.919   4.856   5.852
 1598SOL    HW1 5693   0.880   4.797   5.781
 1598SOL    HW2 5694   0.858   4.858   5.930
 1599SOL     OW 5695   4.646   5.514   3.652
 1599SOL    HW1 5696   4.601   5.428   3.629
 1599SOL    HW2 5697   4.679   5.511   3.746
 1600SOL     OW 5698   4.439   0.818   1.424
 1600SOL    HW1 5699   4.426   0.895   1.362
 1600SOL    HW2 5700   4.354   0.765   1.431
 1601SOL     OW 5701   6.438   0.890   4.871
 1601SOL    HW1 5702   6.478   0.811   4.918
 1601SOL    HW2 5703   6.413   0.864   4.777
 1602SOL     OW 5704   4.067   5.433   2.970
 1602SOL    HW1 5705   4.054   5.390   3.059
 1602SOL    HW2 5706   4.117   5.371   2.910
 1603SOL     OW 5707   3.154   5.118   1.856
 1603SOL    HW1 5708   3.156   5.190   1.926
 1603SOL    HW2 5709   3.178   5.031   1.898
 1604SOL     OW 5710   4.174   5.284   2.355
 1604SOL    HW1 5711   4.245   5.342   2.314
 1604SOL    HW2 5712   4.085   5.307   2.316
 1605SOL     OW 5713   4.864   4.732   0.441
 1605SOL    HW1 5714   4.805   4.812   0.450
 1605SOL    HW2 5715   4.953   4.759   0.406
 1606SOL     OW 5716   3.869   6.013   5.227
 1606SOL    HW1 5717   3.927   5.996   5.307
 1606SOL    HW2 5718   3.895   5.950   5.154
 1607SOL     OW 5719   4.968   3.782   3.951
 1607SOL    HW1 5720   5.027   3.801   4.030
 1607SOL    HW2 5721   4.954   3.683   3.943
 1608SOL     OW 5722   6.064   3.029   3.615
 1608SOL    HW1 5723   6.062   3.117   3.567
 1608SOL    HW2 5724   6.004   2.964   3.568
 1609SOL     OW 5725   2.403   7.017   0.867
 1609SOL    HW1 5726   2.353   0.080   0.883
 1609SOL    HW2 5727   2.351   6.959   0.804
 1610SOL     OW 5728   5.686   6.298   0.895
 1610SOL    HW1 5729   5.743   6.250   0.829
 1610SOL    HW2 5730   5.590   6.272   0.882
 1611SOL     OW 5731   0.660   3.927   6.631
 1611SOL    HW1 5732   0.738   3.963   6.578
 1611SOL    HW2 5733   0.693   3.865   6.702
 1612SOL     OW 5734   4.870   1.012   1.564
 1612SOL    HW1 5735   4.873   0.916   1.535
 1612SOL    HW2 5736   4.796   1.024   1.630
 1613SOL     OW 5737   0.121   5.913   2.397
 1613SOL    HW1 5738   0.062   5.941   2.473
 1613SOL    HW2 5739   0.096   5.965   2.315
 1614SOL     OW 5740   6.465   2.051   5.355
 1614SOL    HW1 5741   6.378   2.083   5.390
 1614SOL    HW2 5742   6.456   2.031   5.257
 1615SOL     OW 5743   0.059   2.985   5.235
 1615SOL    HW1 5744   0.051   3.045   5.156
 1615SOL    HW2 5745   0.009   3.025   5.312
 1616SOL     OW 5746   0.785   1.286   3.121
 1616SOL    HW1 5747   0.863   1.338   3.157
 1616SOL    HW2 5748   0.734   1.246   3.196
 1617SOL     OW 5749   6.432   5.873   3.943
 1617SOL    HW1 5750   6.333   5.866   3.936
 1617SOL    HW2 5751   6.457   5.966   3.972
 1618SOL     OW 5752   3.101   5.433   3.020
 1618SOL    HW1 5753   3.117   5.334   3.020
 1618SOL    HW2 5754   3.017   5.453   3.070
 1619SOL     OW 5755   0.770   3.560   6.329
 1619SOL    HW1 5756   0.769   3.466   6.294
 1619SOL    HW2 5757   0.815   3.620   6.263
 1620SOL     OW 5758   2.889   6.859   4.727
 1620SOL    HW1 5759   2.879   6.857   4.628
 1620SOL    HW2 5760   2.799   6.873   4.769
 1621SOL     OW 5761   5.607   4.769   1.093
 1621SOL    HW1 5762   5.566   4.745   1.182
 1621SOL    HW2 5763   5.541   4.751   1.020
 1622SOL     OW 5764   6.422   3.441   3.129
 1622SOL    HW1 5765   6.397   3.362   3.074
 1622SOL    HW2 5766   6.424   3.523   3.071
 1623SOL     OW 5767   0.726   2.696   3.951
 1623SOL    HW1 5768   0.642   2.690   3.897
 1623SOL    HW2 5769   0.791   2.627   3.919
 1624SOL     OW 5770   4.215   3.113   0.829
 1624SOL    HW1 5771   4.214   3.186   0.898
 1624SOL    HW2 5772   4.242   3.027   0.873
 1625SOL     OW 5773   0.901   6.236   0.608
 1625SOL    HW1 5774   0.991   6.279   0.608
 1625SOL    HW2 5775   0.906   6.150   0.557
 1626SOL     OW 5776   2.708   1.803   2.496
 1626SOL    HW1 5777   2.721   1.721   2.440
 1626SOL    HW2 5778   2.781   1.807   2.565
 1627SOL     OW 5779   4.310   1.649   6.291
 1627SOL    HW1 5780   4.260   1.669   6.375
 1627SOL    HW2 5781   4.405   1.625   6.313
 1628SOL     OW 5782   5.457   5.965   1.060
 1628SOL    HW1 5783   5.449   5.957   0.961
 1628SOL    HW2 5784   5.375   5.929   1.104
 1629SOL     OW 5785   1.833   6.877   3.449
 1629SOL    HW1 5786   1.765   6.827   3.502
 1629SOL    HW2 5787   1.833   6.844   3.354
 1630SOL     OW 5788   0.535   4.627   6.288
 1630SOL    HW1 5789   0.508   4.596   6.379
 1630SOL    HW2 5790   0.593   4.708   6.297
 1631SOL     OW 5791   5.025   3.764   0.167
 1631SOL    HW1 5792   5.047   3.791   0.073
 1631SOL    HW2 5793   5.094   3.802   0.229
 1632SOL     OW 5794   6.219   6.291   2.253
 1632SOL    HW1 5795   6.310   6.261   2.223
 1632SOL    HW2 5796   6.179   6.223   2.314
 1633SOL     OW 5797   6.301   3.847   4.557
 1633SOL    HW1 5798   6.303   3.759   4.604
 1633SOL    HW2 5799   6.357   3.842   4.474
 1634SOL     OW 5800   1.306   3.934   6.395
 1634SOL    HW1 5801   1.247   3.866   6.353
 1634SOL    HW2 5802   1.261   4.023   6.394
 1635SOL     OW 5803   2.620   0.173   3.794
 1635SOL    HW1 5804   2.646   0.125   3.878
 1635SOL    HW2 5805   2.546   0.237   3.814
 1636SOL     OW 5806   0.335   6.258   1.499
 1636SOL    HW1 5807   0.329   6.340   1.556
 1636SOL    HW2 5808   0.280   6.185   1.538
 1637SOL     OW 5809   1.234   1.405   2.322
 1637SOL    HW1 5810   1.184   1.323   2.351
 1637SOL    HW2 5811   1.197   1.485   2.368
 1638SOL     OW 5812   5.570   2.518   3.158
 1638SOL    HW1 5813   5.481   2.562   3.167
 1638SOL    HW2 5814   5.562   2.421   3.180
 1639SOL     OW 5815   4.856   2.309   1.248
 1639SOL    HW1 5816   4.952   2.283   1.246
 1639SOL    HW2 5817   4.817   2.289   1.338
 1640SOL     OW 5818   6.558   0.825   6.850
 1640SOL    HW1 5819   6.545   0.902   6.912
 1640SOL    HW2 5820   6.505   0.747   6.884
 1641SOL     OW 5821   5.673   0.919   3.092
 1641SOL    HW1 5822   5.762   0.962   3.108
 1641SOL    HW2 5823   5.601   0.987   3.103
 1642SOL     OW 5824   0.005   3.344   5.460
 1642SOL    HW1 5825   0.001   3.380   5.553
 1642SOL    HW2 5826   6.996   3.248   5.460
 1643SOL     OW 5827   2.458   4.904   3.788
 1643SOL    HW1 5828   2.463   4.868   3.695
 1643SOL    HW2 5829   2.417   4.835   3.848
 1644SOL     OW 5830   5.894   1.779   1.824
 1644SOL    HW1 5831   5.812   1.831   1.802
 1644SOL    HW2 5832   5.902   1.770   1.923
 1645SOL     OW 5833   2.545   0.624   4.905
 1645SOL    HW1 5834   2.531   0.606   5.002
 1645SOL    HW2 5835   2.456   0.634   4.860
 1646SOL     OW 5836   0.116   5.474   1.706
 1646SOL    HW1 5837   0.151   5.382   1.690
 1646SOL    HW2 5838   0.186   5.529   1.750
 1647SOL     OW 5839   6.139   3.411   4.583
 1647SOL    HW1 5840   6.212   3.357   4.624
 1647SOL    HW2 5841   6.051   3.365   4.595
 1648SOL     OW 5842   5.509   6.347   1.645
 1648SOL    HW1 5843   5.487   6.306   1.734
 1648SOL    HW2 5844   5.426   6.352   1.589
 1649SOL     OW 5845   3.604   1.046   2.638
 1649SOL    HW1 5846   3.600   1.102   2.721
 1649SOL    HW2 5847   3.512   1.015   2.615
 1650SOL     OW 5848   2.267   2.802   4.867
 1650SOL    HW1 5849   2.330   2.732   4.832
 1650SOL    HW2 5850   2.320   2.878   4.904
 1651SOL     OW 5851   1.201   1.937   3.511
 1651SOL    HW1 5852   1.137   1.968   3.441
 1651SOL    HW2 5853   1.161   1.861   3.562
 1652SOL     OW 5854   6.578   3.970   1.665
 1652SOL    HW1 5855   6.580   4.006   1.758
 1652SOL    HW2 5856   6.671   3.968   1.628
 1653SOL     OW 5857   6.835   4.491   1.882
 1653SOL    HW1 5858   6.779   4.524   1.806
 1653SOL    HW2 5859   6.859   4.395   1.866
 1654SOL     OW 5860   0.148   4.016   1.713
 1654SOL    HW1 5861   0.134   3.976   1.803
 1654SOL    HW2 5862   0.138   3.946   1.643
 1655SOL     OW 5863   0.243   0.833   6.103
 1655SOL    HW1 5864   0.323   0.777   6.125
 1655SOL    HW2 5865   0.221   0.823   6.006
 1656SOL     OW 5866   2.196   3.914   2.830
 1656SOL    HW1 5867   2.225   4.007   2.805
 1656SOL    HW2 5868   2.271   3.850   2.813
 1657SOL     OW 5869   0.563   0.936   6.262
 1657SOL    HW1 5870   0.627   1.013   6.269
 1657SOL    HW2 5871   0.476   0.960   6.305
 1658SOL     OW 5872   5.432   6.674   5.699
 1658SOL    HW1 5873   5.370   6.745   5.731
 1658SOL    HW2 5874   5.404   6.642   5.609
 1659SOL     OW 5875   3.641   0.309   6.051
 1659SOL    HW1 5876   3.553   0.341   6.085
 1659SOL    HW2 5877   3.638   0.301   5.951
 1660SOL     OW 5878   2.448   0.815   1.914
 1660SOL    HW1 5879   2.446   0.880   1.838
 1660SOL    HW2 5880   2.504   0.852   1.988
 1661SOL     OW 5881   4.705   4.618   3.376
 1661SOL    HW1 5882   4.670   4.527   3.402
 1661SOL    HW2 5883   4.703   4.627   3.277
 1662SOL     OW 5884   0.351   1.999   3.526
 1662SOL    HW1 5885   0.324   2.048   3.609
 1662SOL    HW2 5886   0.274   1.998   3.462
 1663SOL     OW 5887   5.342   3.772   0.977
 1663SOL    HW1 5888   5.267   3.798   1.038
 1663SOL    HW2 5889   5.380   3.853   0.934
 1664SOL     OW 5890   1.139   1.584   6.135
 1664SOL    HW1 5891   1.212   1.559   6.199
 1664SOL    HW2 5892   1.112   1.504   6.083
 1665SOL     OW 5893   2.199   3.757   6.702
 1665SOL    HW1 5894   2.115   3.803   6.674
 1665SOL    HW2 5895   2.246   3.723   6.620
 1666SOL     OW 5896   5.543   6.286   5.756
 1666SOL    HW1 5897   5.486   6.227   5.812
 1666SOL    HW2 5898   5.638   6.256   5.761
 1667SOL     OW 5899   6.870   5.282   1.027
 1667SOL    HW1 5900   6.775   5.252   1.019
 1667SOL    HW2 5901   6.917   5.225   1.094
 1668SOL     OW 5902   6.165   3.327   2.090
 1668SOL    HW1 5903   6.222   3.269   2.032
 1668SOL    HW2 5904   6.080   3.349   2.042
 1669SOL     OW 5905   6.392   2.867   5.448
 1669SOL    HW1 5906   6.398   2.769   5.471
 1669SOL    HW2 5907   6.365   2.919   5.529
 1670SOL     OW 5908   2.815   4.452   5.419
 1670SOL    HW1 5909   2.846   4.454   5.324
 1670SOL    HW2 5910   2.719   4.422   5.421
 1671SOL     OW 5911   5.716   1.947   0.800
 1671SOL    HW1 5912   5.752   2.031   0.841
 1671SOL    HW2 5913   5.650   1.970   0.729
 1672SOL     OW 5914   0.474   1.976   1.466
 1672SOL    HW1 5915   0.555   2.014   1.421
 1672SOL    HW2 5916   0.473   2.004   1.562
 1673SOL     OW 5917   1.676   0.552   5.092
 1673SOL    HW1 5918   1.733   0.629   5.119
 1673SOL    HW2 5919   1.604   0.538   5.160
 1674SOL     OW 5920   5.194   2.189   3.429
 1674SOL    HW1 5921   5.168   2.143   3.344
 1674SOL    HW2 5922   5.117   2.187   3.493
 1675SOL     OW 5923   5.444   0.680   1.994
 1675SOL    HW1 5924   5.422   0.626   2.075
 1675SOL    HW2 5925   5.469   0.773   2.022
 1676SOL     OW 5926   1.161   2.487   3.598
 1676SOL    HW1 5927   1.104   2.407   3.582
 1676SOL    HW2 5928   1.251   2.458   3.633
 1677SOL     OW 5929   2.985   3.778   2.706
 1677SOL    HW1 5930   3.056   3.722   2.749
 1677SOL    HW2 5931   2.945   3.728   2.629
 1678SOL     OW 5932   6.803   6.746   6.848
 1678SOL    HW1 5933   6.861   6.760   6.768
 1678SOL    HW2 5934   6.835   6.804   6.923
 1679SOL     OW 5935   6.097   1.833   0.506
 1679SOL    HW1 5936   6.029   1.883   0.452
 1679SOL    HW2 5937   6.052   1.791   0.585
 1680SOL     OW 5938   6.034   2.666   2.687
 1680SOL    HW1 5939   5.966   2.624   2.747
 1680SOL    HW2 5940   6.088   2.732   2.738
 1681SOL     OW 5941   3.306   6.318   4.917
 1681SOL    HW1 5942   3.232   6.373   4.955
 1681SOL    HW2 5943   3.276   6.274   4.833
 1682SOL     OW 5944   4.325   1.096   4.683
 1682SOL    HW1 5945   4.350   1.177   4.629
 1682SOL    HW2 5946   4.260   1.121   4.754
 1683SOL     OW 5947   0.963   2.492   3.063
 1683SOL    HW1 5948   1.016   2.491   3.148
 1683SOL    HW2 5949   1.021   2.458   2.988
 1684SOL     OW 5950   2.582   5.277   1.530
 1684SOL    HW1 5951   2.496   5.244   1.492
 1684SOL    HW2 5952   2.651   5.205   1.526
 1685SOL     OW 5953   0.371   1.527   5.554
 1685SOL    HW1 5954   0.301   1.562   5.618
 1685SOL    HW2 5955   0.334   1.527   5.461
 1686SOL     OW 5956   3.716   5.252   1.954
 1686SOL    HW1 5957   3.777   5.297   1.888
 1686SOL    HW2 5958   3.756   5.166   1.983
 1687SOL     OW 5959   4.787   3.955   0.429
 1687SOL    HW1 5960   4.795   3.864   0.387
 1687SOL    HW2 5961   4.810   3.949   0.526
 1688SOL     OW 5962   2.812   0.496   3.057
 1688SOL    HW1 5963   2.829   0.398   3.063
 1688SOL    HW2 5964   2.737   0.521   3.118
 1689SOL     OW 5965   4.080   0.376   1.869
 1689SOL    HW1 5966   4.045   0.316   1.798
 1689SOL    HW2 5967   4.018   0.455   1.878
 1690SOL     OW 5968   0.044   5.212   4.223
 1690SOL    HW1 5969   0.015   5.126   4.180
 1690SOL    HW2 5970   0.137   5.202   4.257
 1691SOL     OW 5971   3.929   2.661   5.353
 1691SOL    HW1 5972   3.921   2.743   5.297
 1691SOL    HW2 5973   3.995   2.599   5.311
 1692SOL     OW 5974   6.357   5.536   2.406
 1692SOL    HW1 5975   6.297   5.459   2.430
 1692SOL    HW2 5976   6.438   5.501   2.358
 1693SOL     OW 5977   5.502   6.953   5.498
 1693SOL    HW1 5978   5.578   6.955   5.433
 1693SOL    HW2 5979   5.439   6.879   5.472
 1694SOL     OW 5980   4.766   1.140   6.466
 1694SOL    HW1 5981   4.749   1.075   6.540
 1694SOL    HW2 5982   4.777   1.090   6.380
 1695SOL     OW 5983   4.510   0.129   4.953
 1695SOL    HW1 5984   4.419   0.146   4.992
 1695SOL    HW2 5985   4.537   0.035   4.973
 1696SOL     OW 5986   5.298   6.958   0.924
 1696SOL    HW1 5987   5.226   6.920   0.981
 1696SOL    HW2 5988   5.372   6.891   0.914
 1697SOL     OW 5989   4.415   2.924   1.719
 1697SOL    HW1 5990   4.490   2.970   1.768
 1697SOL    HW2 5991   4.330   2.975   1.733
 1698SOL     OW 5992   4.273   1.416   1.621
 1698SOL    HW1 5993   4.317   1.503   1.599
 1698SOL    HW2 5994   4.174   1.429   1.625
 1699SOL     OW 5995   1.907   0.866   1.287
 1699SOL    HW1 5996   1.849   0.911   1.355
 1699SOL    HW2 5997   1.973   0.808   1.333
 1700SOL     OW 5998   5.541   3.329   2.798
 1700SOL    HW1 5999   5.445   3.306   2.811
 1700SOL    HW2 6000   5.549   3.403   2.730
 1701SOL     OW 6001   0.728   5.754   5.225
 1701SOL    HW1 6002   0.673   5.708   5.294
 1701SOL    HW2 6003   0.795   5.689   5.188
 1702SOL     OW 6004   1.739   2.396   6.824
 1702SOL    HW1 6005   1.741   2.496   6.824
 1702SOL    HW2 6006   1.656   2.365   6.777
 1703SOL     OW 6007   1.451   2.226   2.036
 1703SOL    HW1 6008   1.491   2.253   2.124
 1703SOL    HW2 6009   1.379   2.159   2.052
 1704SOL     OW 6010   2.946   2.828   6.551
 1704SOL    HW1 6011   2.860   2.799   6.594
 1704SOL    HW2 6012   2.927   2.895   6.480
 1705SOL     OW 6013   5.265   3.259   0.516
 1705SOL    HW1 6014   5.302   3.171   0.486
 1705SOL    HW2 6015   5.324   3.333   0.483
 1706SOL     OW 6016   5.593   0.944   5.960
 1706SOL    HW1 6017   5.569   0.863   6.013
 1706SOL    HW2 6018   5.688   0.937   5.929
 1707SOL     OW 6019   3.885   1.488   1.996
 1707SOL    HW1 6020   3.908   1.511   1.902
 1707SOL    HW2 6021   3.790   1.513   2.014
 1708SOL     OW 6022   2.539   4.563   2.010
 1708SOL    HW1 6023   2.637   4.582   2.017
 1708SOL    HW2 6024   2.487   4.647   2.023
 1709SOL     OW 6025   5.288   4.285   1.421
 1709SOL    HW1 6026   5.189   4.270   1.420
 1709SOL    HW2 6027   5.307   4.379   1.451
 1710SOL     OW 6028   4.749   2.861   2.280
 1710SOL    HW1 6029   4.735   2.905   2.191
 1710SOL    HW2 6030   4.781   2.929   2.346
 1711SOL     OW 6031   4.244   5.754   0.002
 1711SOL    HW1 6032   4.207   5.844   7.004
 1711SOL    HW2 6033   4.185   5.683   6.985
 1712SOL     OW 6034   0.196   1.890   2.024
 1712SOL    HW1 6035   0.123   1.823   2.008
 1712SOL    HW2 6036   0.267   1.878   1.955
 1713SOL     OW 6037   2.839   1.462   2.160
 1713SOL    HW1 6038   2.862   1.409   2.078
 1713SOL    HW2 6039   2.900   1.437   2.235
 1714SOL     OW 6040   2.885   4.209   1.419
 1714SOL    HW1 6041   2.915   4.178   1.510
 1714SOL    HW2 6042   2.787   4.192   1.410
 1715SOL     OW 6043   1.178   6.314   1.257
 1715SOL    HW1 6044   1.210   6.329   1.350
 1715SOL    HW2 6045   1.205   6.222   1.227
 1716SOL     OW 6046   4.886   1.853   2.684
 1716SOL    HW1 6047   4.791   1.846   2.655
 1716SOL    HW2 6048   4.943   1.792   2.628
 1717SOL     OW 6049   3.649   6.560   3.553
 1717SOL    HW1 6050   3.682   6.505   3.630
 1717SOL    HW2 6051   3.688   6.526   3.468
 1718SOL     OW 6052   1.630   3.474   1.821
 1718SOL    HW1 6053   1.639   3.405   1.750
 1718SOL    HW2 6054   1.721   3.507   1.847
 1719SOL     OW 6055   1.005   5.061   3.637
 1719SOL    HW1 6056   0.917   5.076   3.681
 1719SOL    HW2 6057   1.075   5.045   3.706
 1720SOL     OW 6058   0.951   3.045   5.595
 1720SOL    HW1 6059   0.981   2.985   5.521
 1720SOL    HW2 6060   1.016   3.038   5.671
 1721SOL     OW 6061   2.535   2.703   0.204
 1721SOL    HW1 6062   2.530   2.619   0.150
 1721SOL    HW2 6063   2.559   2.680   0.298
 1722SOL     OW 6064   3.179   2.080   3.372
 1722SOL    HW1 6065   3.162   1.986   3.400
 1722SOL    HW2 6066   3.097   2.118   3.330
 1723SOL     OW 6067   6.546   4.597   1.253
 1723SOL    HW1 6068   6.476   4.645   1.200
 1723SOL    HW2 6069   6.515   4.503   1.271
 1724SOL     OW 6070   5.832   3.330   0.604
 1724SOL    HW1 6071   5.847   3.427   0.585
 1724SOL    HW2 6072   5.913   3.291   0.647
 1725SOL     OW 6073   1.775   6.601   6.390
 1725SOL    HW1 6074   1.724   6.677   6.349
 1725SOL    HW2 6075   1.718   6.519   6.391
 1726SOL     OW 6076   4.894   4.834   3.784
 1726SOL    HW1 6077   4.991   4.809   3.775
 1726SOL    HW2 6078   4.853   4.840   3.693
 1727SOL     OW 6079   3.097   2.999   3.314
 1727SOL    HW1 6080   3.021   2.985   3.250
 1727SOL    HW2 6081   3.154   3.075   3.283
 1728SOL     OW 6082   5.600   2.305   4.434
 1728SOL    HW1 6083   5.534   2.380   4.435
 1728SOL    HW2 6084   5.567   2.232   4.374
 1729SOL     OW 6085   1.396   3.295   2.822
 1729SOL    HW1 6086   1.356   3.315   2.912
 1729SOL    HW2 6087   1.450   3.212   2.828
 1730SOL     OW 6088   2.772   0.519   4.793
 1730SOL    HW1 6089   2.713   0.558   4.864
 1730SOL    HW2 6090   2.735   0.431   4.764
 1731SOL     OW 6091   5.359   4.361   3.489
 1731SOL    HW1 6092   5.408   4.318   3.564
 1731SOL    HW2 6093   5.276   4.309   3.470
 1732SOL     OW 6094   4.239   3.620   5.132
 1732SOL    HW1 6095   4.245   3.561   5.052
 1732SOL    HW2 6096   4.144   3.624   5.164
 1733SOL     OW 6097   1.512   2.013   7.019
 1733SOL    HW1 6098   1.495   1.930   0.048
 1733SOL    HW2 6099   1.438   2.027   6.952
 1734SOL     OW 6100   0.551   4.221   1.487
 1734SOL    HW1 6101   0.468   4.228   1.543
 1734SOL    HW2 6102   0.626   4.268   1.533
 1735SOL     OW 6103   3.309   5.344   5.782
 1735SOL    HW1 6104   3.305   5.330   5.881
 1735SOL    HW2 6105   3.403   5.363   5.755
 1736SOL     OW 6106   4.813   2.087   6.055
 1736SOL    HW1 6107   4.901   2.042   6.039
 1736SOL    HW2 6108   4.765   2.098   5.967
 1737SOL     OW 6109   2.725   1.211   6.492
 1737SOL    HW1 6110   2.764   1.120   6.481
 1737SOL    HW2 6111   2.625   1.204   6.503
 1738SOL     OW 6112   0.941   3.753   1.951
 1738SOL    HW1 6113   0.995   3.673   1.926
 1738SOL    HW2 6114   0.848   3.724   1.974
 1739SOL     OW 6115   4.645   5.035   2.420
 1739SOL    HW1 6116   4.708   4.978   2.473
 1739SOL    HW2 6117   4.631   5.121   2.468
 1740SOL     OW 6118   0.020   2.008   4.816
 1740SOL    HW1 6119   6.962   2.058   4.847
 1740SOL    HW2 6120   0.059   1.956   4.893
 1741SOL     OW 6121   1.081   2.914   4.738
 1741SOL    HW1 6122   1.091   2.848   4.812
 1741SOL    HW2 6123   1.171   2.944   4.707
 1742SOL     OW 6124   6.017   0.391   6.900
 1742SOL    HW1 6125   6.068   0.330   6.839
 1742SOL    HW2 6126   6.081   0.448   6.951
 1743SOL     OW 6127   1.100   2.371   1.631
 1743SOL    HW1 6128   1.178   2.362   1.569
 1743SOL    HW2 6129   1.095   2.464   1.666
 1744SOL     OW 6130   3.044   2.165   5.315
 1744SOL    HW1 6131   2.957   2.185   5.270
 1744SOL    HW2 6132   3.118   2.210   5.266
 1745SOL     OW 6133   6.483   6.389   0.740
 1745SOL    HW1 6134   6.521   6.474   0.776
 1745SOL    HW2 6135   6.504   6.381   0.643
 1746SOL     OW 6136   2.330   5.202   2.672
 1746SOL    HW1 6137   2.333   5.291   2.628
 1746SOL    HW2 6138   2.419   5.183   2.714
 1747SOL     OW 6139   2.797   0.131   2.209
 1747SOL    HW1 6140   2.796   0.140   2.309
 1747SOL    HW2 6141   2.781   0.035   2.184
 1748SOL     OW 6142   6.809   1.729   3.629
 1748SOL    HW1 6143   6.829   1.637   3.596
 1748SOL    HW2 6144   6.740   1.771   3.571
 1749SOL     OW 6145   6.455   5.431   2.860
 1749SOL    HW1 6146   6.366   5.388   2.845
 1749SOL    HW2 6147   6.455   5.479   2.948
 1750SOL     OW 6148   3.351   1.298   0.685
 1750SOL    HW1 6149   3.328   1.273   0.591
 1750SOL    HW2 6150   3.283   1.363   0.719
 1751SOL     OW 6151   6.445   4.391   4.864
 1751SOL    HW1 6152   6.346   4.392   4.849
 1751SOL    HW2 6153   6.491   4.433   4.786
 1752SOL     OW 6154   6.064   0.972   2.317
 1752SOL    HW1 6155   5.971   1.000   2.292
 1752SOL    HW2 6156   6.061   0.884   2.365
 1753SOL     OW 6157   6.344   1.420   1.465
 1753SOL    HW1 6158   6.318   1.340   1.412
 1753SOL    HW2 6159   6.263   1.462   1.505
 1754SOL     OW 6160   2.821   5.247   3.628
 1754SOL    HW1 6161   2.794   5.342   3.618
 1754SOL    HW2 6162   2.739   5.190   3.641
 1755SOL     OW 6163   6.124   6.508   5.076
 1755SOL    HW1 6164   6.131   6.409   5.059
 1755SOL    HW2 6165   6.216   6.547   5.082
 1756SOL     OW 6166   4.516   6.366   1.437
 1756SOL    HW1 6167   4.560   6.307   1.370
 1756SOL    HW2 6168   4.586   6.410   1.494
 1757SOL     OW 6169   2.888   5.173   4.837
 1757SOL    HW1 6170   2.800   5.211   4.810
 1757SOL    HW2 6171   2.915   5.211   4.926
 1758SOL     OW 6172   0.598   6.067   3.746
 1758SOL    HW1 6173   0.613   5.968   3.756
 1758SOL    HW2 6174   0.546   6.084   3.662
 1759SOL     OW 6175   1.689   5.365   6.408
 1759SOL    HW1 6176   1.702   5.393   6.313
 1759SOL    HW2 6177   1.648   5.273   6.410
 1760SOL     OW 6178   6.024   1.867   3.715
 1760SOL    HW1 6179   6.047   1.925   3.637
 1760SOL    HW2 6180   6.062   1.906   3.799
 1761SOL     OW 6181   5.643   2.613   3.745
 1761SOL    HW1 6182   5.549   2.647   3.753
 1761SOL    HW2 6183   5.644   2.514   3.748
 1762SOL     OW 6184   0.685   1.285   5.737
 1762SOL    HW1 6185   0.698   1.187   5.755
 1762SOL    HW2 6186   0.616   1.321   5.800
 1763SOL     OW 6187   1.493   5.071   4.052
 1763SOL    HW1 6188   1.481   4.998   3.985
 1763SOL    HW2 6189   1.528   5.033   4.137
 1764SOL     OW 6190   1.176   5.683   3.281
 1764SOL    HW1 6191   1.113   5.610   3.307
 1764SOL    HW2 6192   1.213   5.664   3.190
 1765SOL     OW 6193   5.491   3.736   1.839
 1765SOL    HW1 6194   5.535   3.813   1.886
 1765SOL    HW2 6195   5.482   3.757   1.741
 1766SOL     OW 6196   4.299   4.960   3.848
 1766SOL    HW1 6197   4.327   4.951   3.752
 1766SOL    HW2 6198   4.333   4.882   3.900
 1767SOL     OW 6199   1.381   4.240   1.326
 1767SOL    HW1 6200   1.318   4.237   1.248
 1767SOL    HW2 6201   1.356   4.169   1.392
 1768SOL     OW 6202   3.625   4.910   2.831
 1768SOL    HW1 6203   3.531   4.915   2.863
 1768SOL    HW2 6204   3.676   4.844   2.887
 1769SOL     OW 6205   5.686   0.591   0.787
 1769SOL    HW1 6206   5.684   0.675   0.841
 1769SOL    HW2 6207   5.780   0.569   0.763
 1770SOL     OW 6208   2.354   4.630   0.607
 1770SOL    HW1 6209   2.299   4.686   0.669
 1770SOL    HW2 6210   2.347   4.534   0.633
 1771SOL     OW 6211   0.809   2.714   6.288
 1771SOL    HW1 6212   0.757   2.631   6.306
 1771SOL    HW2 6213   0.747   2.789   6.265
 1772SOL     OW 6214   2.422   4.699   2.650
 1772SOL    HW1 6215   2.331   4.735   2.628
 1772SOL    HW2 6216   2.452   4.637   2.577
 1773SOL     OW 6217   2.505   6.869   5.118
 1773SOL    HW1 6218   2.586   6.845   5.064
 1773SOL    HW2 6219   2.423   6.841   5.068
 1774SOL     OW 6220   5.439   5.800   1.950
 1774SOL    HW1 6221   5.421   5.893   1.984
 1774SOL    HW2 6222   5.502   5.805   1.872
 1775SOL     OW 6223   1.344   6.453   1.077
 1775SOL    HW1 6224   1.302   6.472   0.988
 1775SOL    HW2 6225   1.294   6.379   1.122
 1776SOL     OW 6226   4.675   3.128   6.130
 1776SOL    HW1 6227   4.661   3.029   6.134
 1776SOL    HW2 6228   4.674   3.158   6.035
 1777SOL     OW 6229   4.667   5.649   6.729
 1777SOL    HW1 6230   4.571   5.659   6.755
 1777SOL    HW2 6231   4.721   5.622   6.809
 1778SOL     OW 6232   6.922   0.027   2.918
 1778SOL    HW1 6233   6.852   0.088   2.955
 1778SOL    HW2 6234   6.923   0.035   2.818
 1779SOL     OW 6235   6.608   0.107   4.811
 1779SOL    HW1 6236   6.560   0.112   4.723
 1779SOL    HW2 6237   6.699   0.066   4.797
 1780SOL     OW 6238   3.410   6.714   4.718
 1780SOL    HW1 6239   3.431   6.812   4.727
 1780SOL    HW2 6240   3.469   6.674   4.648
 1781SOL     OW 6241   5.173   1.525   6.177
 1781SOL    HW1 6242   5.177   1.468   6.095
 1781SOL    HW2 6243   5.078   1.543   6.201
 1782SOL     OW 6244   5.203   0.674   2.604
 1782SOL    HW1 6245   5.108   0.645   2.610
 1782SOL    HW2 6246   5.245   0.670   2.695
 1783SOL     OW 6247   1.447   3.163   0.114
 1783SOL    HW1 6248   1.419   3.259   0.117
 1783SOL    HW2 6249   1.476   3.139   0.021
 1784SOL     OW 6250   2.151   6.351   1.609
 1784SOL    HW1 6251   2.157   6.384   1.515
 1784SOL    HW2 6252   2.067   6.385   1.651
 1785SOL     OW 6253   1.879   5.799   4.721
 1785SOL    HW1 6254   1.841   5.826   4.810
 1785SOL    HW2 6255   1.804   5.772   4.660
 1786SOL     OW 6256   0.298   5.879   1.734
 1786SOL    HW1 6257   0.356   5.863   1.654
 1786SOL    HW2 6258   0.335   5.954   1.789
 1787SOL     OW 6259   2.097   2.693   6.044
 1787SOL    HW1 6260   2.167   2.743   5.993
 1787SOL    HW2 6261   2.047   2.633   5.982
 1788SOL     OW 6262   3.360   4.161   0.795
 1788SOL    HW1 6263   3.348   4.258   0.818
 1788SOL    HW2 6264   3.399   4.153   0.703
 1789SOL     OW 6265   6.085   2.442   2.124
 1789SOL    HW1 6266   5.990   2.425   2.152
 1789SOL    HW2 6267   6.147   2.398   2.189
 1790SOL     OW 6268   2.534   1.854   4.718
 1790SOL    HW1 6269   2.605   1.842   4.649
 1790SOL    HW2 6270   2.556   1.801   4.799
 1791SOL     OW 6271   6.319   0.362   3.640
 1791SOL    HW1 6272   6.409   0.358   3.597
 1791SOL    HW2 6273   6.297   0.273   3.680
 1792SOL     OW 6274   6.811   2.556   6.138
 1792SOL    HW1 6275   6.731   2.529   6.085
 1792SOL    HW2 6276   6.880   2.484   6.135
 1793SOL     OW 6277   0.292   1.268   4.618
 1793SOL    HW1 6278   0.346   1.202   4.566
 1793SOL    HW2 6279   0.238   1.324   4.554
 1794SOL     OW 6280   0.025   1.679   6.790
 1794SOL    HW1 6281   0.078   1.722   6.717
 1794SOL    HW2 6282   0.083   1.615   6.840
 1795SOL     OW 6283   5.167   4.340   0.591
 1795SOL    HW1 6284   5.141   4.420   0.538
 1795SOL    HW2 6285   5.215   4.275   0.532
 1796SOL     OW 6286   6.009   6.975   6.939
 1796SOL    HW1 6287   6.052   0.030   6.986
 1796SOL    HW2 6288   5.912   6.972   6.961
 1797SOL     OW 6289   2.550   6.373   5.157
 1797SOL    HW1 6290   2.583   6.279   5.146
 1797SOL    HW2 6291   2.510   6.384   5.248
 1798SOL     OW 6292   2.093   3.724   6.135
 1798SOL    HW1 6293   2.175   3.781   6.142
 1798SOL    HW2 6294   2.019   3.778   6.095
 1799SOL     OW 6295   3.338   1.561   2.399
 1799SOL    HW1 6296   3.420   1.600   2.357
 1799SOL    HW2 6297   3.261   1.623   2.385
 1800SOL     OW 6298   5.900   2.479   5.675
 1800SOL    HW1 6299   5.842   2.414   5.625
 1800SOL    HW2 6300   5.853   2.566   5.685
 1801SOL     OW 6301   0.363   1.616   2.260
 1801SOL    HW1 6302   0.310   1.534   2.282
 1801SOL    HW2 6303   0.355   1.682   2.335
 1802SOL     OW 6304   6.901   4.785   4.368
 1802SOL    HW1 6305   6.917   4.859   4.434
 1802SOL    HW2 6306   6.807   4.753   4.376
 1803SOL     OW 6307   0.273   6.247   3.952
 1803SOL    HW1 6308   0.281   6.345   3.934
 1803SOL    HW2 6309   0.356   6.200   3.922
 1804SOL     OW 6310   0.746   2.878   6.528
 1804SOL    HW1 6311   0.824   2.935   6.501
 1804SOL    HW2 6312   0.748   2.793   6.477
 1805SOL     OW 6313   6.514   4.862   6.045
 1805SOL    HW1 6314   6.425   4.856   6.001
 1805SOL    HW2 6315   6.521   4.791   6.116
 1806SOL     OW 6316   0.635   1.700   1.648
 1806SOL    HW1 6317   0.635   1.673   1.551
 1806SOL    HW2 6318   0.553   1.753   1.667
 1807SOL     OW 6319   6.609   2.147   1.942
 1807SOL    HW1 6320   6.577   2.061   1.903
 1807SOL    HW2 6321   6.612   2.217   1.870
 1808SOL     OW 6322   6.458   0.741   6.394
 1808SOL    HW1 6323   6.485   0.799   6.317
 1808SOL    HW2 6324   6.502   0.773   6.477
 1809SOL     OW 6325   5.084   0.560   5.200
 1809SOL    HW1 6326   5.071   0.656   5.178
 1809SOL    HW2 6327   5.078   0.546   5.299
 1810SOL     OW 6328   1.157   1.535   4.611
 1810SOL    HW1 6329   1.153   1.550   4.512
 1810SOL    HW2 6330   1.249   1.508   4.637
 1811SOL     OW 6331   3.335   5.814   1.830
 1811SOL    HW1 6332   3.333   5.824   1.731
 1811SOL    HW2 6333   3.366   5.721   1.854
 1812SOL     OW 6334   4.336   0.613   6.404
 1812SOL    HW1 6335   4.353   0.540   6.471
 1812SOL    HW2 6336   4.351   0.702   6.448
 1813SOL     OW 6337   5.470   3.343   2.173
 1813SOL    HW1 6338   5.452   3.389   2.086
 1813SOL    HW2 6339   5.515   3.406   2.236
 1814SOL     OW 6340   6.281   5.541   0.666
 1814SOL    HW1 6341   6.235   5.503   0.586
 1814SOL    HW2 6342   6.376   5.561   0.643
 1815SOL     OW 6343   6.087   5.246   1.234
 1815SOL    HW1 6344   6.116   5.242   1.330
 1815SOL    HW2 6345   6.014   5.314   1.224
 1816SOL     OW 6346   3.303   5.036   4.482
 1816SOL    HW1 6347   3.269   5.065   4.393
 1816SOL    HW2 6348   3.396   5.001   4.472
 1817SOL     OW 6349   6.550   2.907   3.557
 1817SOL    HW1 6350   6.606   2.858   3.490
 1817SOL    HW2 6351   6.610   2.954   3.622
 1818SOL     OW 6352   2.178   1.563   1.096
 1818SOL    HW1 6353   2.217   1.471   1.102
 1818SOL    HW2 6354   2.081   1.559   1.120
 1819SOL     OW 6355   1.192   3.831   0.992
 1819SOL    HW1 6356   1.139   3.746   0.993
 1819SOL    HW2 6357   1.275   3.819   1.046
 1820SOL     OW 6358   4.123   6.853   5.215
 1820SOL    HW1 6359   4.207   6.906   5.218
 1820SOL    HW2 6360   4.089   6.850   5.121
 1821SOL     OW 6361   4.163   1.327   2.667
 1821SOL    HW1 6362   4.125   1.419   2.676
 1821SOL    HW2 6363   4.109   1.263   2.722
 1822SOL     OW 6364   1.916   3.739   4.344
 1822SOL    HW1 6365   1.838   3.802   4.336
 1822SOL    HW2 6366   1.894   3.667   4.410
 1823SOL     OW 6367   3.811   0.198   3.605
 1823SOL    HW1 6368   3.767   0.181   3.694
 1823SOL    HW2 6369   3.887   0.133   3.593
 1824SOL     OW 6370   4.676   2.711   1.900
 1824SOL    HW1 6371   4.656   2.804   1.931
 1824SOL    HW2 6372   4.601   2.650   1.926
 1825SOL     OW 6373   0.980   3.385   0.177
 1825SOL    HW1 6374   1.073   3.403   0.210
 1825SOL    HW2 6375   0.972   3.288   0.152
 1826SOL     OW 6376   3.592   3.267   0.335
 1826SOL    HW1 6377   3.580   3.168   0.326
 1826SOL    HW2 6378   3.686   3.291   0.314
 1827SOL     OW 6379   5.031   4.610   0.736
 1827SOL    HW1 6380   4.999   4.531   0.788
 1827SOL    HW2 6381   5.061   4.581   0.645
 1828SOL     OW 6382   2.666   4.994   4.938
 1828SOL    HW1 6383   2.710   5.076   4.903
 1828SOL    HW2 6384   2.727   4.947   5.002
 1829SOL     OW 6385   1.944   6.406   2.199
 1829SOL    HW1 6386   1.986   6.494   2.177
 1829SOL    HW2 6387   1.976   6.337   2.135
 1830SOL     OW 6388   4.328   1.461   6.656
 1830SOL    HW1 6389   4.263   1.433   6.725
 1830SOL    HW2 6390   4.419   1.426   6.679
 1831SOL     OW 6391   3.581   4.785   0.314
 1831SOL    HW1 6392   3.631   4.864   0.278
 1831SOL    HW2 6393   3.579   4.789   0.414
 1832SOL     OW 6394   1.510   3.044   5.766
 1832SOL    HW1 6395   1.560   3.128   5.789
 1832SOL    HW2 6396   1.412   3.065   5.758
 1833SOL     OW 6397   5.881   1.270   0.435
 1833SOL    HW1 6398   5.864   1.327   0.355
 1833SOL    HW2 6399   5.868   1.174   0.411
 1834SOL     OW 6400   2.080   3.871   6.450
 1834SOL    HW1 6401   1.998   3.828   6.414
 1834SOL    HW2 6402   2.150   3.873   6.379
 1835SOL     OW 6403   6.748   6.750   0.434
 1835SOL    HW1 6404   6.730   6.812   0.510
 1835SOL    HW2 6405   6.845   6.753   0.411
 1836SOL     OW 6406   6.132   1.957   3.983
 1836SOL    HW1 6407   6.132   1.936   4.081
 1836SOL    HW2 6408   6.073   2.036   3.966
 1837SOL     OW 6409   0.941   1.936   0.506
 1837SOL    HW1 6410   1.030   1.904   0.540
 1837SOL    HW2 6411   0.928   2.032   0.531
 1838SOL     OW 6412   5.365   0.311   0.944
 1838SOL    HW1 6413   5.294   0.355   0.999
 1838SOL    HW2 6414   5.329   0.227   0.904
 1839SOL     OW 6415   6.774   1.418   6.457
 1839SOL    HW1 6416   6.701   1.350   6.445
 1839SOL    HW2 6417   6.839   1.385   6.526
 1840SOL     OW 6418   3.260   0.637   5.342
 1840SOL    HW1 6419   3.333   0.614   5.278
 1840SOL    HW2 6420   3.201   0.708   5.302
 1841SOL     OW 6421   2.230   0.241   1.689
 1841SOL    HW1 6422   2.176   0.236   1.773
 1841SOL    HW2 6423   2.318   0.284   1.709
 1842SOL     OW 6424   0.202   4.958   1.413
 1842SOL    HW1 6425   0.162   4.894   1.478
 1842SOL    HW2 6426   0.145   4.961   1.330
 1843SOL     OW 6427   3.178   1.273   6.648
 1843SOL    HW1 6428   3.129   1.333   6.584
 1843SOL    HW2 6429   3.197   1.186   6.604
 1844SOL     OW 6430   5.040   3.508   0.510
 1844SOL    HW1 6431   4.964   3.469   0.457
 1844SOL    HW2 6432   5.107   3.436   0.530
 1845SOL     OW 6433   0.943   2.667   4.872
 1845SOL    HW1 6434   0.973   2.623   4.957
 1845SOL    HW2 6435   0.940   2.600   4.799
 1846SOL     OW 6436   3.617   1.772   2.444
 1846SOL    HW1 6437   3.610   1.675   2.469
 1846SOL    HW2 6438   3.627   1.826   2.527
 1847SOL     OW 6439   2.974   6.193   6.686
 1847SOL    HW1 6440   2.971   6.278   6.739
 1847SOL    HW2 6441   3.069   6.167   6.669
 1848SOL     OW 6442   3.286   6.004   4.603
 1848SOL    HW1 6443   3.356   6.004   4.675
 1848SOL    HW2 6444   3.301   6.081   4.542
 1849SOL     OW 6445   4.715   2.597   2.607
 1849SOL    HW1 6446   4.802   2.603   2.559
 1849SOL    HW2 6447   4.714   2.514   2.664
 1850SOL     OW 6448   4.550   1.907   0.884
 1850SOL    HW1 6449   4.568   1.942   0.791
 1850SOL    HW2 6450   4.579   1.975   0.951
 1851SOL     OW 6451   0.942   4.809   4.200
 1851SOL    HW1 6452   0.959   4.897   4.244
 1851SOL    HW2 6453   1.000   4.739   4.240
 1852SOL     OW 6454   0.391   0.115   3.854
 1852SOL    HW1 6455   0.472   0.107   3.911
 1852SOL    HW2 6456   0.352   0.024   3.838
 1853SOL     OW 6457   0.752   1.989   5.504
 1853SOL    HW1 6458   0.822   1.997   5.432
 1853SOL    HW2 6459   0.754   2.071   5.561
 1854SOL     OW 6460   0.348   0.105   4.247
 1854SOL    HW1 6461   0.297   0.099   4.334
 1854SOL    HW2 6462   0.432   0.051   4.255
 1855SOL     OW 6463   6.640   1.237   5.029
 1855SOL    HW1 6464   6.561   1.181   5.052
 1855SOL    HW2 6465   6.609   1.329   5.002
 1856SOL     OW 6466   5.070   4.189   6.491
 1856SOL    HW1 6467   5.138   4.262   6.495
 1856SOL    HW2 6468   5.115   4.103   6.467
 1857SOL     OW 6469   4.739   0.961   6.664
 1857SOL    HW1 6470   4.695   0.987   6.750
 1857SOL    HW2 6471   4.796   0.880   6.680
 1858SOL     OW 6472   5.487   2.123   4.666
 1858SOL    HW1 6473   5.432   2.041   4.647
 1858SOL    HW2 6474   5.489   2.181   4.585
 1859SOL     OW 6475   6.488   6.262   2.164
 1859SOL    HW1 6476   6.528   6.324   2.096
 1859SOL    HW2 6477   6.515   6.168   2.142
 1860SOL     OW 6478   2.107   0.811   6.982
 1860SOL    HW1 6479   2.170   0.881   6.948
 1860SOL    HW2 6480   2.160   0.731   7.011
 1861SOL     OW 6481   6.602   6.345   5.381
 1861SOL    HW1 6482   6.651   6.258   5.381
 1861SOL    HW2 6483   6.510   6.332   5.344
 1862SOL     OW 6484   3.804   5.696   5.850
 1862SOL    HW1 6485   3.890   5.672   5.804
 1862SOL    HW2 6486   3.756   5.766   5.798
 1863SOL     OW 6487   6.775   1.125   1.419
 1863SOL    HW1 6488   6.817   1.048   1.372
 1863SOL    HW2 6489   6.677   1.126   1.402
 1864SOL     OW 6490   2.022   6.170   3.035
 1864SOL    HW1 6491   2.018   6.124   2.947
 1864SOL    HW2 6492   2.059   6.262   3.023
 1865SOL     OW 6493   6.749   2.276   5.752
 1865SOL    HW1 6494   6.665   2.240   5.712
 1865SOL    HW2 6495   6.742   2.275   5.852
 1866SOL     OW 6496   0.242   4.116   4.906
 1866SOL    HW1 6497   0.228   4.210   4.877
 1866SOL    HW2 6498   0.243   4.111   5.006
 1867SOL     OW 6499   1.123   0.975   1.421
 1867SOL    HW1 6500   1.201   0.912   1.420
 1867SOL    HW2 6501   1.044   0.930   1.379
 1868SOL     OW 6502   5.260   3.830   5.903
 1868SOL    HW1 6503   5.233   3.900   5.837
 1868SOL    HW2 6504   5.226   3.854   5.993
 1869SOL     OW 6505   5.213   0.609   5.695
 1869SOL    HW1 6506   5.261   0.563   5.769
 1869SOL    HW2 6507   5.275   0.676   5.652
 1870SOL     OW 6508   5.822   0.427   5.562
 1870SOL    HW1 6509   5.742   0.472   5.601
 1870SOL    HW2 6510   5.809   0.413   5.464
 1871SOL     OW 6511   2.329   5.288   6.742
 1871SOL    HW1 6512   2.343   5.311   6.838
 1871SOL    HW2 6513   2.380   5.352   6.685
 1872SOL     OW 6514   2.656   3.305   0.828
 1872SOL    HW1 6515   2.612   3.246   0.896
 1872SOL    HW2 6516   2.749   3.273   0.811
 1873SOL     OW 6517   5.982   1.476   2.564
 1873SOL    HW1 6518   5.928   1.550   2.524
 1873SOL    HW2 6519   6.007   1.411   2.493
 1874SOL     OW 6520   2.025   5.353   6.639
 1874SOL    HW1 6521   2.025   5.253   6.640
 1874SOL    HW2 6522   2.110   5.386   6.598
 1875SOL     OW 6523   1.189   6.404   2.366
 1875SOL    HW1 6524   1.122   6.435   2.434
 1875SOL    HW2 6525   1.272   6.375   2.413
 1876SOL     OW 6526   1.025   4.782   6.902
 1876SOL    HW1 6527   0.984   4.724   6.831
 1876SOL    HW2 6528   0.985   4.874   6.896
 1877SOL     OW 6529   0.770   0.920   2.833
 1877SOL    HW1 6530   0.717   0.872   2.903
 1877SOL    HW2 6531   0.844   0.971   2.876
 1878SOL     OW 6532   6.113   4.088   4.170
 1878SOL    HW1 6533   6.210   4.114   4.171
 1878SOL    HW2 6534   6.060   4.154   4.223
 1879SOL     OW 6535   4.002   6.694   5.408
 1879SOL    HW1 6536   3.964   6.763   5.470
 1879SOL    HW2 6537   4.043   6.739   5.329
 1880SOL     OW 6538   1.865   3.034   4.237
 1880SOL    HW1 6539   1.928   2.982   4.295
 1880SOL    HW2 6540   1.887   3.131   4.244
 1881SOL     OW 6541   1.920   1.533   3.541
 1881SOL    HW1 6542   2.018   1.551   3.531
 1881SOL    HW2 6543   1.877   1.608   3.591
 1882SOL     OW 6544   3.716   6.118   0.735
 1882SOL    HW1 6545   3.780   6.178   0.687
 1882SOL    HW2 6546   3.628   6.164   0.745
 1883SOL     OW 6547   2.126   3.379   2.511
 1883SOL    HW1 6548   2.223   3.362   2.495
 1883SOL    HW2 6549   2.081   3.402   2.424
 1884SOL     OW 6550   5.088   0.985   0.049
 1884SOL    HW1 6551   5.035   0.900   0.039
 1884SOL    HW2 6552   5.056   1.051   7.004
 1885SOL     OW 6553   0.307   1.190   0.905
 1885SOL    HW1 6554   0.272   1.106   0.946
 1885SOL    HW2 6555   0.231   1.246   0.873
 1886SOL     OW 6556   3.208   3.071   4.971
 1886SOL    HW1 6557   3.156   3.023   5.042
 1886SOL    HW2 6558   3.146   3.129   4.917
 1887SOL     OW 6559   0.960   6.100   5.089
 1887SOL    HW1 6560   0.956   6.034   5.164
 1887SOL    HW2 6561   1.021   6.175   5.114
 1888SOL     OW 6562   1.969   1.512   6.045
 1888SOL    HW1 6563   1.994   1.543   6.137
 1888SOL    HW2 6564   1.886   1.457   6.049
 1889SOL     OW 6565   3.611   3.305   6.910
 1889SOL    HW1 6566   3.530   3.304   6.968
 1889SOL    HW2 6567   3.601   3.376   6.840
 1890SOL     OW 6568   6.212   5.937   6.689
 1890SOL    HW1 6569   6.117   5.963   6.674
 1890SOL    HW2 6570   6.224   5.840   6.665
 1891SOL     OW 6571   4.870   3.695   6.446
 1891SOL    HW1 6572   4.861   3.645   6.360
 1891SOL    HW2 6573   4.843   3.636   6.522
 1892SOL     OW 6574   4.538   0.464   3.305
 1892SOL    HW1 6575   4.469   0.408   3.351
 1892SOL    HW2 6576   4.494   0.540   3.258
 1893SOL     OW 6577   2.983   1.817   6.830
 1893SOL    HW1 6578   3.005   1.894   6.770
 1893SOL    HW2 6579   2.979   1.850   6.925
 1894SOL     OW 6580   5.010   3.176   0.399
 1894SOL    HW1 6581   4.930   3.236   0.389
 1894SOL    HW2 6582   5.069   3.211   0.471
 1895SOL     OW 6583   4.408   5.738   2.964
 1895SOL    HW1 6584   4.459   5.810   2.917
 1895SOL    HW2 6585   4.385   5.770   3.056
 1896SOL     OW 6586   6.501   1.450   4.935
 1896SOL    HW1 6587   6.478   1.530   4.990
 1896SOL    HW2 6588   6.421   1.390   4.928
 1897SOL     OW 6589   5.037   5.696   2.919
 1897SOL    HW1 6590   4.956   5.688   2.978
 1897SOL    HW2 6591   5.091   5.775   2.946
 1898SOL     OW 6592   5.320   6.250   0.078
 1898SOL    HW1 6593   5.256   6.322   0.107
 1898SOL    HW2 6594   5.404   6.293   0.045
 1899SOL     OW 6595   2.199   2.689   3.550
 1899SOL    HW1 6596   2.232   2.614   3.492
 1899SOL    HW2 6597   2.247   2.773   3.528
 1900SOL     OW 6598   3.014   5.422   1.586
 1900SOL    HW1 6599   2.965   5.368   1.655
 1900SOL    HW2 6600   3.108   5.436   1.616
 1901SOL     OW 6601   1.117   0.802   5.933
 1901SOL    HW1 6602   1.145   0.864   5.859
 1901SOL    HW2 6603   1.190   0.796   6.001
 1902SOL     OW 6604   1.465   2.357   4.341
 1902SOL    HW1 6605   1.478   2.430   4.274
 1902SOL    HW2 6606   1.526   2.371   4.419
 1903SOL     OW 6607   6.372   5.448   3.866
 1903SOL    HW1 6608   6.450   5.388   3.847
 1903SOL    HW2 6609   6.391   5.539   3.829
 1904SOL     OW 6610   0.745   0.570   4.241
 1904SOL    HW1 6611   0.693   0.638   4.291
 1904SOL    HW2 6612   0.841   0.574   4.269
 1905SOL     OW 6613   5.786   3.042   5.521
 1905SOL    HW1 6614   5.745   3.000   5.440
 1905SOL    HW2 6615   5.741   3.007   5.603
 1906SOL     OW 6616   2.365   6.668   5.679
 1906SOL    HW1 6617   2.350   6.717   5.593
 1906SOL    HW2 6618   2.463   6.655   5.693
 1907SOL     OW 6619   4.204   6.919   3.283
 1907SOL    HW1 6620   4.155   6.845   3.237
 1907SOL    HW2 6621   4.182   7.006   3.240
 1908SOL     OW 6622   4.690   4.959   0.426
 1908SOL    HW1 6623   4.695   4.986   0.522
 1908SOL    HW2 6624   4.729   5.031   0.369
 1909SOL     OW 6625   5.113   5.496   3.512
 1909SOL    HW1 6626   5.166   5.430   3.459
 1909SOL    HW2 6627   5.152   5.587   3.501
 1910SOL     OW 6628   4.851   4.056   4.443
 1910SOL    HW1 6629   4.943   4.020   4.433
 1910SOL    HW2 6630   4.793   3.988   4.488
 1911SOL     OW 6631   1.215   2.291   5.671
 1911SOL    HW1 6632   1.205   2.192   5.672
 1911SOL    HW2 6633   1.205   2.327   5.765
 1912SOL     OW 6634   3.126   6.226   2.607
 1912SOL    HW1 6635   3.027   6.211   2.609
 1912SOL    HW2 6636   3.144   6.321   2.581
 1913SOL     OW 6637   2.793   4.001   6.894
 1913SOL    HW1 6638   2.845   3.933   6.946
 1913SOL    HW2 6639   2.847   4.032   6.816
 1914SOL     OW 6640   4.636   1.396   4.793
 1914SOL    HW1 6641   4.653   1.494   4.798
 1914SOL    HW2 6642   4.562   1.378   4.729
 1915SOL     OW 6643   2.891   6.845   5.434
 1915SOL    HW1 6644   2.928   6.901   5.360
 1915SOL    HW2 6645   2.876   6.902   5.515
 1916SOL     OW 6646   3.207   6.469   2.544
 1916SOL    HW1 6647   3.294   6.519   2.547
 1916SOL    HW2 6648   3.148   6.511   2.475
 1917SOL     OW 6649   3.551   4.166   3.992
 1917SOL    HW1 6650   3.621   4.117   3.941
 1917SOL    HW2 6651   3.574   4.166   4.089
 1918SOL     OW 6652   0.550   6.544   5.770
 1918SOL    HW1 6653   0.636   6.592   5.782
 1918SOL    HW2 6654   0.553   6.456   5.817
 1919SOL     OW 6655   5.803   0.785   2.327
 1919SOL    HW1 6656   5.832   0.800   2.232
 1919SOL    HW2 6657   5.828   0.692   2.354
 1920SOL     OW 6658   6.554   6.492   4.845
 1920SOL    HW1 6659   6.514   6.435   4.773
 1920SOL    HW2 6660   6.505   6.579   4.849
 1921SOL     OW 6661   2.576   6.434   0.332
 1921SOL    HW1 6662   2.484   6.397   0.343
 1921SOL    HW2 6663   2.572   6.531   0.311
 1922SOL     OW 6664   3.902   4.396   0.275
 1922SOL    HW1 6665   3.839   4.411   0.198
 1922SOL    HW2 6666   3.854   4.412   0.361
 1923SOL     OW 6667   2.344   3.041   1.055
 1923SOL    HW1 6668   2.342   3.001   1.146
 1923SOL    HW2 6669   2.303   2.977   0.989
 1924SOL     OW 6670   0.865   3.302   1.123
 1924SOL    HW1 6671   0.890   3.334   1.032
 1924SOL    HW2 6672   0.842   3.381   1.181
 1925SOL     OW 6673   2.948   4.430   0.471
 1925SOL    HW1 6674   3.034   4.386   0.449
 1925SOL    HW2 6675   2.875   4.391   0.415
 1926SOL     OW 6676   0.552   0.804   3.954
 1926SOL    HW1 6677   0.651   0.809   3.969
 1926SOL    HW2 6678   0.523   0.881   3.898
 1927SOL     OW 6679   5.202   3.339   1.433
 1927SOL    HW1 6680   5.103   3.344   1.416
 1927SOL    HW2 6681   5.218   3.297   1.523
 1928SOL     OW 6682   0.378   5.407   4.504
 1928SOL    HW1 6683   0.292   5.457   4.506
 1928SOL    HW2 6684   0.443   5.455   4.445
 1929SOL     OW 6685   0.586   5.231   2.949
 1929SOL    HW1 6686   0.629   5.316   2.981
 1929SOL    HW2 6687   0.640   5.193   2.874
 1930SOL     OW 6688   6.825   5.270   6.012
 1930SOL    HW1 6689   6.750   5.244   6.074
 1930SOL    HW2 6690   6.838   5.198   5.944
 1931SOL     OW 6691   1.490   2.098   4.112
 1931SOL    HW1 6692   1.428   2.125   4.185
 1931SOL    HW2 6693   1.581   2.080   4.151
 1932SOL     OW 6694   5.822   3.763   2.741
 1932SOL    HW1 6695   5.813   3.679   2.687
 1932SOL    HW2 6696   5.738   3.780   2.791
 1933SOL     OW 6697   3.090   5.104   0.240
 1933SOL    HW1 6698   3.132   5.041   0.175
 1933SOL    HW2 6699   2.991   5.090   0.241
 1934SOL     OW 6700   0.045   5.900   2.918
 1934SOL    HW1 6701   0.062   5.998   2.920
 1934SOL    HW2 6702   0.034   5.870   2.823
 1935SOL     OW 6703   1.087   0.961   3.308
 1935SOL    HW1 6704   1.174   1.009   3.316
 1935SOL    HW2 6705   1.082   0.914   3.220
 1936SOL     OW 6706   0.320   5.538   5.251
 1936SOL    HW1 6707   0.303   5.539   5.349
 1936SOL    HW2 6708   0.237   5.567   5.203
 1937SOL     OW 6709   4.390   1.616   3.059
 1937SOL    HW1 6710   4.424   1.532   3.102
 1937SOL    HW2 6711   4.463   1.684   3.056
 1938SOL     OW 6712   5.599   6.978   3.904
 1938SOL    HW1 6713   5.696   6.955   3.912
 1938SOL    HW2 6714   5.580   0.040   3.954
 1939SOL     OW 6715   2.961   0.136   4.568
 1939SOL    HW1 6716   2.968   0.148   4.668
 1939SOL    HW2 6717   2.876   0.178   4.536
 1940SOL     OW 6718   6.422   6.257   6.708
 1940SOL    HW1 6719   6.507   6.211   6.734
 1940SOL    HW2 6720   6.357   6.252   6.784
 1941SOL     OW 6721   4.984   4.858   2.460
 1941SOL    HW1 6722   5.053   4.823   2.396
 1941SOL    HW2 6723   5.007   4.953   2.485
 1942SOL     OW 6724   0.220   3.746   2.179
 1942SOL    HW1 6725   0.281   3.692   2.121
 1942SOL    HW2 6726   0.267   3.828   2.211
 1943SOL     OW 6727   3.214   5.354   3.440
 1943SOL    HW1 6728   3.286   5.345   3.509
 1943SOL    HW2 6729   3.152   5.427   3.466
 1944SOL     OW 6730   6.999   6.399   1.788
 1944SOL    HW1 6731   6.958   6.405   1.879
 1944SOL    HW2 6732   6.927   6.387   1.720
 1945SOL     OW 6733   2.935   4.755   2.756
 1945SOL    HW1 6734   2.909   4.714   2.844
 1945SOL    HW2 6735   2.855   4.761   2.697
 1946SOL     OW 6736   1.848   6.868   6.651
 1946SOL    HW1 6737   1.924   6.872   6.716
 1946SOL    HW2 6738   1.861   6.792   6.588
 1947SOL     OW 6739   4.799   0.196   3.203
 1947SOL    HW1 6740   4.795   0.138   3.122
 1947SOL    HW2 6741   4.773   0.142   3.284
 1948SOL     OW 6742   6.004   3.281   5.462
 1948SOL    HW1 6743   6.009   3.233   5.374
 1948SOL    HW2 6744   5.930   3.242   5.517
 1949SOL     OW 6745   4.569   3.877   6.579
 1949SOL    HW1 6746   4.569   3.909   6.485
 1949SOL    HW2 6747   4.658   3.895   6.621
 1950SOL     OW 6748   3.471   5.053   0.597
 1950SOL    HW1 6749   3.453   5.003   0.681
 1950SOL    HW2 6750   3.560   5.025   0.560
 1951SOL     OW 6751   6.155   2.647   0.101
 1951SOL    HW1 6752   6.191   2.686   0.185
 1951SOL    HW2 6753   6.101   2.717   0.053
 1952SOL     OW 6754   3.584   2.864   4.336
 1952SOL    HW1 6755   3.522   2.930   4.293
 1952SOL    HW2 6756   3.543   2.773   4.336
 1953SOL     OW 6757   0.788   2.686   4.510
 1953SOL    HW1 6758   0.827   2.776   4.530
 1953SOL    HW2 6759   0.810   2.660   4.416
 1954SOL     OW 6760   2.397   1.747   4.277
 1954SOL    HW1 6761   2.450   1.723   4.359
 1954SOL    HW2 6762   2.300   1.752   4.300
 1955SOL     OW 6763   6.110   5.578   2.060
 1955SOL    HW1 6764   6.172   5.646   2.020
 1955SOL    HW2 6765   6.117   5.492   2.009
 1956SOL     OW 6766   4.877   6.564   2.707
 1956SOL    HW1 6767   4.871   6.533   2.803
 1956SOL    HW2 6768   4.945   6.508   2.659
 1957SOL     OW 6769   2.222   6.126   5.083
 1957SOL    HW1 6770   2.151   6.056   5.089
 1957SOL    HW2 6771   2.220   6.183   5.165
 1958SOL     OW 6772   3.439   3.568   6.137
 1958SOL    HW1 6773   3.379   3.548   6.059
 1958SOL    HW2 6774   3.431   3.495   6.205
 1959SOL     OW 6775   2.668   0.435   0.901
 1959SOL    HW1 6776   2.666   0.517   0.959
 1959SOL    HW2 6777   2.693   0.461   0.808
 1960SOL     OW 6778   5.044   5.964   2.674
 1960SOL    HW1 6779   5.038   5.876   2.721
 1960SOL    HW2 6780   4.957   5.983   2.627
 1961SOL     OW 6781   5.218   5.216   5.587
 1961SOL    HW1 6782   5.263   5.242   5.672
 1961SOL    HW2 6783   5.136   5.271   5.574
 1962SOL     OW 6784   0.199   6.602   4.689
 1962SOL    HW1 6785   0.179   6.569   4.597
 1962SOL    HW2 6786   0.293   6.581   4.712
 1963SOL     OW 6787   2.496   1.001   3.801
 1963SOL    HW1 6788   2.521   1.037   3.712
 1963SOL    HW2 6789   2.448   0.914   3.790
 1964SOL     OW 6790   6.161   3.327   2.657
 1964SOL    HW1 6791   6.159   3.316   2.558
 1964SOL    HW2 6792   6.073   3.301   2.696
 1965SOL     OW 6793   2.202   6.386   3.352
 1965SOL    HW1 6794   2.244   6.387   3.442
 1965SOL    HW2 6795   2.177   6.292   3.327
 1966SOL     OW 6796   6.369   6.717   6.647
 1966SOL    HW1 6797   6.278   6.721   6.688
 1966SOL    HW2 6798   6.417   6.803   6.667
 1967SOL     OW 6799   5.749   3.268   5.019
 1967SOL    HW1 6800   5.728   3.205   4.944
 1967SOL    HW2 6801   5.805   3.343   4.984
 1968SOL     OW 6802   4.086   5.407   5.085
 1968SOL    HW1 6803   4.092   5.507   5.079
 1968SOL    HW2 6804   4.000   5.377   5.044
 1969SOL     OW 6805   6.605   1.122   1.716
 1969SOL    HW1 6806   6.651   1.197   1.669
 1969SOL    HW2 6807   6.506   1.138   1.718
 1970SOL     OW 6808   1.549   0.281   3.829
 1970SOL    HW1 6809   1.563   0.359   3.769
 1970SOL    HW2 6810   1.605   0.291   3.911
 1971SOL     OW 6811   6.954   1.211   6.320
 1971SOL    HW1 6812   6.947   1.233   6.417
 1971SOL    HW2 6813   0.009   1.150   6.305
 1972SOL     OW 6814   1.368   0.114   3.664
 1972SOL    HW1 6815   1.418   0.088   3.581
 1972SOL    HW2 6816   1.425   0.174   3.720
 1973SOL     OW 6817   2.455   3.488   0.467
 1973SOL    HW1 6818   2.464   3.394   0.501
 1973SOL    HW2 6819   2.545   3.527   0.451
 1974SOL     OW 6820   6.199   6.508   4.602
 1974SOL    HW1 6821   6.132   6.448   4.558
 1974SOL    HW2 6822   6.247   6.562   4.533
 1975SOL     OW 6823   2.816   0.197   3.011
 1975SOL    HW1 6824   2.796   0.235   2.921
 1975SOL    HW2 6825   2.734   0.151   3.047
 1976SOL     OW 6826   6.264   4.117   6.217
 1976SOL    HW1 6827   6.210   4.173   6.279
 1976SOL    HW2 6828   6.361   4.142   6.224
 1977SOL     OW 6829   3.353   2.148   5.232
 1977SOL    HW1 6830   3.285   2.178   5.165
 1977SOL    HW2 6831   3.384   2.227   5.285
 1978SOL     OW 6832   6.968   2.426   4.973
 1978SOL    HW1 6833   6.985   2.433   5.072
 1978SOL    HW2 6834   6.935   2.514   4.939
 1979SOL     OW 6835   6.756   3.837   2.176
 1979SOL    HW1 6836   6.685   3.862   2.242
 1979SOL    HW2 6837   6.717   3.776   2.107
 1980SOL     OW 6838   2.626   0.700   2.295
 1980SOL    HW1 6839   2.693   0.667   2.362
 1980SOL    HW2 6840   2.592   0.623   2.241
 1981SOL     OW 6841   5.397   3.106   2.051
 1981SOL    HW1 6842   5.419   3.202   2.070
 1981SOL    HW2 6843   5.405   3.053   2.135
 1982SOL     OW 6844   6.968   6.740   5.452
 1982SOL    HW1 6845   6.882   6.718   5.496
 1982SOL    HW2 6846   6.962   6.718   5.354
 1983SOL     OW 6847   0.819   4.908   1.531
 1983SOL    HW1 6848   0.839   4.812   1.513
 1983SOL    HW2 6849   0.730   4.932   1.493
 1984SOL     OW 6850   5.141   1.072   5.047
 1984SOL    HW1 6851   5.144   1.077   4.947
 1984SOL    HW2 6852   5.059   1.119   5.080
 1985SOL     OW 6853   2.069   5.880   1.689
 1985SOL    HW1 6854   2.139   5.938   1.732
 1985SOL    HW2 6855   2.027   5.929   1.613
 1986SOL     OW 6856   6.683   2.653   0.389
 1986SOL    HW1 6857   6.736   2.716   0.332
 1986SOL    HW2 6858   6.710   2.664   0.485
 1987SOL     OW 6859   2.407   3.760   6.872
 1987SOL    HW1 6860   2.340   3.756   6.798
 1987SOL    HW2 6861   2.441   3.854   6.881
 1988SOL     OW 6862   4.882   3.096   1.013
 1988SOL    HW1 6863   4.806   3.155   1.040
 1988SOL    HW2 6864   4.866   3.004   1.048
 1989SOL     OW 6865   2.000   2.210   3.639
 1989SOL    HW1 6866   1.962   2.263   3.715
 1989SOL    HW2 6867   1.949   2.229   3.556
 1990SOL     OW 6868   0.825   0.271   3.320
 1990SOL    HW1 6869   0.753   0.269   3.389
 1990SOL    HW2 6870   0.865   0.363   3.316
 1991SOL     OW 6871   4.700   6.222   2.806
 1991SOL    HW1 6872   4.796   6.250   2.804
 1991SOL    HW2 6873   4.654   6.265   2.884
 1992SOL     OW 6874   2.281   5.602   5.382
 1992SOL    HW1 6875   2.226   5.670   5.333
 1992SOL    HW2 6876   2.221   5.542   5.434
 1993SOL     OW 6877   3.059   3.178   3.810
 1993SOL    HW1 6878   3.024   3.272   3.802
 1993SOL    HW2 6879   3.057   3.134   3.720
 1994SOL     OW 6880   6.250   2.280   2.280
 1994SOL    HW1 6881   6.340   2.280   2.236
 1994SOL    HW2 6882   6.262   2.291   2.379
 1995SOL     OW 6883   3.828   2.408   1.526
 1995SOL    HW1 6884   3.735   2.440   1.509
 1995SOL    HW2 6885   3.825   2.325   1.582
 1996SOL     OW 6886   2.377   4.486   5.120
 1996SOL    HW1 6887   2.362   4.401   5.170
 1996SOL    HW2 6888   2.455   4.535   5.160
 1997SOL     OW 6889   5.758   6.194   3.602
 1997SOL    HW1 6890   5.666   6.157   3.597
 1997SOL    HW2 6891   5.780   6.215   3.698
 1998SOL     OW 6892   3.015   4.760   5.286
 1998SOL    HW1 6893   2.964   4.680   5.255
 1998SOL    HW2 6894   3.103   4.765   5.238
 1999SOL     OW 6895   2.274   1.782   2.217
 1999SOL    HW1 6896   2.231   1.708   2.166
 1999SOL    HW2 6897   2.357   1.812   2.169
 2000SOL     OW 6898   3.400   1.135   5.287
 2000SOL    HW1 6899   3.480   1.169   5.336
 2000SOL    HW2 6900   3.408   1.156   5.190
 2001SOL     OW 6901   2.135   2.904   6.802
 2001SOL    HW1 6902   2.071   2.918   6.727
 2001SOL    HW2 6903   2.228   2.899   6.765
 2002SOL     OW 6904   1.428   5.171   4.648
 2002SOL    HW1 6905   1.443   5.268   4.667
 2002SOL    HW2 6906   1.511   5.119   4.671
 2003SOL     OW 6907   6.817   4.234   3.604
 2003SOL    HW1 6908   6.850   4.142   3.624
 2003SOL    HW2 6909   6.814   4.248   3.505
 2004SOL     OW 6910   3.571   0.160   6.589
 2004SOL    HW1 6911   3.623   0.183   6.506
 2004SOL    HW2 6912   3.479   0.199   6.582
 2005SOL     OW 6913   2.525   6.065   5.170
 2005SOL    HW1 6914   2.487   6.058   5.262
 2005SOL    HW2 6915   2.452   6.053   5.103
 2006SOL     OW 6916   4.880   6.616   3.100
 2006SOL    HW1 6917   4.936   6.677   3.157
 2006SOL    HW2 6918   4.798   6.665   3.071
 2007SOL     OW 6919   6.300   5.030   6.940
 2007SOL    HW1 6920   6.344   5.119   6.934
 2007SOL    HW2 6921   6.205   5.041   6.969
 2008SOL     OW 6922   0.165   5.832   5.696
 2008SOL    HW1 6923   0.066   5.822   5.700
 2008SOL    HW2 6924   0.190   5.894   5.621
 2009SOL     OW 6925   1.048   0.281   6.789
 2009SOL    HW1 6926   0.987   0.352   6.824
 2009SOL    HW2 6927   1.048   0.203   6.853
 2010SOL     OW 6928   2.220   1.044   1.209
 2010SOL    HW1 6929   2.164   1.003   1.137
 2010SOL    HW2 6930   2.160   1.085   1.278
 2011SOL     OW 6931   0.235   1.827   4.945
 2011SOL    HW1 6932   0.289   1.860   4.868
 2011SOL    HW2 6933   0.210   1.731   4.929
 2012SOL     OW 6934   6.605   3.272   1.185
 2012SOL    HW1 6935   6.695   3.261   1.228
 2012SOL    HW2 6936   6.613   3.260   1.086
 2013SOL     OW 6937   4.187   2.058   1.992
 2013SOL    HW1 6938   4.137   2.100   2.068
 2013SOL    HW2 6939   4.280   2.035   2.022
 2014SOL     OW 6940   3.625   5.664   3.312
 2014SOL    HW1 6941   3.613   5.588   3.376
 2014SOL    HW2 6942   3.536   5.706   3.293
 2015SOL     OW 6943   3.172   6.379   0.109
 2015SOL    HW1 6944   3.145   6.402   0.203
 2015SOL    HW2 6945   3.267   6.351   0.108
 2016SOL     OW 6946   6.150   5.998   4.153
 2016SOL    HW1 6947   6.067   6.053   4.166
 2016SOL    HW2 6948   6.135   5.933   4.078
 2017SOL     OW 6949   2.294   5.257   2.241
 2017SOL    HW1 6950   2.301   5.191   2.315
 2017SOL    HW2 6951   2.213   5.238   2.186
 2018SOL     OW 6952   0.336   3.636   6.316
 2018SOL    HW1 6953   0.394   3.645   6.398
 2018SOL    HW2 6954   0.394   3.631   6.235
 2019SOL     OW 6955   5.279   1.117   2.864
 2019SOL    HW1 6956   5.225   1.070   2.795
 2019SOL    HW2 6957   5.220   1.176   2.919
 2020SOL     OW 6958   2.431   5.412   3.449
 2020SOL    HW1 6959   2.506   5.477   3.463
 2020SOL    HW2 6960   2.393   5.424   3.357
 2021SOL     OW 6961   2.275   6.312   1.860
 2021SOL    HW1 6962   2.227   6.314   1.773
 2021SOL    HW2 6963   2.360   6.364   1.853
 2022SOL     OW 6964   3.442   5.316   1.361
 2022SOL    HW1 6965   3.454   5.217   1.369
 2022SOL    HW2 6966   3.358   5.335   1.310
 2023SOL     OW 6967   6.697   2.249   6.240
 2023SOL    HW1 6968   6.669   2.168   6.292
 2023SOL    HW2 6969   6.617   2.308   6.225
 2024SOL     OW 6970   6.030   0.533   2.884
 2024SOL    HW1 6971   6.001   0.566   2.794
 2024SOL    HW2 6972   5.950   0.526   2.944
 2025SOL     OW 6973   6.228   0.983   0.904
 2025SOL    HW1 6974   6.292   1.052   0.937
 2025SOL    HW2 6975   6.201   0.923   0.980
 2026SOL     OW 6976   2.252   2.073   4.988
 2026SOL    HW1 6977   2.179   2.069   5.056
 2026SOL    HW2 6978   2.292   2.165   4.988
 2027SOL     OW 6979   6.917   0.363   2.000
 2027SOL    HW1 6980   6.890   0.445   1.949
 2027SOL    HW2 6981   6.903   0.378   2.098
 2028SOL     OW 6982   3.485   3.785   5.936
 2028SOL    HW1 6983   3.493   3.780   6.036
 2028SOL    HW2 6984   3.531   3.707   5.895
 2029SOL     OW 6985   2.073   0.562   0.616
 2029SOL    HW1 6986   1.989   0.605   0.583
 2029SOL    HW2 6987   2.151   0.599   0.564
 2030SOL     OW 6988   1.453   2.623   2.992
 2030SOL    HW1 6989   1.380   2.690   3.001
 2030SOL    HW2 6990   1.505   2.619   3.077
 2031SOL     OW 6991   6.307   0.092   2.849
 2031SOL    HW1 6992   6.304   0.056   2.942
 2031SOL    HW2 6993   6.335   0.020   2.786
 2032SOL     OW 6994   4.422   5.741   2.015
 2032SOL    HW1 6995   4.374   5.659   1.983
 2032SOL    HW2 6996   4.376   5.822   1.979
 2033SOL     OW 6997   6.931   5.166   6.460
 2033SOL    HW1 6998   6.929   5.216   6.547
 2033SOL    HW2 6999   0.003   5.159   6.428
 2034SOL     OW 7000   2.190   5.453   3.826
 2034SOL    HW1 7001   2.272   5.435   3.881
 2034SOL    HW2 7002   2.207   5.531   3.767
 2035SOL     OW 7003   0.613   2.412   2.679
 2035SOL    HW1 7004   0.653   2.355   2.607
 2035SOL    HW2 7005   0.681   2.478   2.712
 2036SOL     OW 7006   1.020   5.188   0.939
 2036SOL    HW1 7007   0.947   5.225   0.881
 2036SOL    HW2 7008   1.073   5.121   0.888
 2037SOL     OW 7009   0.077   1.896   0.033
 2037SOL    HW1 7010   7.001   1.915   0.030
 2037SOL    HW2 7011   0.094   1.819   0.094
 2038SOL     OW 7012   1.542   0.047   4.791
 2038SOL    HW1 7013   1.447   0.029   4.815
 2038SOL    HW2 7014   1.577   0.123   4.846
 2039SOL     OW 7015   0.927   5.541   1.828
 2039SOL    HW1 7016   0.873   5.591   1.761
 2039SOL    HW2 7017   1.022   5.536   1.797
 2040SOL     OW 7018   3.558   3.805   4.555
 2040SOL    HW1 7019   3.624   3.803   4.631
 2040SOL    HW2 7020   3.502   3.888   4.562
 2041SOL     OW 7021   5.209   2.748   6.804
 2041SOL    HW1 7022   5.178   2.708   6.890
 2041SOL    HW2 7023   5.154   2.710   6.728
 2042SOL     OW 7024   3.109   5.841   0.478
 2042SOL    HW1 7025   3.024   5.789   0.483
 2042SOL    HW2 7026   3.136   5.851   0.382
 2043SOL     OW 7027   4.362   5.445   2.216
 2043SOL    HW1 7028   4.339   5.503   2.138
 2043SOL    HW2 7029   4.457   5.413   2.206
 2044SOL     OW 7030   6.442   0.876   2.296
 2044SOL    HW1 7031   6.500   0.949   2.259
 2044SOL    HW2 7032   6.349   0.887   2.262
 2045SOL     OW 7033   3.203   6.431   6.542
 2045SOL    HW1 7034   3.246   6.385   6.621
 2045SOL    HW2 7035   3.266   6.500   6.507
 2046SOL     OW 7036   6.360   6.812   5.886
 2046SOL    HW1 7037   6.390   6.900   5.850
 2046SOL    HW2 7038   6.430   6.776   5.948
 2047SOL     OW 7039   4.914   2.579   0.227
 2047SOL    HW1 7040   4.837   2.641   0.213
 2047SOL    HW2 7041   4.881   2.486   0.241
 2048SOL     OW 7042   4.769   6.077   5.827
 2048SOL    HW1 7043   4.772   6.176   5.838
 2048SOL    HW2 7044   4.856   6.045   5.789
 2049SOL     OW 7045   4.723   5.346   6.948
 2049SOL    HW1 7046   4.803   5.406   6.947
 2049SOL    HW2 7047   4.672   5.355   6.862
 2050SOL     OW 7048   5.676   0.721   3.693
 2050SOL    HW1 7049   5.607   0.701   3.763
 2050SOL    HW2 7050   5.633   0.715   3.603
 2051SOL     OW 7051   2.964   5.412   1.078
 2051SOL    HW1 7052   2.988   5.449   0.989
 2051SOL    HW2 7053   2.923   5.322   1.067
 2052SOL     OW 7054   1.722   2.661   1.041
 2052SOL    HW1 7055   1.645   2.723   1.055
 2052SOL    HW2 7056   1.701   2.598   0.965
 2053SOL     OW 7057   4.827   1.320   0.991
 2053SOL    HW1 7058   4.836   1.221   1.002
 2053SOL    HW2 7059   4.881   1.367   1.061
 2054SOL     OW 7060   0.580   3.214   1.087
 2054SOL    HW1 7061   0.655   3.280   1.084
 2054SOL    HW2 7062   0.568   3.172   0.997
 2055SOL     OW 7063   6.495   1.549   3.785
 2055SOL    HW1 7064   6.460   1.571   3.694
 2055SOL    HW2 7065   6.545   1.628   3.822
 2056SOL     OW 7066   0.924   0.031   2.150
 2056SOL    HW1 7067   0.963   0.068   2.234
 2056SOL    HW2 7068   0.840   0.081   2.128
 2057SOL     OW 7069   5.661   2.917   4.470
 2057SOL    HW1 7070   5.746   2.887   4.513
 2057SOL    HW2 7071   5.626   2.845   4.410
 2058SOL     OW 7072   0.738   1.281   1.578
 2058SOL    HW1 7073   0.835   1.287   1.552
 2058SOL    HW2 7074   0.729   1.220   1.657
 2059SOL     OW 7075   1.347   0.845   6.797
 2059SOL    HW1 7076   1.394   0.817   6.881
 2059SOL    HW2 7077   1.401   0.915   6.751
 2060SOL     OW 7078   0.351   5.295   2.464
 2060SOL    HW1 7079   0.375   5.199   2.449
 2060SOL    HW2 7080   0.413   5.354   2.413
 2061SOL     OW 7081   1.438   0.856   0.881
 2061SOL    HW1 7082   1.438   0.790   0.806
 2061SOL    HW2 7083   1.501   0.931   0.859
 2062SOL     OW 7084   4.430   0.238   3.927
 2062SOL    HW1 7085   4.508   0.272   3.980
 2062SOL    HW2 7086   4.442   0.141   3.909
 2063SOL     OW 7087   2.489   1.838   0.991
 2063SOL    HW1 7088   2.488   1.914   1.056
 2063SOL    HW2 7089   2.395   1.812   0.969
 2064SOL     OW 7090   0.960   2.174   0.625
 2064SOL    HW1 7091   1.017   2.234   0.569
 2064SOL    HW2 7092   0.980   2.190   0.721
 2065SOL     OW 7093   7.005   3.508   2.661
 2065SOL    HW1 7094   0.069   3.536   2.618
 2065SOL    HW2 7095   6.992   3.560   2.745
 2066SOL     OW 7096   1.552   6.173   2.713
 2066SOL    HW1 7097   1.633   6.232   2.708
 2066SOL    HW2 7098   1.525   6.161   2.809
 2067SOL     OW 7099   0.599   6.748   0.090
 2067SOL    HW1 7100   0.517   6.802   0.074
 2067SOL    HW2 7101   0.576   6.667   0.144
 2068SOL     OW 7102   1.908   1.633   5.127
 2068SOL    HW1 7103   1.858   1.690   5.062
 2068SOL    HW2 7104   1.845   1.568   5.171
 2069SOL     OW 7105   0.884   1.999   1.921
 2069SOL    HW1 7106   0.914   2.094   1.909
 2069SOL    HW2 7107   0.839   1.968   1.838
 2070SOL     OW 7108   0.653   1.161   2.719
 2070SOL    HW1 7109   0.661   1.076   2.771
 2070SOL    HW2 7110   0.743   1.203   2.710
 2071SOL     OW 7111   2.436   6.467   5.447
 2071SOL    HW1 7112   2.471   6.557   5.474
 2071SOL    HW2 7113   2.499   6.396   5.477
 2072SOL     OW 7114   5.131   4.681   2.275
 2072SOL    HW1 7115   5.142   4.714   2.181
 2072SOL    HW2 7116   5.202   4.613   2.294
 2073SOL     OW 7117   3.320   6.807   5.217
 2073SOL    HW1 7118   3.354   6.896   5.186
 2073SOL    HW2 7119   3.307   6.747   5.137
 2074SOL     OW 7120   5.681   2.649   2.937
 2074SOL    HW1 7121   5.635   2.597   3.008
 2074SOL    HW2 7122   5.698   2.742   2.969
 2075SOL     OW 7123   3.595   3.103   5.997
 2075SOL    HW1 7124   3.501   3.095   5.965
 2075SOL    HW2 7125   3.605   3.188   6.049
 2076SOL     OW 7126   5.726   0.296   0.916
 2076SOL    HW1 7127   5.714   0.199   0.891
 2076SOL    HW2 7128   5.649   0.349   0.880
 2077SOL     OW 7129   4.292   1.278   3.841
 2077SOL    HW1 7130   4.328   1.192   3.805
 2077SOL    HW2 7131   4.302   1.280   3.940
 2078SOL     OW 7132   3.762   5.781   4.850
 2078SOL    HW1 7133   3.786   5.685   4.869
 2078SOL    HW2 7134   3.699   5.814   4.921
 2079SOL     OW 7135   6.311   7.006   4.042
 2079SOL    HW1 7136   6.239   0.051   4.060
 2079SOL    HW2 7137   6.384   0.026   3.989
 2080SOL     OW 7138   2.994   1.622   3.576
 2080SOL    HW1 7139   3.058   1.577   3.638
 2080SOL    HW2 7140   2.915   1.561   3.560
 2081SOL     OW 7141   1.222   6.283   4.348
 2081SOL    HW1 7142   1.268   6.274   4.436
 2081SOL    HW2 7143   1.124   6.293   4.362
 2082SOL     OW 7144   4.722   0.411   1.842
 2082SOL    HW1 7145   4.724   0.510   1.830
 2082SOL    HW2 7146   4.662   0.388   1.919
 2083SOL     OW 7147   4.061   4.327   5.879
 2083SOL    HW1 7148   4.022   4.396   5.940
 2083SOL    HW2 7149   4.019   4.335   5.788
 2084SOL     OW 7150   6.731   2.583   2.717
 2084SOL    HW1 7151   6.823   2.620   2.726
 2084SOL    HW2 7152   6.728   2.490   2.755
 2085SOL     OW 7153   5.707   6.552   6.502
 2085SOL    HW1 7154   5.702   6.545   6.602
 2085SOL    HW2 7155   5.666   6.638   6.473
 2086SOL     OW 7156   3.653   5.379   0.268
 2086SOL    HW1 7157   3.635   5.287   0.234
 2086SOL    HW2 7158   3.730   5.377   0.332
 2087SOL     OW 7159   5.979   6.137   3.449
 2087SOL    HW1 7160   5.895   6.172   3.490
 2087SOL    HW2 7161   6.056   6.194   3.477
 2088SOL     OW 7162   2.511   6.664   1.279
 2088SOL    HW1 7163   2.411   6.660   1.277
 2088SOL    HW2 7164   2.547   6.619   1.197
 2089SOL     OW 7165   2.197   1.113   0.278
 2089SOL    HW1 7166   2.115   1.162   0.308
 2089SOL    HW2 7167   2.181   1.014   0.285
 2090SOL     OW 7168   3.289   3.759   3.958
 2090SOL    HW1 7169   3.291   3.741   3.859
 2090SOL    HW2 7170   3.273   3.673   4.007
 2091SOL     OW 7171   2.658   4.508   1.013
 2091SOL    HW1 7172   2.707   4.493   0.928
 2091SOL    HW2 7173   2.717   4.486   1.091
 2092SOL     OW 7174   0.340   5.892   1.155
 2092SOL    HW1 7175   0.279   5.824   1.114
 2092SOL    HW2 7176   0.420   5.846   1.194
 2093SOL     OW 7177   1.090   2.644   1.666
 2093SOL    HW1 7178   1.173   2.698   1.677
 2093SOL    HW2 7179   1.050   2.661   1.576
 2094SOL     OW 7180   5.966   0.653   1.763
 2094SOL    HW1 7181   6.039   0.678   1.700
 2094SOL    HW2 7182   5.882   0.703   1.739
 2095SOL     OW 7183   6.451   4.875   5.110
 2095SOL    HW1 7184   6.401   4.950   5.154
 2095SOL    HW2 7185   6.387   4.803   5.084
 2096SOL     OW 7186   4.795   4.172   3.714
 2096SOL    HW1 7187   4.782   4.092   3.772
 2096SOL    HW2 7188   4.816   4.251   3.770
 2097SOL     OW 7189   6.530   4.001   6.297
 2097SOL    HW1 7190   6.450   3.952   6.332
 2097SOL    HW2 7191   6.570   3.949   6.221
 2098SOL     OW 7192   4.124   0.079   4.046
 2098SOL    HW1 7193   4.205   0.067   4.103
 2098SOL    HW2 7194   4.116   0.175   4.019
 2099SOL     OW 7195   2.690   1.827   3.460
 2099SOL    HW1 7196   2.743   1.810   3.378
 2099SOL    HW2 7197   2.624   1.901   3.443
 2100SOL     OW 7198   3.960   4.663   6.545
 2100SOL    HW1 7199   4.032   4.665   6.615
 2100SOL    HW2 7200   3.958   4.573   6.501
 2101SOL     OW 7201   6.448   0.295   2.034
 2101SOL    HW1 7202   6.439   0.394   2.050
 2101SOL    HW2 7203   6.542   0.275   2.008
 2102SOL     OW 7204   6.689   5.229   1.707
 2102SOL    HW1 7205   6.660   5.323   1.724
 2102SOL    HW2 7206   6.789   5.224   1.704
 2103SOL     OW 7207   3.439   3.276   6.152
 2103SOL    HW1 7208   3.409   3.241   6.241
 2103SOL    HW2 7209   3.371   3.254   6.082
 2104SOL     OW 7210   1.528   4.489   5.789
 2104SOL    HW1 7211   1.546   4.575   5.837
 2104SOL    HW2 7212   1.589   4.418   5.824
 2105SOL     OW 7213   5.561   6.454   2.067
 2105SOL    HW1 7214   5.547   6.416   2.159
 2105SOL    HW2 7215   5.507   6.403   2.001
 2106SOL     OW 7216   5.755   6.032   6.469
 2106SOL    HW1 7217   5.823   6.003   6.535
 2106SOL    HW2 7218   5.794   6.030   6.377
 2107SOL     OW 7219   2.428   4.952   0.583
 2107SOL    HW1 7220   2.446   4.857   0.609
 2107SOL    HW2 7221   2.467   5.013   0.652
 2108SOL     OW 7222   6.099   4.217   6.733
 2108SOL    HW1 7223   6.041   4.294   6.709
 2108SOL    HW2 7224   6.094   4.147   6.662
 2109SOL     OW 7225   5.616   5.693   2.158
 2109SOL    HW1 7226   5.706   5.736   2.152
 2109SOL    HW2 7227   5.552   5.742   2.099
 2110SOL     OW 7228   1.404   5.043   5.297
 2110SOL    HW1 7229   1.329   5.108   5.305
 2110SOL    HW2 7230   1.377   4.955   5.338
 2111SOL     OW 7231   1.946   2.387   0.259
 2111SOL    HW1 7232   1.886   2.433   0.193
 2111SOL    HW2 7233   1.982   2.303   0.218
 2112SOL     OW 7234   5.176   3.918   0.355
 2112SOL    HW1 7235   5.266   3.954   0.329
 2112SOL    HW2 7236   5.183   3.869   0.442
 2113SOL     OW 7237   6.653   1.972   3.232
 2113SOL    HW1 7238   6.615   1.900   3.174
 2113SOL    HW2 7239   6.635   2.061   3.190
 2114SOL     OW 7240   1.407   3.448   0.059
 2114SOL    HW1 7241   1.363   3.494   0.137
 2114SOL    HW2 7242   1.482   3.505   0.025
 2115SOL     OW 7243   3.458   5.574   1.893
 2115SOL    HW1 7244   3.435   5.587   1.990
 2115SOL    HW2 7245   3.549   5.534   1.885
 2116SOL     OW 7246   0.936   3.729   4.330
 2116SOL    HW1 7247   1.006   3.739   4.260
 2116SOL    HW2 7248   0.950   3.797   4.402
 2117SOL     OW 7249   6.977   5.759   6.065
 2117SOL    HW1 7250   6.981   5.859   6.060
 2117SOL    HW2 7251   6.884   5.731   6.089
 2118SOL     OW 7252   6.906   3.700   1.831
 2118SOL    HW1 7253   6.822   3.690   1.885
 2118SOL    HW2 7254   6.883   3.698   1.734
 2119SOL     OW 7255   4.091   6.351   0.506
 2119SOL    HW1 7256   3.996   6.369   0.535
 2119SOL    HW2 7257   4.117   6.258   0.535
 2120SOL     OW 7258   6.375   4.421   2.249
 2120SOL    HW1 7259   6.323   4.337   2.243
 2120SOL    HW2 7260   6.450   4.418   2.182
 2121SOL     OW 7261   0.650   3.680   4.845
 2121SOL    HW1 7262   0.566   3.629   4.824
 2121SOL    HW2 7263   0.655   3.696   4.944
 2122SOL     OW 7264   4.217   5.331   5.678
 2122SOL    HW1 7265   4.169   5.267   5.618
 2122SOL    HW2 7266   4.292   5.283   5.724
 2123SOL     OW 7267   4.725   4.803   3.575
 2123SOL    HW1 7268   4.713   4.737   3.501
 2123SOL    HW2 7269   4.663   4.780   3.651
 2124SOL     OW 7270   2.783   1.916   1.526
 2124SOL    HW1 7271   2.692   1.900   1.488
 2124SOL    HW2 7272   2.826   1.992   1.477
 2125SOL     OW 7273   5.127   5.755   0.868
 2125SOL    HW1 7274   5.084   5.666   0.857
 2125SOL    HW2 7275   5.077   5.809   0.936
 2126SOL     OW 7276   3.094   1.120   1.657
 2126SOL    HW1 7277   3.127   1.119   1.751
 2126SOL    HW2 7278   3.022   1.188   1.647
 2127SOL     OW 7279   5.808   2.941   5.060
 2127SOL    HW1 7280   5.839   2.984   4.975
 2127SOL    HW2 7281   5.716   2.904   5.047
 2128SOL     OW 7282   0.248   3.713   4.329
 2128SOL    HW1 7283   0.304   3.722   4.412
 2128SOL    HW2 7284   0.154   3.741   4.349
 2129SOL     OW 7285   4.426   2.307   5.216
 2129SOL    HW1 7286   4.414   2.220   5.170
 2129SOL    HW2 7287   4.419   2.382   5.150
 2130SOL     OW 7288   5.241   0.797   3.407
 2130SOL    HW1 7289   5.228   0.730   3.333
 2130SOL    HW2 7290   5.250   0.750   3.494
 2131SOL     OW 7291   5.307   1.690   6.559
 2131SOL    HW1 7292   5.308   1.724   6.653
 2131SOL    HW2 7293   5.217   1.708   6.518
 2132SOL     OW 7294   1.828   3.438   0.955
 2132SOL    HW1 7295   1.795   3.463   0.864
 2132SOL    HW2 7296   1.879   3.351   0.949
 2133SOL     OW 7297   2.233   4.296   6.440
 2133SOL    HW1 7298   2.140   4.329   6.423
 2133SOL    HW2 7299   2.296   4.374   6.445
 2134SOL     OW 7300   0.152   6.466   0.728
 2134SOL    HW1 7301   0.226   6.488   0.665
 2134SOL    HW2 7302   0.092   6.398   0.686
 2135SOL     OW 7303   6.834   4.709   5.372
 2135SOL    HW1 7304   6.853   4.752   5.460
 2135SOL    HW2 7305   6.905   4.642   5.351
 2136SOL     OW 7306   1.674   5.368   0.083
 2136SOL    HW1 7307   1.622   5.454   0.084
 2136SOL    HW2 7308   1.742   5.372   0.010
 2137SOL     OW 7309   1.363   6.694   3.388
 2137SOL    HW1 7310   1.324   6.733   3.304
 2137SOL    HW2 7311   1.320   6.737   3.467
 2138SOL     OW 7312   5.247   1.993   2.108
 2138SOL    HW1 7313   5.318   2.064   2.115
 2138SOL    HW2 7314   5.201   2.001   2.020
 2139SOL     OW 7315   2.633   6.650   5.748
 2139SOL    HW1 7316   2.687   6.615   5.671
 2139SOL    HW2 7317   2.681   6.727   5.790
 2140SOL     OW 7318   2.495   1.697   3.807
 2140SOL    HW1 7319   2.517   1.743   3.893
 2140SOL    HW2 7320   2.479   1.766   3.736
 2141SOL     OW 7321   6.518   3.378   3.623
 2141SOL    HW1 7322   6.558   3.430   3.548
 2141SOL    HW2 7323   6.421   3.364   3.606
 2142SOL     OW 7324   1.746   2.597   2.328
 2142SOL    HW1 7325   1.647   2.580   2.328
 2142SOL    HW2 7326   1.778   2.605   2.234
 2143SOL     OW 7327   0.124   5.301   5.719
 2143SOL    HW1 7328   0.048   5.253   5.677
 2143SOL    HW2 7329   0.093   5.390   5.754
 2144SOL     OW 7330   6.349   4.793   3.364
 2144SOL    HW1 7331   6.425   4.762   3.306
 2144SOL    HW2 7332   6.263   4.780   3.315
 2145SOL     OW 7333   4.193   1.442   2.986
 2145SOL    HW1 7334   4.110   1.478   2.944
 2145SOL    HW2 7335   4.258   1.516   3.001
 2146SOL     OW 7336   1.569   1.740   6.501
 2146SOL    HW1 7337   1.584   1.837   6.520
 2146SOL    HW2 7338   1.573   1.689   6.587
 2147SOL     OW 7339   5.842   6.494   4.656
 2147SOL    HW1 7340   5.831   6.589   4.625
 2147SOL    HW2 7341   5.792   6.433   4.595
 2148SOL     OW 7342   0.398   2.076   4.844
 2148SOL    HW1 7343   0.367   2.084   4.939
 2148SOL    HW2 7344   0.321   2.092   4.782
 2149SOL     OW 7345   0.903   6.138   0.002
 2149SOL    HW1 7346   0.925   6.230   6.993
 2149SOL    HW2 7347   0.841   6.094   6.960
 2150SOL     OW 7348   1.894   2.756   0.820
 2150SOL    HW1 7349   1.865   2.849   0.798
 2150SOL    HW2 7350   1.864   2.734   0.913
 2151SOL     OW 7351   0.633   4.696   6.757
 2151SOL    HW1 7352   0.593   4.743   6.679
 2151SOL    HW2 7353   0.730   4.681   6.741
 2152SOL     OW 7354   5.039   6.268   3.803
 2152SOL    HW1 7355   4.997   6.203   3.866
 2152SOL    HW2 7356   5.005   6.360   3.822
 2153SOL     OW 7357   5.272   0.099   3.727
 2153SOL    HW1 7358   5.189   0.144   3.694
 2153SOL    HW2 7359   5.250   0.004   3.751
 2154SOL     OW 7360   2.672   6.693   2.428
 2154SOL    HW1 7361   2.583   6.672   2.467
 2154SOL    HW2 7362   2.724   6.608   2.416
 2155SOL     OW 7363   4.383   0.971   1.153
 2155SOL    HW1 7364   4.400   0.952   1.056
 2155SOL    HW2 7365   4.359   1.067   1.165
 2156SOL     OW 7366   6.194   2.363   5.271
 2156SOL    HW1 7367   6.188   2.282   5.330
 2156SOL    HW2 7368   6.102   2.398   5.254
 2157SOL     OW 7369   4.053   6.359   4.582
 2157SOL    HW1 7370   4.049   6.259   4.570
 2157SOL    HW2 7371   4.123   6.381   4.650
 2158SOL     OW 7372   2.907   6.905   0.772
 2158SOL    HW1 7373   2.837   6.976   0.781
 2158SOL    HW2 7374   2.876   6.838   0.705
 2159SOL     OW 7375   0.433   0.663   5.838
 2159SOL    HW1 7376   0.495   0.711   5.901
 2159SOL    HW2 7377   0.346   0.711   5.833
 2160SOL     OW 7378   5.325   6.860   6.460
 2160SOL    HW1 7379   5.281   6.812   6.536
 2160SOL    HW2 7380   5.283   6.950   6.448
 2161SOL     OW 7381   1.563   3.956   0.755
 2161SOL    HW1 7382   1.486   4.015   0.729
 2161SOL    HW2 7383   1.644   3.983   0.703
 2162SOL     OW 7384   2.195   0.249   0.844
 2162SOL    HW1 7385   2.146   0.243   0.757
 2162SOL    HW2 7386   2.132   0.271   0.918
 2163SOL     OW 7387   1.453   3.276   3.691
 2163SOL    HW1 7388   1.355   3.259   3.700
 2163SOL    HW2 7389   1.496   3.201   3.641
 2164SOL     OW 7390   2.105   3.659   2.021
 2164SOL    HW1 7391   2.165   3.583   1.995
 2164SOL    HW2 7392   2.151   3.716   2.089
 2165SOL     OW 7393   6.224   1.467   4.688
 2165SOL    HW1 7394   6.275   1.381   4.687
 2165SOL    HW2 7395   6.179   1.478   4.777
 2166SOL     OW 7396   0.104   3.054   1.640
 2166SOL    HW1 7397   0.113   3.143   1.595
 2166SOL    HW2 7398   0.173   2.991   1.604
 2167SOL     OW 7399   1.126   2.450   3.315
 2167SOL    HW1 7400   1.146   2.362   3.271
 2167SOL    HW2 7401   1.165   2.449   3.407
 2168SOL     OW 7402   1.660   2.235   3.348
 2168SOL    HW1 7403   1.613   2.258   3.434
 2168SOL    HW2 7404   1.640   2.141   3.323
 2169SOL     OW 7405   6.608   0.214   1.142
 2169SOL    HW1 7406   6.603   0.177   1.235
 2169SOL    HW2 7407   6.703   0.235   1.120
 2170SOL     OW 7408   1.588   3.426   6.304
 2170SOL    HW1 7409   1.617   3.347   6.249
 2170SOL    HW2 7410   1.530   3.485   6.249
 2171SOL     OW 7411   7.000   6.041   0.974
 2171SOL    HW1 7412   6.902   6.021   0.967
 2171SOL    HW2 7413   7.015   6.108   1.047
 2172SOL     OW 7414   2.745   2.359   5.032
 2172SOL    HW1 7415   2.703   2.426   5.093
 2172SOL    HW2 7416   2.687   2.346   4.952
 2173SOL     OW 7417   4.533   0.615   4.613
 2173SOL    HW1 7418   4.568   0.565   4.693
 2173SOL    HW2 7419   4.437   0.592   4.600
 2174SOL     OW 7420   5.524   0.195   6.190
 2174SOL    HW1 7421   5.612   0.243   6.180
 2174SOL    HW2 7422   5.508   0.175   6.287
 2175SOL     OW 7423   3.381   3.421   5.851
 2175SOL    HW1 7424   3.358   3.465   5.764
 2175SOL    HW2 7425   3.474   3.446   5.877
 2176SOL     OW 7426   5.970   1.928   3.070
 2176SOL    HW1 7427   6.003   1.899   3.159
 2176SOL    HW2 7428   5.948   1.848   3.014
 2177SOL     OW 7429   0.869   1.044   4.951
 2177SOL    HW1 7430   0.811   1.013   4.876
 2177SOL    HW2 7431   0.836   1.133   4.984
 2178SOL     OW 7432   1.778   2.596   2.622
 2178SOL    HW1 7433   1.708   2.539   2.666
 2178SOL    HW2 7434   1.755   2.610   2.526
 2179SOL     OW 7435   0.997   3.803   0.082
 2179SOL    HW1 7436   0.907   3.841   0.061
 2179SOL    HW2 7437   1.068   3.867   0.053
 2180SOL     OW 7438   0.358   5.662   2.659
 2180SOL    HW1 7439   0.400   5.690   2.573
 2180SOL    HW2 7440   0.299   5.583   2.644
 2181SOL     OW 7441   4.221   4.825   4.576
 2181SOL    HW1 7442   4.313   4.788   4.590
 2181SOL    HW2 7443   4.203   4.834   4.478
 2182SOL     OW 7444   6.750   6.451   1.344
 2182SOL    HW1 7445   6.691   6.464   1.423
 2182SOL    HW2 7446   6.754   6.535   1.290
 2183SOL     OW 7447   3.255   3.212   6.639
 2183SOL    HW1 7448   3.161   3.205   6.606
 2183SOL    HW2 7449   3.267   3.156   6.720
 2184SOL     OW 7450   6.250   1.668   0.340
 2184SOL    HW1 7451   6.202   1.702   0.420
 2184SOL    HW2 7452   6.278   1.573   0.355
 2185SOL     OW 7453   0.979   1.384   6.026
 2185SOL    HW1 7454   0.906   1.354   6.088
 2185SOL    HW2 7455   0.939   1.434   5.950
 2186SOL     OW 7456   6.733   6.075   5.437
 2186SOL    HW1 7457   6.765   5.981   5.433
 2186SOL    HW2 7458   6.809   6.135   5.462
 2187SOL     OW 7459   5.645   4.532   1.603
 2187SOL    HW1 7460   5.587   4.580   1.668
 2187SOL    HW2 7461   5.716   4.593   1.570
 2188SOL     OW 7462   3.116   0.799   0.813
 2188SOL    HW1 7463   3.126   0.776   0.910
 2188SOL    HW2 7464   3.180   0.872   0.789
 2189SOL     OW 7465   2.012   0.511   2.535
 2189SOL    HW1 7466   2.057   0.443   2.477
 2189SOL    HW2 7467   1.913   0.497   2.531
 2190SOL     OW 7468   6.303   4.663   2.335
 2190SOL    HW1 7469   6.236   4.697   2.269
 2190SOL    HW2 7470   6.323   4.567   2.315
 2191SOL     OW 7471   3.713   0.299   6.401
 2191SOL    HW1 7472   3.626   0.347   6.388
 2191SOL    HW2 7473   3.781   0.337   6.338
 2192SOL     OW 7474   5.139   2.059   1.877
 2192SOL    HW1 7475   5.043   2.046   1.899
 2192SOL    HW2 7476   5.148   2.125   1.802
 2193SOL     OW 7477   2.047   0.546   4.753
 2193SOL    HW1 7478   1.980   0.609   4.712
 2193SOL    HW2 7479   2.010   0.511   4.839
 2194SOL     OW 7480   0.276   4.081   5.185
 2194SOL    HW1 7481   0.183   4.066   5.220
 2194SOL    HW2 7482   0.332   4.001   5.204
 2195SOL     OW 7483   0.020   3.859   4.943
 2195SOL    HW1 7484   0.038   3.954   4.917
 2195SOL    HW2 7485   6.986   3.857   5.025
 2196SOL     OW 7486   4.181   0.507   6.792
 2196SOL    HW1 7487   4.173   0.490   6.890
 2196SOL    HW2 7488   4.091   0.511   6.751
 2197SOL     OW 7489   3.305   5.422   6.684
 2197SOL    HW1 7490   3.325   5.520   6.683
 2197SOL    HW2 7491   3.210   5.406   6.657
 2198SOL     OW 7492   1.202   1.168   6.997
 2198SOL    HW1 7493   1.181   1.251   6.945
 2198SOL    HW2 7494   1.210   1.091   6.933
 2199SOL     OW 7495   4.126   6.825   3.636
 2199SOL    HW1 7496   4.053   6.756   3.643
 2199SOL    HW2 7497   4.172   6.834   3.725
 2200SOL     OW 7498   2.460   2.552   4.393
 2200SOL    HW1 7499   2.441   2.601   4.308
 2200SOL    HW2 7500   2.397   2.474   4.400
 2201SOL     OW 7501   5.655   3.862   4.775
 2201SOL    HW1 7502   5.754   3.851   4.772
 2201SOL    HW2 7503   5.622   3.891   4.685
 2202SOL     OW 7504   3.380   6.582   3.569
 2202SOL    HW1 7505   3.349   6.489   3.588
 2202SOL    HW2 7506   3.476   6.580   3.541
 2203SOL     OW 7507   2.362   5.462   1.095
 2203SOL    HW1 7508   2.434   5.394   1.077
 2203SOL    HW2 7509   2.274   5.427   1.064
 2204SOL     OW 7510   5.691   2.630   0.991
 2204SOL    HW1 7511   5.768   2.585   1.036
 2204SOL    HW2 7512   5.686   2.725   1.020
 2205SOL     OW 7513   5.772   5.928   0.817
 2205SOL    HW1 7514   5.744   5.873   0.895
 2205SOL    HW2 7515   5.871   5.942   0.818
 2206SOL     OW 7516   3.672   2.321   5.788
 2206SOL    HW1 7517   3.688   2.301   5.884
 2206SOL    HW2 7518   3.614   2.249   5.748
 2207SOL     OW 7519   4.641   5.714   1.866
 2207SOL    HW1 7520   4.574   5.736   1.936
 2207SOL    HW2 7521   4.608   5.637   1.811
 2208SOL     OW 7522   6.910   6.454   2.834
 2208SOL    HW1 7523   6.888   6.471   2.930
 2208SOL    HW2 7524   7.005   6.477   2.817
 2209SOL     OW 7525   2.861   5.454   3.257
 2209SOL    HW1 7526   2.770   5.472   3.220
 2209SOL    HW2 7527   2.862   5.477   3.354
 2210SOL     OW 7528   5.092   0.161   1.513
 2210SOL    HW1 7529   5.002   0.192   1.544
 2210SOL    HW2 7530   5.096   0.061   1.516
 2211SOL     OW 7531   1.268   2.091   1.482
 2211SOL    HW1 7532   1.213   2.100   1.565
 2211SOL    HW2 7533   1.333   2.166   1.476
 2212SOL     OW 7534   2.974   5.933   6.267
 2212SOL    HW1 7535   2.950   5.991   6.189
 2212SOL    HW2 7536   2.954   5.838   6.246
 2213SOL     OW 7537   3.625   1.777   4.709
 2213SOL    HW1 7538   3.552   1.809   4.649
 2213SOL    HW2 7539   3.713   1.797   4.667
 2214SOL     OW 7540   4.146   4.200   6.546
 2214SOL    HW1 7541   4.065   4.148   6.576
 2214SOL    HW2 7542   4.214   4.201   6.619
 2215SOL     OW 7543   4.903   5.776   0.235
 2215SOL    HW1 7544   4.808   5.755   0.261
 2215SOL    HW2 7545   4.951   5.690   0.216
 2216SOL     OW 7546   0.318   5.872   6.975
 2216SOL    HW1 7547   0.238   5.912   6.930
 2216SOL    HW2 7548   0.401   5.900   6.927
 2217SOL     OW 7549   3.876   1.480   3.557
 2217SOL    HW1 7550   3.866   1.405   3.491
 2217SOL    HW2 7551   3.937   1.451   3.631
 2218SOL     OW 7552   5.958   5.506   5.506
 2218SOL    HW1 7553   6.042   5.532   5.458
 2218SOL    HW2 7554   5.918   5.588   5.548
 2219SOL     OW 7555   5.146   1.889   0.401
 2219SOL    HW1 7556   5.124   1.980   0.436
 2219SOL    HW2 7557   5.241   1.888   0.368
 2220SOL     OW 7558   6.642   6.223   4.556
 2220SOL    HW1 7559   6.559   6.272   4.582
 2220SOL    HW2 7560   6.706   6.285   4.511
 2221SOL     OW 7561   5.690   0.619   4.495
 2221SOL    HW1 7562   5.694   0.619   4.396
 2221SOL    HW2 7563   5.706   0.526   4.529
 2222SOL     OW 7564   3.298   0.860   3.507
 2222SOL    HW1 7565   3.216   0.872   3.563
 2222SOL    HW2 7566   3.306   0.937   3.443
 2223SOL     OW 7567   0.883   0.157   5.246
 2223SOL    HW1 7568   0.934   0.102   5.180
 2223SOL    HW2 7569   0.924   0.249   5.250
 2224SOL     OW 7570   5.377   4.586   6.684
 2224SOL    HW1 7571   5.461   4.541   6.654
 2224SOL    HW2 7572   5.301   4.521   6.681
 2225SOL     OW 7573   6.544   6.619   1.054
 2225SOL    HW1 7574   6.547   6.644   0.957
 2225SOL    HW2 7575   6.478   6.545   1.068
 2226SOL     OW 7576   2.599   3.615   0.103
 2226SOL    HW1 7577   2.669   3.568   0.158
 2226SOL    HW2 7578   2.614   3.714   0.107
 2227SOL     OW 7579   3.819   2.104   2.262
 2227SOL    HW1 7580   3.776   2.093   2.172
 2227SOL    HW2 7581   3.859   2.017   2.291
 2228SOL     OW 7582   5.591   6.226   6.558
 2228SOL    HW1 7583   5.564   6.179   6.642
 2228SOL    HW2 7584   5.653   6.168   6.506
 2229SOL     OW 7585   2.981   3.207   4.310
 2229SOL    HW1 7586   3.045   3.180   4.382
 2229SOL    HW2 7587   3.008   3.166   4.223
 2230SOL     OW 7588   6.308   0.517   6.205
 2230SOL    HW1 7589   6.353   0.479   6.286
 2230SOL    HW2 7590   6.375   0.527   6.132
 2231SOL     OW 7591   1.682   0.413   6.154
 2231SOL    HW1 7592   1.604   0.447   6.102
 2231SOL    HW2 7593   1.733   0.348   6.099
 2232SOL     OW 7594   1.805   0.970   6.114
 2232SOL    HW1 7595   1.904   0.955   6.121
 2232SOL    HW2 7596   1.767   0.983   6.206
 2233SOL     OW 7597   3.166   4.765   1.159
 2233SOL    HW1 7598   3.134   4.762   1.254
 2233SOL    HW2 7599   3.124   4.690   1.107
 2234SOL     OW 7600   5.196   1.885   1.583
 2234SOL    HW1 7601   5.296   1.886   1.590
 2234SOL    HW2 7602   5.168   1.928   1.497
 2235SOL     OW 7603   0.736   2.207   2.540
 2235SOL    HW1 7604   0.689   2.176   2.458
 2235SOL    HW2 7605   0.754   2.128   2.600
 2236SOL     OW 7606   2.785   5.274   5.364
 2236SOL    HW1 7607   2.792   5.175   5.376
 2236SOL    HW2 7608   2.689   5.301   5.364
 2237SOL     OW 7609   6.623   6.374   6.241
 2237SOL    HW1 7610   6.552   6.310   6.212
 2237SOL    HW2 7611   6.683   6.330   6.307
 2238SOL     OW 7612   5.959   3.653   2.374
 2238SOL    HW1 7613   5.907   3.616   2.450
 2238SOL    HW2 7614   5.937   3.750   2.362
 2239SOL     OW 7615   4.096   0.359   2.861
 2239SOL    HW1 7616   4.165   0.428   2.882
 2239SOL    HW2 7617   4.036   0.347   2.940
 2240SOL     OW 7618   4.903   5.356   2.400
 2240SOL    HW1 7619   4.837   5.403   2.460
 2240SOL    HW2 7620   4.992   5.400   2.408
 2241SOL     OW 7621   0.715   1.938   2.650
 2241SOL    HW1 7622   0.619   1.948   2.675
 2241SOL    HW2 7623   0.761   1.880   2.717
 2242SOL     OW 7624   5.410   2.553   4.498
 2242SOL    HW1 7625   5.346   2.491   4.543
 2242SOL    HW2 7626   5.451   2.613   4.567
 2243SOL     OW 7627   2.637   6.948   0.566
 2243SOL    HW1 7628   2.639   6.957   0.666
 2243SOL    HW2 7629   2.641   6.851   0.541
 2244SOL     OW 7630   2.805   1.513   1.370
 2244SOL    HW1 7631   2.761   1.579   1.309
 2244SOL    HW2 7632   2.763   1.423   1.357
 2245SOL     OW 7633   0.539   0.516   6.939
 2245SOL    HW1 7634   0.635   0.545   6.947
 2245SOL    HW2 7635   0.511   0.472   0.002
 2246SOL     OW 7636   4.788   1.668   5.972
 2246SOL    HW1 7637   4.734   1.601   5.922
 2246SOL    HW2 7638   4.851   1.714   5.910
 2247SOL     OW 7639   2.822   3.464   2.012
 2247SOL    HW1 7640   2.902   3.409   1.985
 2247SOL    HW2 7641   2.757   3.405   2.060
 2248SOL     OW 7642   5.204   3.175   4.711
 2248SOL    HW1 7643   5.250   3.110   4.651
 2248SOL    HW2 7644   5.205   3.266   4.669
 2249SOL     OW 7645   2.516   6.118   3.643
 2249SOL    HW1 7646   2.598   6.151   3.596
 2249SOL    HW2 7647   2.542   6.051   3.713
 2250SOL     OW 7648   4.298   5.953   6.070
 2250SOL    HW1 7649   4.351   6.023   6.118
 2250SOL    HW2 7650   4.203   5.983   6.063
 2251SOL     OW 7651   4.589   6.669   4.938
 2251SOL    HW1 7652   4.686   6.676   4.915
 2251SOL    HW2 7653   4.547   6.597   4.883
 2252SOL     OW 7654   3.865   1.109   2.430
 2252SOL    HW1 7655   3.857   1.049   2.510
 2252SOL    HW2 7656   3.775   1.150   2.412
 2253SOL     OW 7657   0.518   3.932   1.720
 2253SOL    HW1 7658   0.558   3.945   1.629
 2253SOL    HW2 7659   0.428   3.889   1.711
 2254SOL     OW 7660   3.536   2.869   2.797
 2254SOL    HW1 7661   3.498   2.856   2.889
 2254SOL    HW2 7662   3.503   2.796   2.738
 2255SOL     OW 7663   1.267   2.434   6.554
 2255SOL    HW1 7664   1.252   2.467   6.460
 2255SOL    HW2 7665   1.231   2.501   6.619
 2256SOL     OW 7666   5.450   0.551   1.327
 2256SOL    HW1 7667   5.478   0.635   1.374
 2256SOL    HW2 7668   5.452   0.475   1.392
 2257SOL     OW 7669   0.226   0.203   5.452
 2257SOL    HW1 7670   0.200   0.251   5.536
 2257SOL    HW2 7671   0.320   0.226   5.429
 2258SOL     OW 7672   2.539   6.741   4.259
 2258SOL    HW1 7673   2.494   6.726   4.172
 2258SOL    HW2 7674   2.585   6.830   4.258
 2259SOL     OW 7675   5.984   1.051   4.389
 2259SOL    HW1 7676   5.912   1.079   4.326
 2259SOL    HW2 7677   5.994   0.951   4.386
 2260SOL     OW 7678   1.089   3.974   0.780
 2260SOL    HW1 7679   1.124   3.904   0.843
 2260SOL    HW2 7680   0.990   3.982   0.791
 2261SOL     OW 7681   5.242   4.708   6.282
 2261SOL    HW1 7682   5.296   4.770   6.339
 2261SOL    HW2 7683   5.146   4.712   6.310
 2262SOL     OW 7684   0.072   6.781   4.344
 2262SOL    HW1 7685   0.027   6.769   4.256
 2262SOL    HW2 7686   0.004   6.782   4.417
 2263SOL     OW 7687   1.807   4.110   6.780
 2263SOL    HW1 7688   1.811   4.196   6.831
 2263SOL    HW2 7689   1.875   4.111   6.707
 2264SOL     OW 7690   2.200   0.225   5.811
 2264SOL    HW1 7691   2.236   0.268   5.728
 2264SOL    HW2 7692   2.268   0.163   5.849
 2265SOL     OW 7693   6.992   6.610   4.051
 2265SOL    HW1 7694   6.906   6.649   4.019
 2265SOL    HW2 7695   6.999   6.515   4.022
 2266SOL     OW 7696   4.699   2.958   6.551
 2266SOL    HW1 7697   4.784   2.912   6.526
 2266SOL    HW2 7698   4.677   3.027   6.482
 2267SOL     OW 7699   5.870   3.055   4.825
 2267SOL    HW1 7700   5.885   2.960   4.798
 2267SOL    HW2 7701   5.880   3.114   4.746
 2268SOL     OW 7702   1.137   6.436   4.852
 2268SOL    HW1 7703   1.197   6.460   4.776
 2268SOL    HW2 7704   1.087   6.517   4.881
 2269SOL     OW 7705   1.798   2.320   5.553
 2269SOL    HW1 7706   1.728   2.299   5.622
 2269SOL    HW2 7707   1.798   2.419   5.535
 2270SOL     OW 7708   5.095   1.840   6.482
 2270SOL    HW1 7709   5.018   1.882   6.433
 2270SOL    HW2 7710   5.061   1.795   6.564
 2271SOL     OW 7711   3.930   5.964   5.501
 2271SOL    HW1 7712   3.834   5.981   5.524
 2271SOL    HW2 7713   3.975   5.917   5.576
 2272SOL     OW 7714   6.244   1.273   5.975
 2272SOL    HW1 7715   6.301   1.304   5.899
 2272SOL    HW2 7716   6.152   1.252   5.941
 2273SOL     OW 7717   0.753   3.113   3.514
 2273SOL    HW1 7718   0.703   3.029   3.532
 2273SOL    HW2 7719   0.782   3.115   3.418
 2274SOL     OW 7720   1.105   0.894   0.395
 2274SOL    HW1 7721   1.104   0.984   0.439
 2274SOL    HW2 7722   1.127   0.905   0.298
 2275SOL     OW 7723   5.667   3.864   3.262
 2275SOL    HW1 7724   5.613   3.891   3.183
 2275SOL    HW2 7725   5.689   3.945   3.317
 2276SOL     OW 7726   1.908   1.916   1.332
 2276SOL    HW1 7727   1.827   1.867   1.364
 2276SOL    HW2 7728   1.901   2.012   1.357
 2277SOL     OW 7729   3.840   3.017   3.467
 2277SOL    HW1 7730   3.751   2.970   3.466
 2277SOL    HW2 7731   3.883   3.008   3.378
 2278SOL     OW 7732   0.287   2.560   3.923
 2278SOL    HW1 7733   0.383   2.538   3.904
 2278SOL    HW2 7734   0.233   2.476   3.919
 2279SOL     OW 7735   1.190   4.844   5.886
 2279SOL    HW1 7736   1.095   4.850   5.915
 2279SOL    HW2 7737   1.196   4.790   5.802
 2280SOL     OW 7738   5.286   2.163   5.457
 2280SOL    HW1 7739   5.264   2.248   5.408
 2280SOL    HW2 7740   5.292   2.183   5.555
 2281SOL     OW 7741   5.395   6.924   2.633
 2281SOL    HW1 7742   5.387   6.981   2.551
 2281SOL    HW2 7743   5.325   6.853   2.631
 2282SOL     OW 7744   3.688   5.607   6.075
 2282SOL    HW1 7745   3.754   5.641   6.008
 2282SOL    HW2 7746   3.728   5.614   6.167
 2283SOL     OW 7747   0.051   0.815   4.646
 2283SOL    HW1 7748   0.041   0.887   4.715
 2283SOL    HW2 7749   7.001   0.823   4.578
 2284SOL     OW 7750   1.549   3.550   6.531
 2284SOL    HW1 7751   1.477   3.619   6.525
 2284SOL    HW2 7752   1.572   3.517   6.439
 2285SOL     OW 7753   1.444   4.388   0.030
 2285SOL    HW1 7754   1.351   4.352   0.026
 2285SOL    HW2 7755   1.507   4.316   0.060
 2286SOL     OW 7756   4.367   4.877   2.874
 2286SOL    HW1 7757   4.409   4.877   2.965
 2286SOL    HW2 7758   4.438   4.893   2.805
 2287SOL     OW 7759   1.253   1.521   4.327
 2287SOL    HW1 7760   1.220   1.429   4.306
 2287SOL    HW2 7761   1.201   1.588   4.274
 2288SOL     OW 7762   6.645   5.500   2.678
 2288SOL    HW1 7763   6.651   5.419   2.620
 2288SOL    HW2 7764   6.582   5.484   2.753
 2289SOL     OW 7765   0.577   5.246   0.548
 2289SOL    HW1 7766   0.569   5.345   0.536
 2289SOL    HW2 7767   0.609   5.227   0.641
 2290SOL     OW 7768   0.687   5.253   6.588
 2290SOL    HW1 7769   0.746   5.318   6.540
 2290SOL    HW2 7770   0.743   5.182   6.631
 2291SOL     OW 7771   2.037   1.707   0.162
 2291SOL    HW1 7772   2.109   1.683   0.227
 2291SOL    HW2 7773   2.069   1.781   0.103
 2292SOL     OW 7774   2.406   0.961   4.409
 2292SOL    HW1 7775   2.392   0.945   4.507
 2292SOL    HW2 7776   2.338   1.026   4.376
 2293SOL     OW 7777   5.645   4.000   2.585
 2293SOL    HW1 7778   5.685   3.908   2.589
 2293SOL    HW2 7779   5.558   3.997   2.535
 2294SOL     OW 7780   4.461   6.331   0.331
 2294SOL    HW1 7781   4.521   6.346   0.252
 2294SOL    HW2 7782   4.515   6.339   0.415
 2295SOL     OW 7783   0.952   1.479   2.031
 2295SOL    HW1 7784   0.977   1.527   2.115
 2295SOL    HW2 7785   1.002   1.519   1.954
 2296SOL     OW 7786   3.169   6.662   0.449
 2296SOL    HW1 7787   3.168   6.581   0.391
 2296SOL    HW2 7788   3.176   6.634   0.545
 2297SOL     OW 7789   4.493   6.652   6.719
 2297SOL    HW1 7790   4.443   6.707   6.652
 2297SOL    HW2 7791   4.479   6.690   6.810
 2298SOL     OW 7792   4.206   3.085   6.820
 2298SOL    HW1 7793   4.134   3.126   6.764
 2298SOL    HW2 7794   4.285   3.063   6.762
 2299SOL     OW 7795   4.417   0.091   0.561
 2299SOL    HW1 7796   4.378   0.094   0.653
 2299SOL    HW2 7797   4.382   0.168   0.507
 2300SOL     OW 7798   1.065   4.356   0.979
 2300SOL    HW1 7799   1.074   4.449   0.943
 2300SOL    HW2 7800   1.140   4.299   0.945
 2301SOL     OW 7801   4.005   3.688   1.807
 2301SOL    HW1 7802   4.023   3.768   1.864
 2301SOL    HW2 7803   3.907   3.666   1.809
 2302SOL     OW 7804   2.254   5.030   2.475
 2302SOL    HW1 7805   2.231   4.937   2.503
 2302SOL    HW2 7806   2.260   5.089   2.555
 2303SOL     OW 7807   6.957   3.085   5.457
 2303SOL    HW1 7808   6.864   3.047   5.454
 2303SOL    HW2 7809   7.008   3.040   5.530
 2304SOL     OW 7810   2.363   1.349   4.495
 2304SOL    HW1 7811   2.436   1.295   4.535
 2304SOL    HW2 7812   2.367   1.442   4.532
 2305SOL     OW 7813   4.231   4.616   1.774
 2305SOL    HW1 7814   4.327   4.590   1.772
 2305SOL    HW2 7815   4.175   4.535   1.789
 2306SOL     OW 7816   0.077   4.144   0.214
 2306SOL    HW1 7817   0.159   4.169   0.265
 2306SOL    HW2 7818   0.011   4.101   0.275
 2307SOL     OW 7819   0.583   1.603   2.696
 2307SOL    HW1 7820   0.529   1.675   2.741
 2307SOL    HW2 7821   0.537   1.514   2.709
 2308SOL     OW 7822   0.350   6.704   0.433
 2308SOL    HW1 7823   0.443   6.732   0.458
 2308SOL    HW2 7824   0.329   6.736   0.341
 2309SOL     OW 7825   3.412   4.818   5.740
 2309SOL    HW1 7826   3.447   4.726   5.722
 2309SOL    HW2 7827   3.391   4.826   5.837
 2310SOL     OW 7828   5.673   1.435   2.828
 2310SOL    HW1 7829   5.691   1.494   2.749
 2310SOL    HW2 7830   5.602   1.476   2.885
 2311SOL     OW 7831   2.595   0.514   2.625
 2311SOL    HW1 7832   2.690   0.538   2.601
 2311SOL    HW2 7833   2.555   0.462   2.550
 2312SOL     OW 7834   2.226   1.031   2.504
 2312SOL    HW1 7835   2.318   1.000   2.481
 2312SOL    HW2 7836   2.188   0.971   2.575
 2313SOL     OW 7837   5.171   3.674   1.817
 2313SOL    HW1 7838   5.075   3.692   1.793
 2313SOL    HW2 7839   5.180   3.579   1.849
 2314SOL     OW 7840   6.695   6.176   2.888
 2314SOL    HW1 7841   6.698   6.177   2.988
 2314SOL    HW2 7842   6.652   6.260   2.855
 2315SOL     OW 7843   4.254   5.707   4.652
 2315SOL    HW1 7844   4.274   5.654   4.570
 2315SOL    HW2 7845   4.270   5.651   4.733
 2316SOL     OW 7846   2.767   1.307   5.825
 2316SOL    HW1 7847   2.694   1.247   5.794
 2316SOL    HW2 7848   2.831   1.324   5.750
 2317SOL     OW 7849   0.230   5.381   2.885
 2317SOL    HW1 7850   0.186   5.446   2.947
 2317SOL    HW2 7851   0.256   5.428   2.800
 2318SOL     OW 7852   1.035   4.681   4.983
 2318SOL    HW1 7853   0.953   4.684   4.927
 2318SOL    HW2 7854   1.012   4.649   5.075
 2319SOL     OW 7855   1.701   5.105   3.484
 2319SOL    HW1 7856   1.777   5.043   3.467
 2319SOL    HW2 7857   1.626   5.083   3.422
 2320SOL     OW 7858   0.875   2.024   5.131
 2320SOL    HW1 7859   0.902   2.027   5.228
 2320SOL    HW2 7860   0.934   1.960   5.082
 2321SOL     OW 7861   1.731   4.403   5.460
 2321SOL    HW1 7862   1.797   4.477   5.473
 2321SOL    HW2 7863   1.713   4.392   5.362
 2322SOL     OW 7864   1.651   3.838   2.045
 2322SOL    HW1 7865   1.691   3.801   1.961
 2322SOL    HW2 7866   1.639   3.936   2.036
 2323SOL     OW 7867   2.538   5.113   0.804
 2323SOL    HW1 7868   2.545   5.192   0.742
 2323SOL    HW2 7869   2.630   5.080   0.825
 2324SOL     OW 7870   6.464   5.061   2.902
 2324SOL    HW1 7871   6.410   5.126   2.956
 2324SOL    HW2 7872   6.405   5.014   2.837
 2325SOL     OW 7873   6.425   5.365   1.884
 2325SOL    HW1 7874   6.411   5.359   1.785
 2325SOL    HW2 7875   6.411   5.460   1.914
 2326SOL     OW 7876   1.906   0.320   0.235
 2326SOL    HW1 7877   1.929   0.417   0.233
 2326SOL    HW2 7878   1.851   0.297   0.155
 2327SOL     OW 7879   0.268   6.754   2.268
 2327SOL    HW1 7880   0.307   6.682   2.325
 2327SOL    HW2 7881   0.170   6.739   2.256
 2328SOL     OW 7882   2.073   3.566   2.764
 2328SOL    HW1 7883   2.021   3.651   2.775
 2328SOL    HW2 7884   2.098   3.555   2.668
 2329SOL     OW 7885   0.365   5.256   3.083
 2329SOL    HW1 7886   0.457   5.232   3.053
 2329SOL    HW2 7887   0.317   5.304   3.009
 2330SOL     OW 7888   6.443   3.340   0.939
 2330SOL    HW1 7889   6.471   3.429   0.975
 2330SOL    HW2 7890   6.344   3.338   0.927
 2331SOL     OW 7891   4.896   5.975   1.388
 2331SOL    HW1 7892   4.951   5.933   1.459
 2331SOL    HW2 7893   4.826   6.034   1.429
 2332SOL     OW 7894   6.180   6.859   6.127
 2332SOL    HW1 7895   6.086   6.873   6.097
 2332SOL    HW2 7896   6.241   6.858   6.048
 2333SOL     OW 7897   0.489   4.459   2.134
 2333SOL    HW1 7898   0.436   4.388   2.182
 2333SOL    HW2 7899   0.569   4.484   2.189
 2334SOL     OW 7900   2.469   1.820   6.487
 2334SOL    HW1 7901   2.554   1.860   6.522
 2334SOL    HW2 7902   2.395   1.886   6.497
 2335SOL     OW 7903   6.773   1.432   3.333
 2335SOL    HW1 7904   6.675   1.433   3.314
 2335SOL    HW2 7905   6.789   1.454   3.430
 2336SOL     OW 7906   1.421   1.546   3.145
 2336SOL    HW1 7907   1.349   1.588   3.200
 2336SOL    HW2 7908   1.505   1.599   3.153
 2337SOL     OW 7909   4.532   1.991   1.736
 2337SOL    HW1 7910   4.617   1.962   1.780
 2337SOL    HW2 7911   4.455   1.939   1.774
 2338SOL     OW 7912   0.299   3.855   3.352
 2338SOL    HW1 7913   0.250   3.787   3.297
 2338SOL    HW2 7914   0.276   3.947   3.320
 2339SOL     OW 7915   3.293   3.116   2.720
 2339SOL    HW1 7916   3.223   3.132   2.650
 2339SOL    HW2 7917   3.249   3.083   2.804
 2340SOL     OW 7918   2.068   4.402   0.048
 2340SOL    HW1 7919   2.031   4.310   0.063
 2340SOL    HW2 7920   2.162   4.406   0.080
 2341SOL     OW 7921   2.387   4.491   4.059
 2341SOL    HW1 7922   2.403   4.539   3.973
 2341SOL    HW2 7923   2.448   4.526   4.130
 2342SOL     OW 7924   3.174   1.042   3.879
 2342SOL    HW1 7925   3.258   1.026   3.930
 2342SOL    HW2 7926   3.097   1.048   3.942
 2343SOL     OW 7927   1.041   0.225   1.564
 2343SOL    HW1 7928   1.106   0.186   1.630
 2343SOL    HW2 7929   0.978   0.154   1.533
 2344SOL     OW 7930   5.457   3.781   0.445
 2344SOL    HW1 7931   5.393   3.732   0.504
 2344SOL    HW2 7932   5.547   3.785   0.490
 2345SOL     OW 7933   3.039   5.997   4.785
 2345SOL    HW1 7934   3.101   5.920   4.797
 2345SOL    HW2 7935   3.076   6.060   4.717
 2346SOL     OW 7936   4.141   3.618   6.693
 2346SOL    HW1 7937   4.153   3.549   6.622
 2346SOL    HW2 7938   4.222   3.677   6.697
 2347SOL     OW 7939   1.595   2.142   1.788
 2347SOL    HW1 7940   1.531   2.197   1.842
 2347SOL    HW2 7941   1.545   2.074   1.735
 2348SOL     OW 7942   0.153   5.130   2.236
 2348SOL    HW1 7943   0.227   5.121   2.303
 2348SOL    HW2 7944   0.100   5.045   2.233
 2349SOL     OW 7945   0.681   4.050   5.311
 2349SOL    HW1 7946   0.601   4.048   5.371
 2349SOL    HW2 7947   0.712   3.957   5.293
 2350SOL     OW 7948   5.782   2.997   7.007
 2350SOL    HW1 7949   5.812   3.039   6.921
 2350SOL    HW2 7950   5.703   3.048   0.020
 2351SOL     OW 7951   2.792   5.359   2.334
 2351SOL    HW1 7952   2.758   5.367   2.240
 2351SOL    HW2 7953   2.789   5.264   2.363
 2352SOL     OW 7954   0.255   2.605   3.314
 2352SOL    HW1 7955   0.159   2.578   3.316
 2352SOL    HW2 7956   0.270   2.667   3.237
 2353SOL     OW 7957   3.405   5.408   4.755
 2353SOL    HW1 7958   3.419   5.507   4.750
 2353SOL    HW2 7959   3.335   5.380   4.689
 2354SOL     OW 7960   2.060   3.038   3.625
 2354SOL    HW1 7961   1.969   3.079   3.627
 2354SOL    HW2 7962   2.128   3.108   3.647
 2355SOL     OW 7963   2.365   6.166   4.577
 2355SOL    HW1 7964   2.429   6.092   4.553
 2355SOL    HW2 7965   2.354   6.226   4.498
 2356SOL     OW 7966   6.386   3.017   6.977
 2356SOL    HW1 7967   6.381   3.116   6.966
 2356SOL    HW2 7968   6.472   2.983   6.941
 2357SOL     OW 7969   2.485   6.490   2.536
 2357SOL    HW1 7970   2.498   6.417   2.469
 2357SOL    HW2 7971   2.425   6.458   2.609
 2358SOL     OW 7972   3.436   4.859   6.260
 2358SOL    HW1 7973   3.346   4.818   6.251
 2358SOL    HW2 7974   3.440   4.912   6.345
 2359SOL     OW 7975   1.906   6.870   4.860
 2359SOL    HW1 7976   1.993   6.830   4.888
 2359SOL    HW2 7977   1.880   6.834   4.770
 2360SOL     OW 7978   6.648   3.888   0.147
 2360SOL    HW1 7979   6.676   3.793   0.158
 2360SOL    HW2 7980   6.691   3.944   0.218
 2361SOL     OW 7981   3.628   1.415   0.065
 2361SOL    HW1 7982   3.549   1.423   0.004
 2361SOL    HW2 7983   3.624   1.487   0.135
 2362SOL     OW 7984   3.052   5.612   3.544
 2362SOL    HW1 7985   3.041   5.691   3.484
 2362SOL    HW2 7986   2.962   5.581   3.575
 2363SOL     OW 7987   4.034   0.335   4.302
 2363SOL    HW1 7988   4.070   0.348   4.210
 2363SOL    HW2 7989   3.946   0.287   4.297
 2364SOL     OW 7990   1.012   2.527   0.932
 2364SOL    HW1 7991   1.095   2.492   0.976
 2364SOL    HW2 7992   1.038   2.578   0.850
 2365SOL     OW 7993   5.107   2.567   6.605
 2365SOL    HW1 7994   5.033   2.554   6.672
 2365SOL    HW2 7995   5.147   2.479   6.582
 2366SOL     OW 7996   4.218   5.530   0.689
 2366SOL    HW1 7997   4.255   5.450   0.641
 2366SOL    HW2 7998   4.238   5.612   0.637
 2367SOL     OW 7999   2.387   3.292   6.270
 2367SOL    HW1 8000   2.346   3.383   6.268
 2367SOL    HW2 8001   2.474   3.295   6.320
 2368SOL     OW 8002   6.161   5.802   2.336
 2368SOL    HW1 8003   6.077   5.766   2.297
 2368SOL    HW2 8004   6.223   5.726   2.357
 2369SOL     OW 8005   2.436   0.872   3.398
 2369SOL    HW1 8006   2.528   0.898   3.369
 2369SOL    HW2 8007   2.417   0.778   3.371
 2370SOL     OW 8008   6.515   2.088   6.418
 2370SOL    HW1 8009   6.563   2.000   6.425
 2370SOL    HW2 8010   6.443   2.081   6.348
 2371SOL     OW 8011   2.760   6.542   1.620
 2371SOL    HW1 8012   2.805   6.531   1.532
 2371SOL    HW2 8013   2.821   6.589   1.684
 2372SOL     OW 8014   6.537   2.706   2.842
 2372SOL    HW1 8015   6.599   2.631   2.820
 2372SOL    HW2 8016   6.471   2.717   2.768
 2373SOL     OW 8017   2.449   3.481   6.540
 2373SOL    HW1 8018   2.457   3.579   6.560
 2373SOL    HW2 8019   2.356   3.460   6.511
 2374SOL     OW 8020   6.118   3.229   4.927
 2374SOL    HW1 8021   6.202   3.182   4.954
 2374SOL    HW2 8022   6.062   3.169   4.870
 2375SOL     OW 8023   2.743   6.551   5.084
 2375SOL    HW1 8024   2.829   6.556   5.133
 2375SOL    HW2 8025   2.685   6.480   5.124
 2376SOL     OW 8026   6.350   2.961   4.393
 2376SOL    HW1 8027   6.406   2.883   4.420
 2376SOL    HW2 8028   6.358   2.975   4.295
 2377SOL     OW 8029   3.892   3.050   3.744
 2377SOL    HW1 8030   3.836   2.998   3.809
 2377SOL    HW2 8031   3.881   3.011   3.653
 2378SOL     OW 8032   5.349   2.764   0.146
 2378SOL    HW1 8033   5.396   2.724   0.068
 2378SOL    HW2 8034   5.286   2.697   0.185
 2379SOL     OW 8035   0.083   6.753   6.874
 2379SOL    HW1 8036   0.072   6.836   6.929
 2379SOL    HW2 8037   0.069   6.673   6.932
 2380SOL     OW 8038   6.280   1.989   2.396
 2380SOL    HW1 8039   6.203   1.926   2.409
 2380SOL    HW2 8040   6.245   2.074   2.357
 2381SOL     OW 8041   1.615   6.617   3.103
 2381SOL    HW1 8042   1.547   6.655   3.040
 2381SOL    HW2 8043   1.572   6.547   3.160
 2382SOL     OW 8044   1.517   3.733   5.645
 2382SOL    HW1 8045   1.599   3.771   5.688
 2382SOL    HW2 8046   1.486   3.794   5.573
 2383SOL     OW 8047   6.017   6.195   1.702
 2383SOL    HW1 8048   5.926   6.206   1.662
 2383SOL    HW2 8049   6.029   6.101   1.732
 2384SOL     OW 8050   4.724   1.918   1.902
 2384SOL    HW1 8051   4.795   1.988   1.906
 2384SOL    HW2 8052   4.688   1.903   1.994
 2385SOL     OW 8053   0.578   2.197   0.068
 2385SOL    HW1 8054   0.555   2.153   0.155
 2385SOL    HW2 8055   0.546   2.140   7.015
 2386SOL     OW 8056   4.098   5.304   3.820
 2386SOL    HW1 8057   4.032   5.242   3.777
 2386SOL    HW2 8058   4.176   5.252   3.854
 2387SOL     OW 8059   1.811   1.121   2.810
 2387SOL    HW1 8060   1.869   1.048   2.845
 2387SOL    HW2 8061   1.829   1.135   2.713
 2388SOL     OW 8062   6.796   1.514   3.975
 2388SOL    HW1 8063   6.835   1.606   3.964
 2388SOL    HW2 8064   6.713   1.520   4.030
 2389SOL     OW 8065   3.804   6.337   2.318
 2389SOL    HW1 8066   3.795   6.270   2.243
 2389SOL    HW2 8067   3.882   6.397   2.299
 2390SOL     OW 8068   2.959   4.040   1.631
 2390SOL    HW1 8069   3.028   3.986   1.582
 2390SOL    HW2 8070   3.004   4.099   1.697
 2391SOL     OW 8071   3.787   5.375   5.637
 2391SOL    HW1 8072   3.802   5.432   5.557
 2391SOL    HW2 8073   3.757   5.431   5.714
 2392SOL     OW 8074   4.347   1.141   6.116
 2392SOL    HW1 8075   4.396   1.217   6.159
 2392SOL    HW2 8076   4.371   1.056   6.163
 2393SOL     OW 8077   3.822   5.215   5.411
 2393SOL    HW1 8078   3.760   5.257   5.478
 2393SOL    HW2 8079   3.839   5.279   5.336
 2394SOL     OW 8080   6.840   4.765   5.623
 2394SOL    HW1 8081   6.797   4.836   5.679
 2394SOL    HW2 8082   6.894   4.705   5.682
 2395SOL     OW 8083   4.439   6.989   6.206
 2395SOL    HW1 8084   4.506   6.998   6.132
 2395SOL    HW2 8085   4.403   0.057   6.230
 2396SOL     OW 8086   3.621   4.788   0.595
 2396SOL    HW1 8087   3.720   4.785   0.609
 2396SOL    HW2 8088   3.574   4.764   0.680
 2397SOL     OW 8089   0.057   4.110   3.816
 2397SOL    HW1 8090   0.055   4.116   3.716
 2397SOL    HW2 8091   0.007   4.029   3.845
 2398SOL     OW 8092   4.567   4.108   5.724
 2398SOL    HW1 8093   4.641   4.147   5.780
 2398SOL    HW2 8094   4.486   4.166   5.731
 2399SOL     OW 8095   4.271   2.213   1.631
 2399SOL    HW1 8096   4.317   2.240   1.546
 2399SOL    HW2 8097   4.217   2.130   1.614
 2400SOL     OW 8098   2.123   5.254   1.156
 2400SOL    HW1 8099   2.053   5.182   1.148
 2400SOL    HW2 8100   2.161   5.253   1.248
 2401SOL     OW 8101   0.255   6.269   6.439
 2401SOL    HW1 8102   0.181   6.203   6.423
 2401SOL    HW2 8103   0.258   6.334   6.363
 2402SOL     OW 8104   6.663   6.431   4.357
 2402SOL    HW1 8105   6.568   6.400   4.354
 2402SOL    HW2 8106   6.668   6.525   4.325
 2403SOL     OW 8107   0.340   1.110   5.234
 2403SOL    HW1 8108   0.312   1.044   5.165
 2403SOL    HW2 8109   0.280   1.190   5.231
 2404SOL     OW 8110   1.478   0.705   0.222
 2404SOL    HW1 8111   1.506   0.744   0.135
 2404SOL    HW2 8112   1.439   0.614   0.208
 2405SOL     OW 8113   2.995   3.683   1.577
 2405SOL    HW1 8114   2.944   3.655   1.659
 2405SOL    HW2 8115   2.995   3.783   1.572
 2406SOL     OW 8116   4.613   1.123   1.516
 2406SOL    HW1 8117   4.615   1.070   1.431
 2406SOL    HW2 8118   4.606   1.062   1.594
 2407SOL     OW 8119   5.184   0.500   3.993
 2407SOL    HW1 8120   5.092   0.498   3.953
 2407SOL    HW2 8121   5.228   0.587   3.970
 2408SOL     OW 8122   4.421   4.486   2.154
 2408SOL    HW1 8123   4.370   4.568   2.128
 2408SOL    HW2 8124   4.418   4.420   2.079
 2409SOL     OW 8125   1.013   4.413   0.429
 2409SOL    HW1 8126   1.045   4.441   0.338
 2409SOL    HW2 8127   0.949   4.336   0.419
 2410SOL     OW 8128   3.017   3.155   2.566
 2410SOL    HW1 8129   2.981   3.073   2.521
 2410SOL    HW2 8130   3.017   3.231   2.501
 2411SOL     OW 8131   4.321   6.951   4.151
 2411SOL    HW1 8132   4.258   6.885   4.189
 2411SOL    HW2 8133   4.399   6.963   4.213
 2412SOL     OW 8134   3.926   3.539   0.941
 2412SOL    HW1 8135   4.008   3.567   0.992
 2412SOL    HW2 8136   3.897   3.449   0.972
 2413SOL     OW 8137   4.156   0.100   2.751
 2413SOL    HW1 8138   4.149   0.188   2.798
 2413SOL    HW2 8139   4.174   0.028   2.819
 2414SOL     OW 8140   5.500   3.302   4.592
 2414SOL    HW1 8141   5.576   3.268   4.537
 2414SOL    HW2 8142   5.413   3.284   4.545
 2415SOL     OW 8143   4.473   1.052   3.438
 2415SOL    HW1 8144   4.487   0.996   3.357
 2415SOL    HW2 8145   4.430   0.996   3.510
 2416SOL     OW 8146   5.699   1.993   6.484
 2416SOL    HW1 8147   5.767   1.981   6.556
 2416SOL    HW2 8148   5.613   1.950   6.511
 2417SOL     OW 8149   3.125   4.187   5.348
 2417SOL    HW1 8150   3.196   4.120   5.326
 2417SOL    HW2 8151   3.075   4.157   5.430
 2418SOL     OW 8152   3.487   3.176   2.914
 2418SOL    HW1 8153   3.524   3.085   2.933
 2418SOL    HW2 8154   3.439   3.175   2.826
 2419SOL     OW 8155   0.034   0.374   3.034
 2419SOL    HW1 8156   0.084   0.461   3.029
 2419SOL    HW2 8157   7.022   0.360   3.126
 2420SOL     OW 8158   2.178   6.947   1.869
 2420SOL    HW1 8159   2.229   6.929   1.785
 2420SOL    HW2 8160   2.234   7.002   1.931
 2421SOL     OW 8161   3.477   1.602   3.508
 2421SOL    HW1 8162   3.440   1.655   3.432
 2421SOL    HW2 8163   3.481   1.505   3.481
 2422SOL     OW 8164   5.018   1.634   0.870
 2422SOL    HW1 8165   4.948   1.626   0.941
 2422SOL    HW2 8166   5.062   1.545   0.856
 2423SOL     OW 8167   1.961   5.084   2.446
 2423SOL    HW1 8168   2.056   5.058   2.433
 2423SOL    HW2 8169   1.944   5.103   2.543
 2424SOL     OW 8170   6.751   0.213   0.423
 2424SOL    HW1 8171   6.668   0.202   0.478
 2424SOL    HW2 8172   6.768   0.310   0.407
 2425SOL     OW 8173   6.865   6.639   4.458
 2425SOL    HW1 8174   6.907   6.548   4.457
 2425SOL    HW2 8175   6.809   6.651   4.376
 2426SOL     OW 8176   2.369   4.766   4.014
 2426SOL    HW1 8177   2.275   4.736   3.998
 2426SOL    HW2 8178   2.376   4.809   4.104
 2427SOL     OW 8179   6.331   0.081   5.793
 2427SOL    HW1 8180   6.240   0.068   5.754
 2427SOL    HW2 8181   6.397   0.027   5.741
 2428SOL     OW 8182   5.873   1.556   0.561
 2428SOL    HW1 8183   5.936   1.479   0.571
 2428SOL    HW2 8184   5.805   1.535   0.491
 2429SOL     OW 8185   5.374   5.157   2.436
 2429SOL    HW1 8186   5.362   5.113   2.525
 2429SOL    HW2 8187   5.462   5.129   2.397
 2430SOL     OW 8188   5.308   0.113   3.033
 2430SOL    HW1 8189   5.338   0.188   2.974
 2430SOL    HW2 8190   5.357   0.029   3.009
 2431SOL     OW 8191   4.577   6.835   2.350
 2431SOL    HW1 8192   4.583   6.847   2.449
 2431SOL    HW2 8193   4.485   6.857   2.319
 2432SOL     OW 8194   2.413   6.027   2.737
 2432SOL    HW1 8195   2.409   6.024   2.637
 2432SOL    HW2 8196   2.395   6.120   2.769
 2433SOL     OW 8197   4.740   0.648   1.044
 2433SOL    HW1 8198   4.799   0.568   1.050
 2433SOL    HW2 8199   4.693   0.649   0.955
 2434SOL     OW 8200   4.053   3.193   4.841
 2434SOL    HW1 8201   4.097   3.105   4.826
 2434SOL    HW2 8202   3.990   3.212   4.766
 2435SOL     OW 8203   6.063   5.983   5.929
 2435SOL    HW1 8204   6.150   5.968   5.882
 2435SOL    HW2 8205   6.006   5.901   5.921
 2436SOL     OW 8206   2.790   4.983   0.864
 2436SOL    HW1 8207   2.870   4.957   0.809
 2436SOL    HW2 8208   2.721   4.911   0.857
 2437SOL     OW 8209   6.513   0.833   5.550
 2437SOL    HW1 8210   6.613   0.835   5.556
 2437SOL    HW2 8211   6.475   0.796   5.635
 2438SOL     OW 8212   3.035   3.408   0.952
 2438SOL    HW1 8213   3.096   3.331   0.970
 2438SOL    HW2 8214   2.990   3.436   1.037
 2439SOL     OW 8215   6.227   4.854   6.086
 2439SOL    HW1 8216   6.238   4.826   6.181
 2439SOL    HW2 8217   6.194   4.949   6.082
 2440SOL     OW 8218   5.604   4.690   5.270
 2440SOL    HW1 8219   5.507   4.697   5.293
 2440SOL    HW2 8220   5.655   4.760   5.321
 2441SOL     OW 8221   6.248   2.283   0.953
 2441SOL    HW1 8222   6.253   2.381   0.937
 2441SOL    HW2 8223   6.341   2.244   0.954
 2442SOL     OW 8224   0.237   1.881   5.201
 2442SOL    HW1 8225   0.223   1.851   5.107
 2442SOL    HW2 8226   0.331   1.914   5.212
 2443SOL     OW 8227   2.844   4.883   5.089
 2443SOL    HW1 8228   2.823   4.788   5.067
 2443SOL    HW2 8229   2.905   4.887   5.168
 2444SOL     OW 8230   3.533   2.820   5.804
 2444SOL    HW1 8231   3.612   2.851   5.856
 2444SOL    HW2 8232   3.514   2.724   5.827
 2445SOL     OW 8233   0.889   0.319   0.929
 2445SOL    HW1 8234   0.989   0.309   0.925
 2445SOL    HW2 8235   0.866   0.412   0.957
 2446SOL     OW 8236   5.100   3.249   6.310
 2446SOL    HW1 8237   5.160   3.211   6.380
 2446SOL    HW2 8238   5.067   3.174   6.251
 2447SOL     OW 8239   0.735   3.191   6.585
 2447SOL    HW1 8240   0.754   3.163   6.679
 2447SOL    HW2 8241   0.637   3.187   6.568
 2448SOL     OW 8242   0.499   6.606   4.664
 2448SOL    HW1 8243   0.554   6.646   4.591
 2448SOL    HW2 8244   0.541   6.628   4.753
 2449SOL     OW 8245   0.846   2.952   5.133
 2449SOL    HW1 8246   0.881   2.948   5.040
 2449SOL    HW2 8247   0.825   3.047   5.156
 2450SOL     OW 8248   2.153   3.325   1.398
 2450SOL    HW1 8249   2.153   3.243   1.456
 2450SOL    HW2 8250   2.121   3.403   1.451
 2451SOL     OW 8251   2.064   5.843   4.197
 2451SOL    HW1 8252   2.157   5.851   4.233
 2451SOL    HW2 8253   2.008   5.916   4.235
 2452SOL     OW 8254   2.258   2.268   4.707
 2452SOL    HW1 8255   2.213   2.318   4.634
 2452SOL    HW2 8256   2.267   2.327   4.788
 2453SOL     OW 8257   0.813   3.685   0.802
 2453SOL    HW1 8258   0.823   3.642   0.891
 2453SOL    HW2 8259   0.884   3.651   0.740
 2454SOL     OW 8260   1.737   6.902   1.966
 2454SOL    HW1 8261   1.810   6.970   1.960
 2454SOL    HW2 8262   1.766   6.825   2.023
 2455SOL     OW 8263   5.488   3.489   1.247
 2455SOL    HW1 8264   5.581   3.512   1.276
 2455SOL    HW2 8265   5.481   3.498   1.148
 2456SOL     OW 8266   2.871   6.823   1.030
 2456SOL    HW1 8267   2.913   6.836   0.940
 2456SOL    HW2 8268   2.782   6.778   1.019
 2457SOL     OW 8269   5.875   6.217   1.092
 2457SOL    HW1 8270   5.811   6.143   1.113
 2457SOL    HW2 8271   5.844   6.266   1.010
 2458SOL     OW 8272   0.646   6.457   1.801
 2458SOL    HW1 8273   0.651   6.377   1.862
 2458SOL    HW2 8274   0.694   6.436   1.716
 2459SOL     OW 8275   1.198   1.138   0.490
 2459SOL    HW1 8276   1.201   1.178   0.399
 2459SOL    HW2 8277   1.289   1.139   0.531
 2460SOL     OW 8278   2.699   4.734   1.515
 2460SOL    HW1 8279   2.788   4.757   1.476
 2460SOL    HW2 8280   2.707   4.651   1.569
 2461SOL     OW 8281   4.854   1.453   2.709
 2461SOL    HW1 8282   4.803   1.430   2.626
 2461SOL    HW2 8283   4.822   1.540   2.745
 2462SOL     OW 8284   2.739   3.948   6.148
 2462SOL    HW1 8285   2.669   3.945   6.218
 2462SOL    HW2 8286   2.737   4.036   6.101
 2463SOL     OW 8287   1.073   2.575   5.120
 2463SOL    HW1 8288   1.044   2.509   5.189
 2463SOL    HW2 8289   1.140   2.637   5.159
 2464SOL     OW 8290   0.869   3.027   0.492
 2464SOL    HW1 8291   0.775   2.997   0.511
 2464SOL    HW2 8292   0.919   3.035   0.578
 2465SOL     OW 8293   6.318   4.933   2.696
 2465SOL    HW1 8294   6.222   4.940   2.670
 2465SOL    HW2 8295   6.362   4.861   2.641
 2466SOL     OW 8296   3.552   1.482   1.743
 2466SOL    HW1 8297   3.477   1.532   1.786
 2466SOL    HW2 8298   3.545   1.490   1.643
 2467SOL     OW 8299   0.709   1.002   4.715
 2467SOL    HW1 8300   0.726   0.975   4.620
 2467SOL    HW2 8301   0.692   1.100   4.719
 2468SOL     OW 8302   6.240   4.669   0.074
 2468SOL    HW1 8303   6.296   4.588   0.090
 2468SOL    HW2 8304   6.285   4.749   0.112
 2469SOL     OW 8305   2.918   2.675   5.808
 2469SOL    HW1 8306   2.895   2.617   5.729
 2469SOL    HW2 8307   2.867   2.760   5.803
 2470SOL     OW 8308   5.387   3.153   1.350
 2470SOL    HW1 8309   5.317   3.210   1.393
 2470SOL    HW2 8310   5.357   3.127   1.258
 2471SOL     OW 8311   0.166   1.287   2.766
 2471SOL    HW1 8312   0.094   1.241   2.818
 2471SOL    HW2 8313   0.126   1.362   2.714
 2472SOL     OW 8314   5.961   0.891   3.618
 2472SOL    HW1 8315   5.956   0.802   3.573
 2472SOL    HW2 8316   6.033   0.946   3.574
 2473SOL     OW 8317   0.581   6.109   5.634
 2473SOL    HW1 8318   0.656   6.117   5.699
 2473SOL    HW2 8319   0.618   6.104   5.541
 2474SOL     OW 8320   6.329   6.739   4.477
 2474SOL    HW1 8321   6.246   6.795   4.482
 2474SOL    HW2 8322   6.399   6.776   4.538
 2475SOL     OW 8323   4.167   2.275   6.220
 2475SOL    HW1 8324   4.223   2.203   6.263
 2475SOL    HW2 8325   4.221   2.320   6.149
 2476SOL     OW 8326   0.649   1.140   3.320
 2476SOL    HW1 8327   0.556   1.122   3.287
 2476SOL    HW2 8328   0.701   1.055   3.321
 2477SOL     OW 8329   4.764   4.718   2.477
 2477SOL    HW1 8330   4.764   4.682   2.383
 2477SOL    HW2 8331   4.850   4.766   2.494
 2478SOL     OW 8332   0.104   0.325   2.311
 2478SOL    HW1 8333   0.183   0.383   2.291
 2478SOL    HW2 8334   0.117   0.235   2.271
 2479SOL     OW 8335   0.961   2.916   6.946
 2479SOL    HW1 8336   1.045   2.970   6.940
 2479SOL    HW2 8337   0.985   2.818   6.947
 2480SOL     OW 8338   6.397   5.230   1.423
 2480SOL    HW1 8339   6.483   5.251   1.378
 2480SOL    HW2 8340   6.366   5.139   1.397
 2481SOL     OW 8341   4.026   4.767   2.574
 2481SOL    HW1 8342   4.074   4.767   2.662
 2481SOL    HW2 8343   3.945   4.825   2.580
 2482SOL     OW 8344   4.242   2.280   4.819
 2482SOL    HW1 8345   4.241   2.181   4.830
 2482SOL    HW2 8346   4.214   2.323   4.905
 2483SOL     OW 8347   0.777   3.089   6.879
 2483SOL    HW1 8348   0.837   3.017   6.914
 2483SOL    HW2 8349   0.823   3.177   6.887
 2484SOL     OW 8350   3.679   4.049   5.785
 2484SOL    HW1 8351   3.663   4.123   5.721
 2484SOL    HW2 8352   3.687   3.963   5.735
 2485SOL     OW 8353   0.601   5.957   6.895
 2485SOL    HW1 8354   0.671   5.939   6.826
 2485SOL    HW2 8355   0.591   5.877   6.954
 2486SOL     OW 8356   0.778   5.510   3.479
 2486SOL    HW1 8357   0.703   5.447   3.499
 2486SOL    HW2 8358   0.798   5.565   3.560
 2487SOL     OW 8359   3.273   1.511   1.274
 2487SOL    HW1 8360   3.340   1.504   1.200
 2487SOL    HW2 8361   3.260   1.421   1.316
 2488SOL     OW 8362   3.305   5.940   6.402
 2488SOL    HW1 8363   3.295   5.876   6.326
 2488SOL    HW2 8364   3.227   5.932   6.464
 2489SOL     OW 8365   0.135   5.580   4.495
 2489SOL    HW1 8366   0.058   5.572   4.433
 2489SOL    HW2 8367   0.126   5.664   4.549
 2490SOL     OW 8368   5.756   3.138   1.212
 2490SOL    HW1 8369   5.795   3.216   1.163
 2490SOL    HW2 8370   5.702   3.170   1.290
 2491SOL     OW 8371   6.894   3.842   3.270
 2491SOL    HW1 8372   6.812   3.899   3.270
 2491SOL    HW2 8373   6.914   3.813   3.364
 2492SOL     OW 8374   4.307   1.042   6.685
 2492SOL    HW1 8375   4.301   1.069   6.781
 2492SOL    HW2 8376   4.215   1.035   6.646
 2493SOL     OW 8377   6.346   0.533   5.117
 2493SOL    HW1 8378   6.412   0.467   5.080
 2493SOL    HW2 8379   6.271   0.484   5.160
 2494SOL     OW 8380   4.902   4.944   1.021
 2494SOL    HW1 8381   4.846   4.881   0.966
 2494SOL    HW2 8382   4.884   4.928   1.118
 2495SOL     OW 8383   0.284   1.317   2.459
 2495SOL    HW1 8384   0.368   1.356   2.421
 2495SOL    HW2 8385   0.299   1.221   2.482
 2496SOL     OW 8386   2.083   4.746   0.625
 2496SOL    HW1 8387   2.052   4.838   0.650
 2496SOL    HW2 8388   2.049   4.679   0.691
 2497SOL     OW 8389   5.696   0.408   6.338
 2497SOL    HW1 8390   5.664   0.358   6.418
 2497SOL    HW2 8391   5.645   0.494   6.329
 2498SOL     OW 8392   0.931   3.223   4.588
 2498SOL    HW1 8393   0.856   3.222   4.654
 2498SOL    HW2 8394   0.931   3.310   4.538
 2499SOL     OW 8395   5.239   1.263   0.050
 2499SOL    HW1 8396   5.255   1.172   0.088
 2499SOL    HW2 8397   5.242   1.331   0.124
 2500SOL     OW 8398   4.789   3.576   6.235
 2500SOL    HW1 8399   4.783   3.484   6.196
 2500SOL    HW2 8400   4.703   3.625   6.220
 2501SOL     OW 8401   0.216   4.960   0.893
 2501SOL    HW1 8402   0.267   5.013   0.961
 2501SOL    HW2 8403   0.144   4.907   0.939
 2502SOL     OW 8404   0.645   0.172   3.545
 2502SOL    HW1 8405   0.685   0.081   3.535
 2502SOL    HW2 8406   0.547   0.168   3.525
 2503SOL     OW 8407   5.481   6.582   4.749
 2503SOL    HW1 8408   5.510   6.539   4.664
 2503SOL    HW2 8409   5.544   6.655   4.773
 2504SOL     OW 8410   2.309   4.399   3.197
 2504SOL    HW1 8411   2.282   4.317   3.248
 2504SOL    HW2 8412   2.318   4.476   3.260
 2505SOL     OW 8413   4.960   4.212   4.886
 2505SOL    HW1 8414   5.033   4.210   4.818
 2505SOL    HW2 8415   4.958   4.126   4.936
 2506SOL     OW 8416   0.665   0.735   0.457
 2506SOL    HW1 8417   0.646   0.679   0.538
 2506SOL    HW2 8418   0.676   0.830   0.483
 2507SOL     OW 8419   6.035   6.469   6.885
 2507SOL    HW1 8420   6.005   6.493   6.793
 2507SOL    HW2 8421   6.120   6.415   6.879
 2508SOL     OW 8422   1.269   2.418   1.969
 2508SOL    HW1 8423   1.334   2.342   1.969
 2508SOL    HW2 8424   1.184   2.390   2.014
 2509SOL     OW 8425   6.168   0.589   3.547
 2509SOL    HW1 8426   6.214   0.500   3.547
 2509SOL    HW2 8427   6.166   0.626   3.454
 2510SOL     OW 8428   4.285   5.950   2.230
 2510SOL    HW1 8429   4.327   5.938   2.320
 2510SOL    HW2 8430   4.356   5.978   2.164
 2511SOL     OW 8431   0.527   6.384   3.449
 2511SOL    HW1 8432   0.541   6.478   3.479
 2511SOL    HW2 8433   0.554   6.322   3.523
 2512SOL     OW 8434   5.885   3.518   4.234
 2512SOL    HW1 8435   5.809   3.453   4.231
 2512SOL    HW2 8436   5.873   3.578   4.313
 2513SOL     OW 8437   0.184   4.796   0.636
 2513SOL    HW1 8438   0.275   4.770   0.604
 2513SOL    HW2 8439   0.194   4.864   0.710
 2514SOL     OW 8440   6.952   1.950   3.550
 2514SOL    HW1 8441   0.008   1.922   3.494
 2514SOL    HW2 8442   6.914   1.870   3.596
 2515SOL     OW 8443   1.193   4.377   6.827
 2515SOL    HW1 8444   1.257   4.375   6.751
 2515SOL    HW2 8445   1.207   4.459   6.881
 2516SOL     OW 8446   5.180   6.870   3.961
 2516SOL    HW1 8447   5.194   6.772   3.951
 2516SOL    HW2 8448   5.239   6.906   4.033
 2517SOL     OW 8449   2.249   5.344   0.764
 2517SOL    HW1 8450   2.281   5.416   0.703
 2517SOL    HW2 8451   2.161   5.371   0.804
 2518SOL     OW 8452   2.256   2.359   0.093
 2518SOL    HW1 8453   2.166   2.331   0.059
 2518SOL    HW2 8454   2.245   2.432   0.161
 2519SOL     OW 8455   6.172   4.503   4.873
 2519SOL    HW1 8456   6.145   4.595   4.842
 2519SOL    HW2 8457   6.111   4.474   4.946
 2520SOL     OW 8458   3.854   5.330   0.948
 2520SOL    HW1 8459   3.789   5.307   0.876
 2520SOL    HW2 8460   3.819   5.299   1.036
 2521SOL     OW 8461   5.984   6.399   5.887
 2521SOL    HW1 8462   6.000   6.495   5.863
 2521SOL    HW2 8463   5.997   6.387   5.985
 2522SOL     OW 8464   2.361   4.847   5.166
 2522SOL    HW1 8465   2.337   4.887   5.078
 2522SOL    HW2 8466   2.415   4.764   5.152
 2523SOL     OW 8467   0.464   2.111   6.119
 2523SOL    HW1 8468   0.381   2.090   6.068
 2523SOL    HW2 8469   0.486   2.036   6.181
 2524SOL     OW 8470   1.783   6.767   4.646
 2524SOL    HW1 8471   1.697   6.797   4.689
 2524SOL    HW2 8472   1.762   6.718   4.562
 2525SOL     OW 8473   2.657   4.784   2.223
 2525SOL    HW1 8474   2.722   4.750   2.155
 2525SOL    HW2 8475   2.564   4.781   2.186
 2526SOL     OW 8476   1.693   2.874   4.497
 2526SOL    HW1 8477   1.668   2.971   4.491
 2526SOL    HW2 8478   1.780   2.860   4.451
 2527SOL     OW 8479   0.154   6.543   4.427
 2527SOL    HW1 8480   0.152   6.629   4.375
 2527SOL    HW2 8481   0.147   6.466   4.364
 2528SOL     OW 8482   5.350   5.147   0.873
 2528SOL    HW1 8483   5.280   5.134   0.943
 2528SOL    HW2 8484   5.325   5.225   0.815
 2529SOL     OW 8485   4.962   4.730   5.374
 2529SOL    HW1 8486   5.026   4.675   5.321
 2529SOL    HW2 8487   4.908   4.670   5.434
 2530SOL     OW 8488   1.132   6.366   2.981
 2530SOL    HW1 8489   1.139   6.373   3.081
 2530SOL    HW2 8490   1.193   6.294   2.948
 2531SOL     OW 8491   5.742   2.276   6.851
 2531SOL    HW1 8492   5.706   2.352   6.906
 2531SOL    HW2 8493   5.829   2.303   6.811
 2532SOL     OW 8494   0.611   5.484   5.655
 2532SOL    HW1 8495   0.607   5.536   5.569
 2532SOL    HW2 8496   0.527   5.432   5.667
 2533SOL     OW 8497   5.657   0.963   5.093
 2533SOL    HW1 8498   5.563   0.961   5.127
 2533SOL    HW2 8499   5.705   1.042   5.131
 2534SOL     OW 8500   6.681   1.095   3.543
 2534SOL    HW1 8501   6.693   1.171   3.606
 2534SOL    HW2 8502   6.769   1.050   3.527
 2535SOL     OW 8503   2.867   0.964   1.942
 2535SOL    HW1 8504   2.875   0.985   1.845
 2535SOL    HW2 8505   2.940   0.901   1.969
 2536SOL     OW 8506   0.413   0.567   4.029
 2536SOL    HW1 8507   0.497   0.518   4.054
 2536SOL    HW2 8508   0.437   0.657   3.993
 2537SOL     OW 8509   2.585   6.290   2.318
 2537SOL    HW1 8510   2.673   6.338   2.318
 2537SOL    HW2 8511   2.592   6.207   2.262
 2538SOL     OW 8512   0.217   5.063   5.238
 2538SOL    HW1 8513   0.301   5.098   5.279
 2538SOL    HW2 8514   0.232   5.042   5.142
 2539SOL     OW 8515   1.768   0.359   5.455
 2539SOL    HW1 8516   1.855   0.406   5.455
 2539SOL    HW2 8517   1.770   0.284   5.389
 2540SOL     OW 8518   4.919   2.642   2.365
 2540SOL    HW1 8519   4.844   2.692   2.321
 2540SOL    HW2 8520   4.975   2.598   2.295
 2541SOL     OW 8521   1.468   1.507   0.017
 2541SOL    HW1 8522   1.559   1.473   0.043
 2541SOL    HW2 8523   1.469   1.607   0.018
 2542SOL     OW 8524   4.097   1.647   3.443
 2542SOL    HW1 8525   4.013   1.631   3.495
 2542SOL    HW2 8526   4.121   1.745   3.447
 2543SOL     OW 8527   5.917   0.074   5.449
 2543SOL    HW1 8528   5.837   0.045   5.397
 2543SOL    HW2 8529   5.992   0.094   5.386
 2544SOL     OW 8530   0.191   6.831   1.090
 2544SOL    HW1 8531   0.254   6.901   1.055
 2544SOL    HW2 8532   0.242   6.764   1.144
 2545SOL     OW 8533   6.646   1.442   0.145
 2545SOL    HW1 8534   6.719   1.509   0.129
 2545SOL    HW2 8535   6.571   1.459   0.081
 2546SOL     OW 8536   6.215   3.677   2.578
 2546SOL    HW1 8537   6.193   3.582   2.557
 2546SOL    HW2 8538   6.176   3.736   2.508
 2547SOL     OW 8539   5.665   3.342   0.896
 2547SOL    HW1 8540   5.646   3.435   0.864
 2547SOL    HW2 8541   5.613   3.276   0.842
 2548SOL     OW 8542   6.844   0.196   5.579
 2548SOL    HW1 8543   6.767   0.243   5.624
 2548SOL    HW2 8544   6.871   0.248   5.498
 2549SOL     OW 8545   3.058   5.243   0.458
 2549SOL    HW1 8546   3.038   5.176   0.386
 2549SOL    HW2 8547   2.972   5.275   0.498
 2550SOL     OW 8548   3.791   0.276   0.951
 2550SOL    HW1 8549   3.717   0.269   0.884
 2550SOL    HW2 8550   3.860   0.207   0.932
 2551SOL     OW 8551   3.510   4.535   1.268
 2551SOL    HW1 8552   3.467   4.463   1.323
 2551SOL    HW2 8553   3.538   4.610   1.328
 2552SOL     OW 8554   2.456   4.714   1.733
 2552SOL    HW1 8555   2.412   4.636   1.777
 2552SOL    HW2 8556   2.389   4.788   1.724
 2553SOL     OW 8557   4.615   1.512   0.142
 2553SOL    HW1 8558   4.626   1.462   0.228
 2553SOL    HW2 8559   4.559   1.459   0.079
 2554SOL     OW 8560   0.894   5.681   0.743
 2554SOL    HW1 8561   0.808   5.713   0.702
 2554SOL    HW2 8562   0.968   5.744   0.719
 2555SOL     OW 8563   1.007   6.343   5.709
 2555SOL    HW1 8564   0.943   6.273   5.678
 2555SOL    HW2 8565   1.084   6.349   5.644
 2556SOL     OW 8566   5.441   0.530   0.647
 2556SOL    HW1 8567   5.365   0.566   0.701
 2556SOL    HW2 8568   5.526   0.541   0.699
 2557SOL     OW 8569   2.610   1.455   0.345
 2557SOL    HW1 8570   2.530   1.410   0.308
 2557SOL    HW2 8571   2.692   1.422   0.298
 2558SOL     OW 8572   5.655   2.118   1.375
 2558SOL    HW1 8573   5.673   2.062   1.455
 2558SOL    HW2 8574   5.660   2.062   1.292
 2559SOL     OW 8575   6.350   5.042   3.706
 2559SOL    HW1 8576   6.261   5.041   3.752
 2559SOL    HW2 8577   6.352   5.118   3.641
 2560SOL     OW 8578   4.344   2.522   1.715
 2560SOL    HW1 8579   4.401   2.561   1.788
 2560SOL    HW2 8580   4.266   2.475   1.756
 2561SOL     OW 8581   3.651   0.237   4.445
 2561SOL    HW1 8582   3.616   0.262   4.535
 2561SOL    HW2 8583   3.719   0.164   4.455
 2562SOL     OW 8584   1.500   6.621   5.006
 2562SOL    HW1 8585   1.506   6.555   4.931
 2562SOL    HW2 8586   1.585   6.674   5.010
 2563SOL     OW 8587   4.096   2.553   6.033
 2563SOL    HW1 8588   4.078   2.551   6.131
 2563SOL    HW2 8589   4.159   2.479   6.009
 2564SOL     OW 8590   1.567   1.303   1.209
 2564SOL    HW1 8591   1.502   1.277   1.137
 2564SOL    HW2 8592   1.660   1.295   1.173
 2565SOL     OW 8593   0.197   0.582   1.311
 2565SOL    HW1 8594   0.112   0.535   1.286
 2565SOL    HW2 8595   0.263   0.575   1.237
 2566SOL     OW 8596   2.891   1.319   0.834
 2566SOL    HW1 8597   2.834   1.237   0.843
 2566SOL    HW2 8598   2.962   1.319   0.905
 2567SOL     OW 8599   2.322   0.926   6.276
 2567SOL    HW1 8600   2.418   0.901   6.288
 2567SOL    HW2 8601   2.303   1.010   6.326
 2568SOL     OW 8602   2.806   6.264   0.798
 2568SOL    HW1 8603   2.731   6.287   0.860
 2568SOL    HW2 8604   2.782   6.181   0.747
 2569SOL     OW 8605   2.371   6.424   6.496
 2569SOL    HW1 8606   2.276   6.455   6.499
 2569SOL    HW2 8607   2.389   6.382   6.406
 2570SOL     OW 8608   0.247   6.909   3.748
 2570SOL    HW1 8609   0.167   6.873   3.701
 2570SOL    HW2 8610   0.320   6.926   3.682
 2571SOL     OW 8611   3.638   3.230   3.132
 2571SOL    HW1 8612   3.594   3.254   3.218
 2571SOL    HW2 8613   3.571   3.238   3.058
 2572SOL     OW 8614   2.452   5.653   2.637
 2572SOL    HW1 8615   2.528   5.651   2.571
 2572SOL    HW2 8616   2.374   5.604   2.599
 2573SOL     OW 8617   6.851   0.904   3.175
 2573SOL    HW1 8618   6.850   0.887   3.077
 2573SOL    HW2 8619   6.840   1.002   3.193
 2574SOL     OW 8620   0.293   4.186   2.096
 2574SOL    HW1 8621   0.207   4.148   2.128
 2574SOL    HW2 8622   0.352   4.112   2.063
 2575SOL     OW 8623   4.664   3.834   5.322
 2575SOL    HW1 8624   4.569   3.866   5.328
 2575SOL    HW2 8625   4.666   3.741   5.287
 2576SOL     OW 8626   0.210   0.189   2.902
 2576SOL    HW1 8627   0.177   0.164   2.811
 2576SOL    HW2 8628   0.145   0.251   2.945
 2577SOL     OW 8629   1.474   4.387   1.089
 2577SOL    HW1 8630   1.567   4.397   1.126
 2577SOL    HW2 8631   1.474   4.315   1.019
 2578SOL     OW 8632   4.480   2.474   4.826
 2578SOL    HW1 8633   4.415   2.399   4.833
 2578SOL    HW2 8634   4.463   2.541   4.898
 2579SOL     OW 8635   0.479   1.153   6.617
 2579SOL    HW1 8636   0.502   1.078   6.678
 2579SOL    HW2 8637   0.448   1.117   6.530
 2580SOL     OW 8638   1.814   1.906   5.709
 2580SOL    HW1 8639   1.871   1.831   5.741
 2580SOL    HW2 8640   1.749   1.932   5.781
 2581SOL     OW 8641   5.605   0.001   4.269
 2581SOL    HW1 8642   5.571   7.006   4.361
 2581SOL    HW2 8643   5.623   6.937   4.223
 2582SOL     OW 8644   6.639   3.993   3.273
 2582SOL    HW1 8645   6.570   4.038   3.217
 2582SOL    HW2 8646   6.632   3.894   3.260
 2583SOL     OW 8647   2.776   0.960   0.384
 2583SOL    HW1 8648   2.850   0.918   0.331
 2583SOL    HW2 8649   2.727   1.026   0.326
 2584SOL     OW 8650   3.888   0.776   3.156
 2584SOL    HW1 8651   3.966   0.714   3.159
 2584SOL    HW2 8652   3.804   0.724   3.146
 2585SOL     OW 8653   3.695   0.720   2.376
 2585SOL    HW1 8654   3.684   0.693   2.472
 2585SOL    HW2 8655   3.779   0.679   2.339
 2586SOL     OW 8656   0.850   1.478   4.132
 2586SOL    HW1 8657   0.932   1.488   4.076
 2586SOL    HW2 8658   0.876   1.476   4.229
 2587SOL     OW 8659   6.365   4.851   3.022
 2587SOL    HW1 8660   6.413   4.933   2.991
 2587SOL    HW2 8661   6.414   4.770   2.990
 2588SOL     OW 8662   3.591   6.668   2.772
 2588SOL    HW1 8663   3.575   6.712   2.860
 2588SOL    HW2 8664   3.689   6.651   2.760
 2589SOL     OW 8665   4.602   6.589   1.787
 2589SOL    HW1 8666   4.657   6.522   1.838
 2589SOL    HW2 8667   4.610   6.679   1.831
 2590SOL     OW 8668   4.069   5.878   3.883
 2590SOL    HW1 8669   4.053   5.917   3.974
 2590SOL    HW2 8670   4.159   5.834   3.882
 2591SOL     OW 8671   6.089   0.671   0.464
 2591SOL    HW1 8672   6.188   0.655   0.460
 2591SOL    HW2 8673   6.044   0.622   0.390
 2592SOL     OW 8674   2.715   4.804   1.825
 2592SOL    HW1 8675   2.643   4.762   1.770
 2592SOL    HW2 8676   2.753   4.736   1.887
 2593SOL     OW 8677   2.804   0.124   3.586
 2593SOL    HW1 8678   2.782   0.197   3.520
 2593SOL    HW2 8679   2.756   0.141   3.671
 2594SOL     OW 8680   2.078   5.983   6.960
 2594SOL    HW1 8681   2.147   6.049   6.989
 2594SOL    HW2 8682   2.101   5.948   6.870
 2595SOL     OW 8683   6.759   2.896   4.170
 2595SOL    HW1 8684   6.811   2.883   4.255
 2595SOL    HW2 8685   6.719   2.810   4.142
 2596SOL     OW 8686   4.311   1.906   1.237
 2596SOL    HW1 8687   4.294   1.890   1.140
 2596SOL    HW2 8688   4.410   1.902   1.255
 2597SOL     OW 8689   2.461   2.170   6.251
 2597SOL    HW1 8690   2.372   2.131   6.277
 2597SOL    HW2 8691   2.462   2.187   6.152
 2598SOL     OW 8692   6.847   1.199   3.162
 2598SOL    HW1 8693   6.812   1.266   3.226
 2598SOL    HW2 8694   6.794   1.202   3.077
 2599SOL     OW 8695   4.862   5.918   6.477
 2599SOL    HW1 8696   4.796   5.991   6.458
 2599SOL    HW2 8697   4.917   5.901   6.395
 2600SOL     OW 8698   0.769   2.313   4.774
 2600SOL    HW1 8699   0.684   2.345   4.731
 2600SOL    HW2 8700   0.747   2.270   4.862
 2601SOL     OW 8701   4.099   4.498   5.506
 2601SOL    HW1 8702   4.066   4.410   5.539
 2601SOL    HW2 8703   4.040   4.530   5.432
 2602SOL     OW 8704   5.945   6.632   6.218
 2602SOL    HW1 8705   6.022   6.690   6.245
 2602SOL    HW2 8706   5.898   6.673   6.140
 2603SOL     OW 8707   1.488   1.790   0.147
 2603SOL    HW1 8708   1.437   1.721   0.200
 2603SOL    HW2 8709   1.585   1.767   0.147
 2604SOL     OW 8710   5.300   1.703   0.557
 2604SOL    HW1 8711   5.310   1.753   0.643
 2604SOL    HW2 8712   5.204   1.705   0.528
 2605SOL     OW 8713   5.640   3.528   4.491
 2605SOL    HW1 8714   5.728   3.553   4.532
 2605SOL    HW2 8715   5.595   3.458   4.547
 2606SOL     OW 8716   6.756   4.726   1.347
 2606SOL    HW1 8717   6.671   4.680   1.321
 2606SOL    HW2 8718   6.820   4.723   1.270
 2607SOL     OW 8719   0.797   0.986   3.795
 2607SOL    HW1 8720   0.834   1.068   3.839
 2607SOL    HW2 8721   0.818   0.906   3.851
 2608SOL     OW 8722   4.759   0.569   0.521
 2608SOL    HW1 8723   4.790   0.539   0.431
 2608SOL    HW2 8724   4.814   0.648   0.551
 2609SOL     OW 8725   1.031   3.662   3.244
 2609SOL    HW1 8726   1.027   3.578   3.190
 2609SOL    HW2 8727   1.055   3.640   3.339
 2610SOL     OW 8728   5.040   5.739   4.763
 2610SOL    HW1 8729   5.125   5.732   4.816
 2610SOL    HW2 8730   5.038   5.667   4.693
 2611SOL     OW 8731   2.663   5.579   2.446
 2611SOL    HW1 8732   2.601   5.609   2.374
 2611SOL    HW2 8733   2.706   5.493   2.419
 2612SOL     OW 8734   0.556   7.005   5.229
 2612SOL    HW1 8735   0.636   6.956   5.195
 2612SOL    HW2 8736   0.570   0.081   5.217
 2613SOL     OW 8737   3.996   1.304   0.332
 2613SOL    HW1 8738   4.094   1.284   0.343
 2613SOL    HW2 8739   3.979   1.336   0.239
 2614SOL     OW 8740   6.238   6.284   6.907
 2614SOL    HW1 8741   6.301   6.310   6.980
 2614SOL    HW2 8742   6.189   6.201   6.934
 2615SOL     OW 8743   6.268   3.806   1.443
 2615SOL    HW1 8744   6.169   3.791   1.436
 2615SOL    HW2 8745   6.315   3.743   1.381
 2616SOL     OW 8746   4.024   3.911   1.970
 2616SOL    HW1 8747   4.005   3.922   2.067
 2616SOL    HW2 8748   4.099   3.971   1.943
 2617SOL     OW 8749   2.728   6.205   1.326
 2617SOL    HW1 8750   2.759   6.142   1.397
 2617SOL    HW2 8751   2.764   6.176   1.237
 2618SOL     OW 8752   0.941   6.157   0.271
 2618SOL    HW1 8753   0.918   6.139   0.175
 2618SOL    HW2 8754   0.901   6.085   0.328
 2619SOL     OW 8755   6.229   1.334   1.835
 2619SOL    HW1 8756   6.216   1.251   1.781
 2619SOL    HW2 8757   6.148   1.391   1.829
 2620SOL     OW 8758   1.603   5.865   4.047
 2620SOL    HW1 8759   1.549   5.782   4.032
 2620SOL    HW2 8760   1.671   5.875   3.974
 2621SOL     OW 8761   0.772   6.248   4.649
 2621SOL    HW1 8762   0.760   6.309   4.728
 2621SOL    HW2 8763   0.843   6.180   4.670
 2622SOL     OW 8764   2.412   2.642   4.704
 2622SOL    HW1 8765   2.415   2.711   4.632
 2622SOL    HW2 8766   2.419   2.551   4.664
 2623SOL     OW 8767   3.197   0.566   6.206
 2623SOL    HW1 8768   3.180   0.634   6.134
 2623SOL    HW2 8769   3.263   0.499   6.173
 2624SOL     OW 8770   5.669   1.940   4.139
 2624SOL    HW1 8771   5.593   1.997   4.169
 2624SOL    HW2 8772   5.637   1.847   4.123
 2625SOL     OW 8773   2.565   0.179   6.064
 2625SOL    HW1 8774   2.528   0.270   6.045
 2625SOL    HW2 8775   2.551   0.120   5.985
 2626SOL     OW 8776   1.974   0.068   3.141
 2626SOL    HW1 8777   1.989   0.069   3.240
 2626SOL    HW2 8778   1.927   7.006   3.116
 2627SOL     OW 8779   0.600   6.919   4.828
 2627SOL    HW1 8780   0.615   6.923   4.729
 2627SOL    HW2 8781   0.535   6.989   4.854
 2628SOL     OW 8782   4.507   5.790   0.107
 2628SOL    HW1 8783   4.411   5.794   0.078
 2628SOL    HW2 8784   4.553   5.875   0.081
 2629SOL     OW 8785   2.840   3.672   1.807
 2629SOL    HW1 8786   2.878   3.759   1.839
 2629SOL    HW2 8787   2.829   3.610   1.884
 2630SOL     OW 8788   3.365   2.095   2.828
 2630SOL    HW1 8789   3.436   2.142   2.880
 2630SOL    HW2 8790   3.374   2.116   2.731
 2631SOL     OW 8791   3.807   6.235   4.356
 2631SOL    HW1 8792   3.818   6.332   4.377
 2631SOL    HW2 8793   3.790   6.224   4.258
 2632SOL     OW 8794   4.951   1.422   1.280
 2632SOL    HW1 8795   4.948   1.484   1.358
 2632SOL    HW2 8796   4.915   1.333   1.308
 2633SOL     OW 8797   0.247   2.390   6.889
 2633SOL    HW1 8798   0.181   2.435   6.828
 2633SOL    HW2 8799   0.226   2.293   6.895
 2634SOL     OW 8800   2.978   4.882   0.695
 2634SOL    HW1 8801   2.917   4.866   0.617
 2634SOL    HW2 8802   3.072   4.861   0.670
 2635SOL     OW 8803   5.924   4.886   3.355
 2635SOL    HW1 8804   5.998   4.828   3.321
 2635SOL    HW2 8805   5.962   4.962   3.407
 2636SOL     OW 8806   5.967   5.841   5.160
 2636SOL    HW1 8807   5.878   5.797   5.149
 2636SOL    HW2 8808   6.040   5.776   5.137
 2637SOL     OW 8809   4.415   6.172   2.773
 2637SOL    HW1 8810   4.351   6.130   2.837
 2637SOL    HW2 8811   4.499   6.197   2.821
 2638SOL     OW 8812   5.150   5.352   1.113
 2638SOL    HW1 8813   5.215   5.305   1.172
 2638SOL    HW2 8814   5.057   5.321   1.132
 2639SOL     OW 8815   6.906   6.827   0.067
 2639SOL    HW1 8816   6.938   6.913   0.107
 2639SOL    HW2 8817   6.937   6.750   0.123
 2640SOL     OW 8818   6.529   6.502   6.592
 2640SOL    HW1 8819   6.478   6.417   6.581
 2640SOL    HW2 8820   6.466   6.578   6.604
 2641SOL     OW 8821   0.151   5.515   0.677
 2641SOL    HW1 8822   0.181   5.426   0.711
 2641SOL    HW2 8823   0.077   5.550   0.734
 2642SOL     OW 8824   6.357   0.533   3.846
 2642SOL    HW1 8825   6.347   0.454   3.786
 2642SOL    HW2 8826   6.450   0.569   3.840
 2643SOL     OW 8827   1.961   0.084   2.273
 2643SOL    HW1 8828   1.910   0.169   2.289
 2643SOL    HW2 8829   2.057   0.097   2.299
 2644SOL     OW 8830   6.752   6.132   4.778
 2644SOL    HW1 8831   6.761   6.207   4.844
 2644SOL    HW2 8832   6.693   6.160   4.703
 2645SOL     OW 8833   5.810   6.169   6.094
 2645SOL    HW1 8834   5.820   6.258   6.139
 2645SOL    HW2 8835   5.892   6.114   6.111
 2646SOL     OW 8836   5.957   6.064   6.302
 2646SOL    HW1 8837   5.970   6.126   6.380
 2646SOL    HW2 8838   6.032   5.999   6.298
 2647SOL     OW 8839   3.337   3.668   6.980
 2647SOL    HW1 8840   3.354   3.586   6.925
 2647SOL    HW2 8841   3.408   3.676   0.028
 2648SOL     OW 8842   4.225   1.407   3.433
 2648SOL    HW1 8843   4.154   1.350   3.474
 2648SOL    HW2 8844   4.198   1.503   3.440
 2649SOL     OW 8845   3.043   3.906   5.360
 2649SOL    HW1 8846   3.034   3.944   5.452
 2649SOL    HW2 8847   3.003   3.969   5.293
 2650SOL     OW 8848   0.792   6.829   2.385
 2650SOL    HW1 8849   0.706   6.878   2.369
 2650SOL    HW2 8850   0.838   6.815   2.297
 2651SOL     OW 8851   0.397   7.023   3.200
 2651SOL    HW1 8852   0.450   6.952   3.248
 2651SOL    HW2 8853   0.329   0.039   3.262
 2652SOL     OW 8854   3.219   3.521   2.655
 2652SOL    HW1 8855   3.198   3.509   2.752
 2652SOL    HW2 8856   3.277   3.445   2.624
 2653SOL     OW 8857   0.082   6.048   0.741
 2653SOL    HW1 8858   0.055   5.978   0.676
 2653SOL    HW2 8859   0.024   6.042   0.822
 2654SOL     OW 8860   6.773   2.134   6.009
 2654SOL    HW1 8861   6.753   2.188   6.091
 2654SOL    HW2 8862   6.702   2.065   5.996
 2655SOL     OW 8863   5.324   5.503   4.524
 2655SOL    HW1 8864   5.422   5.509   4.545
 2655SOL    HW2 8865   5.313   5.489   4.425
 2656SOL     OW 8866   5.965   3.458   4.915
 2656SOL    HW1 8867   6.026   3.382   4.939
 2656SOL    HW2 8868   5.914   3.486   4.996
 2657SOL     OW 8869   3.945   2.438   5.720
 2657SOL    HW1 8870   3.854   2.426   5.760
 2657SOL    HW2 8871   3.958   2.533   5.694
 2658SOL     OW 8872   6.279   4.151   4.960
 2658SOL    HW1 8873   6.261   4.057   4.932
 2658SOL    HW2 8874   6.340   4.194   4.893
 2659SOL     OW 8875   6.616   1.892   3.492
 2659SOL    HW1 8876   6.650   1.906   3.399
 2659SOL    HW2 8877   6.517   1.904   3.493
 2660SOL     OW 8878   0.800   2.205   3.252
 2660SOL    HW1 8879   0.700   2.213   3.257
 2660SOL    HW2 8880   0.831   2.226   3.159
 2661SOL     OW 8881   3.545   6.801   3.328
 2661SOL    HW1 8882   3.520   6.798   3.425
 2661SOL    HW2 8883   3.604   6.879   3.311
 2662SOL     OW 8884   3.952   0.940   3.875
 2662SOL    HW1 8885   3.930   0.845   3.899
 2662SOL    HW2 8886   4.042   0.943   3.832
 2663SOL     OW 8887   0.999   4.287   2.955
 2663SOL    HW1 8888   1.067   4.215   2.941
 2663SOL    HW2 8889   0.908   4.245   2.963
 2664SOL     OW 8890   4.385   4.260   1.565
 2664SOL    HW1 8891   4.367   4.236   1.660
 2664SOL    HW2 8892   4.299   4.275   1.517
 2665SOL     OW 8893   4.591   6.929   5.082
 2665SOL    HW1 8894   4.555   6.922   5.175
 2665SOL    HW2 8895   4.594   6.838   5.040
 2666SOL     OW 8896   4.988   5.746   1.701
 2666SOL    HW1 8897   4.946   5.832   1.730
 2666SOL    HW2 8898   5.075   5.734   1.747
 2667SOL     OW 8899   1.764   5.088   2.943
 2667SOL    HW1 8900   1.852   5.131   2.963
 2667SOL    HW2 8901   1.692   5.133   2.996
 2668SOL     OW 8902   0.205   2.338   4.884
 2668SOL    HW1 8903   0.274   2.305   4.949
 2668SOL    HW2 8904   0.132   2.385   4.934
 2669SOL     OW 8905   3.961   5.940   4.976
 2669SOL    HW1 8906   3.896   6.013   4.955
 2669SOL    HW2 8907   4.047   5.956   4.927
 2670SOL     OW 8908   2.662   6.494   4.267
 2670SOL    HW1 8909   2.607   6.572   4.300
 2670SOL    HW2 8910   2.675   6.503   4.168
 2671SOL     OW 8911   3.153   4.064   6.764
 2671SOL    HW1 8912   3.227   4.039   6.826
 2671SOL    HW2 8913   3.192   4.098   6.678
 2672SOL     OW 8914   0.739   4.435   0.162
 2672SOL    HW1 8915   0.755   4.495   0.240
 2672SOL    HW2 8916   0.658   4.466   0.112
 2673SOL     OW 8917   3.576   2.150   2.992
 2673SOL    HW1 8918   3.516   2.176   3.068
 2673SOL    HW2 8919   3.671   2.149   3.024
 2674SOL     OW 8920   5.795   5.625   5.228
 2674SOL    HW1 8921   5.798   5.537   5.181
 2674SOL    HW2 8922   5.830   5.615   5.321
 2675SOL     OW 8923   0.278   4.769   5.783
 2675SOL    HW1 8924   0.354   4.749   5.845
 2675SOL    HW2 8925   0.214   4.833   5.827
 2676SOL     OW 8926   4.338   0.509   1.874
 2676SOL    HW1 8927   4.348   0.410   1.873
 2676SOL    HW2 8928   4.243   0.533   1.851
 2677SOL     OW 8929   2.457   4.470   2.260
 2677SOL    HW1 8930   2.419   4.378   2.252
 2677SOL    HW2 8931   2.484   4.503   2.170
 2678SOL     OW 8932   0.455   6.306   6.623
 2678SOL    HW1 8933   0.406   6.288   6.538
 2678SOL    HW2 8934   0.428   6.238   6.692
 2679SOL     OW 8935   2.514   5.030   1.772
 2679SOL    HW1 8936   2.576   4.964   1.814
 2679SOL    HW2 8937   2.472   5.086   1.844
 2680SOL     OW 8938   0.768   2.502   1.053
 2680SOL    HW1 8939   0.856   2.515   1.008
 2680SOL    HW2 8940   0.783   2.482   1.150
 2681SOL     OW 8941   2.231   2.038   1.866
 2681SOL    HW1 8942   2.287   1.962   1.833
 2681SOL    HW2 8943   2.227   2.036   1.966
 2682SOL     OW 8944   6.918   2.612   3.707
 2682SOL    HW1 8945   6.948   2.707   3.692
 2682SOL    HW2 8946   6.895   2.600   3.804
 2683SOL     OW 8947   1.281   7.012   0.307
 2683SOL    HW1 8948   1.250   6.920   0.281
 2683SOL    HW2 8949   1.304   7.013   0.404
 2684SOL     OW 8950   2.178   5.669   2.959
 2684SOL    HW1 8951   2.202   5.724   2.879
 2684SOL    HW2 8952   2.221   5.707   3.041
 2685SOL     OW 8953   5.414   5.465   5.777
 2685SOL    HW1 8954   5.496   5.414   5.800
 2685SOL    HW2 8955   5.354   5.471   5.857
 2686SOL     OW 8956   1.047   3.199   5.020
 2686SOL    HW1 8957   1.071   3.276   4.961
 2686SOL    HW2 8958   1.126   3.138   5.028
 2687SOL     OW 8959   4.407   5.015   3.314
 2687SOL    HW1 8960   4.375   5.093   3.261
 2687SOL    HW2 8961   4.469   5.047   3.386
 2688SOL     OW 8962   3.294   4.464   5.570
 2688SOL    HW1 8963   3.205   4.470   5.523
 2688SOL    HW2 8964   3.306   4.371   5.604
 2689SOL     OW 8965   6.263   2.271   4.106
 2689SOL    HW1 8966   6.334   2.273   4.176
 2689SOL    HW2 8967   6.209   2.355   4.111
 2690SOL     OW 8968   3.074   3.937   3.583
 2690SOL    HW1 8969   3.172   3.919   3.575
 2690SOL    HW2 8970   3.060   4.025   3.630
 2691SOL     OW 8971   1.464   6.083   2.046
 2691SOL    HW1 8972   1.405   6.123   1.976
 2691SOL    HW2 8973   1.559   6.082   2.014
 2692SOL     OW 8974   6.957   4.462   3.352
 2692SOL    HW1 8975   6.897   4.384   3.372
 2692SOL    HW2 8976   6.940   4.495   3.259
 2693SOL     OW 8977   1.824   3.421   3.021
 2693SOL    HW1 8978   1.908   3.474   3.015
 2693SOL    HW2 8979   1.845   3.326   3.045
 2694SOL     OW 8980   2.208   1.627   2.810
 2694SOL    HW1 8981   2.162   1.587   2.889
 2694SOL    HW2 8982   2.140   1.665   2.747
 2695SOL     OW 8983   3.954   1.881   2.319
 2695SOL    HW1 8984   4.031   1.928   2.362
 2695SOL    HW2 8985   3.972   1.783   2.316
 2696SOL     OW 8986   3.648   3.533   5.896
 2696SOL    HW1 8987   3.684   3.524   5.989
 2696SOL    HW2 8988   3.714   3.582   5.840
 2697SOL     OW 8989   2.946   1.180   5.122
 2697SOL    HW1 8990   3.000   1.181   5.206
 2697SOL    HW2 8991   2.851   1.201   5.143
 2698SOL     OW 8992   1.297   1.985   6.542
 2698SOL    HW1 8993   1.223   2.044   6.508
 2698SOL    HW2 8994   1.260   1.894   6.562
 2699SOL     OW 8995   1.501   5.076   3.683
 2699SOL    HW1 8996   1.423   5.138   3.691
 2699SOL    HW2 8997   1.566   5.112   3.616
 2700SOL     OW 8998   2.314   4.172   2.801
 2700SOL    HW1 8999   2.351   4.181   2.708
 2700SOL    HW2 9000   2.333   4.255   2.852
 2701SOL     OW 9001   2.809   0.798   5.388
 2701SOL    HW1 9002   2.730   0.829   5.334
 2701SOL    HW2 9003   2.813   0.698   5.386
 2702SOL     OW 9004   6.394   6.309   2.656
 2702SOL    HW1 9005   6.468   6.333   2.593
 2702SOL    HW2 9006   6.379   6.210   2.654
 2703SOL     OW 9007   1.790   1.988   3.067
 2703SOL    HW1 9008   1.712   2.032   3.022
 2703SOL    HW2 9009   1.870   1.992   3.007
 2704SOL     OW 9010   1.277   6.280   0.755
 2704SOL    HW1 9011   1.290   6.280   0.656
 2704SOL    HW2 9012   1.246   6.370   0.784
 2705SOL     OW 9013   0.064   3.607   2.386
 2705SOL    HW1 9014   0.117   3.640   2.308
 2705SOL    HW2 9015   0.000   3.537   2.356
 2706SOL     OW 9016   6.629   2.276   3.528
 2706SOL    HW1 9017   6.580   2.228   3.601
 2706SOL    HW2 9018   6.566   2.293   3.452
 2707SOL     OW 9019   2.381   1.373   6.699
 2707SOL    HW1 9020   2.315   1.346   6.769
 2707SOL    HW2 9021   2.458   1.421   6.742
 2708SOL     OW 9022   1.519   4.900   0.037
 2708SOL    HW1 9023   1.535   4.970   0.107
 2708SOL    HW2 9024   1.516   4.943   6.970
 2709SOL     OW 9025   4.731   6.505   1.569
 2709SOL    HW1 9026   4.690   6.527   1.658
 2709SOL    HW2 9027   4.825   6.538   1.567
 2710SOL     OW 9028   6.669   4.066   2.689
 2710SOL    HW1 9029   6.592   4.106   2.639
 2710SOL    HW2 9030   6.755   4.096   2.647
 2711SOL     OW 9031   1.442   0.058   2.341
 2711SOL    HW1 9032   1.440   0.082   2.438
 2711SOL    HW2 9033   1.352   0.024   2.313
 2712SOL     OW 9034   3.171   5.475   2.665
 2712SOL    HW1 9035   3.204   5.382   2.681
 2712SOL    HW2 9036   3.109   5.476   2.588
 2713SOL     OW 9037   1.834   2.585   5.497
 2713SOL    HW1 9038   1.794   2.640   5.570
 2713SOL    HW2 9039   1.920   2.627   5.468
 2714SOL     OW 9040   5.513   7.010   6.829
 2714SOL    HW1 9041   5.473   0.077   6.809
 2714SOL    HW2 9042   5.447   6.954   6.878
 2715SOL     OW 9043   6.746   0.721   0.197
 2715SOL    HW1 9044   6.757   0.783   0.276
 2715SOL    HW2 9045   6.666   0.663   0.212
 2716SOL     OW 9046   6.518   6.712   2.024
 2716SOL    HW1 9047   6.462   6.646   2.075
 2716SOL    HW2 9048   6.474   6.732   1.937
 2717SOL     OW 9049   0.278   6.768   2.969
 2717SOL    HW1 9050   0.334   6.807   2.897
 2717SOL    HW2 9051   0.226   6.840   3.015
 2718SOL     OW 9052   0.631   4.140   3.428
 2718SOL    HW1 9053   0.686   4.197   3.490
 2718SOL    HW2 9054   0.692   4.097   3.361
 2719SOL     OW 9055   4.167   4.713   2.825
 2719SOL    HW1 9056   4.240   4.781   2.838
 2719SOL    HW2 9057   4.187   4.658   2.744
 2720SOL     OW 9058   0.722   6.064   4.103
 2720SOL    HW1 9059   0.644   6.104   4.055
 2720SOL    HW2 9060   0.690   5.989   4.161
 2721SOL     OW 9061   5.242   6.135   3.639
 2721SOL    HW1 9062   5.309   6.208   3.634
 2721SOL    HW2 9063   5.179   6.152   3.715
 2722SOL     OW 9064   0.650   5.873   1.801
 2722SOL    HW1 9065   0.657   5.904   1.896
 2722SOL    HW2 9066   0.725   5.913   1.748
 2723SOL     OW 9067   2.139   1.717   4.422
 2723SOL    HW1 9068   2.105   1.809   4.442
 2723SOL    HW2 9069   2.213   1.695   4.485
 2724SOL     OW 9070   4.368   5.707   6.215
 2724SOL    HW1 9071   4.326   5.781   6.163
 2724SOL    HW2 9072   4.463   5.730   6.235
 2725SOL     OW 9073   2.796   4.789   3.631
 2725SOL    HW1 9074   2.844   4.818   3.713
 2725SOL    HW2 9075   2.697   4.795   3.646
 2726SOL     OW 9076   4.263   6.140   2.544
 2726SOL    HW1 9077   4.173   6.182   2.531
 2726SOL    HW2 9078   4.295   6.158   2.637
 2727SOL     OW 9079   2.117   6.100   4.007
 2727SOL    HW1 9080   2.205   6.063   3.977
 2727SOL    HW2 9081   2.115   6.104   4.107
 2728SOL     OW 9082   2.990   0.018   5.267
 2728SOL    HW1 9083   3.049   0.099   5.271
 2728SOL    HW2 9084   2.929   0.025   5.188
 2729SOL     OW 9085   0.275   4.797   2.750
 2729SOL    HW1 9086   0.190   4.779   2.799
 2729SOL    HW2 9087   0.264   4.772   2.654
 2730SOL     OW 9088   1.034   4.444   1.244
 2730SOL    HW1 9089   1.037   4.443   1.144
 2730SOL    HW2 9090   0.997   4.357   1.277
 2731SOL     OW 9091   2.562   3.734   0.680
 2731SOL    HW1 9092   2.660   3.750   0.670
 2731SOL    HW2 9093   2.521   3.810   0.731
 2732SOL     OW 9094   5.253   3.249   4.421
 2732SOL    HW1 9095   5.196   3.311   4.476
 2732SOL    HW2 9096   5.210   3.236   4.331
 2733SOL     OW 9097   2.181   0.694   6.580
 2733SOL    HW1 9098   2.248   0.766   6.600
 2733SOL    HW2 9099   2.089   0.731   6.587
 2734SOL     OW 9100   1.722   7.000   4.361
 2734SOL    HW1 9101   1.696   6.904   4.373
 2734SOL    HW2 9102   1.778   7.009   4.279
 2735SOL     OW 9103   1.841   5.724   1.817
 2735SOL    HW1 9104   1.773   5.671   1.765
 2735SOL    HW2 9105   1.896   5.778   1.754
 2736SOL     OW 9106   4.273   6.810   6.632
 2736SOL    HW1 9107   4.231   6.727   6.667
 2736SOL    HW2 9108   4.217   6.846   6.557
 2737SOL     OW 9109   3.989   3.777   5.508
 2737SOL    HW1 9110   3.964   3.800   5.414
 2737SOL    HW2 9111   4.045   3.694   5.508
 2738SOL     OW 9112   6.375   4.138   4.181
 2738SOL    HW1 9113   6.401   4.212   4.243
 2738SOL    HW2 9114   6.406   4.160   4.088
 2739SOL     OW 9115   4.397   4.350   0.041
 2739SOL    HW1 9116   4.425   4.375   0.133
 2739SOL    HW2 9117   4.429   4.257   0.020
 2740SOL     OW 9118   6.038   2.650   4.416
 2740SOL    HW1 9119   6.025   2.694   4.327
 2740SOL    HW2 9120   6.065   2.555   4.403
 2741SOL     OW 9121   2.129   2.999   5.140
 2741SOL    HW1 9122   2.068   3.012   5.062
 2741SOL    HW2 9123   2.224   3.002   5.110
 2742SOL     OW 9124   2.583   6.022   5.683
 2742SOL    HW1 9125   2.517   6.046   5.754
 2742SOL    HW2 9126   2.596   5.923   5.681
 2743SOL     OW 9127   5.684   4.458   6.920
 2743SOL    HW1 9128   5.760   4.398   6.946
 2743SOL    HW2 9129   5.629   4.412   6.850
 2744SOL     OW 9130   4.802   6.584   0.463
 2744SOL    HW1 9131   4.865   6.596   0.540
 2744SOL    HW2 9132   4.849   6.536   0.389
 2745SOL     OW 9133   3.172   5.913   2.021
 2745SOL    HW1 9134   3.219   5.866   1.948
 2745SOL    HW2 9135   3.219   5.999   2.041
 2746SOL     OW 9136   0.772   2.040   6.418
 2746SOL    HW1 9137   0.714   2.109   6.462
 2746SOL    HW2 9138   0.729   2.010   6.333
 2747SOL     OW 9139   4.820   6.004   3.706
 2747SOL    HW1 9140   4.833   5.919   3.758
 2747SOL    HW2 9141   4.849   5.990   3.612
 2748SOL     OW 9142   5.893   1.308   4.906
 2748SOL    HW1 9143   5.938   1.269   4.826
 2748SOL    HW2 9144   5.796   1.288   4.903
 2749SOL     OW 9145   5.135   4.901   3.427
 2749SOL    HW1 9146   5.137   4.811   3.472
 2749SOL    HW2 9147   5.083   4.965   3.483
 2750SOL     OW 9148   1.343   6.562   0.438
 2750SOL    HW1 9149   1.247   6.582   0.455
 2750SOL    HW2 9150   1.400   6.625   0.490
 2751SOL     OW 9151   1.837   0.298   6.661
 2751SOL    HW1 9152   1.917   0.240   6.679
 2751SOL    HW2 9153   1.811   0.290   6.565
 2752SOL     OW 9154   0.783   6.811   6.303
 2752SOL    HW1 9155   0.729   6.890   6.332
 2752SOL    HW2 9156   0.869   6.809   6.355
 2753SOL     OW 9157   3.541   5.079   5.243
 2753SOL    HW1 9158   3.580   5.160   5.200
 2753SOL    HW2 9159   3.467   5.107   5.305
 2754SOL     OW 9160   1.005   6.108   4.143
 2754SOL    HW1 9161   1.066   6.047   4.093
 2754SOL    HW2 9162   0.910   6.083   4.125
 2755SOL     OW 9163   4.592   6.196   2.538
 2755SOL    HW1 9164   4.541   6.208   2.624
 2755SOL    HW2 9165   4.564   6.110   2.495
 2756SOL     OW 9166   0.004   2.493   5.219
 2756SOL    HW1 9167   0.095   2.450   5.222
 2756SOL    HW2 9168   6.991   2.502   5.311
 2757SOL     OW 9169   5.357   3.907   6.208
 2757SOL    HW1 9170   5.271   3.857   6.212
 2757SOL    HW2 9171   5.421   3.859   6.147
 2758SOL     OW 9172   0.088   6.120   1.598
 2758SOL    HW1 9173   0.049   6.128   1.689
 2758SOL    HW2 9174   0.058   6.196   1.541
 2759SOL     OW 9175   3.697   3.658   5.196
 2759SOL    HW1 9176   3.652   3.746   5.183
 2759SOL    HW2 9177   3.631   3.590   5.228
 2760SOL     OW 9178   5.166   5.463   2.402
 2760SOL    HW1 9179   5.233   5.446   2.474
 2760SOL    HW2 9180   5.193   5.545   2.351
 2761SOL     OW 9181   1.704   3.433   4.190
 2761SOL    HW1 9182   1.655   3.517   4.169
 2761SOL    HW2 9183   1.639   3.359   4.207
 2762SOL     OW 9184   4.530   1.384   2.065
 2762SOL    HW1 9185   4.509   1.287   2.051
 2762SOL    HW2 9186   4.537   1.404   2.163
 2763SOL     OW 9187   5.864   0.911   4.146
 2763SOL    HW1 9188   5.908   0.864   4.069
 2763SOL    HW2 9189   5.804   0.983   4.111
 2764SOL     OW 9190   6.762   2.775   3.384
 2764SOL    HW1 9191   6.769   2.690   3.436
 2764SOL    HW2 9192   6.852   2.818   3.380
 2765SOL     OW 9193   0.225   6.439   6.727
 2765SOL    HW1 9194   0.149   6.423   6.665
 2765SOL    HW2 9195   0.310   6.409   6.684
 2766SOL     OW 9196   4.895   0.312   0.516
 2766SOL    HW1 9197   4.809   0.261   0.522
 2766SOL    HW2 9198   4.909   0.342   0.422
 2767SOL     OW 9199   0.525   5.844   5.678
 2767SOL    HW1 9200   0.547   5.941   5.666
 2767SOL    HW2 9201   0.477   5.831   5.765
 2768SOL     OW 9202   4.062   6.575   1.380
 2768SOL    HW1 9203   4.160   6.560   1.395
 2768SOL    HW2 9204   4.027   6.637   1.450
 2769SOL     OW 9205   0.585   4.916   5.414
 2769SOL    HW1 9206   0.629   4.939   5.501
 2769SOL    HW2 9207   0.528   4.835   5.426
 2770SOL     OW 9208   2.530   6.678   0.516
 2770SOL    HW1 9209   2.435   6.711   0.522
 2770SOL    HW2 9210   2.530   6.586   0.477
 2771SOL     OW 9211   4.441   6.906   5.325
 2771SOL    HW1 9212   4.390   6.887   5.409
 2771SOL    HW2 9213   4.439   6.825   5.266
 2772SOL     OW 9214   5.333   2.193   3.697
 2772SOL    HW1 9215   5.358   2.097   3.690
 2772SOL    HW2 9216   5.314   2.230   3.606
 2773SOL     OW 9217   5.866   2.145   6.324
 2773SOL    HW1 9218   5.840   2.134   6.228
 2773SOL    HW2 9219   5.808   2.087   6.381
 2774SOL     OW 9220   6.722   0.487   4.014
 2774SOL    HW1 9221   6.692   0.396   4.043
 2774SOL    HW2 9222   6.778   0.528   4.086
 2775SOL     OW 9223   6.805   2.084   4.406
 2775SOL    HW1 9224   6.858   2.016   4.458
 2775SOL    HW2 9225   6.868   2.146   4.360
 2776SOL     OW 9226   4.551   3.705   6.177
 2776SOL    HW1 9227   4.475   3.646   6.205
 2776SOL    HW2 9228   4.515   3.779   6.120
 2777SOL     OW 9229   1.991   2.113   0.256
 2777SOL    HW1 9230   2.050   2.096   0.335
 2777SOL    HW2 9231   1.898   2.084   0.277
 2778SOL     OW 9232   3.296   0.320   5.759
 2778SOL    HW1 9233   3.275   0.397   5.699
 2778SOL    HW2 9234   3.395   0.310   5.769
 2779SOL     OW 9235   5.012   0.871   2.842
 2779SOL    HW1 9236   4.986   0.821   2.924
 2779SOL    HW2 9237   4.967   0.830   2.763
 2780SOL     OW 9238   0.652   1.290   4.730
 2780SOL    HW1 9239   0.745   1.326   4.732
 2780SOL    HW2 9240   0.593   1.345   4.790
 2781SOL     OW 9241   0.323   0.316   2.627
 2781SOL    HW1 9242   0.355   0.283   2.539
 2781SOL    HW2 9243   0.402   0.335   2.686
 2782SOL     OW 9244   5.928   0.081   5.038
 2782SOL    HW1 9245   5.843   0.132   5.055
 2782SOL    HW2 9246   5.989   0.090   5.117
 2783SOL     OW 9247   5.965   2.919   2.030
 2783SOL    HW1 9248   6.014   2.839   1.994
 2783SOL    HW2 9249   5.879   2.889   2.072
 2784SOL     OW 9250   0.135   2.969   1.893
 2784SOL    HW1 9251   0.124   3.002   1.799
 2784SOL    HW2 9252   0.197   2.890   1.893
 2785SOL     OW 9253   5.391   3.966   3.731
 2785SOL    HW1 9254   5.376   3.929   3.822
 2785SOL    HW2 9255   5.471   3.922   3.689
 2786SOL     OW 9256   6.936   5.593   0.809
 2786SOL    HW1 9257   6.897   5.519   0.754
 2786SOL    HW2 9258   6.877   5.611   0.887
 2787SOL     OW 9259   0.916   6.741   5.793
 2787SOL    HW1 9260   0.935   6.791   5.877
 2787SOL    HW2 9261   0.920   6.805   5.715
 2788SOL     OW 9262   3.018   6.439   0.350
 2788SOL    HW1 9263   2.994   6.436   0.447
 2788SOL    HW2 9264   2.944   6.398   0.296
 2789SOL     OW 9265   1.876   1.448   3.883
 2789SOL    HW1 9266   1.836   1.390   3.812
 2789SOL    HW2 9267   1.898   1.538   3.844
 2790SOL     OW 9268   6.590   5.338   1.266
 2790SOL    HW1 9269   6.582   5.340   1.166
 2790SOL    HW2 9270   6.675   5.383   1.294
 2791SOL     OW 9271   0.526   3.129   5.087
 2791SOL    HW1 9272   0.543   3.071   5.166
 2791SOL    HW2 9273   0.452   3.193   5.108
 2792SOL     OW 9274   3.171   2.434   6.138
 2792SOL    HW1 9275   3.201   2.498   6.067
 2792SOL    HW2 9276   3.107   2.368   6.098
 2793SOL     OW 9277   3.946   3.553   6.373
 2793SOL    HW1 9278   3.877   3.523   6.439
 2793SOL    HW2 9279   3.985   3.640   6.403
 2794SOL     OW 9280   1.747   1.688   6.920
 2794SOL    HW1 9281   1.746   1.728   7.012
 2794SOL    HW2 9282   1.781   1.756   6.855
 2795SOL     OW 9283   1.402   0.132   0.842
 2795SOL    HW1 9284   1.476   0.195   0.819
 2795SOL    HW2 9285   1.408   0.108   0.939
 2796SOL     OW 9286   3.038   6.385   6.892
 2796SOL    HW1 9287   3.019   6.482   6.875
 2796SOL    HW2 9288   3.086   6.376   6.979
 2797SOL     OW 9289   4.852   4.133   4.161
 2797SOL    HW1 9290   4.853   4.087   4.250
 2797SOL    HW2 9291   4.945   4.138   4.125
 2798SOL     OW 9292   5.337   2.393   1.914
 2798SOL    HW1 9293   5.428   2.434   1.922
 2798SOL    HW2 9294   5.333   2.311   1.971
 2799SOL     OW 9295   3.418   6.455   5.106
 2799SOL    HW1 9296   3.395   6.394   5.031
 2799SOL    HW2 9297   3.375   6.544   5.090
 2800SOL     OW 9298   5.041   1.767   6.721
 2800SOL    HW1 9299   5.013   1.680   6.762
 2800SOL    HW2 9300   5.008   1.842   6.778
 2801SOL     OW 9301   0.378   4.182   3.536
 2801SOL    HW1 9302   0.465   4.169   3.489
 2801SOL    HW2 9303   0.378   4.270   3.584
 2802SOL     OW 9304   1.330   4.879   4.312
 2802SOL    HW1 9305   1.425   4.903   4.292
 2802SOL    HW2 9306   1.318   4.780   4.301
 2803SOL     OW 9307   3.252   2.327   6.534
 2803SOL    HW1 9308   3.305   2.365   6.458
 2803SOL    HW2 9309   3.297   2.349   6.620
 2804SOL     OW 9310   5.746   2.655   4.117
 2804SOL    HW1 9311   5.832   2.700   4.139
 2804SOL    HW2 9312   5.712   2.690   4.030
 2805SOL     OW 9313   4.361   4.588   0.247
 2805SOL    HW1 9314   4.452   4.630   0.249
 2805SOL    HW2 9315   4.347   4.534   0.330
 2806SOL     OW 9316   0.286   3.085   4.674
 2806SOL    HW1 9317   0.239   3.163   4.714
 2806SOL    HW2 9318   0.356   3.052   4.737
 2807SOL     OW 9319   4.520   1.818   4.196
 2807SOL    HW1 9320   4.550   1.792   4.288
 2807SOL    HW2 9321   4.597   1.859   4.147
 2808SOL     OW 9322   1.396   6.021   6.301
 2808SOL    HW1 9323   1.417   5.931   6.264
 2808SOL    HW2 9324   1.375   6.013   6.399
 2809SOL     OW 9325   1.191   6.055   0.869
 2809SOL    HW1 9326   1.112   6.091   0.919
 2809SOL    HW2 9327   1.241   6.130   0.827
 2810SOL     OW 9328   0.869   6.348   2.327
 2810SOL    HW1 9329   0.872   6.302   2.238
 2810SOL    HW2 9330   0.780   6.332   2.370
 2811SOL     OW 9331   0.618   0.981   0.600
 2811SOL    HW1 9332   0.610   0.962   0.698
 2811SOL    HW2 9333   0.547   1.045   0.572
 2812SOL     OW 9334   1.849   1.294   1.187
 2812SOL    HW1 9335   1.867   1.256   1.096
 2812SOL    HW2 9336   1.906   1.248   1.254
 2813SOL     OW 9337   6.699   2.006   1.102
 2813SOL    HW1 9338   6.695   1.966   1.010
 2813SOL    HW2 9339   6.764   1.954   1.157
 2814SOL     OW 9340   2.560   4.353   7.007
 2814SOL    HW1 9341   2.623   4.286   0.022
 2814SOL    HW2 9342   2.522   4.317   6.921
 2815SOL     OW 9343   7.007   5.445   4.950
 2815SOL    HW1 9344   0.018   5.381   4.881
 2815SOL    HW2 9345   6.908   5.439   4.955
 2816SOL     OW 9346   1.133   4.897   4.779
 2816SOL    HW1 9347   1.144   4.828   4.707
 2816SOL    HW2 9348   1.055   4.872   4.837
 2817SOL     OW 9349   2.247   0.620   2.020
 2817SOL    HW1 9350   2.285   0.707   1.989
 2817SOL    HW2 9351   2.257   0.613   2.119
 2818SOL     OW 9352   1.697   0.910   0.613
 2818SOL    HW1 9353   1.693   0.889   0.515
 2818SOL    HW2 9354   1.781   0.874   0.651
 2819SOL     OW 9355   6.955   0.331   6.510
 2819SOL    HW1 9356   6.880   0.327   6.444
 2819SOL    HW2 9357   6.918   0.332   6.603
 2820SOL     OW 9358   1.832   1.834   0.574
 2820SOL    HW1 9359   1.863   1.772   0.646
 2820SOL    HW2 9360   1.784   1.781   0.504
 2821SOL     OW 9361   3.087   2.147   6.351
 2821SOL    HW1 9362   3.126   2.162   6.260
 2821SOL    HW2 9363   3.119   2.218   6.413
 2822SOL     OW 9364   4.087   2.818   1.380
 2822SOL    HW1 9365   4.051   2.730   1.411
 2822SOL    HW2 9366   4.184   2.825   1.404
 2823SOL     OW 9367   5.931   3.988   2.664
 2823SOL    HW1 9368   5.860   4.039   2.615
 2823SOL    HW2 9369   5.892   3.903   2.699
 2824SOL     OW 9370   0.447   4.390   5.001
 2824SOL    HW1 9371   0.505   4.309   5.011
 2824SOL    HW2 9372   0.369   4.383   5.064
 2825SOL     OW 9373   5.611   2.500   5.524
 2825SOL    HW1 9374   5.663   2.415   5.523
 2825SOL    HW2 9375   5.652   2.563   5.590
 2826SOL     OW 9376   2.786   3.298   6.892
 2826SOL    HW1 9377   2.876   3.315   6.933
 2826SOL    HW2 9378   2.729   3.379   6.902
 2827SOL     OW 9379   6.529   1.792   7.019
 2827SOL    HW1 9380   6.476   1.877   7.021
 2827SOL    HW2 9381   6.600   1.799   6.949
 2828SOL     OW 9382   1.668   4.178   0.140
 2828SOL    HW1 9383   1.697   4.083   0.151
 2828SOL    HW2 9384   1.655   4.219   0.230
 2829SOL     OW 9385   3.369   4.065   1.667
 2829SOL    HW1 9386   3.386   4.152   1.713
 2829SOL    HW2 9387   3.402   3.989   1.725
 2830SOL     OW 9388   3.061   5.716   4.334
 2830SOL    HW1 9389   3.106   5.701   4.422
 2830SOL    HW2 9390   3.018   5.630   4.304
 2831SOL     OW 9391   6.421   1.513   1.931
 2831SOL    HW1 9392   6.409   1.595   1.876
 2831SOL    HW2 9393   6.359   1.442   1.899
 2832SOL     OW 9394   1.354   4.113   1.584
 2832SOL    HW1 9395   1.421   4.091   1.655
 2832SOL    HW2 9396   1.293   4.035   1.571
 2833SOL     OW 9397   6.342   3.205   3.447
 2833SOL    HW1 9398   6.406   3.160   3.509
 2833SOL    HW2 9399   6.277   3.137   3.411
 2834SOL     OW 9400   2.974   0.584   4.626
 2834SOL    HW1 9401   2.954   0.565   4.530
 2834SOL    HW2 9402   2.893   0.565   4.681
 2835SOL     OW 9403   6.849   1.044   0.631
 2835SOL    HW1 9404   6.760   1.062   0.673
 2835SOL    HW2 9405   6.921   1.058   0.699
 2836SOL     OW 9406   3.236   5.710   1.360
 2836SOL    HW1 9407   3.220   5.751   1.270
 2836SOL    HW2 9408   3.170   5.636   1.375
 2837SOL     OW 9409   5.838   4.140   2.403
 2837SOL    HW1 9410   5.741   4.120   2.409
 2837SOL    HW2 9411   5.860   4.217   2.463
 2838SOL     OW 9412   6.875   3.940   5.761
 2838SOL    HW1 9413   6.851   4.036   5.747
 2838SOL    HW2 9414   6.909   3.928   5.854
 2839SOL     OW 9415   6.065   2.907   5.824
 2839SOL    HW1 9416   5.970   2.933   5.838
 2839SOL    HW2 9417   6.069   2.815   5.783
 2840SOL     OW 9418   6.352   6.339   5.278
 2840SOL    HW1 9419   6.310   6.308   5.192
 2840SOL    HW2 9420   6.281   6.374   5.339
 2841SOL     OW 9421   5.589   3.809   2.874
 2841SOL    HW1 9422   5.577   3.888   2.934
 2841SOL    HW2 9423   5.588   3.725   2.929
 2842SOL     OW 9424   0.937   6.587   3.729
 2842SOL    HW1 9425   0.944   6.538   3.642
 2842SOL    HW2 9426   0.856   6.645   3.728
 2843SOL     OW 9427   1.200   3.287   4.534
 2843SOL    HW1 9428   1.122   3.244   4.581
 2843SOL    HW2 9429   1.176   3.381   4.510
 2844SOL     OW 9430   5.452   3.999   0.303
 2844SOL    HW1 9431   5.513   4.057   0.249
 2844SOL    HW2 9432   5.490   3.907   0.308
 2845SOL     OW 9433   3.821   1.932   1.301
 2845SOL    HW1 9434   3.795   1.855   1.244
 2845SOL    HW2 9435   3.739   1.979   1.334
 2846SOL     OW 9436   5.023   6.992   6.883
 2846SOL    HW1 9437   5.029   0.012   6.793
 2846SOL    HW2 9438   5.024   6.893   6.874
 2847SOL     OW 9439   5.298   4.548   2.483
 2847SOL    HW1 9440   5.296   4.647   2.495
 2847SOL    HW2 9441   5.228   4.506   2.540
 2848SOL     OW 9442   0.460   3.409   6.986
 2848SOL    HW1 9443   0.527   3.428   6.914
 2848SOL    HW2 9444   0.487   3.328   0.014
 2849SOL     OW 9445   5.387   0.824   0.948
 2849SOL    HW1 9446   5.381   0.824   0.848
 2849SOL    HW2 9447   5.370   0.732   0.983
 2850SOL     OW 9448   0.720   1.126   1.134
 2850SOL    HW1 9449   0.688   1.139   1.041
 2850SOL    HW2 9450   0.643   1.105   1.194
 2851SOL     OW 9451   3.730   3.651   1.848
 2851SOL    HW1 9452   3.635   3.638   1.817
 2851SOL    HW2 9453   3.730   3.706   1.931
 2852SOL     OW 9454   0.732   5.232   4.764
 2852SOL    HW1 9455   0.718   5.323   4.725
 2852SOL    HW2 9456   0.664   5.216   4.836
 2853SOL     OW 9457   0.526   4.483   5.893
 2853SOL    HW1 9458   0.504   4.492   5.990
 2853SOL    HW2 9459   0.545   4.573   5.854
 2854SOL     OW 9460   3.470   0.460   6.901
 2854SOL    HW1 9461   3.526   0.377   6.894
 2854SOL    HW2 9462   3.465   0.489   6.997
 2855SOL     OW 9463   2.017   2.089   4.097
 2855SOL    HW1 9464   2.069   2.155   4.043
 2855SOL    HW2 9465   2.056   1.998   4.084
 2856SOL     OW 9466   1.587   5.608   4.848
 2856SOL    HW1 9467   1.658   5.570   4.907
 2856SOL    HW2 9468   1.499   5.568   4.873
 2857SOL     OW 9469   0.455   4.476   0.426
 2857SOL    HW1 9470   0.459   4.389   0.376
 2857SOL    HW2 9471   0.472   4.459   0.523
 2858SOL     OW 9472   5.440   4.848   3.769
 2858SOL    HW1 9473   5.420   4.759   3.729
 2858SOL    HW2 9474   5.533   4.875   3.746
 2859SOL     OW 9475   6.600   4.785   2.112
 2859SOL    HW1 9476   6.585   4.866   2.055
 2859SOL    HW2 9477   6.515   4.732   2.118
 2860SOL     OW 9478   1.003   6.730   3.351
 2860SOL    HW1 9479   0.925   6.780   3.313
 2860SOL    HW2 9480   1.040   6.780   3.429
 2861SOL     OW 9481   5.605   3.346   5.230
 2861SOL    HW1 9482   5.653   3.303   5.154
 2861SOL    HW2 9483   5.518   3.384   5.198
 2862SOL     OW 9484   4.616   0.881   0.488
 2862SOL    HW1 9485   4.671   0.839   0.415
 2862SOL    HW2 9486   4.541   0.933   0.447
 2863SOL     OW 9487   5.539   1.640   6.156
 2863SOL    HW1 9488   5.624   1.675   6.196
 2863SOL    HW2 9489   5.462   1.667   6.213
 2864SOL     OW 9490   3.968   4.555   0.950
 2864SOL    HW1 9491   3.932   4.496   1.022
 2864SOL    HW2 9492   4.065   4.572   0.967
 2865SOL     OW 9493   5.585   5.439   6.056
 2865SOL    HW1 9494   5.631   5.353   6.032
 2865SOL    HW2 9495   5.576   5.444   6.156
 2866SOL     OW 9496   4.090   5.802   0.928
 2866SOL    HW1 9497   4.162   5.735   0.945
 2866SOL    HW2 9498   4.037   5.775   0.848
 2867SOL     OW 9499   6.993   6.199   2.914
 2867SOL    HW1 9500   7.019   6.224   2.820
 2867SOL    HW2 9501   6.915   6.254   2.942
 2868SOL     OW 9502   6.775   6.969   5.465
 2868SOL    HW1 9503   6.801   6.894   5.525
 2868SOL    HW2 9504   6.813   0.032   5.500
 2869SOL     OW 9505   5.301   4.942   5.512
 2869SOL    HW1 9506   5.278   5.036   5.536
 2869SOL    HW2 9507   5.390   4.918   5.552
 2870SOL     OW 9508   0.574   1.381   1.376
 2870SOL    HW1 9509   0.604   1.476   1.369
 2870SOL    HW2 9510   0.639   1.330   1.433
 2871SOL     OW 9511   4.548   1.253   3.182
 2871SOL    HW1 9512   4.448   1.257   3.181
 2871SOL    HW2 9513   4.577   1.157   3.186
 2872SOL     OW 9514   3.829   1.602   2.786
 2872SOL    HW1 9515   3.778   1.556   2.859
 2872SOL    HW2 9516   3.837   1.699   2.807
 2873SOL     OW 9517   0.688   7.021   2.643
 2873SOL    HW1 9518   0.638   7.002   2.558
 2873SOL    HW2 9519   0.787   7.016   2.625
 2874SOL     OW 9520   2.099   0.718   3.154
 2874SOL    HW1 9521   2.083   0.781   3.230
 2874SOL    HW2 9522   2.191   0.732   3.118
 2875SOL     OW 9523   2.523   0.639   2.846
 2875SOL    HW1 9524   2.531   0.598   2.755
 2875SOL    HW2 9525   2.613   0.671   2.876
 2876SOL     OW 9526   0.758   6.912   0.864
 2876SOL    HW1 9527   0.856   6.895   0.874
 2876SOL    HW2 9528   0.720   6.946   0.950
 2877SOL     OW 9529   1.236   3.485   6.274
 2877SOL    HW1 9530   1.307   3.546   6.239
 2877SOL    HW2 9531   1.243   3.480   6.373
 2878SOL     OW 9532   3.250   3.165   4.394
 2878SOL    HW1 9533   3.255   3.265   4.405
 2878SOL    HW2 9534   3.248   3.121   4.484
 2879SOL     OW 9535   5.949   5.833   0.475
 2879SOL    HW1 9536   5.966   5.893   0.553
 2879SOL    HW2 9537   5.961   5.737   0.503
 2880SOL     OW 9538   1.503   1.689   2.812
 2880SOL    HW1 9539   1.579   1.647   2.863
 2880SOL    HW2 9540   1.442   1.617   2.779
 2881SOL     OW 9541   5.076   5.014   0.003
 2881SOL    HW1 9542   5.152   5.076   0.021
 2881SOL    HW2 9543   5.097   4.958   6.945
 2882SOL     OW 9544   4.750   6.595   7.004
 2882SOL    HW1 9545   4.768   6.648   6.921
 2882SOL    HW2 9546   4.678   6.640   0.035
 2883SOL     OW 9547   5.267   6.398   3.075
 2883SOL    HW1 9548   5.201   6.396   3.000
 2883SOL    HW2 9549   5.343   6.336   3.056
 2884SOL     OW 9550   6.029   5.423   3.373
 2884SOL    HW1 9551   6.063   5.503   3.422
 2884SOL    HW2 9552   5.953   5.383   3.424
 2885SOL     OW 9553   0.159   3.756   3.105
 2885SOL    HW1 9554   0.085   3.701   3.144
 2885SOL    HW2 9555   0.206   3.703   3.035
 2886SOL     OW 9556   2.248   4.219   4.737
 2886SOL    HW1 9557   2.152   4.201   4.715
 2886SOL    HW2 9558   2.273   4.169   4.820
 2887SOL     OW 9559   7.020   4.914   3.075
 2887SOL    HW1 9560   7.010   4.843   3.005
 2887SOL    HW2 9561   6.930   4.951   3.098
 2888SOL     OW 9562   4.302   6.154   6.326
 2888SOL    HW1 9563   4.392   6.198   6.324
 2888SOL    HW2 9564   4.293   6.099   6.408
 2889SOL     OW 9565   3.953   5.682   4.672
 2889SOL    HW1 9566   4.046   5.718   4.664
 2889SOL    HW2 9567   3.908   5.723   4.750
 2890SOL     OW 9568   1.854   2.320   0.515
 2890SOL    HW1 9569   1.876   2.223   0.522
 2890SOL    HW2 9570   1.879   2.354   0.424
 2891SOL     OW 9571   1.286   1.226   5.433
 2891SOL    HW1 9572   1.295   1.245   5.335
 2891SOL    HW2 9573   1.191   1.240   5.461
 2892SOL     OW 9574   5.559   4.044   2.095
 2892SOL    HW1 9575   5.658   4.055   2.090
 2892SOL    HW2 9576   5.517   4.083   2.013
 2893SOL     OW 9577   6.843   5.804   5.416
 2893SOL    HW1 9578   6.918   5.812   5.350
 2893SOL    HW2 9579   6.795   5.718   5.401
 2894SOL     OW 9580   1.639   5.626   0.987
 2894SOL    HW1 9581   1.675   5.543   1.030
 2894SOL    HW2 9582   1.687   5.705   1.023
 2895SOL     OW 9583   4.759   6.600   6.025
 2895SOL    HW1 9584   4.733   6.571   5.933
 2895SOL    HW2 9585   4.753   6.699   6.031
 2896SOL     OW 9586   6.374   0.481   5.768
 2896SOL    HW1 9587   6.347   0.498   5.673
 2896SOL    HW2 9588   6.443   0.409   5.771
 2897SOL     OW 9589   3.592   5.992   3.354
 2897SOL    HW1 9590   3.620   5.909   3.401
 2897SOL    HW2 9591   3.592   5.976   3.255
 2898SOL     OW 9592   4.996   2.740   3.011
 2898SOL    HW1 9593   5.006   2.838   3.029
 2898SOL    HW2 9594   5.087   2.699   3.001
 2899SOL     OW 9595   6.498   2.877   1.116
 2899SOL    HW1 9596   6.527   2.848   1.024
 2899SOL    HW2 9597   6.490   2.797   1.175
 2900SOL     OW 9598   3.126   2.991   5.239
 2900SOL    HW1 9599   3.139   3.064   5.306
 2900SOL    HW2 9600   3.088   2.910   5.284
 2901SOL     OW 9601   1.538   4.038   1.776
 2901SOL    HW1 9602   1.608   3.966   1.782
 2901SOL    HW2 9603   1.467   4.020   1.844
 2902SOL     OW 9604   5.442   6.205   3.338
 2902SOL    HW1 9605   5.541   6.194   3.342
 2902SOL    HW2 9606   5.408   6.235   3.428
 2903SOL     OW 9607   0.766   5.440   1.184
 2903SOL    HW1 9608   0.681   5.459   1.233
 2903SOL    HW2 9609   0.783   5.514   1.118
 2904SOL     OW 9610   2.761   4.769   4.789
 2904SOL    HW1 9611   2.729   4.859   4.819
 2904SOL    HW2 9612   2.791   4.716   4.867
 2905SOL     OW 9613   1.149   4.814   1.424
 2905SOL    HW1 9614   1.112   4.897   1.383
 2905SOL    HW2 9615   1.246   4.806   1.400
 2906SOL     OW 9616   0.019   6.050   6.083
 2906SOL    HW1 9617   0.023   6.039   6.182
 2906SOL    HW2 9618   6.961   6.104   6.059
 2907SOL     OW 9619   6.827   1.144   5.625
 2907SOL    HW1 9620   6.880   1.088   5.561
 2907SOL    HW2 9621   6.732   1.112   5.626
 2908SOL     OW 9622   4.176   6.365   3.927
 2908SOL    HW1 9623   4.265   6.404   3.903
 2908SOL    HW2 9624   4.136   6.320   3.848
 2909SOL     OW 9625   0.391   6.719   1.508
 2909SOL    HW1 9626   0.417   6.633   1.552
 2909SOL    HW2 9627   0.339   6.775   1.572
 2910SOL     OW 9628   1.245   0.987   4.371
 2910SOL    HW1 9629   1.281   0.897   4.349
 2910SOL    HW2 9630   1.175   0.979   4.442
 2911SOL     OW 9631   6.658   3.762   4.145
 2911SOL    HW1 9632   6.601   3.758   4.063
 2911SOL    HW2 9633   6.754   3.767   4.117
 2912SOL     OW 9634   0.516   1.372   2.314
 2912SOL    HW1 9635   0.580   1.435   2.359
 2912SOL    HW2 9636   0.489   1.410   2.225
 2913SOL     OW 9637   0.968   6.351   3.993
 2913SOL    HW1 9638   0.926   6.307   3.913
 2913SOL    HW2 9639   1.008   6.280   4.052
 2914SOL     OW 9640   3.583   4.388   1.053
 2914SOL    HW1 9641   3.579   4.471   1.109
 2914SOL    HW2 9642   3.497   4.338   1.063
 2915SOL     OW 9643   1.941   0.708   4.259
 2915SOL    HW1 9644   1.969   0.706   4.164
 2915SOL    HW2 9645   1.990   0.781   4.307
 2916SOL     OW 9646   0.116   5.538   6.379
 2916SOL    HW1 9647   0.026   5.505   6.352
 2916SOL    HW2 9648   0.184   5.508   6.312
 2917SOL     OW 9649   2.385   0.548   3.585
 2917SOL    HW1 9650   2.407   0.591   3.498
 2917SOL    HW2 9651   2.444   0.468   3.598
 2918SOL     OW 9652   5.111   2.237   1.268
 2918SOL    HW1 9653   5.135   2.149   1.310
 2918SOL    HW2 9654   5.158   2.246   1.180
 2919SOL     OW 9655   1.117   6.321   5.121
 2919SOL    HW1 9656   1.102   6.380   5.200
 2919SOL    HW2 9657   1.091   6.370   5.038
 2920SOL     OW 9658   2.660   2.434   1.876
 2920SOL    HW1 9659   2.758   2.453   1.874
 2920SOL    HW2 9660   2.622   2.462   1.965
 2921SOL     OW 9661   0.631   5.551   3.229
 2921SOL    HW1 9662   0.672   5.567   3.319
 2921SOL    HW2 9663   0.532   5.565   3.235
 2922SOL     OW 9664   3.837   4.867   3.070
 2922SOL    HW1 9665   3.912   4.802   3.060
 2922SOL    HW2 9666   3.857   4.950   3.018
 2923SOL     OW 9667   1.408   5.601   4.516
 2923SOL    HW1 9668   1.377   5.617   4.423
 2923SOL    HW2 9669   1.331   5.574   4.574
 2924SOL     OW 9670   5.759   1.659   6.716
 2924SOL    HW1 9671   5.747   1.598   6.794
 2924SOL    HW2 9672   5.799   1.746   6.747
 2925SOL     OW 9673   5.573   7.012   4.533
 2925SOL    HW1 9674   5.537   0.079   4.558
 2925SOL    HW2 9675   5.588   6.958   4.616
 2926SOL     OW 9676   6.476   2.731   4.508
 2926SOL    HW1 9677   6.552   2.734   4.573
 2926SOL    HW2 9678   6.390   2.728   4.558
 2927SOL     OW 9679   0.821   2.679   2.418
 2927SOL    HW1 9680   0.752   2.676   2.346
 2927SOL    HW2 9681   0.782   2.640   2.502
 2928SOL     OW 9682   4.981   4.368   0.834
 2928SOL    HW1 9683   4.959   4.317   0.917
 2928SOL    HW2 9684   5.058   4.325   0.788
 2929SOL     OW 9685   2.027   1.831   3.312
 2929SOL    HW1 9686   2.029   1.881   3.225
 2929SOL    HW2 9687   2.104   1.767   3.315
 2930SOL     OW 9688   0.665   3.254   4.188
 2930SOL    HW1 9689   0.658   3.187   4.263
 2930SOL    HW2 9690   0.724   3.329   4.217
 2931SOL     OW 9691   6.051   4.185   5.960
 2931SOL    HW1 9692   6.125   4.185   6.027
 2931SOL    HW2 9693   5.966   4.156   6.004
 2932SOL     OW 9694   6.423   6.108   0.996
 2932SOL    HW1 9695   6.458   6.187   1.046
 2932SOL    HW2 9696   6.324   6.117   0.985
 2933SOL     OW 9697   1.029   6.902   0.437
 2933SOL    HW1 9698   0.971   6.981   0.414
 2933SOL    HW2 9699   1.053   6.853   0.354
 2934SOL     OW 9700   5.878   5.042   2.040
 2934SOL    HW1 9701   5.829   5.105   2.100
 2934SOL    HW2 9702   5.842   4.950   2.053
 2935SOL     OW 9703   0.994   3.835   5.708
 2935SOL    HW1 9704   1.033   3.898   5.776
 2935SOL    HW2 9705   1.060   3.762   5.689
 2936SOL     OW 9706   3.962   5.756   2.144
 2936SOL    HW1 9707   4.009   5.827   2.092
 2936SOL    HW2 9708   3.982   5.767   2.241
 2937SOL     OW 9709   6.123   3.656   3.164
 2937SOL    HW1 9710   6.127   3.562   3.128
 2937SOL    HW2 9711   6.144   3.720   3.090
 2938SOL     OW 9712   0.640   5.467   0.752
 2938SOL    HW1 9713   0.652   5.563   0.725
 2938SOL    HW2 9714   0.588   5.462   0.837
 2939SOL     OW 9715   6.074   6.450   1.576
 2939SOL    HW1 9716   6.046   6.452   1.672
 2939SOL    HW2 9717   6.012   6.393   1.524
 2940SOL     OW 9718   4.694   6.578   4.026
 2940SOL    HW1 9719   4.735   6.519   4.095
 2940SOL    HW2 9720   4.594   6.566   4.026
 2941SOL     OW 9721   2.569   5.160   2.830
 2941SOL    HW1 9722   2.665   5.163   2.801
 2941SOL    HW2 9723   2.543   5.066   2.850
 2942SOL     OW 9724   3.385   2.064   1.336
 2942SOL    HW1 9725   3.409   1.986   1.279
 2942SOL    HW2 9726   3.451   2.073   1.410
 2943SOL     OW 9727   0.502   3.910   3.812
 2943SOL    HW1 9728   0.498   3.863   3.724
 2943SOL    HW2 9729   0.430   3.980   3.816
 2944SOL     OW 9730   0.458   5.778   2.986
 2944SOL    HW1 9731   0.517   5.742   2.914
 2944SOL    HW2 9732   0.446   5.709   3.057
 2945SOL     OW 9733   5.707   3.812   0.578
 2945SOL    HW1 9734   5.703   3.912   0.571
 2945SOL    HW2 9735   5.663   3.782   0.662
 2946SOL     OW 9736   3.202   4.130   4.511
 2946SOL    HW1 9737   3.272   4.180   4.461
 2946SOL    HW2 9738   3.134   4.095   4.446
 2947SOL     OW 9739   6.159   5.325   6.745
 2947SOL    HW1 9740   6.225   5.389   6.783
 2947SOL    HW2 9741   6.092   5.300   6.815
 2948SOL     OW 9742   6.237   4.283   0.786
 2948SOL    HW1 9743   6.286   4.214   0.732
 2948SOL    HW2 9744   6.304   4.339   0.836
 2949SOL     OW 9745   1.590   5.982   1.321
 2949SOL    HW1 9746   1.508   6.004   1.374
 2949SOL    HW2 9747   1.612   6.059   1.260
 2950SOL     OW 9748   5.600   5.430   2.273
 2950SOL    HW1 9749   5.621   5.524   2.245
 2950SOL    HW2 9750   5.622   5.418   2.369
 2951SOL     OW 9751   0.910   2.287   1.372
 2951SOL    HW1 9752   1.009   2.301   1.373
 2951SOL    HW2 9753   0.890   2.191   1.353
 2952SOL     OW 9754   0.416   1.413   4.174
 2952SOL    HW1 9755   0.445   1.459   4.258
 2952SOL    HW2 9756   0.321   1.436   4.155
 2953SOL     OW 9757   1.396   5.818   2.887
 2953SOL    HW1 9758   1.432   5.886   2.951
 2953SOL    HW2 9759   1.455   5.737   2.888
 2954SOL     OW 9760   0.723   4.421   6.173
 2954SOL    HW1 9761   0.650   4.483   6.202
 2954SOL    HW2 9762   0.800   4.475   6.138
 2955SOL     OW 9763   1.964   4.810   6.763
 2955SOL    HW1 9764   1.981   4.851   6.853
 2955SOL    HW2 9765   1.949   4.882   6.696
 2956SOL     OW 9766   5.553   3.920   4.519
 2956SOL    HW1 9767   5.569   3.850   4.449
 2956SOL    HW2 9768   5.566   4.011   4.479
 2957SOL     OW 9769   1.580   5.217   3.074
 2957SOL    HW1 9770   1.491   5.263   3.064
 2957SOL    HW2 9771   1.593   5.192   3.170
 2958SOL     OW 9772   1.705   4.301   1.698
 2958SOL    HW1 9773   1.680   4.213   1.737
 2958SOL    HW2 9774   1.801   4.321   1.719
 2959SOL     OW 9775   0.142   4.473   3.788
 2959SOL    HW1 9776   0.042   4.478   3.788
 2959SOL    HW2 9777   0.175   4.474   3.694
 2960SOL     OW 9778   5.158   6.108   0.982
 2960SOL    HW1 9779   5.142   6.012   1.007
 2960SOL    HW2 9780   5.075   6.146   0.941
 2961SOL     OW 9781   5.957   2.302   1.741
 2961SOL    HW1 9782   5.902   2.262   1.814
 2961SOL    HW2 9783   5.925   2.268   1.653
 2962SOL     OW 9784   0.182   6.978   4.086
 2962SOL    HW1 9785   0.111   7.017   4.028
 2962SOL    HW2 9786   0.240   0.028   4.122
 2963SOL     OW 9787   2.038   1.623   5.592
 2963SOL    HW1 9788   2.034   1.676   5.507
 2963SOL    HW2 9789   1.952   1.574   5.605
 2964SOL     OW 9790   1.430   0.511   6.263
 2964SOL    HW1 9791   1.374   0.463   6.331
 2964SOL    HW2 9792   1.512   0.457   6.244
 2965SOL     OW 9793   6.309   0.247   6.503
 2965SOL    HW1 9794   6.360   0.332   6.490
 2965SOL    HW2 9795   6.348   0.176   6.443
 2966SOL     OW 9796   3.528   5.910   2.791
 2966SOL    HW1 9797   3.610   5.941   2.745
 2966SOL    HW2 9798   3.448   5.953   2.749
 2967SOL     OW 9799   5.891   6.864   4.874
 2967SOL    HW1 9800   5.963   6.795   4.867
 2967SOL    HW2 9801   5.930   6.949   4.908
 2968SOL     OW 9802   1.205   4.365   1.609
 2968SOL    HW1 9803   1.253   4.278   1.600
 2968SOL    HW2 9804   1.182   4.400   1.519
 2969SOL     OW 9805   4.663   2.622   4.690
 2969SOL    HW1 9806   4.592   2.584   4.749
 2969SOL    HW2 9807   4.735   2.553   4.677
 2970SOL     OW 9808   2.487   2.213   5.967
 2970SOL    HW1 9809   2.497   2.311   5.950
 2970SOL    HW2 9810   2.552   2.163   5.911
 2971SOL     OW 9811   4.344   3.557   6.264
 2971SOL    HW1 9812   4.287   3.478   6.285
 2971SOL    HW2 9813   4.297   3.615   6.197
 2972SOL     OW 9814   0.536   5.999   6.321
 2972SOL    HW1 9815   0.443   5.994   6.286
 2972SOL    HW2 9816   0.598   5.950   6.259
 2973SOL     OW 9817   5.467   0.722   4.177
 2973SOL    HW1 9818   5.567   0.719   4.184
 2973SOL    HW2 9819   5.432   0.792   4.238
 2974SOL     OW 9820   5.308   6.024   2.603
 2974SOL    HW1 9821   5.377   6.021   2.675
 2974SOL    HW2 9822   5.217   6.017   2.643
 2975SOL     OW 9823   0.050   3.606   4.550
 2975SOL    HW1 9824   0.081   3.700   4.562
 2975SOL    HW2 9825   6.980   3.606   4.511
 2976SOL     OW 9826   3.928   0.552   1.514
 2976SOL    HW1 9827   3.907   0.529   1.419
 2976SOL    HW2 9828   4.006   0.614   1.516
 2977SOL     OW 9829   1.627   1.000   2.247
 2977SOL    HW1 9830   1.676   0.968   2.328
 2977SOL    HW2 9831   1.528   0.988   2.261
 2978SOL     OW 9832   3.724   6.195   0.190
 2978SOL    HW1 9833   3.729   6.202   0.289
 2978SOL    HW2 9834   3.767   6.111   0.159
 2979SOL     OW 9835   2.726   1.248   5.502
 2979SOL    HW1 9836   2.669   1.329   5.518
 2979SOL    HW2 9837   2.821   1.269   5.524
 2980SOL     OW 9838   3.464   2.939   4.062
 2980SOL    HW1 9839   3.454   3.038   4.064
 2980SOL    HW2 9840   3.379   2.896   4.091
 2981SOL     OW 9841   2.966   2.076   1.756
 2981SOL    HW1 9842   2.964   2.026   1.670
 2981SOL    HW2 9843   3.018   2.161   1.744
 2982SOL     OW 9844   1.615   0.767   1.548
 2982SOL    HW1 9845   1.689   0.720   1.596
 2982SOL    HW2 9846   1.528   0.726   1.574
 2983SOL     OW 9847   6.752   2.946   6.494
 2983SOL    HW1 9848   6.665   2.992   6.479
 2983SOL    HW2 9849   6.765   2.875   6.425
 2984SOL     OW 9850   0.532   6.317   0.995
 2984SOL    HW1 9851   0.478   6.269   1.065
 2984SOL    HW2 9852   0.593   6.252   0.950
 2985SOL     OW 9853   6.697   0.107   5.956
 2985SOL    HW1 9854   6.650   0.052   6.026
 2985SOL    HW2 9855   6.795   0.087   5.958
 2986SOL     OW 9856   3.857   3.246   2.961
 2986SOL    HW1 9857   3.803   3.316   2.916
 2986SOL    HW2 9858   3.827   3.236   3.056
 2987SOL     OW 9859   2.358   5.703   4.968
 2987SOL    HW1 9860   2.443   5.732   4.925
 2987SOL    HW2 9861   2.378   5.630   5.034
 2988SOL     OW 9862   0.839   1.343   6.462
 2988SOL    HW1 9863   0.861   1.417   6.398
 2988SOL    HW2 9864   0.846   1.378   6.556
 2989SOL     OW 9865   5.699   3.929   5.967
 2989SOL    HW1 9866   5.749   3.992   6.027
 2989SOL    HW2 9867   5.761   3.892   5.898
 2990SOL     OW 9868   4.960   0.885   5.443
 2990SOL    HW1 9869   4.945   0.968   5.496
 2990SOL    HW2 9870   4.885   0.821   5.458
 2991SOL     OW 9871   6.532   2.819   0.152
 2991SOL    HW1 9872   6.492   2.891   0.096
 2991SOL    HW2 9873   6.463   2.784   0.216
 2992SOL     OW 9874   1.193   4.133   5.333
 2992SOL    HW1 9875   1.254   4.099   5.261
 2992SOL    HW2 9876   1.099   4.134   5.299
 2993SOL     OW 9877   3.602   5.005   6.798
 2993SOL    HW1 9878   3.591   5.095   6.755
 2993SOL    HW2 9879   3.512   4.965   6.816
 2994SOL     OW 9880   2.355   4.947   4.919
 2994SOL    HW1 9881   2.407   5.030   4.941
 2994SOL    HW2 9882   2.418   4.872   4.902
 2995SOL     OW 9883   5.009   0.040   1.849
 2995SOL    HW1 9884   5.070   0.022   1.927
 2995SOL    HW2 9885   4.918   0.065   1.883
 2996SOL     OW 9886   6.808   0.931   4.244
 2996SOL    HW1 9887   6.848   0.963   4.158
 2996SOL    HW2 9888   6.729   0.988   4.267
 2997SOL     OW 9889   4.742   5.975   4.062
 2997SOL    HW1 9890   4.823   5.920   4.043
 2997SOL    HW2 9891   4.735   5.990   4.160
 2998SOL     OW 9892   2.500   0.067   2.174
 2998SOL    HW1 9893   2.501   7.015   2.107
 2998SOL    HW2 9894   2.566   0.047   2.246
 2999SOL     OW 9895   1.730   4.889   0.426
 2999SOL    HW1 9896   1.727   4.937   0.514
 2999SOL    HW2 9897   1.642   4.843   0.410
 3000SOL     OW 9898   1.992   4.237   6.212
 3000SOL    HW1 9899   1.985   4.298   6.290
 3000SOL    HW2 9900   1.909   4.181   6.205
 3001SOL     OW 9901   3.813   0.527   6.163
 3001SOL    HW1 9902   3.857   0.596   6.107
 3001SOL    HW2 9903   3.730   0.495   6.118
 3002SOL     OW 9904   1.046   2.385   2.128
 3002SOL    HW1 9905   0.964   2.349   2.171
 3002SOL    HW2 9906   1.040   2.484   2.121
 3003SOL     OW 9907   1.269   6.288   0.481
 3003SOL    HW1 9908   1.360   6.289   0.439
 3003SOL    HW2 9909   1.206   6.342   0.425
 3004SOL     OW 9910   2.853   6.930   4.443
 3004SOL    HW1 9911   2.916   6.870   4.395
 3004SOL    HW2 9912   2.904   6.996   4.497
 3005SOL     OW 9913   2.656   2.178   0.526
 3005SOL    HW1 9914   2.595   2.134   0.592
 3005SOL    HW2 9915   2.672   2.273   0.554
 3006SOL     OW 9916   5.516   1.205   5.703
 3006SOL    HW1 9917   5.564   1.156   5.630
 3006SOL    HW2 9918   5.426   1.163   5.717
 3007SOL     OW 9919   6.203   5.716   5.923
 3007SOL    HW1 9920   6.261   5.641   5.954
 3007SOL    HW2 9921   6.139   5.682   5.854
 3008SOL     OW 9922   5.348   4.309   5.550
 3008SOL    HW1 9923   5.260   4.342   5.585
 3008SOL    HW2 9924   5.333   4.231   5.490
 3009SOL     OW 9925   5.407   3.447   1.922
 3009SOL    HW1 9926   5.468   3.389   1.867
 3009SOL    HW2 9927   5.426   3.543   1.903
 3010SOL     OW 9928   4.053   4.503   1.424
 3010SOL    HW1 9929   3.967   4.496   1.375
 3010SOL    HW2 9930   4.086   4.598   1.421
 3011SOL     OW 9931   5.978   6.889   0.282
 3011SOL    HW1 9932   6.003   6.967   0.224
 3011SOL    HW2 9933   5.982   6.805   0.229
 3012SOL     OW 9934   2.718   1.426   4.814
 3012SOL    HW1 9935   2.626   1.404   4.780
 3012SOL    HW2 9936   2.769   1.342   4.829
 3013SOL     OW 9937   0.602   5.450   5.250
 3013SOL    HW1 9938   0.555   5.486   5.169
 3013SOL    HW2 9939   0.581   5.508   5.329
 3014SOL     OW 9940   3.935   0.518   0.322
 3014SOL    HW1 9941   3.886   0.509   0.235
 3014SOL    HW2 9942   3.911   0.441   0.382
 3015SOL     OW 9943   2.313   6.866   5.879
 3015SOL    HW1 9944   2.214   6.874   5.891
 3015SOL    HW2 9945   2.333   6.800   5.806
 3016SOL     OW 9946   3.378   0.970   4.380
 3016SOL    HW1 9947   3.381   0.988   4.282
 3016SOL    HW2 9948   3.311   0.898   4.399
 3017SOL     OW 9949   1.502   6.104   0.251
 3017SOL    HW1 9950   1.509   6.198   0.286
 3017SOL    HW2 9951   1.409   6.087   0.218
 3018SOL     OW 9952   2.417   2.340   1.742
 3018SOL    HW1 9953   2.502   2.363   1.789
 3018SOL    HW2 9954   2.349   2.411   1.760
 3019SOL     OW 9955   1.316   0.617   5.196
 3019SOL    HW1 9956   1.362   0.611   5.285
 3019SOL    HW2 9957   1.378   0.583   5.125
 3020SOL     OW 9958   4.696   4.223   6.820
 3020SOL    HW1 9959   4.667   4.310   6.780
 3020SOL    HW2 9960   4.757   4.176   6.756
 3021SOL     OW 9961   4.471   6.214   4.409
 3021SOL    HW1 9962   4.391   6.154   4.413
 3021SOL    HW2 9963   4.458   6.281   4.335
 3022SOL     OW 9964   3.869   6.740   3.383
 3022SOL    HW1 9965   3.839   6.834   3.397
 3022SOL    HW2 9966   3.923   6.734   3.299
 3023SOL     OW 9967   5.040   4.797   4.948
 3023SOL    HW1 9968   5.118   4.787   5.009
 3023SOL    HW2 9969   4.993   4.709   4.939
 3024SOL     OW 9970   6.293   1.398   0.327
 3024SOL    HW1 9971   6.267   1.405   0.230
 3024SOL    HW2 9972   6.391   1.384   0.334
 3025SOL     OW 9973   4.210   5.028   0.792
 3025SOL    HW1 9974   4.285   5.036   0.727
 3025SOL    HW2 9975   4.247   5.020   0.884
 3026SOL     OW 9976   0.334   0.144   2.388
 3026SOL    HW1 9977   0.402   0.214   2.365
 3026SOL    HW2 9978   0.292   0.109   2.304
 3027SOL     OW 9979   4.332   0.425   0.697
 3027SOL    HW1 9980   4.388   0.383   0.768
 3027SOL    HW2 9981   4.391   0.463   0.626
 3028SOL     OW 9982   4.028   3.285   4.332
 3028SOL    HW1 9983   4.095   3.319   4.266
 3028SOL    HW2 9984   3.936   3.302   4.298
 3029SOL     OW 9985   0.214   2.550   4.699
 3029SOL    HW1 9986   0.194   2.472   4.758
 3029SOL    HW2 9987   0.291   2.602   4.736
 3030SOL     OW 9988   0.462   3.331   6.367
 3030SOL    HW1 9989   0.439   3.233   6.365
 3030SOL    HW2 9990   0.524   3.352   6.292
 3031SOL     OW 9991   0.489   4.452   6.749
 3031SOL    HW1 9992   0.507   4.385   6.821
 3031SOL    HW2 9993   0.552   4.529   6.758
 3032SOL     OW 9994   3.732   0.361   3.826
 3032SOL    HW1 9995   3.797   0.421   3.780
 3032SOL    HW2 9996   3.649   0.353   3.772
 3033SOL     OW 9997   1.973   1.046   6.629
 3033SOL    HW1 9998   1.923   1.101   6.696
 3033SOL    HW2 9999   2.034   1.105   6.576
 3034SOL     OW10000   5.605   3.376   3.438
 3034SOL    HW110001   5.598   3.475   3.429
 3034SOL    HW210002   5.514   3.336   3.447
 3035SOL     OW10003   6.511   3.709   6.564
 3035SOL    HW110004   6.525   3.795   6.613
 3035SOL    HW210005   6.464   3.727   6.478
 3036SOL     OW10006   3.219   2.257   5.884
 3036SOL    HW110007   3.262   2.226   5.968
 3036SOL    HW210008   3.121   2.235   5.886
 3037SOL     OW10009   0.166   5.242   6.425
 3037SOL    HW110010   0.252   5.258   6.376
 3037SOL    HW210011   0.154   5.311   6.496
 3038SOL     OW10012   5.658   4.714   5.011
 3038SOL    HW110013   5.662   4.721   5.110
 3038SOL    HW210014   5.575   4.665   4.984
 3039SOL     OW10015   5.993   3.220   6.117
 3039SOL    HW110016   6.071   3.241   6.176
 3039SOL    HW210017   5.909   3.221   6.171
 3040SOL     OW10018   4.137   6.431   6.636
 3040SOL    HW110019   4.234   6.444   6.616
 3040SOL    HW210020   4.110   6.338   6.610
 3041SOL     OW10021   2.317   6.018   6.523
 3041SOL    HW110022   2.394   5.976   6.475
 3041SOL    HW210023   2.352   6.074   6.598
 3042SOL     OW10024   0.260   5.511   3.757
 3042SOL    HW110025   0.233   5.476   3.667
 3042SOL    HW210026   0.293   5.435   3.813
 3043SOL     OW10027   2.264   3.966   1.210
 3043SOL    HW110028   2.273   4.066   1.208
 3043SOL    HW210029   2.340   3.925   1.161
 3044SOL     OW10030   3.765   3.831   4.758
 3044SOL    HW110031   3.734   3.757   4.817
 3044SOL    HW210032   3.808   3.903   4.813
 3045SOL     OW10033   5.624   0.486   3.216
 3045SOL    HW110034   5.544   0.546   3.232
 3045SOL    HW210035   5.707   0.542   3.213
 3046SOL     OW10036   6.510   5.652   1.285
 3046SOL    HW110037   6.441   5.578   1.286
 3046SOL    HW210038   6.472   5.731   1.238
 3047SOL     OW10039   5.243   1.629   3.541
 3047SOL    HW110040   5.244   1.601   3.445
 3047SOL    HW210041   5.302   1.709   3.553
 3048SOL     OW10042   4.632   5.259   1.200
 3048SOL    HW110043   4.583   5.344   1.186
 3048SOL    HW210044   4.590   5.187   1.144
 3049SOL     OW10045   0.110   0.923   1.656
 3049SOL    HW110046   0.146   1.010   1.688
 3049SOL    HW210047   0.159   0.895   1.573
 3050SOL     OW10048   3.841   2.300   6.325
 3050SOL    HW110049   3.912   2.308   6.396
 3050SOL    HW210050   3.882   2.317   6.235
 3051SOL     OW10051   2.201   4.786   6.426
 3051SOL    HW110052   2.104   4.773   6.408
 3051SOL    HW210053   2.236   4.861   6.369
 3052SOL     OW10054   5.822   6.339   3.835
 3052SOL    HW110055   5.808   6.438   3.829
 3052SOL    HW210056   5.779   6.304   3.918
 3053SOL     OW10057   0.572   5.492   6.270
 3053SOL    HW110058   0.481   5.523   6.241
 3053SOL    HW210059   0.638   5.509   6.197
 3054SOL     OW10060   6.175   6.636   3.361
 3054SOL    HW110061   6.262   6.649   3.409
 3054SOL    HW210062   6.124   6.722   3.360
 3055SOL     OW10063   5.134   6.288   0.683
 3055SOL    HW110064   5.212   6.337   0.721
 3055SOL    HW210065   5.162   6.196   0.656
 3056SOL     OW10066   4.136   2.202   0.851
 3056SOL    HW110067   4.142   2.228   0.948
 3056SOL    HW210068   4.226   2.208   0.809
 3057SOL     OW10069   6.669   3.235   3.783
 3057SOL    HW110070   6.655   3.269   3.877
 3057SOL    HW210071   6.599   3.274   3.723
 3058SOL     OW10072   6.253   4.258   5.798
 3058SOL    HW110073   6.301   4.173   5.816
 3058SOL    HW210074   6.167   4.259   5.850
 3059SOL     OW10075   1.378   2.815   3.603
 3059SOL    HW110076   1.433   2.743   3.646
 3059SOL    HW210077   1.310   2.773   3.542
 3060SOL     OW10078   5.636   3.829   3.705
 3060SOL    HW110079   5.723   3.856   3.663
 3060SOL    HW210080   5.606   3.741   3.666
 3061SOL     OW10081   5.890   6.376   2.435
 3061SOL    HW110082   5.866   6.466   2.472
 3061SOL    HW210083   5.982   6.351   2.465
 3062SOL     OW10084   3.725   5.204   0.751
 3062SOL    HW110085   3.680   5.188   0.663
 3062SOL    HW210086   3.802   5.141   0.760
 3063SOL     OW10087   6.547   5.324   0.444
 3063SOL    HW110088   6.634   5.339   0.492
 3063SOL    HW210089   6.552   5.239   0.392
 3064SOL     OW10090   4.592   1.702   6.152
 3064SOL    HW110091   4.498   1.702   6.116
 3064SOL    HW210092   4.656   1.687   6.076
 3065SOL     OW10093   5.323   0.577   6.981
 3065SOL    HW110094   5.237   0.527   6.993
 3065SOL    HW210095   5.303   0.673   6.964
 3066SOL     OW10096   5.541   6.907   6.072
 3066SOL    HW110097   5.547   6.978   6.142
 3066SOL    HW210098   5.461   6.850   6.090
 3067SOL     OW10099   1.733   2.165   4.589
 3067SOL    HW110100   1.815   2.157   4.645
 3067SOL    HW210101   1.758   2.163   4.492
 3068SOL     OW10102   5.735   6.985   0.396
 3068SOL    HW110103   5.818   6.953   0.350
 3068SOL    HW210104   5.752   0.052   0.437
 3069SOL     OW10105   5.524   6.064   3.646
 3069SOL    HW110106   5.528   6.087   3.744
 3069SOL    HW210107   5.429   6.067   3.615
 3070SOL     OW10108   3.219   1.270   1.431
 3070SOL    HW110109   3.146   1.288   1.496
 3070SOL    HW210110   3.190   1.198   1.367
 3071SOL     OW10111   5.454   4.584   4.911
 3071SOL    HW110112   5.476   4.502   4.963
 3071SOL    HW210113   5.502   4.581   4.823
 3072SOL     OW10114   1.613   6.674   5.322
 3072SOL    HW110115   1.677   6.598   5.311
 3072SOL    HW210116   1.523   6.646   5.287
 3073SOL     OW10117   6.911   5.352   2.989
 3073SOL    HW110118   6.982   5.357   3.059
 3073SOL    HW210119   6.855   5.435   2.992
 3074SOL     OW10120   3.294   3.031   1.825
 3074SOL    HW110121   3.198   3.045   1.845
 3074SOL    HW210122   3.314   3.064   1.732
 3075SOL     OW10123   3.729   5.046   0.473
 3075SOL    HW110124   3.806   4.983   0.488
 3075SOL    HW210125   3.733   5.080   0.379
 3076SOL     OW10126   1.941   1.415   4.125
 3076SOL    HW110127   1.905   1.427   4.033
 3076SOL    HW210128   2.005   1.489   4.146
 3077SOL     OW10129   6.957   3.853   2.366
 3077SOL    HW110130   6.987   3.770   2.414
 3077SOL    HW210131   6.875   3.833   2.313
 3078SOL     OW10132   7.008   4.748   0.949
 3078SOL    HW110133   0.030   4.665   0.915
 3078SOL    HW210134   6.909   4.738   0.943
 3079SOL     OW10135   0.901   3.924   3.486
 3079SOL    HW110136   0.989   3.958   3.452
 3079SOL    HW210137   0.842   3.902   3.408
 3080SOL     OW10138   3.864   4.673   1.702
 3080SOL    HW110139   3.919   4.590   1.697
 3080SOL    HW210140   3.777   4.653   1.745
 3081SOL     OW10141   2.070   2.691   6.335
 3081SOL    HW110142   1.987   2.736   6.367
 3081SOL    HW210143   2.076   2.699   6.236
 3082SOL     OW10144   5.602   4.202   4.677
 3082SOL    HW110145   5.563   4.187   4.586
 3082SOL    HW210146   5.680   4.265   4.669
 3083SOL     OW10147   3.955   5.926   1.150
 3083SOL    HW110148   3.883   5.954   1.086
 3083SOL    HW210149   4.030   5.885   1.098
 3084SOL     OW10150   6.912   5.414   4.101
 3084SOL    HW110151   6.835   5.424   4.164
 3084SOL    HW210152   6.976   5.346   4.137
 3085SOL     OW10153   6.460   5.239   6.792
 3085SOL    HW110154   6.418   5.316   6.744
 3085SOL    HW210155   6.550   5.221   6.754
 3086SOL     OW10156   5.988   6.272   6.481
 3086SOL    HW110157   5.933   6.249   6.562
 3086SOL    HW210158   6.075   6.313   6.511
 3087SOL     OW10159   2.812   0.186   1.775
 3087SOL    HW110160   2.859   0.173   1.688
 3087SOL    HW210161   2.879   0.193   1.848
 3088SOL     OW10162   2.207   3.279   5.264
 3088SOL    HW110163   2.285   3.232   5.306
 3088SOL    HW210164   2.178   3.229   5.183
 3089SOL     OW10165   3.809   6.815   0.010
 3089SOL    HW110166   3.813   6.749   6.958
 3089SOL    HW210167   3.799   6.767   0.097
 3090SOL     OW10168   1.493   2.544   2.366
 3090SOL    HW110169   1.443   2.457   2.368
 3090SOL    HW210170   1.428   2.619   2.353
 3091SOL     OW10171   1.128   2.648   6.680
 3091SOL    HW110172   1.205   2.704   6.709
 3091SOL    HW210173   1.086   2.687   6.599
 3092SOL     OW10174   4.866   1.534   3.341
 3092SOL    HW110175   4.929   1.590   3.395
 3092SOL    HW210176   4.891   1.540   3.244
 3093SOL     OW10177   6.357   4.876   0.179
 3093SOL    HW110178   6.364   4.928   0.094
 3093SOL    HW210179   6.296   4.924   0.242
 3094SOL     OW10180   2.528   1.153   5.805
 3094SOL    HW110181   2.445   1.183   5.758
 3094SOL    HW210182   2.529   1.053   5.809
 3095SOL     OW10183   1.888   3.409   5.614
 3095SOL    HW110184   1.928   3.495   5.580
 3095SOL    HW210185   1.935   3.332   5.572
 3096SOL     OW10186   1.638   2.878   3.935
 3096SOL    HW110187   1.545   2.915   3.929
 3096SOL    HW210188   1.659   2.855   4.030
 3097SOL     OW10189   5.271   2.799   5.991
 3097SOL    HW110190   5.351   2.837   6.038
 3097SOL    HW210191   5.204   2.768   6.058
 3098SOL     OW10192   1.117   3.302   2.211
 3098SOL    HW110193   1.212   3.334   2.211
 3098SOL    HW210194   1.089   3.279   2.304
 3099SOL     OW10195   0.566   6.813   5.972
 3099SOL    HW110196   0.570   6.804   5.873
 3099SOL    HW210197   0.618   6.893   6.001
 3100SOL     OW10198   6.095   4.427   2.483
 3100SOL    HW110199   6.163   4.463   2.548
 3100SOL    HW210200   6.007   4.418   2.529
 3101SOL     OW10201   5.403   0.951   4.371
 3101SOL    HW110202   5.449   1.017   4.311
 3101SOL    HW210203   5.439   0.960   4.464
 3102SOL     OW10204   6.333   4.111   2.607
 3102SOL    HW110205   6.367   4.204   2.616
 3102SOL    HW210206   6.298   4.096   2.515
 3103SOL     OW10207   1.329   1.045   2.381
 3103SOL    HW110208   1.243   1.005   2.413
 3103SOL    HW210209   1.394   1.048   2.457
 3104SOL     OW10210   5.993   2.067   5.990
 3104SOL    HW110211   5.960   1.990   6.044
 3104SOL    HW210212   6.027   2.139   6.051
 3105SOL     OW10213   5.703   4.123   0.456
 3105SOL    HW110214   5.785   4.143   0.509
 3105SOL    HW210215   5.726   4.121   0.359
 3106SOL     OW10216   5.472   1.700   5.868
 3106SOL    HW110217   5.513   1.650   5.792
 3106SOL    HW210218   5.519   1.677   5.953
 3107SOL     OW10219   4.199   1.998   4.837
 3107SOL    HW110220   4.140   1.919   4.822
 3107SOL    HW210221   4.275   1.996   4.772
 3108SOL     OW10222   1.768   4.721   3.864
 3108SOL    HW110223   1.834   4.711   3.790
 3108SOL    HW210224   1.760   4.634   3.913
 3109SOL     OW10225   0.347   5.298   3.365
 3109SOL    HW110226   0.327   5.206   3.400
 3109SOL    HW210227   0.366   5.292   3.268
 3110SOL     OW10228   1.328   5.921   4.505
 3110SOL    HW110229   1.422   5.955   4.509
 3110SOL    HW210230   1.305   5.875   4.590
 3111SOL     OW10231   6.597   4.033   3.723
 3111SOL    HW110232   6.640   3.957   3.675
 3111SOL    HW210233   6.525   4.072   3.665
 3112SOL     OW10234   4.546   0.535   1.227
 3112SOL    HW110235   4.626   0.576   1.183
 3112SOL    HW210236   4.517   0.593   1.303
 3113SOL     OW10237   1.337   6.928   4.127
 3113SOL    HW110238   1.310   6.985   4.205
 3113SOL    HW210239   1.355   6.834   4.158
 3114SOL     OW10240   4.609   6.159   4.990
 3114SOL    HW110241   4.687   6.109   5.028
 3114SOL    HW210242   4.562   6.208   5.063
 3115SOL     OW10243   4.707   6.042   4.325
 3115SOL    HW110244   4.688   6.132   4.363
 3115SOL    HW210245   4.708   5.974   4.399
 3116SOL     OW10246   0.674   1.879   6.763
 3116SOL    HW110247   0.753   1.937   6.783
 3116SOL    HW210248   0.590   1.932   6.776
 3117SOL     OW10249   4.638   6.984   1.110
 3117SOL    HW110250   4.581   7.002   1.190
 3117SOL    HW210251   4.718   6.930   1.138
 3118SOL     OW10252   0.863   1.942   2.984
 3118SOL    HW110253   0.844   1.865   2.924
 3118SOL    HW210254   0.817   1.928   3.072
 3119SOL     OW10255   4.506   6.983   3.925
 3119SOL    HW110256   4.569   6.915   3.888
 3119SOL    HW210257   4.468   6.950   4.011
 3120SOL     OW10258   3.283   6.289   6.757
 3120SOL    HW110259   3.194   6.320   6.789
 3120SOL    HW210260   3.352   6.307   6.828
 3121SOL     OW10261   3.815   2.139   3.159
 3121SOL    HW110262   3.905   2.170   3.190
 3121SOL    HW210263   3.758   2.119   3.239
 3122SOL     OW10264   5.537   3.731   6.052
 3122SOL    HW110265   5.583   3.642   6.061
 3122SOL    HW210266   5.604   3.800   6.025
 3123SOL     OW10267   2.106   2.948   2.627
 3123SOL    HW110268   2.101   3.040   2.666
 3123SOL    HW210269   2.139   2.954   2.533
 3124SOL     OW10270   5.007   6.593   5.796
 3124SOL    HW110271   5.004   6.693   5.794
 3124SOL    HW210272   4.969   6.559   5.882
 3125SOL     OW10273   1.648   1.941   5.031
 3125SOL    HW110274   1.594   1.869   5.074
 3125SOL    HW210275   1.626   2.029   5.074
 3126SOL     OW10276   4.751   4.539   5.444
 3126SOL    HW110277   4.784   4.453   5.482
 3126SOL    HW210278   4.651   4.545   5.456
 3127SOL     OW10279   6.340   2.340   5.910
 3127SOL    HW110280   6.369   2.300   5.822
 3127SOL    HW210281   6.276   2.415   5.893
 3128SOL     OW10282   3.899   0.926   0.930
 3128SOL    HW110283   3.894   1.021   0.900
 3128SOL    HW210284   3.974   0.916   0.996
 3129SOL     OW10285   4.417   4.703   6.995
 3129SOL    HW110286   4.447   4.650   0.052
 3129SOL    HW210287   4.435   4.800   7.011
 3130SOL     OW10288   6.548   5.969   2.161
 3130SOL    HW110289   6.635   5.928   2.135
 3130SOL    HW210290   6.548   5.986   2.260
 3131SOL     OW10291   6.694   2.740   3.134
 3131SOL    HW110292   6.603   2.775   3.109
 3131SOL    HW210293   6.713   2.763   3.229
 3132SOL     OW10294   4.635   4.264   6.391
 3132SOL    HW110295   4.606   4.180   6.344
 3132SOL    HW210296   4.562   4.295   6.452
 3133SOL     OW10297   5.636   6.434   3.600
 3133SOL    HW110298   5.690   6.359   3.562
 3133SOL    HW210299   5.679   6.466   3.685
 3134SOL     OW10300   5.096   4.952   2.822
 3134SOL    HW110301   5.038   4.871   2.814
 3134SOL    HW210302   5.092   4.987   2.916
 3135SOL     OW10303   3.560   1.127   6.406
 3135SOL    HW110304   3.529   1.222   6.410
 3135SOL    HW210305   3.648   1.119   6.453
 3136SOL     OW10306   6.808   6.513   2.009
 3136SOL    HW110307   6.791   6.611   2.016
 3136SOL    HW210308   6.728   6.468   1.969
 3137SOL     OW10309   4.753   4.526   6.936
 3137SOL    HW110310   4.767   4.442   6.989
 3137SOL    HW210311   4.683   4.510   6.867
 3138SOL     OW10312   6.744   6.731   4.712
 3138SOL    HW110313   6.748   6.670   4.791
 3138SOL    HW210314   6.791   6.687   4.635
 3139SOL     OW10315   1.178   4.644   1.874
 3139SOL    HW110316   1.278   4.635   1.866
 3139SOL    HW210317   1.150   4.736   1.845
 3140SOL     OW10318   4.983   5.929   0.030
 3140SOL    HW110319   4.949   5.894   6.965
 3140SOL    HW210320   4.962   5.863   0.102
 3141SOL     OW10321   5.897   1.745   0.057
 3141SOL    HW110322   5.871   1.656   0.020
 3141SOL    HW210323   5.842   1.765   0.137
 3142SOL     OW10324   4.477   1.297   4.118
 3142SOL    HW110325   4.492   1.394   4.096
 3142SOL    HW210326   4.565   1.252   4.131
 3143SOL     OW10327   6.521   1.350   0.634
 3143SOL    HW110328   6.581   1.350   0.555
 3143SOL    HW210329   6.444   1.288   0.617
 3144SOL     OW10330   3.994   4.976   6.842
 3144SOL    HW110331   3.993   4.913   6.920
 3144SOL    HW210332   4.087   4.981   6.805
 3145SOL     OW10333   1.250   5.522   5.173
 3145SOL    HW110334   1.273   5.612   5.210
 3145SOL    HW210335   1.218   5.532   5.079
 3146SOL     OW10336   6.252   2.100   4.629
 3146SOL    HW110337   6.234   2.098   4.530
 3146SOL    HW210338   6.325   2.165   4.648
 3147SOL     OW10339   4.929   6.499   0.933
 3147SOL    HW110340   4.983   6.507   1.017
 3147SOL    HW210341   4.949   6.411   0.890
 3148SOL     OW10342   5.964   4.756   0.294
 3148SOL    HW110343   6.036   4.726   0.358
 3148SOL    HW210344   5.886   4.791   0.346
 3149SOL     OW10345   3.994   3.233   6.720
 3149SOL    HW110346   4.040   3.299   6.660
 3149SOL    HW210347   3.947   3.164   6.664
 3150SOL     OW10348   0.179   0.128   5.173
 3150SOL    HW110349   0.247   0.194   5.145
 3150SOL    HW210350   0.166   0.132   5.272
 3151SOL     OW10351   7.007   1.245   5.818
 3151SOL    HW110352   6.937   1.228   5.749
 3151SOL    HW210353   0.056   1.303   5.780
 3152SOL     OW10354   2.613   2.038   5.773
 3152SOL    HW110355   2.680   1.972   5.807
 3152SOL    HW210356   2.597   2.022   5.676
 3153SOL     OW10357   5.636   5.824   1.750
 3153SOL    HW110358   5.683   5.886   1.687
 3153SOL    HW210359   5.685   5.738   1.755
 3154SOL     OW10360   3.164   2.014   1.061
 3154SOL    HW110361   3.159   2.105   1.103
 3154SOL    HW210362   3.229   2.016   0.984
 3155SOL     OW10363   0.332   5.467   6.849
 3155SOL    HW110364   0.317   5.526   6.929
 3155SOL    HW210365   0.370   5.522   6.775
 3156SOL     OW10366   3.299   3.943   1.274
 3156SOL    HW110367   3.347   3.922   1.189
 3156SOL    HW210368   3.212   3.988   1.254
 3157SOL     OW10369   1.606   1.095   3.873
 3157SOL    HW110370   1.642   1.169   3.816
 3157SOL    HW210371   1.506   1.105   3.882
 3158SOL     OW10372   2.851   0.981   6.595
 3158SOL    HW110373   2.783   0.918   6.634
 3158SOL    HW210374   2.942   0.940   6.601
 3159SOL     OW10375   5.048   6.678   1.364
 3159SOL    HW110376   4.989   6.759   1.363
 3159SOL    HW210377   5.046   6.637   1.455
 3160SOL     OW10378   2.566   1.127   4.979
 3160SOL    HW110379   2.605   1.049   4.931
 3160SOL    HW210380   2.640   1.186   5.012
 3161SOL     OW10381   1.973   2.843   1.996
 3161SOL    HW110382   1.904   2.774   2.017
 3161SOL    HW210383   1.973   2.863   1.898
 3162SOL     OW10384   0.854   5.724   2.066
 3162SOL    HW110385   0.917   5.799   2.045
 3162SOL    HW210386   0.865   5.651   1.998
 3163SOL     OW10387   4.901   4.522   1.184
 3163SOL    HW110388   4.820   4.575   1.210
 3163SOL    HW210389   4.872   4.440   1.135
 3164SOL     OW10390   2.716   0.048   3.999
 3164SOL    HW110391   2.815   0.045   4.007
 3164SOL    HW210392   2.675   0.010   4.082
 3165SOL     OW10393   1.005   5.580   6.777
 3165SOL    HW110394   0.937   5.559   6.708
 3165SOL    HW210395   0.981   5.535   6.863
 3166SOL     OW10396   4.004   1.794   4.683
 3166SOL    HW110397   3.945   1.874   4.681
 3166SOL    HW210398   3.953   1.716   4.720
 3167SOL     OW10399   6.446   3.092   2.071
 3167SOL    HW110400   6.468   3.170   2.012
 3167SOL    HW210401   6.512   3.019   2.057
 3168SOL     OW10402   5.413   1.157   1.267
 3168SOL    HW110403   5.459   1.075   1.234
 3168SOL    HW210404   5.316   1.137   1.283
 3169SOL     OW10405   0.825   3.407   1.382
 3169SOL    HW110406   0.836   3.487   1.440
 3169SOL    HW210407   0.864   3.327   1.427
 3170SOL     OW10408   2.297   4.232   3.915
 3170SOL    HW110409   2.319   4.313   3.969
 3170SOL    HW210410   2.295   4.256   3.818
 3171SOL     OW10411   5.182   1.431   5.037
 3171SOL    HW110412   5.221   1.449   4.946
 3171SOL    HW210413   5.247   1.378   5.091
 3172SOL     OW10414   5.990   3.748   1.406
 3172SOL    HW110415   5.922   3.819   1.424
 3172SOL    HW210416   5.944   3.660   1.393
 3173SOL     OW10417   5.596   3.263   0.032
 3173SOL    HW110418   5.653   3.344   0.019
 3173SOL    HW210419   5.551   3.268   0.122
 3174SOL     OW10420   3.347   2.688   6.474
 3174SOL    HW110421   3.288   2.705   6.554
 3174SOL    HW210422   3.356   2.772   6.421
 3175SOL     OW10423   5.969   6.104   5.192
 3175SOL    HW110424   5.993   6.130   5.285
 3175SOL    HW210425   5.982   6.006   5.180
 3176SOL     OW10426   0.554   4.884   4.000
 3176SOL    HW110427   0.530   4.980   3.982
 3176SOL    HW210428   0.483   4.843   4.059
 3177SOL     OW10429   4.986   2.807   2.576
 3177SOL    HW110430   5.076   2.787   2.617
 3177SOL    HW210431   4.978   2.758   2.489
 3178SOL     OW10432   0.848   0.690   2.690
 3178SOL    HW110433   0.866   0.617   2.755
 3178SOL    HW210434   0.793   0.761   2.733
 3179SOL     OW10435   0.698   3.272   2.071
 3179SOL    HW110436   0.692   3.367   2.101
 3179SOL    HW210437   0.643   3.260   1.988
 3180SOL     OW10438   6.494   0.018   6.983
 3180SOL    HW110439   6.572   0.050   0.015
 3180SOL    HW210440   6.416   0.079   6.997
 3181SOL     OW10441   0.745   6.413   4.866
 3181SOL    HW110442   0.676   6.372   4.925
 3181SOL    HW210443   0.770   6.503   4.900
 3182SOL     OW10444   1.147   6.810   1.055
 3182SOL    HW110445   1.065   6.773   1.100
 3182SOL    HW210446   1.202   6.860   1.121
 3183SOL     OW10447   4.413   4.047   0.524
 3183SOL    HW110448   4.335   4.008   0.573
 3183SOL    HW210449   4.467   3.975   0.481
 3184SOL     OW10450   6.304   1.033   3.933
 3184SOL    HW110451   6.326   0.964   3.864
 3184SOL    HW210452   6.364   1.112   3.922
 3185SOL     OW10453   1.253   6.985   5.690
 3185SOL    HW110454   1.344   6.945   5.700
 3185SOL    HW210455   1.209   6.990   5.780
 3186SOL     OW10456   0.505   2.243   5.461
 3186SOL    HW110457   0.565   2.172   5.495
 3186SOL    HW210458   0.414   2.233   5.502
 3187SOL     OW10459   5.457   0.155   3.259
 3187SOL    HW110460   5.398   0.147   3.179
 3187SOL    HW210461   5.549   0.183   3.230
 3188SOL     OW10462   1.451   5.733   1.193
 3188SOL    HW110463   1.495   5.823   1.196
 3188SOL    HW210464   1.482   5.683   1.112
 3189SOL     OW10465   2.322   1.311   6.327
 3189SOL    HW110466   2.251   1.302   6.257
 3189SOL    HW210467   2.386   1.383   6.301
 3190SOL     OW10468   5.794   6.280   4.425
 3190SOL    HW110469   5.890   6.305   4.432
 3190SOL    HW210470   5.783   6.182   4.440
 3191SOL     OW10471   3.844   4.725   1.420
 3191SOL    HW110472   3.832   4.709   1.518
 3191SOL    HW210473   3.793   4.806   1.393
 3192SOL     OW10474   5.374   0.581   3.252
 3192SOL    HW110475   5.340   0.498   3.207
 3192SOL    HW210476   5.352   0.661   3.196
 3193SOL     OW10477   3.216   5.794   4.994
 3193SOL    HW110478   3.122   5.781   5.026
 3193SOL    HW210479   3.250   5.883   5.025
 3194SOL     OW10480   2.124   6.510   5.098
 3194SOL    HW110481   2.207   6.513   5.042
 3194SOL    HW210482   2.139   6.562   5.182
 3195SOL     OW10483   0.512   6.524   0.220
 3195SOL    HW110484   0.561   6.437   0.212
 3195SOL    HW210485   0.414   6.509   0.207
 3196SOL     OW10486   6.331   6.700   2.422
 3196SOL    HW110487   6.421   6.703   2.466
 3196SOL    HW210488   6.302   6.793   2.399
 3197SOL     OW10489   2.458   0.802   0.189
 3197SOL    HW110490   2.516   0.724   0.212
 3197SOL    HW210491   2.364   0.772   0.174
 3198SOL     OW10492   5.250   3.653   4.310
 3198SOL    HW110493   5.262   3.670   4.408
 3198SOL    HW210494   5.339   3.646   4.267
 3199SOL     OW10495   4.918   3.695   3.582
 3199SOL    HW110496   4.962   3.710   3.670
 3199SOL    HW210497   4.875   3.605   3.580
 3200SOL     OW10498   6.175   3.618   4.788
 3200SOL    HW110499   6.199   3.585   4.879
 3200SOL    HW210500   6.149   3.540   4.731
 3201SOL     OW10501   6.460   3.924   2.065
 3201SOL    HW110502   6.435   3.980   2.143
 3201SOL    HW210503   6.451   3.827   2.090
 3202SOL     OW10504   2.947   2.774   6.110
 3202SOL    HW110505   2.906   2.723   6.034
 3202SOL    HW210506   2.981   2.710   6.179
 3203SOL     OW10507   3.363   6.275   1.862
 3203SOL    HW110508   3.425   6.334   1.811
 3203SOL    HW210509   3.274   6.273   1.816
 3204SOL     OW10510   4.761   0.837   3.989
 3204SOL    HW110511   4.689   0.905   3.983
 3204SOL    HW210512   4.773   0.809   4.085
 3205SOL     OW10513   4.600   2.629   6.667
 3205SOL    HW110514   4.610   2.694   6.742
 3205SOL    HW210515   4.514   2.646   6.620
 3206SOL     OW10516   3.086   4.558   0.661
 3206SOL    HW110517   3.124   4.647   0.636
 3206SOL    HW210518   3.019   4.530   0.592
 3207SOL     OW10519   2.234   6.087   3.630
 3207SOL    HW110520   2.332   6.084   3.610
 3207SOL    HW210521   2.214   6.029   3.709
 3208SOL     OW10522   6.600   3.609   6.257
 3208SOL    HW110523   6.691   3.642   6.281
 3208SOL    HW210524   6.584   3.625   6.160
 3209SOL     OW10525   5.062   6.966   6.110
 3209SOL    HW110526   5.081   0.032   6.068
 3209SOL    HW210527   4.976   6.970   6.161
 3210SOL     OW10528   5.300   5.096   2.008
 3210SOL    HW110529   5.334   5.155   2.081
 3210SOL    HW210530   5.261   5.013   2.049
 3211SOL     OW10531   2.105   6.462   6.457
 3211SOL    HW110532   2.083   6.559   6.450
 3211SOL    HW210533   2.027   6.413   6.497
 3212SOL     OW10534   3.429   6.732   4.256
 3212SOL    HW110535   3.378   6.660   4.209
 3212SOL    HW210536   3.498   6.770   4.194
 3213SOL     OW10537   1.184   0.380   5.564
 3213SOL    HW110538   1.266   0.386   5.622
 3213SOL    HW210539   1.131   0.300   5.592
 3214SOL     OW10540   3.611   0.821   2.908
 3214SOL    HW110541   3.614   0.920   2.893
 3214SOL    HW210542   3.532   0.783   2.861
 3215SOL     OW10543   1.943   3.119   2.214
 3215SOL    HW110544   1.979   3.166   2.134
 3215SOL    HW210545   1.976   3.025   2.216
 3216SOL     OW10546   5.886   5.101   0.684
 3216SOL    HW110547   5.814   5.163   0.714
 3216SOL    HW210548   5.919   5.047   0.761
 3217SOL     OW10549   6.500   6.153   4.019
 3217SOL    HW110550   6.496   6.236   4.075
 3217SOL    HW210551   6.593   6.117   4.019
 3218SOL     OW10552   5.864   1.481   3.431
 3218SOL    HW110553   5.867   1.468   3.332
 3218SOL    HW210554   5.908   1.568   3.454
 3219SOL     OW10555   5.817   1.920   4.402
 3219SOL    HW110556   5.791   1.955   4.312
 3219SOL    HW210557   5.783   1.827   4.414
 3220SOL     OW10558   6.855   3.648   5.744
 3220SOL    HW110559   6.896   3.736   5.721
 3220SOL    HW210560   6.924   3.576   5.739
 3221SOL     OW10561   4.235   1.496   1.915
 3221SOL    HW110562   4.149   1.461   1.878
 3221SOL    HW210563   4.281   1.423   1.965
 3222SOL     OW10564   2.926   1.065   4.041
 3222SOL    HW110565   2.860   0.995   4.012
 3222SOL    HW210566   2.940   1.057   4.140
 3223SOL     OW10567   1.660   6.074   0.624
 3223SOL    HW110568   1.598   5.995   0.622
 3223SOL    HW210569   1.661   6.113   0.716
 3224SOL     OW10570   4.615   2.663   4.384
 3224SOL    HW110571   4.594   2.620   4.471
 3224SOL    HW210572   4.714   2.669   4.372
 3225SOL     OW10573   4.660   1.203   4.488
 3225SOL    HW110574   4.584   1.139   4.499
 3225SOL    HW210575   4.690   1.203   4.393
 3226SOL     OW10576   5.909   0.864   0.584
 3226SOL    HW110577   5.964   0.795   0.536
 3226SOL    HW210578   5.858   0.918   0.518
 3227SOL     OW10579   5.874   4.227   5.730
 3227SOL    HW110580   5.857   4.290   5.806
 3227SOL    HW210581   5.937   4.155   5.759
 3228SOL     OW10582   2.335   4.270   0.346
 3228SOL    HW110583   2.358   4.291   0.441
 3228SOL    HW210584   2.249   4.218   0.343
 3229SOL     OW10585   1.255   1.462   1.467
 3229SOL    HW110586   1.249   1.377   1.415
 3229SOL    HW210587   1.245   1.443   1.564
 3230SOL     OW10588   2.967   6.182   5.047
 3230SOL    HW110589   3.057   6.173   5.004
 3230SOL    HW210590   2.899   6.133   4.992
 3231SOL     OW10591   2.414   2.637   2.580
 3231SOL    HW110592   2.388   2.709   2.644
 3231SOL    HW210593   2.354   2.639   2.501
 3232SOL     OW10594   2.552   4.573   3.198
 3232SOL    HW110595   2.548   4.473   3.200
 3232SOL    HW210596   2.618   4.602   3.128
 3233SOL     OW10597   3.055   0.446   6.575
 3233SOL    HW110598   2.989   0.489   6.635
 3233SOL    HW210599   3.044   0.347   6.578
 3234SOL     OW10600   3.461   3.519   0.886
 3234SOL    HW110601   3.382   3.464   0.860
 3234SOL    HW210602   3.545   3.473   0.858
 3235SOL     OW10603   6.674   1.565   2.847
 3235SOL    HW110604   6.633   1.560   2.756
 3235SOL    HW210605   6.639   1.645   2.895
 3236SOL     OW10606   5.518   6.997   0.203
 3236SOL    HW110607   5.595   7.001   0.267
 3236SOL    HW210608   5.489   0.068   0.180
 3237SOL     OW10609   6.018   0.943   5.509
 3237SOL    HW110610   6.015   0.907   5.415
 3237SOL    HW210611   6.008   1.042   5.507
 3238SOL     OW10612   6.633   5.068   1.505
 3238SOL    HW110613   6.563   4.998   1.521
 3238SOL    HW210614   6.653   5.115   1.591
 3239SOL     OW10615   6.132   0.100   5.275
 3239SOL    HW110616   6.206   0.166   5.289
 3239SOL    HW210617   6.170   0.014   5.239
 3240SOL     OW10618   1.153   1.882   0.962
 3240SOL    HW110619   1.248   1.859   0.943
 3240SOL    HW210620   1.149   1.964   1.020
 3241SOL     OW10621   0.395   2.862   5.703
 3241SOL    HW110622   0.371   2.767   5.725
 3241SOL    HW210623   0.493   2.867   5.681
 3242SOL     OW10624   0.015   4.267   4.685
 3242SOL    HW110625   6.966   4.265   4.755
 3242SOL    HW210626   0.096   4.314   4.721
 3243SOL     OW10627   5.647   5.703   4.229
 3243SOL    HW110628   5.562   5.702   4.177
 3243SOL    HW210629   5.634   5.755   4.314
 3244SOL     OW10630   4.734   0.167   6.738
 3244SOL    HW110631   4.828   0.159   6.705
 3244SOL    HW210632   4.692   0.076   6.740
 3245SOL     OW10633   3.267   6.347   4.435
 3245SOL    HW110634   3.284   6.339   4.337
 3245SOL    HW210635   3.350   6.377   4.482
 3246SOL     OW10636   6.715   5.772   3.310
 3246SOL    HW110637   6.748   5.701   3.373
 3246SOL    HW210638   6.790   5.800   3.250
 3247SOL     OW10639   2.127   4.028   4.092
 3247SOL    HW110640   2.067   4.097   4.133
 3247SOL    HW210641   2.191   4.073   4.029
 3248SOL     OW10642   6.220   2.690   3.662
 3248SOL    HW110643   6.186   2.610   3.712
 3248SOL    HW210644   6.282   2.742   3.721
 3249SOL     OW10645   3.791   4.022   4.138
 3249SOL    HW110646   3.787   4.043   4.040
 3249SOL    HW210647   3.877   3.975   4.158
 3250SOL     OW10648   4.637   6.379   3.715
 3250SOL    HW110649   4.718   6.348   3.666
 3250SOL    HW210650   4.598   6.458   3.666
 3251SOL     OW10651   2.513   2.198   2.478
 3251SOL    HW110652   2.607   2.175   2.452
 3251SOL    HW210653   2.454   2.192   2.398
 3252SOL     OW10654   1.720   1.496   2.895
 3252SOL    HW110655   1.660   1.418   2.915
 3252SOL    HW210656   1.758   1.487   2.804
 3253SOL     OW10657   6.694   4.054   0.354
 3253SOL    HW110658   6.681   4.123   0.283
 3253SOL    HW210659   6.792   4.033   0.362
 3254SOL     OW10660   6.275   6.820   0.219
 3254SOL    HW110661   6.218   6.773   0.152
 3254SOL    HW210662   6.319   6.899   0.176
 3255SOL     OW10663   3.626   5.463   2.129
 3255SOL    HW110664   3.684   5.523   2.074
 3255SOL    HW210665   3.642   5.368   2.102
 3256SOL     OW10666   5.432   2.683   1.388
 3256SOL    HW110667   5.450   2.738   1.307
 3256SOL    HW210668   5.373   2.606   1.364
 3257SOL     OW10669   2.792   1.083   3.093
 3257SOL    HW110670   2.874   1.130   3.124
 3257SOL    HW210671   2.728   1.149   3.054
 3258SOL     OW10672   1.410   5.584   4.105
 3258SOL    HW110673   1.469   5.516   4.149
 3258SOL    HW210674   1.392   5.658   4.169
 3259SOL     OW10675   5.528   4.849   4.029
 3259SOL    HW110676   5.459   4.845   3.956
 3259SOL    HW210677   5.618   4.829   3.990
 3260SOL     OW10678   1.718   4.723   3.330
 3260SOL    HW110679   1.696   4.756   3.421
 3260SOL    HW210680   1.757   4.798   3.276
 3261SOL     OW10681   6.114   0.179   4.084
 3261SOL    HW110682   6.054   0.120   4.138
 3261SOL    HW210683   6.060   0.225   4.013
 3262SOL     OW10684   2.937   2.140   3.239
 3262SOL    HW110685   2.856   2.080   3.242
 3262SOL    HW210686   2.990   2.120   3.157
 3263SOL     OW10687   5.965   0.587   1.170
 3263SOL    HW110688   5.941   0.657   1.237
 3263SOL    HW210689   6.045   0.536   1.202
 3264SOL     OW10690   1.500   4.592   6.852
 3264SOL    HW110691   1.432   4.657   6.819
 3264SOL    HW210692   1.455   4.523   6.909
 3265SOL     OW10693   0.218   5.822   6.448
 3265SOL    HW110694   0.314   5.805   6.423
 3265SOL    HW210695   0.161   5.749   6.412
 3266SOL     OW10696   3.650   5.088   6.396
 3266SOL    HW110697   3.651   5.113   6.299
 3266SOL    HW210698   3.711   5.149   6.446
 3267SOL     OW10699   3.623   0.129   1.299
 3267SOL    HW110700   3.600   0.225   1.287
 3267SOL    HW210701   3.586   0.076   1.223
 3268SOL     OW10702   5.440   4.120   1.829
 3268SOL    HW110703   5.473   4.207   1.867
 3268SOL    HW210704   5.483   4.104   1.740
 3269SOL     OW10705   2.215   4.821   1.516
 3269SOL    HW110706   2.250   4.765   1.442
 3269SOL    HW210707   2.239   4.917   1.501
 3270SOL     OW10708   1.171   3.248   6.147
 3270SOL    HW110709   1.229   3.166   6.150
 3270SOL    HW210710   1.209   3.318   6.207
 3271SOL     OW10711   1.430   3.554   1.243
 3271SOL    HW110712   1.519   3.577   1.204
 3271SOL    HW210713   1.419   3.455   1.245
 3272SOL     OW10714   4.254   6.800   1.191
 3272SOL    HW110715   4.348   6.800   1.158
 3272SOL    HW210716   4.198   6.741   1.133
 3273SOL     OW10717   3.828   3.867   6.734
 3273SOL    HW110718   3.829   3.876   6.634
 3273SOL    HW210719   3.829   3.770   6.759
 3274SOL     OW10720   4.760   0.084   1.920
 3274SOL    HW110721   4.695   0.029   1.868
 3274SOL    HW210722   4.714   0.127   1.997
 3275SOL     OW10723   4.967   0.540   2.255
 3275SOL    HW110724   4.961   0.472   2.181
 3275SOL    HW210725   5.020   0.619   2.223
 3276SOL     OW10726   6.079   5.467   0.280
 3276SOL    HW110727   6.177   5.451   0.292
 3276SOL    HW210728   6.063   5.517   0.195
 3277SOL     OW10729   3.721   1.524   2.475
 3277SOL    HW110730   3.675   1.444   2.437
 3277SOL    HW210731   3.748   1.505   2.569
 3278SOL     OW10732   5.224   1.237   6.599
 3278SOL    HW110733   5.242   1.160   6.659
 3278SOL    HW210734   5.305   1.295   6.594
 3279SOL     OW10735   3.782   0.153   2.216
 3279SOL    HW110736   3.747   0.179   2.126
 3279SOL    HW210737   3.755   0.058   2.236
 3280SOL     OW10738   0.398   2.839   4.311
 3280SOL    HW110739   0.480   2.895   4.307
 3280SOL    HW210740   0.321   2.888   4.270
 3281SOL     OW10741   5.790   2.051   2.122
 3281SOL    HW110742   5.876   2.027   2.076
 3281SOL    HW210743   5.806   2.057   2.221
 3282SOL     OW10744   6.230   4.416   5.315
 3282SOL    HW110745   6.218   4.371   5.404
 3282SOL    HW210746   6.311   4.379   5.271
 3283SOL     OW10747   3.047   1.369   0.423
 3283SOL    HW110748   3.123   1.401   0.479
 3283SOL    HW210749   2.961   1.389   0.469
 3284SOL     OW10750   2.191   0.474   5.239
 3284SOL    HW110751   2.167   0.568   5.213
 3284SOL    HW210752   2.140   0.448   5.321
 3285SOL     OW10753   3.809   2.163   3.707
 3285SOL    HW110754   3.881   2.125   3.765
 3285SOL    HW210755   3.726   2.174   3.762
 3286SOL     OW10756   1.425   3.517   2.675
 3286SOL    HW110757   1.512   3.567   2.670
 3286SOL    HW210758   1.432   3.444   2.742
 3287SOL     OW10759   2.392   1.243   0.729
 3287SOL    HW110760   2.436   1.240   0.819
 3287SOL    HW210761   2.377   1.150   0.696
 3288SOL     OW10762   3.019   5.637   1.855
 3288SOL    HW110763   3.068   5.626   1.942
 3288SOL    HW210764   3.074   5.596   1.781
 3289SOL     OW10765   4.983   0.741   7.022
 3289SOL    HW110766   4.999   0.645   0.022
 3289SOL    HW210767   4.972   0.751   6.923
 3290SOL     OW10768   1.229   5.140   6.962
 3290SOL    HW110769   1.218   5.059   7.020
 3290SOL    HW210770   1.145   5.193   6.963
 3291SOL     OW10771   4.954   6.264   5.068
 3291SOL    HW110772   5.045   6.260   5.109
 3291SOL    HW210773   4.898   6.188   5.102
 3292SOL     OW10774   0.132   3.060   0.047
 3292SOL    HW110775   0.105   2.980   7.015
 3292SOL    HW210776   0.052   3.097   0.094
 3293SOL     OW10777   6.447   4.369   2.651
 3293SOL    HW110778   6.535   4.413   2.672
 3293SOL    HW210779   6.375   4.438   2.647
 3294SOL     OW10780   3.667   2.803   5.560
 3294SOL    HW110781   3.630   2.751   5.483
 3294SOL    HW210782   3.602   2.799   5.636
 3295SOL     OW10783   1.650   2.997   3.447
 3295SOL    HW110784   1.625   2.920   3.506
 3295SOL    HW210785   1.568   3.050   3.425
 3296SOL     OW10786   2.503   0.701   6.769
 3296SOL    HW110787   2.526   0.783   6.822
 3296SOL    HW210788   2.505   0.621   6.829
 3297SOL     OW10789   3.612   0.668   5.458
 3297SOL    HW110790   3.540   0.601   5.478
 3297SOL    HW210791   3.571   0.759   5.455
 3298SOL     OW10792   3.273   4.445   6.013
 3298SOL    HW110793   3.317   4.373   5.960
 3298SOL    HW210794   3.177   4.452   5.987
 3299SOL     OW10795   3.064   6.997   4.228
 3299SOL    HW110796   3.061   6.929   4.155
 3299SOL    HW210797   3.047   0.066   4.190
 3300SOL     OW10798   1.942   0.436   3.516
 3300SOL    HW110799   2.003   0.416   3.439
 3300SOL    HW210800   1.858   0.478   3.482
 3301SOL     OW10801   1.350   1.507   2.691
 3301SOL    HW110802   1.375   1.411   2.695
 3301SOL    HW210803   1.292   1.523   2.612
 3302SOL     OW10804   1.254   5.086   5.038
 3302SOL    HW110805   1.283   4.991   5.021
 3302SOL    HW210806   1.169   5.086   5.089
 3303SOL     OW10807   3.668   3.616   0.482
 3303SOL    HW110808   3.716   3.593   0.397
 3303SOL    HW210809   3.569   3.610   0.466
 3304SOL     OW10810   2.351   3.926   0.523
 3304SOL    HW110811   2.325   3.890   0.613
 3304SOL    HW210812   2.389   4.018   0.533
 3305SOL     OW10813   2.927   2.776   0.131
 3305SOL    HW110814   2.907   2.720   0.212
 3305SOL    HW210815   2.863   2.853   0.128
 3306SOL     OW10816   3.065   0.224   1.286
 3306SOL    HW110817   3.025   0.166   1.215
 3306SOL    HW210818   3.097   0.309   1.245
 3307SOL     OW10819   2.134   5.858   4.852
 3307SOL    HW110820   2.201   5.784   4.855
 3307SOL    HW210821   2.051   5.826   4.805
 3308SOL     OW10822   4.769   5.126   1.391
 3308SOL    HW110823   4.737   5.154   1.481
 3308SOL    HW210824   4.708   5.163   1.320
 3309SOL     OW10825   5.864   4.228   3.618
 3309SOL    HW110826   5.806   4.245   3.697
 3309SOL    HW210827   5.956   4.265   3.635
 3310SOL     OW10828   6.194   4.358   6.388
 3310SOL    HW110829   6.146   4.374   6.474
 3310SOL    HW210830   6.241   4.442   6.360
 3311SOL     OW10831   2.215   2.979   0.031
 3311SOL    HW110832   2.156   2.912   0.074
 3311SOL    HW210833   2.208   2.972   6.954
 3312SOL     OW10834   4.794   3.344   0.402
 3312SOL    HW110835   4.801   3.397   0.317
 3312SOL    HW210836   4.705   3.299   0.406
 3313SOL     OW10837   0.148   0.444   4.312
 3313SOL    HW110838   0.184   0.536   4.329
 3313SOL    HW210839   0.190   0.380   4.376
 3314SOL     OW10840   3.623   6.311   3.083
 3314SOL    HW110841   3.675   6.231   3.052
 3314SOL    HW210842   3.581   6.355   3.004
 3315SOL     OW10843   1.271   6.400   4.005
 3315SOL    HW110844   1.300   6.476   4.063
 3315SOL    HW210845   1.172   6.392   4.006
 3316SOL     OW10846   3.327   1.833   0.096
 3316SOL    HW110847   3.301   1.861   0.004
 3316SOL    HW210848   3.426   1.840   0.107
 3317SOL     OW10849   5.916   1.885   1.473
 3317SOL    HW110850   5.920   1.983   1.453
 3317SOL    HW210851   5.874   1.871   1.562
 3318SOL     OW10852   3.713   3.055   0.617
 3318SOL    HW110853   3.797   3.106   0.601
 3318SOL    HW210854   3.712   2.974   0.557
 3319SOL     OW10855   6.723   6.675   4.226
 3319SOL    HW110856   6.735   6.648   4.131
 3319SOL    HW210857   6.682   6.766   4.230
 3320SOL     OW10858   6.327   0.564   2.281
 3320SOL    HW110859   6.390   0.509   2.336
 3320SOL    HW210860   6.379   0.610   2.208
 3321SOL     OW10861   4.518   1.859   0.042
 3321SOL    HW110862   4.610   1.854   0.083
 3321SOL    HW210863   4.450   1.833   0.111
 3322SOL     OW10864   5.895   2.661   1.350
 3322SOL    HW110865   5.851   2.688   1.436
 3322SOL    HW210866   5.994   2.660   1.362
 3323SOL     OW10867   1.509   1.151   1.963
 3323SOL    HW110868   1.490   1.064   2.008
 3323SOL    HW210869   1.477   1.227   2.021
 3324SOL     OW10870   5.963   5.020   5.874
 3324SOL    HW110871   6.009   4.976   5.796
 3324SOL    HW210872   5.866   5.031   5.853
 3325SOL     OW10873   2.903   5.218   5.779
 3325SOL    HW110874   2.957   5.223   5.696
 3325SOL    HW210875   2.925   5.134   5.829
 3326SOL     OW10876   3.594   1.935   1.929
 3326SOL    HW110877   3.557   1.886   2.008
 3326SOL    HW210878   3.613   2.030   1.953
 3327SOL     OW10879   1.674   5.760   5.917
 3327SOL    HW110880   1.754   5.744   5.974
 3327SOL    HW210881   1.670   5.856   5.889
 3328SOL     OW10882   4.711   2.904   5.287
 3328SOL    HW110883   4.714   3.003   5.274
 3328SOL    HW210884   4.802   2.870   5.312
 3329SOL     OW10885   0.501   6.295   5.917
 3329SOL    HW110886   0.405   6.275   5.933
 3329SOL    HW210887   0.548   6.304   6.005
 3330SOL     OW10888   6.649   3.079   3.050
 3330SOL    HW110889   6.727   3.119   3.098
 3330SOL    HW210890   6.642   3.118   2.958
 3331SOL     OW10891   2.166   2.803   0.375
 3331SOL    HW110892   2.138   2.763   0.462
 3331SOL    HW210893   2.251   2.853   0.387
 3332SOL     OW10894   0.147   4.157   1.245
 3332SOL    HW110895   0.088   4.207   1.181
 3332SOL    HW210896   0.222   4.216   1.275
 3333SOL     OW10897   3.035   5.593   5.691
 3333SOL    HW110898   3.037   5.498   5.724
 3333SOL    HW210899   3.128   5.627   5.682
 3334SOL     OW10900   1.464   2.811   0.760
 3334SOL    HW110901   1.407   2.874   0.707
 3334SOL    HW210902   1.552   2.798   0.712
 3335SOL     OW10903   5.571   4.667   4.554
 3335SOL    HW110904   5.549   4.663   4.457
 3335SOL    HW210905   5.524   4.744   4.596
 3336SOL     OW10906   3.150   6.483   5.511
 3336SOL    HW110907   3.177   6.577   5.490
 3336SOL    HW210908   3.203   6.420   5.454
 3337SOL     OW10909   3.622   1.332   0.757
 3337SOL    HW110910   3.667   1.317   0.669
 3337SOL    HW210911   3.523   1.327   0.745
 3338SOL     OW10912   6.742   4.722   6.989
 3338SOL    HW110913   6.799   4.690   0.042
 3338SOL    HW210914   6.748   4.821   6.981
 3339SOL     OW10915   0.709   4.867   6.051
 3339SOL    HW110916   0.629   4.926   6.046
 3339SOL    HW210917   0.743   4.863   6.145
 3340SOL     OW10918   4.170   0.294   2.117
 3340SOL    HW110919   4.170   0.194   2.123
 3340SOL    HW210920   4.150   0.322   2.023
 3341SOL     OW10921   0.710   0.147   0.834
 3341SOL    HW110922   0.788   0.197   0.871
 3341SOL    HW210923   0.726   0.049   0.843
 3342SOL     OW10924   2.268   7.008   5.376
 3342SOL    HW110925   2.296   6.917   5.405
 3342SOL    HW210926   2.348   0.045   5.372
 3343SOL     OW10927   0.274   2.622   1.479
 3343SOL    HW110928   0.228   2.540   1.444
 3343SOL    HW210929   0.361   2.633   1.433
 3344SOL     OW10930   1.060   2.759   6.432
 3344SOL    HW110931   1.120   2.833   6.401
 3344SOL    HW210932   0.978   2.756   6.375
 3345SOL     OW10933   2.025   3.213   5.480
 3345SOL    HW110934   2.034   3.245   5.386
 3345SOL    HW210935   2.040   3.114   5.483
 3346SOL     OW10936   2.181   6.095   2.467
 3346SOL    HW110937   2.088   6.073   2.496
 3346SOL    HW210938   2.212   6.026   2.401
 3347SOL     OW10939   5.896   3.928   3.638
 3347SOL    HW110940   5.867   4.016   3.601
 3347SOL    HW210941   5.968   3.942   3.706
 3348SOL     OW10942   3.756   3.449   3.408
 3348SOL    HW110943   3.811   3.368   3.432
 3348SOL    HW210944   3.729   3.496   3.492
 3349SOL     OW10945   5.267   3.114   6.482
 3349SOL    HW110946   5.214   3.105   6.566
 3349SOL    HW210947   5.360   3.081   6.498
 3350SOL     OW10948   1.878   2.997   1.200
 3350SOL    HW110949   1.789   3.011   1.243
 3350SOL    HW210950   1.901   3.077   1.145
 3351SOL     OW10951   5.846   2.672   0.261
 3351SOL    HW110952   5.908   2.619   0.319
 3351SOL    HW210953   5.755   2.672   0.301
 3352SOL     OW10954   6.971   3.109   0.265
 3352SOL    HW110955   6.876   3.118   0.237
 3352SOL    HW210956   6.989   3.014   0.292
 3353SOL     OW10957   1.746   6.746   5.939
 3353SOL    HW110958   1.655   6.717   5.909
 3353SOL    HW210959   1.808   6.667   5.936
 3354SOL     OW10960   0.755   0.721   1.992
 3354SOL    HW110961   0.826   0.772   1.944
 3354SOL    HW210962   0.680   0.783   2.017
 3355SOL     OW10963   6.061   0.871   2.717
 3355SOL    HW110964   6.010   0.957   2.722
 3355SOL    HW210965   6.159   0.890   2.716
 3356SOL     OW10966   1.173   3.813   6.189
 3356SOL    HW110967   1.233   3.740   6.158
 3356SOL    HW210968   1.192   3.896   6.136
 3357SOL     OW10969   2.673   5.326   2.047
 3357SOL    HW110970   2.622   5.344   1.962
 3357SOL    HW210971   2.689   5.228   2.056
 3358SOL     OW10972   6.780   4.608   3.500
 3358SOL    HW110973   6.819   4.543   3.434
 3358SOL    HW210974   6.806   4.701   3.474
 3359SOL     OW10975   2.101   1.646   2.064
 3359SOL    HW110976   2.023   1.707   2.051
 3359SOL    HW210977   2.069   1.552   2.078
 3360SOL     OW10978   2.388   0.899   6.601
 3360SOL    HW110979   2.439   0.981   6.576
 3360SOL    HW210980   2.451   0.830   6.636
 3361SOL     OW10981   3.166   0.925   2.976
 3361SOL    HW110982   3.129   1.017   2.966
 3361SOL    HW210983   3.243   0.926   3.040
 3362SOL     OW10984   3.114   1.918   4.298
 3362SOL    HW110985   3.213   1.928   4.305
 3362SOL    HW210986   3.087   1.911   4.202
 3363SOL     OW10987   6.979   0.600   6.497
 3363SOL    HW110988   6.982   0.501   6.478
 3363SOL    HW210989   6.911   0.643   6.438
 3364SOL     OW10990   2.312   4.770   5.766
 3364SOL    HW110991   2.409   4.778   5.744
 3364SOL    HW210992   2.288   4.675   5.783
 3365SOL     OW10993   6.478   2.602   5.549
 3365SOL    HW110994   6.451   2.588   5.453
 3365SOL    HW210995   6.446   2.525   5.604
 3366SOL     OW10996   5.503   1.453   7.014
 3366SOL    HW110997   5.443   1.375   0.005
 3366SOL    HW210998   5.531   1.458   6.919
 3367SOL     OW10999   1.913   0.015   2.687
 3367SOL    HW111000   1.946   0.100   2.727
 3367SOL    HW211001   1.813   0.020   2.677
 3368SOL     OW11002   6.459   1.533   4.428
 3368SOL    HW111003   6.502   1.518   4.518
 3368SOL    HW211004   6.433   1.444   4.390
 3369SOL     OW11005   3.691   5.892   6.465
 3369SOL    HW111006   3.698   5.947   6.381
 3369SOL    HW211007   3.721   5.946   6.543
 3370SOL     OW11008   5.683   6.974   5.296
 3370SOL    HW111009   5.668   0.021   5.226
 3370SOL    HW211010   5.724   6.893   5.254
 3371SOL     OW11011   0.089   4.663   1.186
 3371SOL    HW111012   0.146   4.727   1.238
 3371SOL    HW211013   0.057   4.708   1.103
 3372SOL     OW11014   0.291   2.552   2.517
 3372SOL    HW111015   0.331   2.628   2.567
 3372SOL    HW211016   0.307   2.467   2.566
 3373SOL     OW11017   0.692   2.584   6.530
 3373SOL    HW111018   0.690   2.509   6.463
 3373SOL    HW211019   0.604   2.591   6.576
 3374SOL     OW11020   3.625   6.114   5.152
 3374SOL    HW111021   3.707   6.075   5.195
 3374SOL    HW211022   3.643   6.208   5.126
 3375SOL     OW11023   3.398   3.702   4.374
 3375SOL    HW111024   3.430   3.752   4.294
 3375SOL    HW211025   3.459   3.719   4.452
 3376SOL     OW11026   3.024   3.033   1.875
 3376SOL    HW111027   2.945   3.094   1.876
 3376SOL    HW211028   3.027   2.982   1.790
 3377SOL     OW11029   2.647   5.365   5.771
 3377SOL    HW111030   2.734   5.327   5.802
 3377SOL    HW211031   2.661   5.417   5.687
 3378SOL     OW11032   0.587   1.122   0.866
 3378SOL    HW111033   0.653   1.143   0.794
 3378SOL    HW211034   0.499   1.165   0.845
 3379SOL     OW11035   6.014   4.782   5.362
 3379SOL    HW111036   5.983   4.693   5.328
 3379SOL    HW211037   6.114   4.785   5.361
 3380SOL     OW11038   0.631   3.694   5.112
 3380SOL    HW111039   0.619   3.596   5.131
 3380SOL    HW211040   0.671   3.738   5.192
 3381SOL     OW11041   3.240   2.372   1.622
 3381SOL    HW111042   3.260   2.470   1.623
 3381SOL    HW211043   3.316   2.322   1.663
 3382SOL     OW11044   0.222   6.737   0.168
 3382SOL    HW111045   0.253   6.792   0.091
 3382SOL    HW211046   0.189   6.649   0.135
 3383SOL     OW11047   0.748   4.330   1.642
 3383SOL    HW111048   0.714   4.318   1.736
 3383SOL    HW211049   0.818   4.401   1.641
 3384SOL     OW11050   3.259   2.941   4.238
 3384SOL    HW111051   3.189   2.947   4.167
 3384SOL    HW211052   3.233   3.000   4.315
 3385SOL     OW11053   6.903   4.517   3.775
 3385SOL    HW111054   6.857   4.534   3.688
 3385SOL    HW211055   6.839   4.472   3.838
 3386SOL     OW11056   5.993   4.431   4.442
 3386SOL    HW111057   5.968   4.519   4.401
 3386SOL    HW211058   6.089   4.433   4.471
 3387SOL     OW11059   3.197   1.896   2.859
 3387SOL    HW111060   3.255   1.817   2.878
 3387SOL    HW211061   3.253   1.978   2.847
 3388SOL     OW11062   5.444   2.255   1.526
 3388SOL    HW111063   5.468   2.178   1.468
 3388SOL    HW211064   5.515   2.268   1.596
 3389SOL     OW11065   4.125   5.465   2.586
 3389SOL    HW111066   4.123   5.390   2.520
 3389SOL    HW211067   4.085   5.547   2.545
 3390SOL     OW11068   4.517   2.074   5.421
 3390SOL    HW111069   4.570   2.148   5.379
 3390SOL    HW211070   4.419   2.095   5.415
 3391SOL     OW11071   3.581   2.070   3.841
 3391SOL    HW111072   3.536   2.071   3.930
 3391SOL    HW211073   3.513   2.051   3.770
 3392SOL     OW11074   4.827   5.759   3.096
 3392SOL    HW111075   4.811   5.846   3.049
 3392SOL    HW211076   4.770   5.755   3.178
 3393SOL     OW11077   0.280   0.338   0.285
 3393SOL    HW111078   0.300   0.423   0.334
 3393SOL    HW211079   0.360   0.311   0.231
 3394SOL     OW11080   5.702   1.069   2.539
 3394SOL    HW111081   5.730   1.083   2.634
 3394SOL    HW211082   5.720   0.974   2.512
 3395SOL     OW11083   1.299   3.566   5.383
 3395SOL    HW111084   1.260   3.489   5.332
 3395SOL    HW211085   1.251   3.577   5.469
 3396SOL     OW11086   6.574   3.381   4.503
 3396SOL    HW111087   6.509   3.304   4.504
 3396SOL    HW211088   6.613   3.391   4.412
 3397SOL     OW11089   3.433   5.829   5.893
 3397SOL    HW111090   3.490   5.909   5.913
 3397SOL    HW211091   3.457   5.754   5.954
 3398SOL     OW11092   0.393   0.970   2.829
 3398SOL    HW111093   0.437   0.914   2.900
 3398SOL    HW211094   0.367   1.058   2.869
 3399SOL     OW11095   4.066   5.666   5.098
 3399SOL    HW111096   4.015   5.727   5.037
 3399SOL    HW211097   4.106   5.719   5.173
 3400SOL     OW11098   5.170   2.583   0.281
 3400SOL    HW111099   5.206   2.493   0.304
 3400SOL    HW211100   5.071   2.578   0.272
 3401SOL     OW11101   6.780   4.296   6.218
 3401SOL    HW111102   6.864   4.329   6.259
 3401SOL    HW211103   6.707   4.294   6.286
 3402SOL     OW11104   5.350   5.320   2.194
 3402SOL    HW111105   5.433   5.374   2.181
 3402SOL    HW211106   5.351   5.280   2.286
 3403SOL     OW11107   3.436   1.743   5.522
 3403SOL    HW111108   3.433   1.753   5.422
 3403SOL    HW211109   3.531   1.752   5.553
 3404SOL     OW11110   4.770   7.010   1.568
 3404SOL    HW111111   4.760   7.009   1.667
 3404SOL    HW211112   4.762   0.082   1.534
 3405SOL     OW11113   6.204   3.903   0.050
 3405SOL    HW111114   6.208   3.850   6.988
 3405SOL    HW211115   6.134   3.975   0.042
 3406SOL     OW11116   0.914   4.196   1.288
 3406SOL    HW111117   0.924   4.123   1.221
 3406SOL    HW211118   0.897   4.157   1.378
 3407SOL     OW11119   1.513   4.758   2.943
 3407SOL    HW111120   1.419   4.788   2.923
 3407SOL    HW211121   1.514   4.708   3.030
 3408SOL     OW11122   5.263   3.854   3.176
 3408SOL    HW111123   5.178   3.904   3.163
 3408SOL    HW211124   5.244   3.756   3.181
 3409SOL     OW11125   2.736   0.976   5.611
 3409SOL    HW111126   2.757   0.921   5.530
 3409SOL    HW211127   2.682   1.056   5.584
 3410SOL     OW11128   0.050   1.726   0.260
 3410SOL    HW111129   0.080   1.642   0.304
 3410SOL    HW211130   7.018   1.780   0.325
 3411SOL     OW11131   4.366   2.411   2.384
 3411SOL    HW111132   4.394   2.507   2.387
 3411SOL    HW211133   4.427   2.361   2.322
 3412SOL     OW11134   4.133   5.557   6.887
 3412SOL    HW111135   4.092   5.591   6.802
 3412SOL    HW211136   4.119   5.458   6.892
 3413SOL     OW11137   4.763   1.405   2.444
 3413SOL    HW111138   4.708   1.476   2.401
 3413SOL    HW211139   4.855   1.405   2.403
 3414SOL     OW11140   3.970   0.909   5.231
 3414SOL    HW111141   4.004   0.850   5.157
 3414SOL    HW211142   3.971   0.858   5.317
 3415SOL     OW11143   0.997   5.054   4.367
 3415SOL    HW111144   1.071   5.082   4.429
 3415SOL    HW211145   0.913   5.040   4.420
 3416SOL     OW11146   2.383   4.268   5.947
 3416SOL    HW111147   2.301   4.213   5.964
 3416SOL    HW211148   2.391   4.287   5.850
 3417SOL     OW11149   5.577   1.089   1.027
 3417SOL    HW111150   5.478   1.091   1.013
 3417SOL    HW211151   5.622   1.067   0.940
 3418SOL     OW11152   3.220   2.847   6.066
 3418SOL    HW111153   3.124   2.874   6.078
 3418SOL    HW211154   3.226   2.777   5.995
 3419SOL     OW11155   4.909   3.586   6.840
 3419SOL    HW111156   4.814   3.590   6.808
 3419SOL    HW211157   4.962   3.525   6.781
 3420SOL     OW11158   4.205   1.593   3.952
 3420SOL    HW111159   4.137   1.666   3.959
 3420SOL    HW211160   4.234   1.585   3.856
 3421SOL     OW11161   0.375   6.534   2.422
 3421SOL    HW111162   0.365   6.601   2.495
 3421SOL    HW211163   0.331   6.448   2.449
 3422SOL     OW11164   2.947   2.259   2.953
 3422SOL    HW111165   3.021   2.239   3.018
 3422SOL    HW211166   2.885   2.181   2.948
 3423SOL     OW11167   3.036   0.524   1.809
 3423SOL    HW111168   3.087   0.610   1.807
 3423SOL    HW211169   2.957   0.531   1.749
 3424SOL     OW11170   4.531   1.003   1.740
 3424SOL    HW111171   4.436   1.034   1.736
 3424SOL    HW211172   4.534   0.911   1.780
 3425SOL     OW11173   4.608   4.065   1.715
 3425SOL    HW111174   4.529   4.122   1.737
 3425SOL    HW211175   4.578   3.973   1.692
 3426SOL     OW11176   4.639   3.682   0.875
 3426SOL    HW111177   4.612   3.732   0.957
 3426SOL    HW211178   4.624   3.740   0.794
 3427SOL     OW11179   0.894   1.533   0.585
 3427SOL    HW111180   0.833   1.536   0.665
 3427SOL    HW211181   0.910   1.438   0.560
 3428SOL     OW11182   4.119   4.739   3.089
 3428SOL    HW111183   4.209   4.732   3.131
 3428SOL    HW211184   4.127   4.727   2.990
 3429SOL     OW11185   0.256   2.929   0.449
 3429SOL    HW111186   0.276   2.929   0.351
 3429SOL    HW211187   0.159   2.945   0.464
 3430SOL     OW11188   1.490   5.114   6.500
 3430SOL    HW111189   1.490   5.163   6.587
 3430SOL    HW211190   1.409   5.138   6.448
 3431SOL     OW11191   1.691   6.262   6.691
 3431SOL    HW111192   1.722   6.293   6.601
 3431SOL    HW211193   1.739   6.178   6.716
 3432SOL     OW11194   2.745   1.700   6.892
 3432SOL    HW111195   2.782   1.731   6.805
 3432SOL    HW211196   2.712   1.778   6.945
 3433SOL     OW11197   5.432   1.262   4.864
 3433SOL    HW111198   5.386   1.175   4.882
 3433SOL    HW211199   5.514   1.245   4.810
 3434SOL     OW11200   4.257   1.862   3.268
 3434SOL    HW111201   4.201   1.845   3.187
 3434SOL    HW211202   4.325   1.933   3.248
 3435SOL     OW11203   0.744   1.128   0.084
 3435SOL    HW111204   0.813   1.189   0.123
 3435SOL    HW211205   0.733   1.148   7.009
 3436SOL     OW11206   4.767   6.978   2.984
 3436SOL    HW111207   4.845   6.931   2.941
 3436SOL    HW211208   4.736   6.926   3.063
 3437SOL     OW11209   4.877   0.733   6.761
 3437SOL    HW111210   4.901   0.646   6.718
 3437SOL    HW211211   4.792   0.722   6.812
 3438SOL     OW11212   1.291   4.855   6.736
 3438SOL    HW111213   1.267   4.888   6.827
 3438SOL    HW211214   1.219   4.879   6.671
 3439SOL     OW11215   2.419   6.879   3.776
 3439SOL    HW111216   2.334   6.849   3.819
 3439SOL    HW211217   2.419   6.979   3.767
 3440SOL     OW11218   3.127   2.067   0.635
 3440SOL    HW111219   3.103   2.129   0.710
 3440SOL    HW211220   3.047   2.051   0.577
 3441SOL     OW11221   4.612   0.357   4.083
 3441SOL    HW111222   4.659   0.427   4.029
 3441SOL    HW211223   4.656   0.348   4.172
 3442SOL     OW11224   0.863   4.737   3.193
 3442SOL    HW111225   0.916   4.779   3.267
 3442SOL    HW211226   0.851   4.640   3.213
 3443SOL     OW11227   5.463   6.315   4.254
 3443SOL    HW111228   5.387   6.379   4.257
 3443SOL    HW211229   5.449   6.244   4.324
 3444SOL     OW11230   4.352   4.905   0.374
 3444SOL    HW111231   4.361   4.971   0.448
 3444SOL    HW211232   4.433   4.846   0.371
 3445SOL     OW11233   5.620   5.220   4.391
 3445SOL    HW111234   5.621   5.181   4.483
 3445SOL    HW211235   5.612   5.320   4.397
 3446SOL     OW11236   2.843   6.455   2.403
 3446SOL    HW111237   2.933   6.468   2.362
 3446SOL    HW211238   2.849   6.388   2.477
 3447SOL     OW11239   6.111   4.557   5.543
 3447SOL    HW111240   6.121   4.493   5.467
 3447SOL    HW211241   6.184   4.543   5.609
 3448SOL     OW11242   3.447   2.985   1.012
 3448SOL    HW111243   3.462   2.908   1.075
 3448SOL    HW211244   3.528   3.043   1.012
 3449SOL     OW11245   6.718   5.944   2.727
 3449SOL    HW111246   6.645   5.910   2.786
 3449SOL    HW211247   6.760   6.024   2.768
 3450SOL     OW11248   0.900   2.018   1.351
 3450SOL    HW111249   0.851   1.947   1.300
 3450SOL    HW211250   0.989   2.033   1.309
 3451SOL     OW11251   1.501   4.520   4.398
 3451SOL    HW111252   1.558   4.468   4.335
 3451SOL    HW211253   1.417   4.548   4.352
 3452SOL     OW11254   6.761   1.903   0.824
 3452SOL    HW111255   6.829   1.972   0.802
 3452SOL    HW211256   6.805   1.813   0.827
 3453SOL     OW11257   6.079   6.153   5.435
 3453SOL    HW111258   6.117   6.245   5.428
 3453SOL    HW211259   6.152   6.086   5.422
 3454SOL     OW11260   1.440   1.296   0.583
 3454SOL    HW111261   1.367   1.363   0.595
 3454SOL    HW211262   1.529   1.341   0.589
 3455SOL     OW11263   2.318   2.669   3.905
 3455SOL    HW111264   2.288   2.740   3.841
 3455SOL    HW211265   2.371   2.599   3.855
 3456SOL     OW11266   6.988   6.941   0.703
 3456SOL    HW111267   6.967   7.018   0.643
 3456SOL    HW211268   0.038   6.886   0.662
 3457SOL     OW11269   2.243   6.400   3.947
 3457SOL    HW111270   2.226   6.305   3.973
 3457SOL    HW211271   2.173   6.459   3.985
 3458SOL     OW11272   5.139   4.585   0.444
 3458SOL    HW111273   5.172   4.567   0.352
 3458SOL    HW211274   5.177   4.672   0.477
 3459SOL     OW11275   6.592   6.260   3.179
 3459SOL    HW111276   6.604   6.191   3.250
 3459SOL    HW211277   6.495   6.281   3.168
 3460SOL     OW11278   3.739   2.866   5.965
 3460SOL    HW111279   3.718   2.957   6.000
 3460SOL    HW211280   3.837   2.858   5.950
 3461SOL     OW11281   2.558   5.246   3.082
 3461SOL    HW111282   2.463   5.247   3.114
 3461SOL    HW211283   2.561   5.205   2.991
 3462SOL     OW11284   5.258   2.836   2.368
 3462SOL    HW111285   5.252   2.773   2.445
 3462SOL    HW211286   5.230   2.790   2.284
 3463SOL     OW11287   1.605   3.115   1.264
 3463SOL    HW111288   1.650   3.198   1.232
 3463SOL    HW211289   1.632   3.096   1.358
 3464SOL     OW11290   5.421   1.936   6.069
 3464SOL    HW111291   5.372   1.986   5.998
 3464SOL    HW211292   5.356   1.885   6.125
 3465SOL     OW11293   1.564   4.410   1.471
 3465SOL    HW111294   1.489   4.358   1.432
 3465SOL    HW211295   1.591   4.370   1.559
 3466SOL     OW11296   6.118   4.546   4.101
 3466SOL    HW111297   6.142   4.597   4.184
 3466SOL    HW211298   6.180   4.570   4.027
 3467SOL     OW11299   3.230   2.872   1.143
 3467SOL    HW111300   3.236   2.786   1.092
 3467SOL    HW211301   3.138   2.883   1.179
 3468SOL     OW11302   3.772   1.461   1.002
 3468SOL    HW111303   3.836   1.407   1.056
 3468SOL    HW211304   3.738   1.407   0.925
 3469SOL     OW11305   3.646   5.830   5.093
 3469SOL    HW111306   3.599   5.792   5.173
 3469SOL    HW211307   3.631   5.929   5.090
 3470SOL     OW11308   0.505   2.482   2.083
 3470SOL    HW111309   0.447   2.474   2.165
 3470SOL    HW211310   0.535   2.577   2.074
 3471SOL     OW11311   4.860   3.006   5.030
 3471SOL    HW111312   4.858   2.938   4.958
 3471SOL    HW211313   4.939   3.066   5.016
 3472SOL     OW11314   4.108   1.823   3.019
 3472SOL    HW111315   4.032   1.873   2.977
 3472SOL    HW211316   4.188   1.826   2.958
 3473SOL     OW11317   5.980   4.558   1.718
 3473SOL    HW111318   5.975   4.602   1.808
 3473SOL    HW211319   5.945   4.621   1.649
 3474SOL     OW11320   4.840   4.828   4.063
 3474SOL    HW111321   4.879   4.835   3.971
 3474SOL    HW211322   4.865   4.909   4.116
 3475SOL     OW11323   6.707   4.459   4.108
 3475SOL    HW111324   6.689   4.399   4.030
 3475SOL    HW211325   6.620   4.494   4.143
 3476SOL     OW11326   1.674   1.191   3.334
 3476SOL    HW111327   1.691   1.263   3.402
 3476SOL    HW211328   1.731   1.208   3.253
 3477SOL     OW11329   0.621   4.648   1.710
 3477SOL    HW111330   0.632   4.559   1.755
 3477SOL    HW211331   0.677   4.716   1.756
 3478SOL     OW11332   2.211   0.506   1.239
 3478SOL    HW111333   2.278   0.482   1.169
 3478SOL    HW211334   2.120   0.513   1.197
 3479SOL     OW11335   1.430   4.535   5.077
 3479SOL    HW111336   1.495   4.494   5.140
 3479SOL    HW211337   1.337   4.507   5.102
 3480SOL     OW11338   1.320   4.600   6.370
 3480SOL    HW111339   1.345   4.618   6.275
 3480SOL    HW211340   1.237   4.651   6.393
 3481SOL     OW11341   5.925   0.580   4.754
 3481SOL    HW111342   5.952   0.543   4.843
 3481SOL    HW211343   5.964   0.523   4.681
 3482SOL     OW11344   5.918   3.396   6.378
 3482SOL    HW111345   5.854   3.463   6.416
 3482SOL    HW211346   5.866   3.318   6.340
 3483SOL     OW11347   5.771   2.726   5.615
 3483SOL    HW111348   5.716   2.797   5.659
 3483SOL    HW211349   5.790   2.752   5.520
 3484SOL     OW11350   1.287   3.630   5.065
 3484SOL    HW111351   1.341   3.668   5.140
 3484SOL    HW211352   1.204   3.587   5.102
 3485SOL     OW11353   0.084   2.832   6.924
 3485SOL    HW111354   0.036   2.776   6.991
 3485SOL    HW211355   0.018   2.871   6.860
 3486SOL     OW11356   1.702   6.501   5.709
 3486SOL    HW111357   1.651   6.579   5.745
 3486SOL    HW211358   1.783   6.484   5.765
 3487SOL     OW11359   4.721   1.263   0.315
 3487SOL    HW111360   4.737   1.206   0.234
 3487SOL    HW211361   4.805   1.312   0.339
 3488SOL     OW11362   5.858   0.016   4.453
 3488SOL    HW111363   5.767   7.000   4.472
 3488SOL    HW211364   5.864   0.042   4.357
 3489SOL     OW11365   3.246   5.999   0.872
 3489SOL    HW111366   3.259   5.930   0.801
 3489SOL    HW211367   3.283   5.966   0.958
 3490SOL     OW11368   3.266   6.406   0.989
 3490SOL    HW111369   3.198   6.332   0.990
 3490SOL    HW211370   3.354   6.369   0.959
 3491SOL     OW11371   4.061   4.841   6.116
 3491SOL    HW111372   4.079   4.906   6.042
 3491SOL    HW211373   4.040   4.751   6.077
 3492SOL     OW11374   6.156   4.475   3.055
 3492SOL    HW111375   6.060   4.464   3.029
 3492SOL    HW211376   6.161   4.508   3.149
 3493SOL     OW11377   6.856   2.839   5.369
 3493SOL    HW111378   6.844   2.770   5.297
 3493SOL    HW211379   6.771   2.889   5.381
 3494SOL     OW11380   4.242   1.560   2.253
 3494SOL    HW111381   4.286   1.570   2.164
 3494SOL    HW211382   4.143   1.563   2.243
 3495SOL     OW11383   1.327   3.307   3.108
 3495SOL    HW111384   1.407   3.368   3.112
 3495SOL    HW211385   1.354   3.215   3.136
 3496SOL     OW11386   6.387   4.944   1.533
 3496SOL    HW111387   6.369   4.969   1.438
 3496SOL    HW211388   6.318   4.985   1.593
 3497SOL     OW11389   3.272   0.052   2.243
 3497SOL    HW111390   3.283   7.018   2.325
 3497SOL    HW211391   3.319   0.008   2.166
 3498SOL     OW11392   1.778   2.790   1.508
 3498SOL    HW111393   1.699   2.738   1.477
 3498SOL    HW211394   1.861   2.734   1.501
 3499SOL     OW11395   5.714   6.704   4.547
 3499SOL    HW111396   5.687   6.783   4.601
 3499SOL    HW211397   5.746   6.734   4.457
 3500SOL     OW11398   2.329   2.169   3.818
 3500SOL    HW111399   2.328   2.113   3.735
 3500SOL    HW211400   2.235   2.192   3.844
 3501SOL     OW11401   1.303   0.139   6.082
 3501SOL    HW111402   1.247   0.210   6.040
 3501SOL    HW211403   1.296   0.146   6.182
 3502SOL     OW11404   4.219   2.258   2.556
 3502SOL    HW111405   4.121   2.264   2.576
 3502SOL    HW211406   4.248   2.341   2.507
 3503SOL     OW11407   6.927   5.802   6.396
 3503SOL    HW111408   6.880   5.876   6.348
 3503SOL    HW211409   6.905   5.715   6.352
 3504SOL     OW11410   1.798   0.583   0.490
 3504SOL    HW111411   1.720   0.562   0.549
 3504SOL    HW211412   1.775   0.662   0.432
 3505SOL     OW11413   4.896   3.852   6.021
 3505SOL    HW111414   4.807   3.845   5.977
 3505SOL    HW211415   4.929   3.946   6.013
 3506SOL     OW11416   4.353   4.926   5.116
 3506SOL    HW111417   4.355   5.017   5.075
 3506SOL    HW211418   4.420   4.867   5.070
 3507SOL     OW11419   3.208   1.052   0.757
 3507SOL    HW111420   3.284   1.086   0.702
 3507SOL    HW211421   3.121   1.082   0.716
 3508SOL     OW11422   3.580   1.281   5.434
 3508SOL    HW111423   3.647   1.339   5.388
 3508SOL    HW211424   3.628   1.213   5.491
 3509SOL     OW11425   3.909   5.771   6.312
 3509SOL    HW111426   3.866   5.684   6.291
 3509SOL    HW211427   3.853   5.822   6.377
 3510SOL     OW11428   2.574   1.666   1.499
 3510SOL    HW111429   2.490   1.636   1.454
 3510SOL    HW211430   2.653   1.628   1.450
 3511SOL     OW11431   2.739   4.476   1.657
 3511SOL    HW111432   2.805   4.403   1.638
 3511SOL    HW211433   2.777   4.537   1.727
 3512SOL     OW11434   6.717   5.081   5.557
 3512SOL    HW111435   6.652   5.153   5.580
 3512SOL    HW211436   6.669   5.003   5.518
 3513SOL     OW11437   6.321   2.003   1.043
 3513SOL    HW111438   6.371   2.088   1.029
 3513SOL    HW211439   6.254   1.991   0.969
 3514SOL     OW11440   3.393   1.578   1.978
 3514SOL    HW111441   3.306   1.531   1.991
 3514SOL    HW211442   3.377   1.671   1.945
 3515SOL     OW11443   0.268   5.063   4.384
 3515SOL    HW111444   0.272   4.966   4.361
 3515SOL    HW211445   0.335   5.083   4.456
 3516SOL     OW11446   4.619   0.622   1.505
 3516SOL    HW111447   4.546   0.690   1.498
 3516SOL    HW211448   4.707   0.665   1.484
 3517SOL     OW11449   5.419   0.861   1.222
 3517SOL    HW111450   5.447   0.848   1.126
 3517SOL    HW211451   5.320   0.863   1.228
 3518SOL     OW11452   5.389   1.049   5.155
 3518SOL    HW111453   5.298   1.049   5.113
 3518SOL    HW211454   5.412   1.141   5.185
 3519SOL     OW11455   3.349   0.919   1.190
 3519SOL    HW111456   3.327   0.896   1.285
 3519SOL    HW211457   3.448   0.935   1.182
 3520SOL     OW11458   3.062   6.064   4.284
 3520SOL    HW111459   3.002   6.130   4.328
 3520SOL    HW211460   3.053   5.975   4.330
 3521SOL     OW11461   2.596   3.004   6.325
 3521SOL    HW111462   2.689   2.969   6.333
 3521SOL    HW211463   2.567   3.042   6.413
 3522SOL     OW11464   1.067   6.179   6.429
 3522SOL    HW111465   1.094   6.240   6.355
 3522SOL    HW211466   0.978   6.138   6.407
 3523SOL     OW11467   3.059   6.650   6.828
 3523SOL    HW111468   3.041   6.707   6.909
 3523SOL    HW211469   3.056   6.707   6.746
 3524SOL     OW11470   4.735   1.462   4.044
 3524SOL    HW111471   4.673   1.529   4.002
 3524SOL    HW211472   4.768   1.399   3.974
 3525SOL     OW11473   0.059   3.554   3.257
 3525SOL    HW111474   0.005   3.515   3.331
 3525SOL    HW211475   0.152   3.518   3.260
 3526SOL     OW11476   0.199   6.590   1.856
 3526SOL    HW111477   0.120   6.553   1.808
 3526SOL    HW211478   0.176   6.680   1.895
 3527SOL     OW11479   0.391   3.049   6.352
 3527SOL    HW111480   0.294   3.068   6.364
 3527SOL    HW211481   0.421   2.982   6.421
 3528SOL     OW11482   2.591   5.794   4.219
 3528SOL    HW111483   2.526   5.764   4.289
 3528SOL    HW211484   2.553   5.774   4.129
 3529SOL     OW11485   4.276   4.625   0.948
 3529SOL    HW111486   4.340   4.578   0.888
 3529SOL    HW211487   4.246   4.563   1.021
 3530SOL     OW11488   6.715   6.855   0.698
 3530SOL    HW111489   6.649   6.912   0.748
 3530SOL    HW211490   6.806   6.895   0.704
 3531SOL     OW11491   4.851   2.179   0.344
 3531SOL    HW111492   4.858   2.218   0.252
 3531SOL    HW211493   4.857   2.252   0.412
 3532SOL     OW11494   1.934   1.115   1.592
 3532SOL    HW111495   1.934   1.120   1.692
 3532SOL    HW211496   1.863   1.052   1.561
 3533SOL     OW11497   1.094   1.726   3.160
 3533SOL    HW111498   1.145   1.753   3.079
 3533SOL    HW211499   1.155   1.724   3.240
 3534SOL     OW11500   0.255   1.033   1.248
 3534SOL    HW111501   0.203   1.014   1.165
 3534SOL    HW211502   0.311   1.115   1.235
 3535SOL     OW11503   3.254   5.837   4.130
 3535SOL    HW111504   3.190   5.795   4.195
 3535SOL    HW211505   3.322   5.891   4.179
 3536SOL     OW11506   3.954   1.663   3.201
 3536SOL    HW111507   4.005   1.649   3.286
 3536SOL    HW211508   4.017   1.690   3.129
 3537SOL     OW11509   1.899   6.874   3.847
 3537SOL    HW111510   1.861   6.783   3.830
 3537SOL    HW211511   1.826   6.941   3.844
 3538SOL     OW11512   2.665   5.795   2.110
 3538SOL    HW111513   2.702   5.761   2.024
 3538SOL    HW211514   2.739   5.825   2.169
 3539SOL     OW11515   3.489   3.821   4.124
 3539SOL    HW111516   3.407   3.815   4.067
 3539SOL    HW211517   3.494   3.912   4.166
 3540SOL     OW11518   1.520   2.255   3.617
 3540SOL    HW111519   1.530   2.351   3.641
 3540SOL    HW211520   1.447   2.245   3.549
 3541SOL     OW11521   4.001   3.871   4.228
 3541SOL    HW111522   3.989   3.889   4.325
 3541SOL    HW211523   3.995   3.772   4.211
 3542SOL     OW11524   6.566   5.323   0.987
 3542SOL    HW111525   6.575   5.401   0.924
 3542SOL    HW211526   6.474   5.286   0.981
 3543SOL     OW11527   5.549   2.663   4.714
 3543SOL    HW111528   5.626   2.654   4.777
 3543SOL    HW211529   5.516   2.757   4.716
 3544SOL     OW11530   2.389   6.651   6.989
 3544SOL    HW111531   2.437   6.599   0.036
 3544SOL    HW211532   2.311   6.597   6.955
 3545SOL     OW11533   3.234   4.786   0.641
 3545SOL    HW111534   3.305   4.806   0.708
 3545SOL    HW211535   3.244   4.848   0.563
 3546SOL     OW11536   0.074   4.879   2.231
 3546SOL    HW111537   0.169   4.850   2.223
 3546SOL    HW211538   0.032   4.837   2.312
 3547SOL     OW11539   4.851   4.805   4.460
 3547SOL    HW111540   4.842   4.748   4.541
 3547SOL    HW211541   4.842   4.748   4.378
 3548SOL     OW11542   5.016   3.598   5.904
 3548SOL    HW111543   5.102   3.575   5.951
 3548SOL    HW211544   4.971   3.673   5.953
 3549SOL     OW11545   5.534   3.533   2.616
 3549SOL    HW111546   5.509   3.511   2.522
 3549SOL    HW211547   5.482   3.612   2.647
 3550SOL     OW11548   5.238   1.348   3.218
 3550SOL    HW111549   5.219   1.438   3.179
 3550SOL    HW211550   5.171   1.283   3.184
 3551SOL     OW11551   2.124   6.471   2.976
 3551SOL    HW111552   2.215   6.477   3.017
 3551SOL    HW211553   2.055   6.463   3.048
 3552SOL     OW11554   6.786   4.217   3.283
 3552SOL    HW111555   6.837   4.217   3.197
 3552SOL    HW211556   6.726   4.137   3.287
 3553SOL     OW11557   5.764   2.301   3.305
 3553SOL    HW111558   5.728   2.394   3.304
 3553SOL    HW211559   5.861   2.303   3.327
 3554SOL     OW11560   4.080   5.938   6.882
 3554SOL    HW111561   4.060   6.026   6.925
 3554SOL    HW211562   4.004   5.875   6.898
 3555SOL     OW11563   0.114   2.276   3.253
 3555SOL    HW111564   0.071   2.367   3.250
 3555SOL    HW211565   0.098   2.229   3.167
 3556SOL     OW11566   4.461   0.870   6.535
 3556SOL    HW111567   4.396   0.919   6.592
 3556SOL    HW211568   4.554   0.890   6.565
 3557SOL     OW11569   0.947   0.288   4.578
 3557SOL    HW111570   0.985   0.208   4.624
 3557SOL    HW211571   0.861   0.264   4.535
 3558SOL     OW11572   6.750   6.465   1.669
 3558SOL    HW111573   6.716   6.485   1.761
 3558SOL    HW211574   6.703   6.386   1.632
 3559SOL     OW11575   1.206   0.324   5.298
 3559SOL    HW111576   1.192   0.298   5.393
 3559SOL    HW211577   1.118   0.351   5.258
 3560SOL     OW11578   6.535   6.832   1.324
 3560SOL    HW111579   6.473   6.785   1.388
 3560SOL    HW211580   6.629   6.820   1.355
 3561SOL     OW11581   5.424   4.583   3.672
 3561SOL    HW111582   5.360   4.560   3.746
 3561SOL    HW211583   5.395   4.538   3.588
 3562SOL     OW11584   4.051   2.194   3.275
 3562SOL    HW111585   4.139   2.217   3.233
 3562SOL    HW211586   4.057   2.209   3.374
 3563SOL     OW11587   5.175   6.915   1.521
 3563SOL    HW111588   5.160   6.849   1.447
 3563SOL    HW211589   5.134   6.881   1.606
 3564SOL     OW11590   6.894   4.240   3.027
 3564SOL    HW111591   6.801   4.212   3.002
 3564SOL    HW211592   6.957   4.218   2.952
 3565SOL     OW11593   1.440   0.993   5.334
 3565SOL    HW111594   1.417   1.073   5.389
 3565SOL    HW211595   1.457   0.915   5.394
 3566SOL     OW11596   0.985   4.662   6.450
 3566SOL    HW111597   0.960   4.687   6.356
 3566SOL    HW211598   0.982   4.563   6.460
 3567SOL     OW11599   0.273   2.838   1.286
 3567SOL    HW111600   0.273   2.785   1.371
 3567SOL    HW211601   0.364   2.877   1.272
 3568SOL     OW11602   4.806   4.129   3.430
 3568SOL    HW111603   4.827   4.164   3.521
 3568SOL    HW211604   4.796   4.029   3.435
 3569SOL     OW11605   4.030   3.244   3.367
 3569SOL    HW111606   3.983   3.163   3.332
 3569SOL    HW211607   4.041   3.236   3.466
 3570SOL     OW11608   0.497   1.969   5.259
 3570SOL    HW111609   0.549   2.004   5.337
 3570SOL    HW211610   0.547   1.893   5.217
 3571SOL     OW11611   2.596   6.882   4.701
 3571SOL    HW111612   2.586   6.785   4.679
 3571SOL    HW211613   2.555   6.937   4.628
 3572SOL     OW11614   4.966   3.976   1.730
 3572SOL    HW111615   4.882   3.981   1.784
 3572SOL    HW211616   5.042   3.949   1.789
 3573SOL     OW11617   0.016   4.768   3.753
 3573SOL    HW111618   7.009   4.673   3.750
 3573SOL    HW211619   0.111   4.774   3.786
 3574SOL     OW11620   1.978   1.717   5.841
 3574SOL    HW111621   1.991   1.654   5.917
 3574SOL    HW211622   1.984   1.668   5.755
 3575SOL     OW11623   5.438   0.237   6.745
 3575SOL    HW111624   5.346   0.246   6.705
 3575SOL    HW211625   5.460   0.320   6.796
 3576SOL     OW11626   1.223   2.675   0.530
 3576SOL    HW111627   1.308   2.721   0.557
 3576SOL    HW211628   1.190   2.713   0.444
 3577SOL     OW11629   1.265   2.758   4.878
 3577SOL    HW111630   1.204   2.723   4.949
 3577SOL    HW211631   1.309   2.682   4.831
 3578SOL     OW11632   3.831   2.893   6.836
 3578SOL    HW111633   3.841   2.951   6.917
 3578SOL    HW211634   3.871   2.939   6.757
 3579SOL     OW11635   0.943   4.062   1.056
 3579SOL    HW111636   0.978   4.050   0.963
 3579SOL    HW211637   0.944   4.159   1.080
 3580SOL     OW11638   7.004   4.075   2.074
 3580SOL    HW111639   6.943   4.054   2.151
 3580SOL    HW211640   0.016   3.989   2.035
 3581SOL     OW11641   1.363   0.403   2.688
 3581SOL    HW111642   1.326   0.478   2.742
 3581SOL    HW211643   1.452   0.376   2.725
 3582SOL     OW11644   4.564   5.988   6.766
 3582SOL    HW111645   4.633   6.037   6.820
 3582SOL    HW211646   4.553   5.895   6.801
 3583SOL     OW11647   1.716   5.582   1.319
 3583SOL    HW111648   1.638   5.633   1.282
 3583SOL    HW211649   1.704   5.570   1.417
 3584SOL     OW11650   5.912   4.984   4.575
 3584SOL    HW111651   5.865   5.033   4.501
 3584SOL    HW211652   5.854   4.984   4.657
 3585SOL     OW11653   3.687   2.081   3.400
 3585SOL    HW111654   3.726   2.127   3.481
 3585SOL    HW211655   3.696   1.982   3.410
 3586SOL     OW11656   6.872   1.910   5.331
 3586SOL    HW111657   6.955   1.853   5.334
 3586SOL    HW211658   6.795   1.857   5.367
 3587SOL     OW11659   2.983   0.898   5.991
 3587SOL    HW111660   3.050   0.971   6.006
 3587SOL    HW211661   2.921   0.894   6.070
 3588SOL     OW11662   5.720   4.867   4.371
 3588SOL    HW111663   5.791   4.906   4.313
 3588SOL    HW211664   5.671   4.796   4.321
 3589SOL     OW11665   0.894   0.157   6.151
 3589SOL    HW111666   0.953   0.198   6.081
 3589SOL    HW211667   0.810   0.123   6.108
 3590SOL     OW11668   6.236   5.521   5.421
 3590SOL    HW111669   6.322   5.493   5.463
 3590SOL    HW211670   6.216   5.462   5.343
 3591SOL     OW11671   4.650   1.986   0.647
 3591SOL    HW111672   4.674   2.084   0.642
 3591SOL    HW211673   4.726   1.932   0.612
 3592SOL     OW11674   1.212   6.045   1.222
 3592SOL    HW111675   1.142   5.974   1.223
 3592SOL    HW211676   1.265   6.041   1.306
 3593SOL     OW11677   3.860   3.395   5.738
 3593SOL    HW111678   3.877   3.357   5.647
 3593SOL    HW211679   3.771   3.363   5.772
 3594SOL     OW11680   4.632   5.147   5.236
 3594SOL    HW111681   4.579   5.208   5.294
 3594SOL    HW211682   4.637   5.056   5.278
 3595SOL     OW11683   4.883   6.343   4.549
 3595SOL    HW111684   4.798   6.353   4.498
 3595SOL    HW211685   4.865   6.353   4.647
 3596SOL     OW11686   4.061   1.581   2.652
 3596SOL    HW111687   3.966   1.566   2.679
 3596SOL    HW211688   4.086   1.676   2.668
 3597SOL     OW11689   3.368   4.213   5.687
 3597SOL    HW111690   3.382   4.116   5.663
 3597SOL    HW211691   3.343   4.219   5.784
 3598SOL     OW11692   6.998   5.859   5.194
 3598SOL    HW111693   0.029   5.786   5.152
 3598SOL    HW211694   0.015   5.948   5.167
 3599SOL     OW11695   2.624   1.665   4.936
 3599SOL    HW111696   2.706   1.709   4.974
 3599SOL    HW211697   2.650   1.580   4.891
 3600SOL     OW11698   2.938   3.765   6.960
 3600SOL    HW111699   2.939   3.716   0.024
 3600SOL    HW211700   2.885   3.713   6.893
 3601SOL     OW11701   4.823   0.783   4.996
 3601SOL    HW111702   4.799   0.851   5.065
 3601SOL    HW211703   4.780   0.806   4.909
 3602SOL     OW11704   1.397   2.444   1.715
 3602SOL    HW111705   1.458   2.450   1.794
 3602SOL    HW211706   1.303   2.432   1.746
 3603SOL     OW11707   2.230   0.637   5.621
 3603SOL    HW111708   2.279   0.645   5.708
 3603SOL    HW211709   2.292   0.662   5.546
 3604SOL     OW11710   6.936   0.959   3.500
 3604SOL    HW111711   7.006   1.022   3.468
 3604SOL    HW211712   6.892   0.915   3.422
 3605SOL     OW11713   1.331   0.230   5.085
 3605SOL    HW111714   1.292   0.258   5.173
 3605SOL    HW211715   1.267   0.251   5.011
 3606SOL     OW11716   2.274   6.855   2.468
 3606SOL    HW111717   2.309   6.806   2.388
 3606SOL    HW211718   2.175   6.847   2.472
 3607SOL     OW11719   6.509   1.433   3.256
 3607SOL    HW111720   6.505   1.347   3.308
 3607SOL    HW211721   6.475   1.418   3.164
 3608SOL     OW11722   3.707   1.785   5.556
 3608SOL    HW111723   3.752   1.859   5.507
 3608SOL    HW211724   3.769   1.746   5.624
 3609SOL     OW11725   3.383   0.361   5.451
 3609SOL    HW111726   3.408   0.375   5.355
 3609SOL    HW211727   3.356   0.447   5.492
 3610SOL     OW11728   2.380   0.919   5.739
 3610SOL    HW111729   2.290   0.958   5.753
 3610SOL    HW211730   2.406   0.928   5.642
 3611SOL     OW11731   5.488   3.969   3.106
 3611SOL    HW111732   5.414   3.933   3.163
 3611SOL    HW211733   5.452   4.042   3.049
 3612SOL     OW11734   4.428   1.924   0.500
 3612SOL    HW111735   4.488   1.970   0.565
 3612SOL    HW211736   4.436   1.825   0.512
 3613SOL     OW11737   3.760   0.094   2.727
 3613SOL    HW111738   3.806   0.008   2.705
 3613SOL    HW211739   3.662   0.079   2.731
 3614SOL     OW11740   3.524   5.874   0.116
 3614SOL    HW111741   3.619   5.863   0.147
 3614SOL    HW211742   3.485   5.957   0.156
 3615SOL     OW11743   4.988   3.146   5.644
 3615SOL    HW111744   4.964   3.227   5.590
 3615SOL    HW211745   5.028   3.175   5.731
 3616SOL     OW11746   1.483   2.247   1.104
 3616SOL    HW111747   1.451   2.152   1.105
 3616SOL    HW211748   1.511   2.274   1.196
 3617SOL     OW11749   4.448   5.513   5.658
 3617SOL    HW111750   4.379   5.442   5.644
 3617SOL    HW211751   4.403   5.603   5.664
 3618SOL     OW11752   1.150   5.512   4.622
 3618SOL    HW111753   1.155   5.477   4.528
 3618SOL    HW211754   1.059   5.553   4.636
 3619SOL     OW11755   6.494   2.123   2.512
 3619SOL    HW111756   6.585   2.083   2.498
 3619SOL    HW211757   6.424   2.061   2.475
 3620SOL     OW11758   5.193   6.228   5.218
 3620SOL    HW111759   5.181   6.133   5.188
 3620SOL    HW211760   5.271   6.233   5.280
 3621SOL     OW11761   3.705   2.952   3.907
 3621SOL    HW111762   3.678   3.048   3.894
 3621SOL    HW211763   3.634   2.905   3.960
 3622SOL     OW11764   1.827   5.462   6.173
 3622SOL    HW111765   1.815   5.553   6.132
 3622SOL    HW211766   1.924   5.444   6.185
 3623SOL     OW11767   1.512   5.742   6.282
 3623SOL    HW111768   1.585   5.811   6.289
 3623SOL    HW211769   1.495   5.702   6.372
 3624SOL     OW11770   2.450   1.745   2.801
 3624SOL    HW111771   2.361   1.700   2.790
 3624SOL    HW211772   2.465   1.808   2.724
 3625SOL     OW11773   6.345   2.642   1.482
 3625SOL    HW111774   6.258   2.684   1.455
 3625SOL    HW211775   6.331   2.544   1.496
 3626SOL     OW11776   1.611   2.744   6.194
 3626SOL    HW111777   1.516   2.738   6.225
 3626SOL    HW211778   1.619   2.815   6.124
 3627SOL     OW11779   3.304   1.263   2.765
 3627SOL    HW111780   3.357   1.330   2.817
 3627SOL    HW211781   3.270   1.305   2.681
 3628SOL     OW11782   6.741   1.376   1.555
 3628SOL    HW111783   6.756   1.293   1.500
 3628SOL    HW211784   6.801   1.449   1.523
 3629SOL     OW11785   1.669   0.615   4.031
 3629SOL    HW111786   1.645   0.658   4.119
 3629SOL    HW211787   1.755   0.654   3.998
 3630SOL     OW11788   6.204   2.406   3.055
 3630SOL    HW111789   6.295   2.403   3.096
 3630SOL    HW211790   6.172   2.312   3.041
 3631SOL     OW11791   2.070   6.033   2.785
 3631SOL    HW111792   2.106   5.940   2.786
 3631SOL    HW211793   2.039   6.056   2.693
 3632SOL     OW11794   4.883   3.188   2.459
 3632SOL    HW111795   4.981   3.168   2.466
 3632SOL    HW211796   4.869   3.269   2.403
 3633SOL     OW11797   3.977   4.436   6.392
 3633SOL    HW111798   3.950   4.346   6.425
 3633SOL    HW211799   4.077   4.438   6.379
 3634SOL     OW11800   2.942   5.537   6.380
 3634SOL    HW111801   3.004   5.551   6.457
 3634SOL    HW211802   2.967   5.452   6.333
 3635SOL     OW11803   1.363   6.912   2.815
 3635SOL    HW111804   1.450   6.943   2.853
 3635SOL    HW211805   1.376   6.825   2.769
 3636SOL     OW11806   0.230   5.792   4.834
 3636SOL    HW111807   0.300   5.849   4.876
 3636SOL    HW211808   0.169   5.849   4.779
 3637SOL     OW11809   5.818   2.624   6.617
 3637SOL    HW111810   5.901   2.680   6.619
 3637SOL    HW211811   5.836   2.538   6.569
 3638SOL     OW11812   0.289   3.139   3.421
 3638SOL    HW111813   0.328   3.227   3.392
 3638SOL    HW211814   0.257   3.147   3.516
 3639SOL     OW11815   3.952   3.864   4.508
 3639SOL    HW111816   4.024   3.897   4.569
 3639SOL    HW211817   3.878   3.825   4.562
 3640SOL     OW11818   4.560   1.771   2.096
 3640SOL    HW111819   4.554   1.681   2.054
 3640SOL    HW211820   4.468   1.804   2.118
 3641SOL     OW11821   6.518   3.297   1.890
 3641SOL    HW111822   6.459   3.376   1.875
 3641SOL    HW211823   6.513   3.236   1.811
 3642SOL     OW11824   5.117   4.372   6.219
 3642SOL    HW111825   5.021   4.378   6.247
 3642SOL    HW211826   5.133   4.434   6.143
 3643SOL     OW11827   4.199   5.963   4.793
 3643SOL    HW111828   4.201   5.869   4.759
 3643SOL    HW211829   4.285   6.008   4.771
 3644SOL     OW11830   2.640   0.917   2.099
 3644SOL    HW111831   2.726   0.940   2.054
 3644SOL    HW211832   2.658   0.857   2.177
 3645SOL     OW11833   2.139   4.469   3.449
 3645SOL    HW111834   2.171   4.410   3.374
 3645SOL    HW211835   2.062   4.524   3.418
 3646SOL     OW11836   1.980   5.169   5.405
 3646SOL    HW111837   1.991   5.075   5.436
 3646SOL    HW211838   1.905   5.175   5.340
 3647SOL     OW11839   3.816   6.900   0.464
 3647SOL    HW111840   3.912   6.914   0.489
 3647SOL    HW211841   3.810   6.827   0.396
 3648SOL     OW11842   5.169   4.643   3.514
 3648SOL    HW111843   5.183   4.544   3.510
 3648SOL    HW211844   5.145   4.670   3.607
 3649SOL     OW11845   5.215   2.375   0.671
 3649SOL    HW111846   5.287   2.439   0.642
 3649SOL    HW211847   5.205   2.379   0.771
 3650SOL     OW11848   5.393   6.152   5.973
 3650SOL    HW111849   5.341   6.233   6.000
 3650SOL    HW211850   5.464   6.134   6.040
 3651SOL     OW11851   1.223   2.197   6.282
 3651SOL    HW111852   1.149   2.169   6.343
 3651SOL    HW211853   1.267   2.280   6.319
 3652SOL     OW11854   5.170   2.548   2.570
 3652SOL    HW111855   5.081   2.538   2.527
 3652SOL    HW211856   5.179   2.481   2.644
 3653SOL     OW11857   2.109   1.212   0.810
 3653SOL    HW111858   2.205   1.206   0.781
 3653SOL    HW211859   2.105   1.225   0.909
 3654SOL     OW11860   4.332   6.555   1.510
 3654SOL    HW111861   4.385   6.475   1.482
 3654SOL    HW211862   4.391   6.635   1.514
 3655SOL     OW11863   1.302   0.726   4.329
 3655SOL    HW111864   1.308   0.676   4.243
 3655SOL    HW211865   1.251   0.673   4.396
 3656SOL     OW11866   0.250   0.041   0.638
 3656SOL    HW111867   0.283   0.031   0.545
 3656SOL    HW211868   0.225   6.974   0.674
 3657SOL     OW11869   5.886   5.033   6.249
 3657SOL    HW111870   5.871   4.953   6.190
 3657SOL    HW211871   5.976   5.025   6.293
 3658SOL     OW11872   1.659   3.985   5.413
 3658SOL    HW111873   1.695   4.019   5.326
 3658SOL    HW211874   1.584   3.921   5.395
 3659SOL     OW11875   1.027   2.046   6.708
 3659SOL    HW111876   0.972   2.100   6.771
 3659SOL    HW211877   1.033   1.952   6.742
 3660SOL     OW11878   4.079   5.124   5.213
 3660SOL    HW111879   3.986   5.087   5.213
 3660SOL    HW211880   4.078   5.216   5.174
 3661SOL     OW11881   0.883   1.440   4.715
 3661SOL    HW111882   0.840   1.531   4.712
 3661SOL    HW211883   0.982   1.450   4.701
 3662SOL     OW11884   3.893   1.521   5.558
 3662SOL    HW111885   3.984   1.480   5.572
 3662SOL    HW211886   3.838   1.506   5.640
 3663SOL     OW11887   1.572   2.431   6.241
 3663SOL    HW111888   1.648   2.496   6.235
 3663SOL    HW211889   1.606   2.339   6.219
 3664SOL     OW11890   2.701   1.704   1.216
 3664SOL    HW111891   2.755   1.785   1.193
 3664SOL    HW211892   2.616   1.705   1.163
 3665SOL     OW11893   0.050   6.093   5.020
 3665SOL    HW111894   6.997   6.150   5.052
 3665SOL    HW211895   0.046   6.084   4.921
 3666SOL     OW11896   2.106   3.836   4.533
 3666SOL    HW111897   2.148   3.768   4.593
 3666SOL    HW211898   2.031   3.794   4.482
 3667SOL     OW11899   2.048   6.695   1.041
 3667SOL    HW111900   2.038   6.775   1.099
 3667SOL    HW211901   2.141   6.692   1.005
 3668SOL     OW11902   5.212   1.411   1.177
 3668SOL    HW111903   5.130   1.447   1.221
 3668SOL    HW211904   5.274   1.373   1.246
 3669SOL     OW11905   6.363   0.860   1.673
 3669SOL    HW111906   6.353   0.882   1.770
 3669SOL    HW211907   6.416   0.932   1.628
 3670SOL     OW11908   2.002   6.891   2.109
 3670SOL    HW111909   1.987   6.978   2.157
 3670SOL    HW211910   2.068   6.904   2.035
 3671SOL     OW11911   0.074   0.621   5.285
 3671SOL    HW111912   0.074   0.670   5.198
 3671SOL    HW211913   0.168   0.597   5.310
 3672SOL     OW11914   4.318   0.322   3.388
 3672SOL    HW111915   4.249   0.264   3.346
 3672SOL    HW211916   4.323   0.301   3.486
 3673SOL     OW11917   3.417   1.246   1.909
 3673SOL    HW111918   3.479   1.192   1.967
 3673SOL    HW211919   3.447   1.341   1.908
 3674SOL     OW11920   0.151   4.583   6.199
 3674SOL    HW111921   0.163   4.499   6.146
 3674SOL    HW211922   0.209   4.655   6.161
 3675SOL     OW11923   6.621   1.068   4.700
 3675SOL    HW111924   6.570   1.004   4.758
 3675SOL    HW211925   6.694   1.110   4.754
 3676SOL     OW11926   2.933   0.757   5.758
 3676SOL    HW111927   2.951   0.812   5.839
 3676SOL    HW211928   2.926   0.816   5.678
 3677SOL     OW11929   1.688   0.984   4.628
 3677SOL    HW111930   1.691   0.888   4.601
 3677SOL    HW211931   1.606   1.027   4.589
 3678SOL     OW11932   2.909   0.817   3.344
 3678SOL    HW111933   2.993   0.870   3.359
 3678SOL    HW211934   2.905   0.787   3.248
 3679SOL     OW11935   3.024   1.129   2.176
 3679SOL    HW111936   2.955   1.176   2.231
 3679SOL    HW211937   3.075   1.066   2.235
 3680SOL     OW11938   3.723   2.079   4.230
 3680SOL    HW111939   3.643   2.133   4.204
 3680SOL    HW211940   3.730   1.998   4.172
 3681SOL     OW11941   1.120   6.240   3.455
 3681SOL    HW111942   1.046   6.294   3.495
 3681SOL    HW211943   1.127   6.153   3.503
 3682SOL     OW11944   5.592   1.580   1.647
 3682SOL    HW111945   5.555   1.599   1.738
 3682SOL    HW211946   5.540   1.632   1.578
 3683SOL     OW11947   6.645   1.668   1.027
 3683SOL    HW111948   6.573   1.733   1.051
 3683SOL    HW211949   6.626   1.631   0.935
 3684SOL     OW11950   2.627   6.299   5.559
 3684SOL    HW111951   2.626   6.207   5.600
 3684SOL    HW211952   2.718   6.339   5.569
 3685SOL     OW11953   2.098   6.857   3.513
 3685SOL    HW111954   1.999   6.854   3.500
 3685SOL    HW211955   2.144   6.821   3.432
 3686SOL     OW11956   7.006   4.379   0.114
 3686SOL    HW111957   0.013   4.301   0.169
 3686SOL    HW211958   6.942   4.348   0.044
 3687SOL     OW11959   6.636   4.769   4.356
 3687SOL    HW111960   6.622   4.868   4.346
 3687SOL    HW211961   6.575   4.734   4.427
 3688SOL     OW11962   6.895   2.910   1.698
 3688SOL    HW111963   6.961   2.977   1.664
 3688SOL    HW211964   6.863   2.938   1.788
 3689SOL     OW11965   1.745   1.575   5.620
 3689SOL    HW111966   1.675   1.570   5.549
 3689SOL    HW211967   1.709   1.625   5.699
 3690SOL     OW11968   6.292   4.713   1.632
 3690SOL    HW111969   6.333   4.774   1.565
 3690SOL    HW211970   6.252   4.634   1.586
 3691SOL     OW11971   1.865   2.107   0.880
 3691SOL    HW111972   1.796   2.035   0.874
 3691SOL    HW211973   1.917   2.110   0.795
 3692SOL     OW11974   0.971   2.864   5.393
 3692SOL    HW111975   0.954   2.775   5.435
 3692SOL    HW211976   0.918   2.871   5.308
 3693SOL     OW11977   6.902   1.901   2.739
 3693SOL    HW111978   6.919   1.971   2.809
 3693SOL    HW211979   6.804   1.883   2.734
 3694SOL     OW11980   0.154   6.808   1.657
 3694SOL    HW111981   0.119   6.752   1.582
 3694SOL    HW211982   0.083   6.820   1.726
 3695SOL     OW11983   6.239   3.846   3.728
 3695SOL    HW111984   6.257   3.944   3.743
 3695SOL    HW211985   6.216   3.804   3.816
 3696SOL     OW11986   4.814   7.019   4.212
 3696SOL    HW111987   4.866   0.062   4.157
 3696SOL    HW211988   4.856   7.010   4.302
 3697SOL     OW11989   6.034   5.373   3.077
 3697SOL    HW111990   6.109   5.361   3.012
 3697SOL    HW211991   6.069   5.412   3.162
 3698SOL     OW11992   1.160   6.834   4.384
 3698SOL    HW111993   1.196   6.808   4.473
 3698SOL    HW211994   1.140   6.932   4.382
 3699SOL     OW11995   3.123   2.058   3.076
 3699SOL    HW111996   3.116   1.993   3.001
 3699SOL    HW211997   3.217   2.092   3.081
 3700SOL     OW11998   0.983   5.209   4.107
 3700SOL    HW111999   0.904   5.163   4.149
 3700SOL    HW212000   1.057   5.216   4.174
 3701SOL     OW12001   6.479   0.602   2.048
 3701SOL    HW112002   6.563   0.577   2.095
 3701SOL    HW212003   6.502   0.635   1.956
 3702SOL     OW12004   6.519   4.580   3.618
 3702SOL    HW112005   6.506   4.674   3.650
 3702SOL    HW212006   6.609   4.572   3.574
 3703SOL     OW12007   0.714   2.329   3.604
 3703SOL    HW112008   0.705   2.247   3.661
 3703SOL    HW212009   0.689   2.307   3.510
 3704SOL     OW12010   6.218   0.012   0.656
 3704SOL    HW112011   6.162   6.958   0.624
 3704SOL    HW212012   6.248   7.017   0.750
 3705SOL     OW12013   6.327   4.102   3.657
 3705SOL    HW112014   6.324   4.049   3.572
 3705SOL    HW212015   6.328   4.200   3.635
 3706SOL     OW12016   0.714   5.619   6.690
 3706SOL    HW112017   0.722   5.711   6.730
 3706SOL    HW212018   0.714   5.552   6.764
 3707SOL     OW12019   0.583   4.571   3.400
 3707SOL    HW112020   0.647   4.527   3.463
 3707SOL    HW212021   0.602   4.542   3.307
 3708SOL     OW12022   1.906   5.906   0.471
 3708SOL    HW112023   1.919   5.934   0.566
 3708SOL    HW212024   1.845   5.971   0.425
 3709SOL     OW12025   0.853   1.778   2.319
 3709SOL    HW112026   0.777   1.804   2.259
 3709SOL    HW212027   0.918   1.853   2.323
 3710SOL     OW12028   2.272   3.787   5.541
 3710SOL    HW112029   2.202   3.782   5.470
 3710SOL    HW212030   2.257   3.714   5.607
 3711SOL     OW12031   2.133   5.176   5.166
 3711SOL    HW112032   2.182   5.165   5.252
 3711SOL    HW212033   2.060   5.108   5.160
 3712SOL     OW12034   3.058   4.823   4.280
 3712SOL    HW112035   3.150   4.790   4.258
 3712SOL    HW212036   3.054   4.847   4.377
 3713SOL     OW12037   6.190   0.291   5.565
 3713SOL    HW112038   6.258   0.219   5.581
 3713SOL    HW212039   6.105   0.268   5.611
 3714SOL     OW12040   0.334   5.187   0.121
 3714SOL    HW112041   0.246   5.140   0.124
 3714SOL    HW212042   0.368   5.189   0.027
 3715SOL     OW12043   6.432   4.375   3.198
 3715SOL    HW112044   6.353   4.407   3.146
 3715SOL    HW212045   6.516   4.415   3.161
 3716SOL     OW12046   5.630   5.891   5.760
 3716SOL    HW112047   5.573   5.951   5.703
 3716SOL    HW212048   5.578   5.865   5.842
 3717SOL     OW12049   4.744   0.259   1.163
 3717SOL    HW112050   4.761   0.321   1.239
 3717SOL    HW212051   4.777   0.167   1.187
 3718SOL     OW12052   5.588   6.961   6.350
 3718SOL    HW112053   5.671   6.968   6.405
 3718SOL    HW212054   5.519   6.909   6.400
 3719SOL     OW12055   2.405   4.481   0.181
 3719SOL    HW112056   2.466   4.448   0.109
 3719SOL    HW212057   2.394   4.410   0.250
 3720SOL     OW12058   0.659   2.265   0.864
 3720SOL    HW112059   0.665   2.183   0.921
 3720SOL    HW212060   0.687   2.345   0.917
 3721SOL     OW12061   6.545   6.878   6.142
 3721SOL    HW112062   6.599   6.896   6.224
 3721SOL    HW212063   6.587   6.804   6.089
 3722SOL     OW12064   5.834   6.773   0.956
 3722SOL    HW112065   5.849   6.846   0.890
 3722SOL    HW212066   5.868   6.687   0.919
 3723SOL     OW12067   4.705   4.469   6.032
 3723SOL    HW112068   4.781   4.533   6.035
 3723SOL    HW212069   4.710   4.408   6.111
 3724SOL     OW12070   6.509   5.033   4.818
 3724SOL    HW112071   6.590   5.092   4.827
 3724SOL    HW212072   6.506   4.968   4.893
 3725SOL     OW12073   0.356   6.162   0.628
 3725SOL    HW112074   0.390   6.078   0.669
 3725SOL    HW212075   0.293   6.208   0.691
 3726SOL     OW12076   5.999   3.721   5.329
 3726SOL    HW112077   5.921   3.659   5.323
 3726SOL    HW212078   5.971   3.808   5.369
 3727SOL     OW12079   6.585   1.548   4.139
 3727SOL    HW112080   6.505   1.604   4.160
 3727SOL    HW212081   6.649   1.551   4.216
 3728SOL     OW12082   1.951   4.728   0.358
 3728SOL    HW112083   1.991   4.699   0.445
 3728SOL    HW212084   1.866   4.778   0.375
 3729SOL     OW12085   0.460   7.013   6.189
 3729SOL    HW112086   0.450   6.937   6.254
 3729SOL    HW212087   0.373   0.004   6.142
 3730SOL     OW12088   4.745   5.048   4.634
 3730SOL    HW112089   4.781   5.118   4.572
 3730SOL    HW212090   4.722   4.966   4.582
 3731SOL     OW12091   0.187   1.936   1.483
 3731SOL    HW112092   0.270   1.992   1.474
 3731SOL    HW212093   0.128   1.950   1.403
 3732SOL     OW12094   4.114   2.895   6.984
 3732SOL    HW112095   4.116   2.806   6.939
 3732SOL    HW212096   4.167   2.960   6.930
 3733SOL     OW12097   1.532   0.778   3.286
 3733SOL    HW112098   1.448   0.787   3.232
 3733SOL    HW212099   1.607   0.826   3.240
 3734SOL     OW12100   3.837   0.592   1.905
 3734SOL    HW112101   3.795   0.535   1.976
 3734SOL    HW212102   3.812   0.688   1.919
 3735SOL     OW12103   4.535   1.006   2.874
 3735SOL    HW112104   4.494   0.970   2.790
 3735SOL    HW212105   4.625   1.044   2.853
 3736SOL     OW12106   0.912   1.821   0.074
 3736SOL    HW112107   0.823   1.843   0.114
 3736SOL    HW212108   0.973   1.900   0.083
 3737SOL     OW12109   5.465   2.110   4.197
 3737SOL    HW112110   5.389   2.166   4.231
 3737SOL    HW212111   5.465   2.110   4.097
 3738SOL     OW12112   0.488   0.916   1.016
 3738SOL    HW112113   0.536   0.920   1.104
 3738SOL    HW212114   0.532   0.977   0.951
 3739SOL     OW12115   3.289   4.696   7.012
 3739SOL    HW112116   3.298   4.639   6.930
 3739SOL    HW212117   3.280   4.639   0.070
 3740SOL     OW12118   5.479   6.333   6.830
 3740SOL    HW112119   5.502   6.388   6.910
 3740SOL    HW212120   5.433   6.390   6.762
 3741SOL     OW12121   5.870   4.020   0.193
 3741SOL    HW112122   5.893   4.032   0.096
 3741SOL    HW212123   5.838   3.926   0.208
 3742SOL     OW12124   5.290   5.218   1.285
 3742SOL    HW112125   5.385   5.227   1.315
 3742SOL    HW212126   5.231   5.211   1.364
 3743SOL     OW12127   2.432   4.117   0.879
 3743SOL    HW112128   2.435   4.209   0.919
 3743SOL    HW212129   2.338   4.096   0.853
 3744SOL     OW12130   6.493   5.978   2.430
 3744SOL    HW112131   6.508   6.052   2.496
 3744SOL    HW212132   6.518   5.891   2.472
 3745SOL     OW12133   5.682   1.786   2.836
 3745SOL    HW112134   5.683   1.868   2.894
 3745SOL    HW212135   5.652   1.811   2.744
 3746SOL     OW12136   5.178   0.187   5.271
 3746SOL    HW112137   5.089   0.177   5.314
 3746SOL    HW212138   5.172   0.253   5.197
 3747SOL     OW12139   2.458   6.061   5.439
 3747SOL    HW112140   2.459   5.964   5.416
 3747SOL    HW212141   2.503   6.075   5.527
 3748SOL     OW12142   4.948   2.286   3.186
 3748SOL    HW112143   4.950   2.332   3.275
 3748SOL    HW212144   4.853   2.277   3.155
 3749SOL     OW12145   6.425   6.737   1.766
 3749SOL    HW112146   6.363   6.809   1.796
 3749SOL    HW212147   6.415   6.722   1.668
 3750SOL     OW12148   5.538   3.923   1.233
 3750SOL    HW112149   5.616   3.915   1.172
 3750SOL    HW212150   5.488   4.007   1.212
 3751SOL     OW12151   1.577   4.613   0.713
 3751SOL    HW112152   1.575   4.674   0.792
 3751SOL    HW212153   1.550   4.520   0.741
 3752SOL     OW12154   0.960   6.825   6.076
 3752SOL    HW112155   0.999   6.734   6.092
 3752SOL    HW212156   0.913   6.856   6.158
 3753SOL     OW12157   0.540   0.653   5.576
 3753SOL    HW112158   0.490   0.608   5.649
 3753SOL    HW212159   0.632   0.614   5.569
 3754SOL     OW12160   6.452   5.954   1.626
 3754SOL    HW112161   6.510   5.928   1.702
 3754SOL    HW212162   6.445   6.054   1.620
 3755SOL     OW12163   4.509   2.402   2.948
 3755SOL    HW112164   4.521   2.487   2.897
 3755SOL    HW212165   4.437   2.347   2.906
 3756SOL     OW12166   3.431   6.716   0.719
 3756SOL    HW112167   3.367   6.756   0.653
 3756SOL    HW212168   3.409   6.749   0.811
 3757SOL     OW12169   3.087   4.478   6.374
 3757SOL    HW112170   3.103   4.566   6.419
 3757SOL    HW212171   2.989   4.462   6.368
 3758SOL     OW12172   6.871   0.726   2.365
 3758SOL    HW112173   6.833   0.776   2.288
 3758SOL    HW212174   6.798   0.700   2.428
 3759SOL     OW12175   4.799   3.901   0.705
 3759SOL    HW112176   4.829   3.962   0.777
 3759SOL    HW212177   4.865   3.826   0.695
 3760SOL     OW12178   1.671   1.672   5.880
 3760SOL    HW112179   1.646   1.764   5.911
 3760SOL    HW212180   1.770   1.660   5.888
 3761SOL     OW12181   6.449   6.422   4.054
 3761SOL    HW112182   6.460   6.480   3.973
 3761SOL    HW212183   6.396   6.471   4.123
 3762SOL     OW12184   0.330   2.938   0.198
 3762SOL    HW112185   0.370   2.866   0.140
 3762SOL    HW212186   0.254   2.981   0.149
 3763SOL     OW12187   0.076   3.000   4.519
 3763SOL    HW112188   0.041   3.057   4.444
 3763SOL    HW212189   0.172   3.025   4.536
 3764SOL     OW12190   2.377   0.180   4.167
 3764SOL    HW112191   2.323   0.264   4.152
 3764SOL    HW212192   2.358   0.116   4.092
 3765SOL     OW12193   6.205   1.105   3.421
 3765SOL    HW112194   6.140   1.031   3.402
 3765SOL    HW212195   6.180   1.186   3.367
 3766SOL     OW12196   2.061   1.289   5.104
 3766SOL    HW112197   2.044   1.339   5.019
 3766SOL    HW212198   2.103   1.351   5.171
 3767SOL     OW12199   0.146   4.429   0.472
 3767SOL    HW112200   0.217   4.488   0.433
 3767SOL    HW212201   0.186   4.370   0.542
 3768SOL     OW12202   4.774   6.411   1.223
 3768SOL    HW112203   4.813   6.320   1.210
 3768SOL    HW212204   4.704   6.427   1.153
 3769SOL     OW12205   4.308   6.718   4.568
 3769SOL    HW112206   4.397   6.760   4.590
 3769SOL    HW212207   4.299   6.631   4.616
 3770SOL     OW12208   1.895   2.835   0.371
 3770SOL    HW112209   1.991   2.808   0.378
 3770SOL    HW212210   1.854   2.793   0.289
 3771SOL     OW12211   4.187   1.309   5.864
 3771SOL    HW112212   4.173   1.376   5.791
 3771SOL    HW212213   4.250   1.347   5.932
 3772SOL     OW12214   4.936   0.641   2.666
 3772SOL    HW112215   4.844   0.671   2.642
 3772SOL    HW212216   4.932   0.584   2.748
 3773SOL     OW12217   6.283   2.899   0.860
 3773SOL    HW112218   6.326   2.869   0.775
 3773SOL    HW212219   6.186   2.879   0.858
 3774SOL     OW12220   1.267   1.784   2.153
 3774SOL    HW112221   1.189   1.762   2.095
 3774SOL    HW212222   1.240   1.854   2.219
 3775SOL     OW12223   5.182   2.864   3.360
 3775SOL    HW112224   5.244   2.916   3.419
 3775SOL    HW212225   5.103   2.921   3.337
 3776SOL     OW12226   2.567   1.942   0.013
 3776SOL    HW112227   2.504   1.902   6.969
 3776SOL    HW212228   2.562   1.891   0.099
 3777SOL     OW12229   1.347   4.317   2.886
 3777SOL    HW112230   1.348   4.272   2.796
 3777SOL    HW212231   1.308   4.255   2.954
 3778SOL     OW12232   1.863   0.424   1.945
 3778SOL    HW112233   1.842   0.487   2.020
 3778SOL    HW212234   1.778   0.386   1.909
 3779SOL     OW12235   2.048   5.148   6.910
 3779SOL    HW112236   2.086   5.107   6.827
 3779SOL    HW212237   1.969   5.205   6.886
 3780SOL     OW12238   2.383   0.267   4.443
 3780SOL    HW112239   2.306   0.210   4.470
 3780SOL    HW212240   2.404   0.252   4.346
 3781SOL     OW12241   2.885   5.405   4.620
 3781SOL    HW112242   2.893   5.308   4.594
 3781SOL    HW212243   2.810   5.447   4.569
 3782SOL     OW12244   2.493   0.921   2.399
 3782SOL    HW112245   2.536   0.843   2.355
 3782SOL    HW212246   2.474   0.992   2.331
 3783SOL     OW12247   5.143   4.882   4.599
 3783SOL    HW112248   5.061   4.833   4.627
 3783SOL    HW212249   5.122   4.979   4.586
 3784SOL     OW12250   4.710   2.102   4.277
 3784SOL    HW112251   4.730   2.174   4.343
 3784SOL    HW212252   4.654   2.139   4.203
 3785SOL     OW12253   0.816   0.454   2.031
 3785SOL    HW112254   0.908   0.440   1.994
 3785SOL    HW212255   0.796   0.552   2.033
 3786SOL     OW12256   2.748   6.322   2.033
 3786SOL    HW112257   2.815   6.316   1.959
 3786SOL    HW212258   2.699   6.235   2.040
 3787SOL     OW12259   4.944   1.219   4.151
 3787SOL    HW112260   5.040   1.199   4.173
 3787SOL    HW212261   4.936   1.314   4.121
 3788SOL     OW12262   6.509   3.458   2.468
 3788SOL    HW112263   6.489   3.384   2.404
 3788SOL    HW212264   6.607   3.477   2.469
 3789SOL     OW12265   1.449   5.091   1.882
 3789SOL    HW112266   1.516   5.157   1.916
 3789SOL    HW212267   1.490   4.999   1.883
 3790SOL     OW12268   2.168   3.196   3.164
 3790SOL    HW112269   2.110   3.226   3.239
 3790SOL    HW212270   2.198   3.276   3.112
 3791SOL     OW12271   6.242   0.405   2.586
 3791SOL    HW112272   6.327   0.379   2.539
 3791SOL    HW212273   6.257   0.489   2.637
 3792SOL     OW12274   0.905   5.803   6.480
 3792SOL    HW112275   1.000   5.825   6.455
 3792SOL    HW212276   0.871   5.733   6.417
 3793SOL     OW12277   0.567   5.691   2.403
 3793SOL    HW112278   0.662   5.721   2.395
 3793SOL    HW212279   0.513   5.732   2.330
 3794SOL     OW12280   4.763   0.096   3.872
 3794SOL    HW112281   4.805   0.130   3.956
 3794SOL    HW212282   4.682   0.043   3.895
 3795SOL     OW12283   5.396   0.505   0.212
 3795SOL    HW112284   5.334   0.549   0.277
 3795SOL    HW212285   5.368   0.529   0.119
 3796SOL     OW12286   6.994   2.999   0.912
 3796SOL    HW112287   0.047   3.062   0.893
 3796SOL    HW212288   0.003   2.927   0.974
 3797SOL     OW12289   0.194   5.459   2.574
 3797SOL    HW112290   0.247   5.383   2.536
 3797SOL    HW212291   0.098   5.448   2.549
 3798SOL     OW12292   1.276   4.198   0.902
 3798SOL    HW112293   1.250   4.143   0.823
 3798SOL    HW212294   1.375   4.214   0.901
 3799SOL     OW12295   1.412   0.741   5.493
 3799SOL    HW112296   1.375   0.648   5.492
 3799SOL    HW212297   1.344   0.803   5.533
 3800SOL     OW12298   5.593   2.615   5.247
 3800SOL    HW112299   5.498   2.641   5.227
 3800SOL    HW212300   5.596   2.560   5.330
 3801SOL     OW12301   6.847   0.054   6.214
 3801SOL    HW112302   6.790   7.015   6.269
 3801SOL    HW212303   6.900   7.022   6.149
 3802SOL     OW12304   1.687   2.447   5.257
 3802SOL    HW112305   1.644   2.508   5.191
 3802SOL    HW212306   1.742   2.501   5.322
 3803SOL     OW12307   4.123   1.277   1.329
 3803SOL    HW112308   4.211   1.240   1.358
 3803SOL    HW212309   4.053   1.250   1.395
 3804SOL     OW12310   5.092   3.491   5.084
 3804SOL    HW112311   5.135   3.565   5.137
 3804SOL    HW212312   5.067   3.525   4.994
 3805SOL     OW12313   1.892   3.488   1.400
 3805SOL    HW112314   1.974   3.517   1.349
 3805SOL    HW212315   1.839   3.568   1.426
 3806SOL     OW12316   3.788   1.122   6.982
 3806SOL    HW112317   3.744   1.165   6.904
 3806SOL    HW212318   3.859   1.059   6.951
 3807SOL     OW12319   1.198   0.094   2.886
 3807SOL    HW112320   1.121   0.058   2.937
 3807SOL    HW212321   1.252   0.018   2.849
 3808SOL     OW12322   3.622   0.789   0.233
 3808SOL    HW112323   3.579   0.730   0.302
 3808SOL    HW212324   3.705   0.830   0.271
 3809SOL     OW12325   4.308   0.711   0.546
 3809SOL    HW112326   4.315   0.708   0.645
 3809SOL    HW212327   4.355   0.792   0.511
 3810SOL     OW12328   1.705   3.750   6.718
 3810SOL    HW112329   1.746   3.669   6.676
 3810SOL    HW212330   1.772   3.796   6.775
 3811SOL     OW12331   0.528   0.404   6.661
 3811SOL    HW112332   0.627   0.401   6.646
 3811SOL    HW212333   0.509   0.441   6.752
 3812SOL     OW12334   5.099   1.256   5.559
 3812SOL    HW112335   5.031   1.188   5.584
 3812SOL    HW212336   5.075   1.344   5.601
 3813SOL     OW12337   3.579   4.894   2.247
 3813SOL    HW112338   3.567   4.842   2.162
 3813SOL    HW212339   3.490   4.929   2.277
 3814SOL     OW12340   2.454   0.996   1.484
 3814SOL    HW112341   2.512   0.993   1.565
 3814SOL    HW212342   2.358   0.997   1.511
 3815SOL     OW12343   5.557   1.958   1.962
 3815SOL    HW112344   5.571   1.864   1.933
 3815SOL    HW212345   5.642   1.994   2.001
 3816SOL     OW12346   0.224   6.182   0.367
 3816SOL    HW112347   0.125   6.165   0.369
 3816SOL    HW212348   0.258   6.192   0.460
 3817SOL     OW12349   5.331   2.019   4.982
 3817SOL    HW112350   5.327   2.006   5.081
 3817SOL    HW212351   5.266   1.958   4.937
 3818SOL     OW12352   3.729   5.478   2.737
 3818SOL    HW112353   3.734   5.419   2.818
 3818SOL    HW212354   3.704   5.424   2.657
 3819SOL     OW12355   5.883   4.049   6.141
 3819SOL    HW112356   5.898   3.953   6.163
 3819SOL    HW212357   5.901   4.105   6.223
 3820SOL     OW12358   4.847   6.390   3.326
 3820SOL    HW112359   4.801   6.471   3.362
 3820SOL    HW212360   4.905   6.417   3.248
 3821SOL     OW12361   0.359   4.793   1.253
 3821SOL    HW112362   0.432   4.724   1.251
 3821SOL    HW212363   0.353   4.833   1.344
 3822SOL     OW12364   0.561   4.554   1.000
 3822SOL    HW112365   0.566   4.454   0.997
 3822SOL    HW212366   0.585   4.586   1.092
 3823SOL     OW12367   2.878   3.687   5.676
 3823SOL    HW112368   2.786   3.705   5.712
 3823SOL    HW212369   2.871   3.660   5.580
 3824SOL     OW12370   0.403   2.323   5.823
 3824SOL    HW112371   0.314   2.301   5.784
 3824SOL    HW212372   0.439   2.243   5.872
 3825SOL     OW12373   0.310   6.469   6.241
 3825SOL    HW112374   0.405   6.468   6.272
 3825SOL    HW212375   0.303   6.529   6.161
 3826SOL     OW12376   6.833   1.761   1.253
 3826SOL    HW112377   6.811   1.704   1.174
 3826SOL    HW212378   6.890   1.709   1.317
 3827SOL     OW12379   5.557   1.492   2.341
 3827SOL    HW112380   5.614   1.559   2.295
 3827SOL    HW212381   5.464   1.495   2.303
 3828SOL     OW12382   4.269   1.158   1.725
 3828SOL    HW112383   4.249   1.134   1.820
 3828SOL    HW212384   4.278   1.257   1.717
 3829SOL     OW12385   0.792   5.117   3.812
 3829SOL    HW112386   0.824   5.096   3.905
 3829SOL    HW212387   0.742   5.204   3.814
 3830SOL     OW12388   3.085   0.873   5.301
 3830SOL    HW112389   3.081   0.971   5.286
 3830SOL    HW212390   3.005   0.844   5.354
 3831SOL     OW12391   4.974   1.793   2.182
 3831SOL    HW112392   4.891   1.759   2.227
 3831SOL    HW212393   4.978   1.756   2.089
 3832SOL     OW12394   5.875   6.786   2.055
 3832SOL    HW112395   5.823   6.765   2.138
 3832SOL    HW212396   5.970   6.805   2.080
 3833SOL     OW12397   1.476   6.297   2.450
 3833SOL    HW112398   1.552   6.270   2.391
 3833SOL    HW212399   1.495   6.268   2.544
 3834SOL     OW12400   2.723   2.855   0.528
 3834SOL    HW112401   2.806   2.804   0.506
 3834SOL    HW212402   2.737   2.952   0.507
 3835SOL     OW12403   3.406   5.368   2.894
 3835SOL    HW112404   3.350   5.287   2.880
 3835SOL    HW212405   3.502   5.345   2.879
 3836SOL     OW12406   1.107   2.958   5.840
 3836SOL    HW112407   1.162   2.921   5.915
 3836SOL    HW212408   1.137   2.919   5.753
 3837SOL     OW12409   3.031   4.202   0.130
 3837SOL    HW112410   3.121   4.186   0.090
 3837SOL    HW212411   2.996   4.116   0.169
 3838SOL     OW12412   6.236   3.885   4.887
 3838SOL    HW112413   6.228   3.805   4.827
 3838SOL    HW212414   6.190   3.866   4.974
 3839SOL     OW12415   0.767   5.892   6.207
 3839SOL    HW112416   0.802   5.980   6.239
 3839SOL    HW212417   0.746   5.898   6.109
 3840SOL     OW12418   2.747   1.574   3.402
 3840SOL    HW112419   2.679   1.502   3.417
 3840SOL    HW212420   2.706   1.663   3.422
 3841SOL     OW12421   0.543   3.495   4.123
 3841SOL    HW112422   0.573   3.400   4.117
 3841SOL    HW212423   0.584   3.539   4.203
 3842SOL     OW12424   1.987   5.020   0.147
 3842SOL    HW112425   1.976   5.068   0.060
 3842SOL    HW212426   1.983   4.921   0.132
 3843SOL     OW12427   5.916   4.044   6.941
 3843SOL    HW112428   5.973   4.049   6.859
 3843SOL    HW212429   5.899   4.137   6.975
 3844SOL     OW12430   2.204   4.518   5.446
 3844SOL    HW112431   2.242   4.428   5.468
 3844SOL    HW212432   2.106   4.518   5.463
 3845SOL     OW12433   3.260   3.450   4.346
 3845SOL    HW112434   3.322   3.522   4.378
 3845SOL    HW212435   3.181   3.444   4.407
 3846SOL     OW12436   0.060   4.697   4.707
 3846SOL    HW112437   0.059   4.612   4.654
 3846SOL    HW212438   0.147   4.705   4.755
 3847SOL     OW12439   1.141   0.241   0.901
 3847SOL    HW112440   1.210   0.234   0.829
 3847SOL    HW212441   1.185   0.272   0.986
 3848SOL     OW12442   3.140   6.281   1.718
 3848SOL    HW112443   3.073   6.227   1.668
 3848SOL    HW212444   3.184   6.346   1.656
 3849SOL     OW12445   2.793   1.629   5.602
 3849SOL    HW112446   2.698   1.645   5.629
 3849SOL    HW212447   2.849   1.616   5.683
 3850SOL     OW12448   1.668   4.010   1.463
 3850SOL    HW112449   1.633   3.935   1.519
 3850SOL    HW212450   1.674   4.093   1.518
 3851SOL     OW12451   2.345   2.891   1.297
 3851SOL    HW112452   2.439   2.922   1.305
 3851SOL    HW212453   2.343   2.798   1.261
 3852SOL     OW12454   4.782   1.519   5.099
 3852SOL    HW112455   4.833   1.499   5.015
 3852SOL    HW212456   4.778   1.437   5.156
 3853SOL     OW12457   0.697   4.094   1.851
 3853SOL    HW112458   0.786   4.070   1.813
 3853SOL    HW212459   0.626   4.035   1.812
 3854SOL     OW12460   1.798   3.528   4.475
 3854SOL    HW112461   1.717   3.500   4.527
 3854SOL    HW212462   1.781   3.516   4.378
 3855SOL     OW12463   0.186   1.319   5.156
 3855SOL    HW112464   0.088   1.325   5.141
 3855SOL    HW212465   0.233   1.304   5.068
 3856SOL     OW12466   1.473   6.230   6.082
 3856SOL    HW112467   1.415   6.170   6.138
 3856SOL    HW212468   1.447   6.223   5.986
 3857SOL     OW12469   1.090   0.020   6.672
 3857SOL    HW112470   1.180   7.008   6.645
 3857SOL    HW212471   1.097   0.066   6.761
 3858SOL     OW12472   3.715   4.408   0.063
 3858SOL    HW112473   3.636   4.458   0.099
 3858SOL    HW212474   3.752   4.457   7.006
 3859SOL     OW12475   6.121   2.523   2.474
 3859SOL    HW112476   6.217   2.495   2.480
 3859SOL    HW212477   6.098   2.582   2.551
 3860SOL     OW12478   2.703   5.980   4.600
 3860SOL    HW112479   2.676   5.904   4.660
 3860SOL    HW212480   2.661   5.968   4.510
 3861SOL     OW12481   3.421   4.308   6.877
 3861SOL    HW112482   3.375   4.385   6.832
 3861SOL    HW212483   3.508   4.290   6.832
 3862SOL     OW12484   0.960   5.681   5.976
 3862SOL    HW112485   1.044   5.735   5.986
 3862SOL    HW212486   0.896   5.731   5.918
 3863SOL     OW12487   2.549   3.223   0.158
 3863SOL    HW112488   2.569   3.184   0.068
 3863SOL    HW212489   2.451   3.217   0.177
 3864SOL     OW12490   3.119   2.268   1.130
 3864SOL    HW112491   3.193   2.320   1.088
 3864SOL    HW212492   3.064   2.328   1.189
 3865SOL     OW12493   4.184   0.728   2.619
 3865SOL    HW112494   4.188   0.662   2.543
 3865SOL    HW212495   4.090   0.762   2.627
 3866SOL     OW12496   3.869   6.624   6.756
 3866SOL    HW112497   3.854   6.645   6.660
 3866SOL    HW212498   3.832   6.533   6.777
 3867SOL     OW12499   2.070   5.013   3.229
 3867SOL    HW112500   2.003   5.074   3.188
 3867SOL    HW212501   2.080   4.931   3.173
 3868SOL     OW12502   1.961   5.532   2.882
 3868SOL    HW112503   2.050   5.561   2.919
 3868SOL    HW212504   1.891   5.597   2.910
 3869SOL     OW12505   0.609   1.700   3.838
 3869SOL    HW112506   0.510   1.708   3.825
 3869SOL    HW212507   0.629   1.622   3.896
 3870SOL     OW12508   3.418   3.642   0.359
 3870SOL    HW112509   3.340   3.581   0.344
 3870SOL    HW212510   3.457   3.667   0.271
 3871SOL     OW12511   3.199   0.763   4.477
 3871SOL    HW112512   3.168   0.749   4.383
 3871SOL    HW212513   3.196   0.676   4.526
 3872SOL     OW12514   4.434   4.135   0.922
 3872SOL    HW112515   4.351   4.081   0.937
 3872SOL    HW212516   4.510   4.075   0.901
 3873SOL     OW12517   6.246   4.496   1.833
 3873SOL    HW112518   6.265   4.402   1.805
 3873SOL    HW212519   6.175   4.535   1.775
 3874SOL     OW12520   5.114   6.054   6.039
 3874SOL    HW112521   5.160   6.007   5.964
 3874SOL    HW212522   5.027   6.009   6.059
 3875SOL     OW12523   2.686   3.619   0.399
 3875SOL    HW112524   2.775   3.655   0.427
 3875SOL    HW212525   2.626   3.694   0.373
 3876SOL     OW12526   6.201   4.160   2.368
 3876SOL    HW112527   6.159   4.251   2.361
 3876SOL    HW212528   6.141   4.093   2.323
 3877SOL     OW12529   4.313   1.885   2.163
 3877SOL    HW112530   4.279   1.958   2.222
 3877SOL    HW212531   4.237   1.826   2.136
 3878SOL     OW12532   4.831   5.902   4.551
 3878SOL    HW112533   4.732   5.892   4.563
 3878SOL    HW212534   4.879   5.843   4.615
 3879SOL     OW12535   2.735   6.025   0.652
 3879SOL    HW112536   2.711   5.938   0.609
 3879SOL    HW212537   2.834   6.030   0.663
 3880SOL     OW12538   6.166   1.658   3.946
 3880SOL    HW112539   6.255   1.645   3.901
 3880SOL    HW212540   6.142   1.755   3.945
 3881SOL     OW12541   0.221   5.770   6.123
 3881SOL    HW112542   0.262   5.860   6.130
 3881SOL    HW212543   0.125   5.779   6.096
 3882SOL     OW12544   6.920   6.423   6.550
 3882SOL    HW112545   6.971   6.399   6.467
 3882SOL    HW212546   6.941   6.517   6.576
 3883SOL     OW12547   3.796   1.857   6.913
 3883SOL    HW112548   3.768   1.864   6.817
 3883SOL    HW212549   3.881   1.908   6.927
 3884SOL     OW12550   2.366   5.316   5.739
 3884SOL    HW112551   2.353   5.221   5.710
 3884SOL    HW212552   2.463   5.334   5.751
 3885SOL     OW12553   6.806   0.638   4.213
 3885SOL    HW112554   6.791   0.605   4.306
 3885SOL    HW212555   6.820   0.737   4.214
 3886SOL     OW12556   0.071   6.057   4.738
 3886SOL    HW112557   0.015   6.105   4.671
 3886SOL    HW212558   0.168   6.071   4.717
 3887SOL     OW12559   6.319   3.082   5.032
 3887SOL    HW112560   6.394   3.044   4.979
 3887SOL    HW212561   6.275   3.009   5.085
 3888SOL     OW12562   5.444   1.114   3.083
 3888SOL    HW112563   5.389   1.114   3.166
 3888SOL    HW212564   5.384   1.114   3.003
 3889SOL     OW12565   6.618   5.478   6.369
 3889SOL    HW112566   6.619   5.449   6.465
 3889SOL    HW212567   6.523   5.494   6.341
 3890SOL     OW12568   6.116   3.270   3.261
 3890SOL    HW112569   6.209   3.261   3.297
 3890SOL    HW212570   6.120   3.311   3.170
 3891SOL     OW12571   4.349   4.274   5.791
 3891SOL    HW112572   4.384   4.346   5.851
 3891SOL    HW212573   4.249   4.281   5.786
 3892SOL     OW12574   5.329   5.635   3.890
 3892SOL    HW112575   5.241   5.623   3.843
 3892SOL    HW212576   5.400   5.587   3.839
 3893SOL     OW12577   2.682   6.243   4.698
 3893SOL    HW112578   2.679   6.145   4.720
 3893SOL    HW212579   2.695   6.254   4.599
 3894SOL     OW12580   5.823   5.362   6.562
 3894SOL    HW112581   5.813   5.320   6.472
 3894SOL    HW212582   5.892   5.312   6.615
 3895SOL     OW12583   1.571   2.096   6.165
 3895SOL    HW112584   1.665   2.067   6.179
 3895SOL    HW212585   1.530   2.121   6.252
 3896SOL     OW12586   6.200   2.548   0.631
 3896SOL    HW112587   6.158   2.634   0.603
 3896SOL    HW212588   6.283   2.533   0.578
 3897SOL     OW12589   2.731   6.842   3.058
 3897SOL    HW112590   2.702   6.766   3.116
 3897SOL    HW212591   2.830   6.843   3.051
 3898SOL     OW12592   3.284   4.059   4.027
 3898SOL    HW112593   3.379   4.079   4.051
 3898SOL    HW212594   3.282   3.989   3.956
 3899SOL     OW12595   5.051   2.187   6.824
 3899SOL    HW112596   5.097   2.127   6.758
 3899SOL    HW212597   5.119   2.244   6.871
 3900SOL     OW12598   0.707   2.733   3.370
 3900SOL    HW112599   0.721   2.745   3.468
 3900SOL    HW212600   0.693   2.636   3.349
 3901SOL     OW12601   3.680   6.378   5.076
 3901SOL    HW112602   3.581   6.387   5.086
 3901SOL    HW212603   3.722   6.469   5.068
 3902SOL     OW12604   3.391   5.620   3.098
 3902SOL    HW112605   3.368   5.525   3.120
 3902SOL    HW212606   3.358   5.680   3.170
 3903SOL     OW12607   3.612   3.776   6.477
 3903SOL    HW112608   3.535   3.717   6.452
 3903SOL    HW212609   3.583   3.842   6.546
 3904SOL     OW12610   2.641   6.286   6.888
 3904SOL    HW112611   2.615   6.193   6.914
 3904SOL    HW212612   2.686   6.331   6.966
 3905SOL     OW12613   4.360   0.526   5.383
 3905SOL    HW112614   4.294   0.595   5.354
 3905SOL    HW212615   4.378   0.536   5.481
 3906SOL     OW12616   6.215   6.260   3.940
 3906SOL    HW112617   6.314   6.254   3.954
 3906SOL    HW212618   6.175   6.168   3.941
 3907SOL     OW12619   0.500   1.537   4.384
 3907SOL    HW112620   0.510   1.633   4.357
 3907SOL    HW212621   0.472   1.532   4.480
 3908SOL     OW12622   2.354   1.653   4.583
 3908SOL    HW112623   2.301   1.628   4.664
 3908SOL    HW212624   2.425   1.718   4.608
 3909SOL     OW12625   5.782   3.489   2.213
 3909SOL    HW112626   5.695   3.527   2.244
 3909SOL    HW212627   5.857   3.540   2.254
 3910SOL     OW12628   2.053   2.386   1.186
 3910SOL    HW112629   2.083   2.471   1.143
 3910SOL    HW212630   2.127   2.320   1.184
 3911SOL     OW12631   6.194   1.244   1.320
 3911SOL    HW112632   6.182   1.151   1.284
 3911SOL    HW212633   6.107   1.278   1.353
 3912SOL     OW12634   5.018   4.144   0.309
 3912SOL    HW112635   4.970   4.180   0.229
 3912SOL    HW212636   5.013   4.044   0.309
 3913SOL     OW12637   3.774   4.458   1.405
 3913SOL    HW112638   3.781   4.558   1.410
 3913SOL    HW212639   3.695   4.428   1.458
 3914SOL     OW12640   0.367   0.737   0.665
 3914SOL    HW112641   0.356   0.829   0.628
 3914SOL    HW212642   0.465   0.713   0.668
 3915SOL     OW12643   5.350   0.525   5.131
 3915SOL    HW112644   5.265   0.538   5.181
 3915SOL    HW212645   5.357   0.592   5.057
 3916SOL     OW12646   1.974   2.387   2.158
 3916SOL    HW112647   2.034   2.334   2.098
 3916SOL    HW212648   1.942   2.329   2.233
 3917SOL     OW12649   4.301   5.689   2.372
 3917SOL    HW112650   4.206   5.710   2.348
 3917SOL    HW212651   4.329   5.606   2.324
 3918SOL     OW12652   4.058   6.992   1.092
 3918SOL    HW112653   4.134   6.943   1.137
 3918SOL    HW212654   4.008   0.022   1.161
 3919SOL     OW12655   5.071   5.474   3.157
 3919SOL    HW112656   5.091   5.466   3.059
 3919SOL    HW212657   5.095   5.567   3.188
 3920SOL     OW12658   4.469   1.333   6.276
 3920SOL    HW112659   4.421   1.295   6.356
 3920SOL    HW212660   4.567   1.335   6.295
 3921SOL     OW12661   0.764   3.107   6.129
 3921SOL    HW112662   0.810   3.129   6.044
 3921SOL    HW212663   0.717   3.019   6.120
 3922SOL     OW12664   5.424   2.572   4.005
 3922SOL    HW112665   5.500   2.521   3.964
 3922SOL    HW212666   5.404   2.535   4.096
 3923SOL     OW12667   5.572   1.272   0.640
 3923SOL    HW112668   5.611   1.196   0.691
 3923SOL    HW212669   5.639   1.346   0.634
 3924SOL     OW12670   5.296   5.172   3.733
 3924SOL    HW112671   5.228   5.150   3.663
 3924SOL    HW212672   5.251   5.180   3.822
 3925SOL     OW12673   3.593   4.454   1.639
 3925SOL    HW112674   3.585   4.546   1.677
 3925SOL    HW212675   3.671   4.408   1.681
 3926SOL     OW12676   1.286   5.802   5.284
 3926SOL    HW112677   1.310   5.789   5.380
 3926SOL    HW212678   1.352   5.865   5.242
 3927SOL     OW12679   6.285   6.699   5.419
 3927SOL    HW112680   6.226   6.754   5.360
 3927SOL    HW212681   6.381   6.725   5.404
 3928SOL     OW12682   4.458   5.487   2.679
 3928SOL    HW112683   4.364   5.452   2.680
 3928SOL    HW212684   4.456   5.587   2.672
 3929SOL     OW12685   1.683   1.481   5.205
 3929SOL    HW112686   1.729   1.397   5.176
 3929SOL    HW212687   1.648   1.469   5.298
 3930SOL     OW12688   2.426   5.413   3.984
 3930SOL    HW112689   2.361   5.338   3.994
 3930SOL    HW212690   2.516   5.376   3.961
 3931SOL     OW12691   0.325   2.292   0.608
 3931SOL    HW112692   0.319   2.270   0.511
 3931SOL    HW212693   0.324   2.391   0.620
 3932SOL     OW12694   1.950   4.102   2.667
 3932SOL    HW112695   1.865   4.053   2.683
 3932SOL    HW212696   1.998   4.062   2.588
 3933SOL     OW12697   1.507   6.569   1.588
 3933SOL    HW112698   1.578   6.640   1.585
 3933SOL    HW212699   1.517   6.509   1.510
 3934SOL     OW12700   2.123   6.654   2.179
 3934SOL    HW112701   2.048   6.719   2.185
 3934SOL    HW212702   2.205   6.693   2.221
 3935SOL     OW12703   0.232   0.905   5.412
 3935SOL    HW112704   0.288   0.980   5.377
 3935SOL    HW212705   0.281   0.818   5.400
 3936SOL     OW12706   6.424   4.404   3.800
 3936SOL    HW112707   6.370   4.464   3.859
 3936SOL    HW212708   6.457   4.455   3.721
 3937SOL     OW12709   1.182   6.061   0.169
 3937SOL    HW112710   1.109   6.116   0.209
 3937SOL    HW212711   1.180   6.072   0.069
 3938SOL     OW12712   0.474   4.142   6.690
 3938SOL    HW112713   0.518   4.207   6.753
 3938SOL    HW212714   0.536   4.066   6.673
 3939SOL     OW12715   2.417   6.364   4.355
 3939SOL    HW112716   2.494   6.396   4.300
 3939SOL    HW212717   2.365   6.442   4.390
 3940SOL     OW12718   2.788   6.443   6.707
 3940SOL    HW112719   2.780   6.523   6.766
 3940SOL    HW212720   2.714   6.378   6.728
 3941SOL     OW12721   5.767   5.227   2.222
 3941SOL    HW112722   5.861   5.257   2.241
 3941SOL    HW212723   5.703   5.296   2.255
 3942SOL     OW12724   0.252   6.339   6.985
 3942SOL    HW112725   0.308   6.257   6.971
 3942SOL    HW212726   0.215   6.370   6.897
 3943SOL     OW12727   0.906   5.044   0.615
 3943SOL    HW112728   0.888   5.140   0.636
 3943SOL    HW212729   0.879   5.025   0.521
 3944SOL     OW12730   4.555   3.009   0.737
 3944SOL    HW112731   4.640   2.971   0.772
 3944SOL    HW212732   4.568   3.037   0.642
 3945SOL     OW12733   6.895   0.842   2.910
 3945SOL    HW112734   6.992   0.851   2.889
 3945SOL    HW212735   6.869   0.746   2.906
 3946SOL     OW12736   5.944   1.669   1.301
 3946SOL    HW112737   5.984   1.589   1.346
 3946SOL    HW212738   5.943   1.746   1.364
 3947SOL     OW12739   5.586   0.030   1.766
 3947SOL    HW112740   5.675   7.009   1.779
 3947SOL    HW212741   5.597   0.113   1.712
 3948SOL     OW12742   1.908   1.421   4.386
 3948SOL    HW112743   1.920   1.397   4.289
 3948SOL    HW212744   1.845   1.497   4.394
 3949SOL     OW12745   6.253   6.998   2.426
 3949SOL    HW112746   6.302   0.052   2.385
 3949SOL    HW212747   6.292   6.977   2.516
 3950SOL     OW12748   2.146   4.873   1.931
 3950SOL    HW112749   2.066   4.896   1.987
 3950SOL    HW212750   2.138   4.919   1.842
 3951SOL     OW12751   6.873   2.331   3.869
 3951SOL    HW112752   6.815   2.301   3.945
 3951SOL    HW212753   6.866   2.266   3.793
 3952SOL     OW12754   5.802   4.976   6.953
 3952SOL    HW112755   5.839   4.991   6.861
 3952SOL    HW212756   5.796   4.878   6.971
 3953SOL     OW12757   3.907   3.378   5.411
 3953SOL    HW112758   3.970   3.325   5.467
 3953SOL    HW212759   3.891   3.331   5.325
 3954SOL     OW12760   0.914   4.319   5.510
 3954SOL    HW112761   1.011   4.343   5.516
 3954SOL    HW212762   0.901   4.225   5.544
 3955SOL     OW12763   5.983   3.674   0.087
 3955SOL    HW112764   6.021   3.760   0.120
 3955SOL    HW212765   5.938   3.626   0.163
 3956SOL     OW12766   6.803   2.656   4.947
 3956SOL    HW112767   6.884   2.702   4.983
 3956SOL    HW212768   6.727   2.671   5.010
 3957SOL     OW12769   1.952   2.861   1.738
 3957SOL    HW112770   1.884   2.850   1.665
 3957SOL    HW212771   2.018   2.931   1.711
 3958SOL     OW12772   5.887   5.416   1.279
 3958SOL    HW112773   5.939   5.495   1.312
 3958SOL    HW212774   5.864   5.356   1.356
 3959SOL     OW12775   3.056   5.155   1.338
 3959SOL    HW112776   3.013   5.240   1.308
 3959SOL    HW212777   3.123   5.125   1.270
 3960SOL     OW12778   6.022   2.901   0.887
 3960SOL    HW112779   5.979   2.890   0.797
 3960SOL    HW212780   5.954   2.882   0.958
 3961SOL     OW12781   6.980   1.166   1.167
 3961SOL    HW112782   6.965   1.171   1.266
 3961SOL    HW212783   6.968   1.257   1.127
 3962SOL     OW12784   0.014   6.649   6.618
 3962SOL    HW112785   0.042   6.682   6.708
 3962SOL    HW212786   0.083   6.672   6.550
 3963SOL     OW12787   5.297   3.921   4.643
 3963SOL    HW112788   5.315   3.866   4.724
 3963SOL    HW212789   5.384   3.940   4.596
 3964SOL     OW12790   5.578   4.219   6.721
 3964SOL    HW112791   5.479   4.206   6.716
 3964SOL    HW212792   5.624   4.130   6.720
 3965SOL     OW12793   2.331   4.225   1.229
 3965SOL    HW112794   2.285   4.290   1.290
 3965SOL    HW212795   2.386   4.276   1.163
 3966SOL     OW12796   6.978   2.736   5.128
 3966SOL    HW112797   7.018   2.806   5.187
 3966SOL    HW212798   7.009   2.645   5.158
 3967SOL     OW12799   2.183   0.304   0.117
 3967SOL    HW112800   2.200   0.278   0.212
 3967SOL    HW212801   2.149   0.397   0.113
 3968SOL     OW12802   4.260   2.892   0.959
 3968SOL    HW112803   4.271   2.834   0.878
 3968SOL    HW212804   4.181   2.859   1.011
 3969SOL     OW12805   6.062   6.274   0.670
 3969SOL    HW112806   6.091   6.302   0.761
 3969SOL    HW212807   6.005   6.346   0.630
 3970SOL     OW12808   5.952   4.343   4.050
 3970SOL    HW112809   6.027   4.406   4.069
 3970SOL    HW212810   5.989   4.259   4.009
 3971SOL     OW12811   0.258   5.890   4.001
 3971SOL    HW112812   0.220   5.803   3.966
 3971SOL    HW212813   0.185   5.958   4.006
 3972SOL     OW12814   0.893   0.522   6.828
 3972SOL    HW112815   0.861   0.522   6.733
 3972SOL    HW212816   0.937   0.610   6.848
 3973SOL     OW12817   4.128   3.227   2.158
 3973SOL    HW112818   4.222   3.234   2.122
 3973SOL    HW212819   4.075   3.306   2.126
 3974SOL     OW12820   5.375   1.042   6.748
 3974SOL    HW112821   5.343   0.947   6.756
 3974SOL    HW212822   5.472   1.046   6.768
 3975SOL     OW12823   6.972   6.002   4.332
 3975SOL    HW112824   6.971   5.904   4.310
 3975SOL    HW212825   6.879   6.039   4.323
 3976SOL     OW12826   1.270   2.873   5.612
 3976SOL    HW112827   1.344   2.863   5.545
 3976SOL    HW212828   1.236   2.783   5.638
 3977SOL     OW12829   2.593   4.917   5.684
 3977SOL    HW112830   2.532   4.989   5.719
 3977SOL    HW212831   2.676   4.914   5.738
 3978SOL     OW12832   4.702   2.482   5.906
 3978SOL    HW112833   4.771   2.411   5.916
 3978SOL    HW212834   4.654   2.470   5.819
 3979SOL     OW12835   1.386   5.229   2.729
 3979SOL    HW112836   1.417   5.243   2.823
 3979SOL    HW212837   1.286   5.240   2.725
 3980SOL     OW12838   5.193   4.161   4.759
 3980SOL    HW112839   5.200   4.065   4.733
 3980SOL    HW212840   5.279   4.191   4.800
 3981SOL     OW12841   0.102   0.928   6.472
 3981SOL    HW112842   0.020   0.903   6.523
 3981SOL    HW212843   0.082   0.925   6.374
 3982SOL     OW12844   1.903   3.075   4.656
 3982SOL    HW112845   1.969   3.008   4.690
 3982SOL    HW212846   1.945   3.129   4.583
 3983SOL     OW12847   3.196   0.437   4.102
 3983SOL    HW112848   3.157   0.523   4.070
 3983SOL    HW212849   3.295   0.439   4.091
 3984SOL     OW12850   1.534   5.918   2.249
 3984SOL    HW112851   1.495   5.973   2.176
 3984SOL    HW212852   1.485   5.937   2.334
 3985SOL     OW12853   1.637   2.933   2.018
 3985SOL    HW112854   1.649   2.909   2.114
 3985SOL    HW212855   1.691   3.015   1.997
 3986SOL     OW12856   0.495   1.863   3.218
 3986SOL    HW112857   0.399   1.868   3.190
 3986SOL    HW212858   0.537   1.782   3.178
 3987SOL     OW12859   0.494   4.021   5.516
 3987SOL    HW112860   0.528   4.033   5.610
 3987SOL    HW212861   0.409   3.970   5.518
 3988SOL     OW12862   5.202   7.004   2.036
 3988SOL    HW112863   5.291   0.023   2.016
 3988SOL    HW212864   5.213   6.905   2.044
 3989SOL     OW12865   4.453   0.541   5.635
 3989SOL    HW112866   4.428   0.593   5.716
 3989SOL    HW212867   4.540   0.493   5.651
 3990SOL     OW12868   6.049   0.538   4.264
 3990SOL    HW112869   6.058   0.440   4.283
 3990SOL    HW212870   6.096   0.561   4.179
 3991SOL     OW12871   6.347   2.073   3.424
 3991SOL    HW112872   6.259   2.090   3.467
 3991SOL    HW212873   6.391   2.159   3.400
 3992SOL     OW12874   6.095   3.683   5.875
 3992SOL    HW112875   6.165   3.750   5.850
 3992SOL    HW212876   6.031   3.672   5.799
 3993SOL     OW12877   1.684   0.772   4.300
 3993SOL    HW112878   1.666   0.870   4.287
 3993SOL    HW212879   1.780   0.753   4.281
 3994SOL     OW12880   3.008   2.222   3.667
 3994SOL    HW112881   2.997   2.144   3.605
 3994SOL    HW212882   3.030   2.304   3.614
 3995SOL     OW12883   1.111   3.551   1.874
 3995SOL    HW112884   1.062   3.508   1.949
 3995SOL    HW212885   1.208   3.526   1.878
 3996SOL     OW12886   0.115   6.423   5.101
 3996SOL    HW112887   0.114   6.379   5.011
 3996SOL    HW212888   0.156   6.514   5.093
 3997SOL     OW12889   5.885   3.997   4.475
 3997SOL    HW112890   5.918   4.013   4.568
 3997SOL    HW212891   5.911   4.074   4.417
 3998SOL     OW12892   4.581   2.148   3.619
 3998SOL    HW112893   4.621   2.226   3.571
 3998SOL    HW212894   4.649   2.075   3.627
 3999SOL     OW12895   5.062   2.674   1.066
 3999SOL    HW112896   5.001   2.602   1.101
 3999SOL    HW212897   5.092   2.732   1.141
 4000SOL     OW12898   2.108   4.752   3.082
 4000SOL    HW112899   2.206   4.734   3.079
 4000SOL    HW212900   2.065   4.690   3.148
 4001SOL     OW12901   0.574   6.122   4.458
 4001SOL    HW112902   0.611   6.156   4.371
 4001SOL    HW212903   0.622   6.166   4.534
 4002SOL     OW12904   3.694   4.195   4.794
 4002SOL    HW112905   3.697   4.286   4.836
 4002SOL    HW212906   3.757   4.134   4.842
 4003SOL     OW12907   2.642   0.876   4.895
 4003SOL    HW112908   2.699   0.878   4.812
 4003SOL    HW212909   2.600   0.786   4.903
 4004SOL     OW12910   1.806   3.356   5.292
 4004SOL    HW112911   1.711   3.364   5.261
 4004SOL    HW212912   1.835   3.441   5.335
 4005SOL     OW12913   5.583   3.073   0.985
 4005SOL    HW112914   5.492   3.076   1.027
 4005SOL    HW212915   5.653   3.073   1.056
 4006SOL     OW12916   6.891   6.092   1.933
 4006SOL    HW112917   6.862   6.108   1.838
 4006SOL    HW212918   6.923   6.178   1.973
 4007SOL     OW12919   0.449   1.109   1.462
 4007SOL    HW112920   0.366   1.138   1.510
 4007SOL    HW212921   0.500   1.190   1.432
 4008SOL     OW12922   4.129   0.932   1.500
 4008SOL    HW112923   4.128   0.839   1.538
 4008SOL    HW212924   4.135   0.998   1.575
 4009SOL     OW12925   3.161   2.120   1.471
 4009SOL    HW112926   3.237   2.095   1.411
 4009SOL    HW212927   3.172   2.215   1.500
 4010SOL     OW12928   1.822   4.399   0.735
 4010SOL    HW112929   1.796   4.305   0.757
 4010SOL    HW212930   1.754   4.439   0.674
 4011SOL     OW12931   6.200   6.682   6.352
 4011SOL    HW112932   6.288   6.635   6.345
 4011SOL    HW212933   6.198   6.760   6.290
 4012SOL     OW12934   5.450   5.398   1.508
 4012SOL    HW112935   5.510   5.329   1.469
 4012SOL    HW212936   5.409   5.363   1.592
 4013SOL     OW12937   0.352   1.809   0.337
 4013SOL    HW112938   0.411   1.790   0.416
 4013SOL    HW212939   0.388   1.761   0.257
 4014SOL     OW12940   2.731   5.943   2.537
 4014SOL    HW112941   2.731   5.845   2.520
 4014SOL    HW212942   2.637   5.977   2.543
 4015SOL     OW12943   4.110   6.234   5.107
 4015SOL    HW112944   4.026   6.207   5.059
 4015SOL    HW212945   4.098   6.222   5.205
 4016SOL     OW12946   4.476   5.434   4.347
 4016SOL    HW112947   4.534   5.473   4.418
 4016SOL    HW212948   4.389   5.484   4.344
 4017SOL     OW12949   1.897   5.726   6.061
 4017SOL    HW112950   1.971   5.728   5.993
 4017SOL    HW212951   1.931   5.759   6.149
 4018SOL     OW12952   4.890   5.229   1.036
 4018SOL    HW112953   4.891   5.130   1.018
 4018SOL    HW212954   4.815   5.250   1.099
 4019SOL     OW12955   0.259   2.364   2.980
 4019SOL    HW112956   0.295   2.439   2.924
 4019SOL    HW212957   0.331   2.333   3.043
 4020SOL     OW12958   6.736   5.769   4.520
 4020SOL    HW112959   6.728   5.857   4.472
 4020SOL    HW212960   6.728   5.784   4.618
 4021SOL     OW12961   4.847   5.589   6.157
 4021SOL    HW112962   4.908   5.667   6.140
 4021SOL    HW212963   4.901   5.507   6.172
 4022SOL     OW12964   3.427   6.745   1.515
 4022SOL    HW112965   3.330   6.764   1.499
 4022SOL    HW212966   3.461   6.685   1.442
 4023SOL     OW12967   0.750   1.902   4.060
 4023SOL    HW112968   0.752   1.826   3.994
 4023SOL    HW212969   0.809   1.976   4.027
 4024SOL     OW12970   0.836   6.418   6.210
 4024SOL    HW112971   0.777   6.499   6.199
 4024SOL    HW212972   0.866   6.413   6.306
 4025SOL     OW12973   0.218   4.482   4.582
 4025SOL    HW112974   0.276   4.555   4.618
 4025SOL    HW212975   0.276   4.411   4.541
 4026SOL     OW12976   0.708   6.470   3.892
 4026SOL    HW112977   0.724   6.519   3.977
 4026SOL    HW212978   0.795   6.454   3.845
 4027SOL     OW12979   2.938   5.313   5.120
 4027SOL    HW112980   2.876   5.316   5.198
 4027SOL    HW212981   3.026   5.273   5.148
 4028SOL     OW12982   5.081   1.983   4.398
 4028SOL    HW112983   5.099   2.081   4.392
 4028SOL    HW212984   4.986   1.968   4.423
 4029SOL     OW12985   1.314   7.000   0.572
 4029SOL    HW112986   1.334   0.052   0.635
 4029SOL    HW212987   1.229   6.955   0.598
 4030SOL     OW12988   0.989   1.236   1.885
 4030SOL    HW112989   1.083   1.214   1.860
 4030SOL    HW212990   0.988   1.314   1.948
 4031SOL     OW12991   5.384   5.776   0.533
 4031SOL    HW112992   5.324   5.787   0.454
 4031SOL    HW212993   5.393   5.679   0.556
 4032SOL     OW12994   5.165   1.959   2.386
 4032SOL    HW112995   5.208   1.944   2.297
 4032SOL    HW212996   5.070   1.989   2.373
 4033SOL     OW12997   1.551   3.060   2.915
 4033SOL    HW112998   1.616   3.092   2.984
 4033SOL    HW212999   1.507   2.976   2.947
 4034SOL     OW13000   2.016   2.301   4.410
 4034SOL    HW113001   2.100   2.318   4.359
 4034SOL    HW213002   1.950   2.252   4.352
 4035SOL     OW13003   3.795   2.202   1.691
 4035SOL    HW113004   3.727   2.228   1.759
 4035SOL    HW213005   3.867   2.147   1.734
 4036SOL     OW13006   3.819   6.135   3.648
 4036SOL    HW113007   3.741   6.165   3.593
 4036SOL    HW213008   3.853   6.048   3.614
 4037SOL     OW13009   1.655   1.736   6.238
 4037SOL    HW113010   1.653   1.828   6.199
 4037SOL    HW213011   1.627   1.740   6.334
 4038SOL     OW13012   3.679   4.372   6.114
 4038SOL    HW113013   3.625   4.300   6.071
 4038SOL    HW213014   3.638   4.396   6.202
 4039SOL     OW13015   6.157   4.525   1.515
 4039SOL    HW113016   6.226   4.454   1.498
 4039SOL    HW213017   6.077   4.484   1.558
 4040SOL     OW13018   2.962   0.416   5.064
 4040SOL    HW113019   3.022   0.376   4.995
 4040SOL    HW213020   2.944   0.512   5.041
 4041SOL     OW13021   1.223   6.122   1.717
 4041SOL    HW113022   1.216   6.176   1.800
 4041SOL    HW213023   1.246   6.027   1.741
 4042SOL     OW13024   0.339   1.594   3.550
 4042SOL    HW113025   0.354   1.628   3.457
 4042SOL    HW213026   0.323   1.671   3.612
 4043SOL     OW13027   4.142   1.964   6.416
 4043SOL    HW113028   4.164   1.880   6.465
 4043SOL    HW213029   4.226   2.017   6.402
 4044SOL     OW13030   4.366   4.604   3.300
 4044SOL    HW113031   4.428   4.577   3.374
 4044SOL    HW213032   4.277   4.628   3.338
 4045SOL     OW13033   4.649   1.674   4.843
 4045SOL    HW113034   4.696   1.762   4.846
 4045SOL    HW213035   4.641   1.637   4.935
 4046SOL     OW13036   4.797   1.814   4.082
 4046SOL    HW113037   4.785   1.772   3.992
 4046SOL    HW213038   4.804   1.743   4.152
 4047SOL     OW13039   2.800   2.126   6.370
 4047SOL    HW113040   2.745   2.207   6.391
 4047SOL    HW213041   2.897   2.150   6.373
 4048SOL     OW13042   4.920   2.150   3.558
 4048SOL    HW113043   4.931   2.051   3.573
 4048SOL    HW213044   4.896   2.194   3.644
 4049SOL     OW13045   4.337   3.859   1.249
 4049SOL    HW113046   4.305   3.781   1.303
 4049SOL    HW213047   4.346   3.939   1.309
 4050SOL     OW13048   6.708   4.713   2.878
 4050SOL    HW113049   6.736   4.660   2.798
 4050SOL    HW213050   6.695   4.809   2.852
 4051SOL     OW13051   5.771   1.280   4.489
 4051SOL    HW113052   5.846   1.343   4.510
 4051SOL    HW213053   5.790   1.232   4.404
 4052SOL     OW13054   4.816   1.923   4.453
 4052SOL    HW113055   4.781   1.988   4.385
 4052SOL    HW213056   4.751   1.848   4.464
 4053SOL     OW13057   0.966   4.933   3.957
 4053SOL    HW113058   1.056   4.978   3.955
 4053SOL    HW213059   0.956   4.883   4.042
 4054SOL     OW13060   4.783   3.791   1.254
 4054SOL    HW113061   4.879   3.808   1.276
 4054SOL    HW213062   4.745   3.726   1.320
 4055SOL     OW13063   0.030   4.650   6.776
 4055SOL    HW113064   0.109   4.590   6.769
 4055SOL    HW213065   6.969   4.596   6.762
 4056SOL     OW13066   5.115   3.365   6.998
 4056SOL    HW113067   5.064   3.418   0.044
 4056SOL    HW213068   5.051   3.316   6.939
 4057SOL     OW13069   6.919   4.044   6.049
 4057SOL    HW113070   7.019   4.034   6.050
 4057SOL    HW213071   6.887   4.060   6.143
 4058SOL     OW13072   3.778   0.567   4.220
 4058SOL    HW113073   3.723   0.527   4.293
 4058SOL    HW213074   3.848   0.626   4.260
 4059SOL     OW13075   0.854   1.186   3.971
 4059SOL    HW113076   0.821   1.274   4.005
 4059SOL    HW213077   0.954   1.187   3.967
 4060SOL     OW13078   6.980   6.443   4.737
 4060SOL    HW113079   6.966   6.352   4.697
 4060SOL    HW213080   0.049   6.476   4.713
 4061SOL     OW13081   0.867   4.633   1.914
 4061SOL    HW113082   0.930   4.604   1.843
 4061SOL    HW213083   0.828   4.722   1.890
 4062SOL     OW13084   2.202   3.827   0.319
 4062SOL    HW113085   2.142   3.771   0.376
 4062SOL    HW213086   2.248   3.896   0.376
 4063SOL     OW13087   3.740   0.716   0.918
 4063SOL    HW113088   3.654   0.752   0.881
 4063SOL    HW213089   3.796   0.791   0.953
 4064SOL     OW13090   2.431   0.673   5.455
 4064SOL    HW113091   2.417   0.631   5.365
 4064SOL    HW213092   2.511   0.632   5.498
 4065SOL     OW13093   2.516   1.520   1.731
 4065SOL    HW113094   2.430   1.468   1.733
 4065SOL    HW213095   2.527   1.563   1.642
 4066SOL     OW13096   0.277   4.223   4.502
 4066SOL    HW113097   0.178   4.208   4.501
 4066SOL    HW213098   0.317   4.178   4.423
 4067SOL     OW13099   6.660   4.493   0.752
 4067SOL    HW113100   6.725   4.418   0.739
 4067SOL    HW213101   6.652   4.546   0.667
 4068SOL     OW13102   2.099   2.685   5.584
 4068SOL    HW113103   2.195   2.690   5.611
 4068SOL    HW213104   2.064   2.777   5.567
 4069SOL     OW13105   4.772   6.515   5.566
 4069SOL    HW113106   4.721   6.594   5.601
 4069SOL    HW213107   4.852   6.548   5.515
 4070SOL     OW13108   1.678   2.821   4.221
 4070SOL    HW113109   1.626   2.832   4.306
 4070SOL    HW213110   1.742   2.897   4.211
 4071SOL     OW13111   1.927   0.428   4.956
 4071SOL    HW113112   1.854   0.478   5.003
 4071SOL    HW213113   1.896   0.335   4.938
 4072SOL     OW13114   3.294   6.810   2.396
 4072SOL    HW113115   3.298   6.786   2.299
 4072SOL    HW213116   3.353   6.749   2.448
 4073SOL     OW13117   4.055   5.250   6.932
 4073SOL    HW113118   3.988   5.317   6.962
 4073SOL    HW213119   4.009   5.164   6.909
 4074SOL     OW13120   1.233   5.769   2.241
 4074SOL    HW113121   1.287   5.852   2.228
 4074SOL    HW213122   1.181   5.750   2.157
 4075SOL     OW13123   5.813   1.099   0.108
 4075SOL    HW113124   5.805   1.056   0.018
 4075SOL    HW213125   5.895   1.064   0.154
 4076SOL     OW13126   1.988   5.752   3.963
 4076SOL    HW113127   1.968   5.654   3.970
 4076SOL    HW213128   2.010   5.787   4.054
 4077SOL     OW13129   2.870   1.752   1.742
 4077SOL    HW113130   2.903   1.675   1.688
 4077SOL    HW213131   2.848   1.829   1.682
 4078SOL     OW13132   4.165   4.674   2.357
 4078SOL    HW113133   4.259   4.666   2.389
 4078SOL    HW213134   4.106   4.705   2.431
 4079SOL     OW13135   0.472   1.968   3.950
 4079SOL    HW113136   0.472   2.042   3.882
 4079SOL    HW213137   0.561   1.963   3.994
 4080SOL     OW13138   6.526   1.823   4.634
 4080SOL    HW113139   6.537   1.724   4.626
 4080SOL    HW213140   6.482   1.845   4.721
 4081SOL     OW13141   0.758   4.162   2.946
 4081SOL    HW113142   0.775   4.077   2.896
 4081SOL    HW213143   0.661   4.185   2.940
 4082SOL     OW13144   0.395   3.094   6.932
 4082SOL    HW113145   0.452   3.031   6.984
 4082SOL    HW213146   0.317   3.122   6.988
 4083SOL     OW13147   6.608   3.085   4.713
 4083SOL    HW113148   6.648   2.994   4.702
 4083SOL    HW213149   6.681   3.153   4.711
 4084SOL     OW13150   5.935   1.029   4.653
 4084SOL    HW113151   5.970   1.040   4.560
 4084SOL    HW213152   5.884   0.943   4.659
 4085SOL     OW13153   2.827   5.503   6.749
 4085SOL    HW113154   2.755   5.503   6.679
 4085SOL    HW213155   2.819   5.587   6.803
 4086SOL     OW13156   0.951   3.577   1.238
 4086SOL    HW113157   1.033   3.608   1.287
 4086SOL    HW213158   0.901   3.513   1.296
 4087SOL     OW13159   2.130   1.138   3.052
 4087SOL    HW113160   2.090   1.197   3.122
 4087SOL    HW213161   2.160   1.193   2.975
 4088SOL     OW13162   6.851   1.608   0.091
 4088SOL    HW113163   6.800   1.672   0.149
 4088SOL    HW213164   6.943   1.598   0.127
 4089SOL     OW13165   0.541   0.930   5.616
 4089SOL    HW113166   0.535   0.835   5.649
 4089SOL    HW213167   0.450   0.972   5.618
 4090SOL     OW13168   3.280   5.049   6.402
 4090SOL    HW113169   3.203   5.055   6.466
 4090SOL    HW213170   3.336   5.132   6.409
 4091SOL     OW13171   4.874   6.867   1.388
 4091SOL    HW113172   4.820   6.919   1.455
 4091SOL    HW213173   4.904   6.928   1.315
 4092SOL     OW13174   0.003   1.370   4.008
 4092SOL    HW113175   0.068   1.429   4.055
 4092SOL    HW213176   6.937   1.416   4.002
 4093SOL     OW13177   5.541   0.181   4.047
 4093SOL    HW113178   5.561   0.142   4.137
 4093SOL    HW213179   5.534   0.281   4.055
 4094SOL     OW13180   3.136   3.902   6.163
 4094SOL    HW113181   3.226   3.946   6.165
 4094SOL    HW213182   3.130   3.835   6.237
 4095SOL     OW13183   1.433   3.630   6.179
 4095SOL    HW113184   1.522   3.675   6.187
 4095SOL    HW213185   1.412   3.613   6.083
 4096SOL     OW13186   4.220   4.718   1.510
 4096SOL    HW113187   4.212   4.670   1.597
 4096SOL    HW213188   4.311   4.761   1.504
 4097SOL     OW13189   3.730   3.648   3.612
 4097SOL    HW113190   3.724   3.595   3.697
 4097SOL    HW213191   3.680   3.733   3.623
 4098SOL     OW13192   0.683   3.729   2.100
 4098SOL    HW113193   0.630   3.683   2.030
 4098SOL    HW213194   0.666   3.686   2.189
 4099SOL     OW13195   2.754   6.043   1.827
 4099SOL    HW113196   2.704   6.068   1.910
 4099SOL    HW213197   2.689   6.016   1.756
 4100SOL     OW13198   3.741   7.014   3.133
 4100SOL    HW113199   3.727   0.078   3.083
 4100SOL    HW213200   3.712   0.003   3.228
 4101SOL     OW13201   4.462   2.160   6.803
 4101SOL    HW113202   4.499   2.231   6.743
 4101SOL    HW213203   4.514   2.076   6.791
 4102SOL     OW13204   4.336   1.824   0.244
 4102SOL    HW113205   4.322   1.737   0.292
 4102SOL    HW213206   4.367   1.893   0.309
 4103SOL     OW13207   0.394   0.152   1.774
 4103SOL    HW113208   0.308   0.202   1.763
 4103SOL    HW213209   0.387   0.093   1.855
 4104SOL     OW13210   2.196   4.632   2.279
 4104SOL    HW113211   2.250   4.548   2.268
 4104SOL    HW213212   2.212   4.670   2.370
 4105SOL     OW13213   6.053   5.061   0.008
 4105SOL    HW113214   6.062   5.107   0.096
 4105SOL    HW213215   5.958   5.064   7.001
 4106SOL     OW13216   6.684   3.540   4.981
 4106SOL    HW113217   6.609   3.505   5.037
 4106SOL    HW213218   6.657   3.627   4.941
 4107SOL     OW13219   0.071   0.524   0.945
 4107SOL    HW113220   0.040   0.534   1.040
 4107SOL    HW213221   0.007   0.465   0.896
 4108SOL     OW13222   6.363   2.580   5.304
 4108SOL    HW113223   6.322   2.492   5.281
 4108SOL    HW213224   6.294   2.638   5.348
 4109SOL     OW13225   2.935   6.251   4.126
 4109SOL    HW113226   3.008   6.201   4.079
 4109SOL    HW213227   2.847   6.228   4.086
 4110SOL     OW13228   4.730   3.436   5.359
 4110SOL    HW113229   4.732   3.499   5.280
 4110SOL    HW213230   4.738   3.342   5.326
 4111SOL     OW13231   3.623   2.987   6.480
 4111SOL    HW113232   3.547   3.049   6.459
 4111SOL    HW213233   3.605   2.897   6.439
 4112SOL     OW13234   4.059   0.346   5.923
 4112SOL    HW113235   4.099   0.264   5.881
 4112SOL    HW213236   3.999   0.392   5.857
 4113SOL     OW13237   3.515   4.934   4.989
 4113SOL    HW113238   3.444   4.998   4.959
 4113SOL    HW213239   3.567   4.975   5.063
 4114SOL     OW13240   3.856   1.961   2.941
 4114SOL    HW113241   3.786   1.934   2.876
 4114SOL    HW213242   3.812   1.994   3.025
 4115SOL     OW13243   5.023   4.345   2.401
 4115SOL    HW113244   5.050   4.302   2.315
 4115SOL    HW213245   4.936   4.307   2.432
 4116SOL     OW13246   3.100   0.951   2.400
 4116SOL    HW113247   3.200   0.960   2.394
 4116SOL    HW213248   3.077   0.899   2.483
 4117SOL     OW13249   1.041   5.832   1.227
 4117SOL    HW113250   1.039   5.805   1.324
 4117SOL    HW213251   0.990   5.764   1.173
 4118SOL     OW13252   2.057   0.161   6.757
 4118SOL    HW113253   2.071   0.105   6.839
 4118SOL    HW213254   2.114   0.126   6.683
 4119SOL     OW13255   4.606   1.535   3.409
 4119SOL    HW113256   4.562   1.495   3.329
 4119SOL    HW213257   4.705   1.537   3.394
 4120SOL     OW13258   4.997   1.194   2.653
 4120SOL    HW113259   5.030   1.274   2.604
 4120SOL    HW213260   5.060   1.118   2.639
 4121SOL     OW13261   6.460   2.237   4.314
 4121SOL    HW113262   6.430   2.320   4.360
 4121SOL    HW213263   6.499   2.174   4.381
 4122SOL     OW13264   2.090   5.518   6.975
 4122SOL    HW113265   2.083   5.546   0.048
 4122SOL    HW213266   2.165   5.453   6.964
 4123SOL     OW13267   4.408   3.668   5.583
 4123SOL    HW113268   4.471   3.746   5.583
 4123SOL    HW213269   4.408   3.625   5.493
 4124SOL     OW13270   3.949   5.911   3.481
 4124SOL    HW113271   3.892   5.841   3.525
 4124SOL    HW213272   3.978   5.878   3.391
 4125SOL     OW13273   4.855   1.174   1.327
 4125SOL    HW113274   4.863   1.139   1.420
 4125SOL    HW213275   4.779   1.129   1.280
 4126SOL     OW13276   1.710   4.425   4.710
 4126SOL    HW113277   1.760   4.509   4.690
 4126SOL    HW213278   1.612   4.444   4.715
 4127SOL     OW13279   5.947   4.708   4.484
 4127SOL    HW113280   5.943   4.690   4.582
 4127SOL    HW213281   5.896   4.791   4.463
 4128SOL     OW13282   0.593   1.712   1.924
 4128SOL    HW113283   0.634   1.696   1.835
 4128SOL    HW213284   0.493   1.706   1.916
 4129SOL     OW13285   6.849   2.819   6.028
 4129SOL    HW113286   6.826   2.817   5.931
 4129SOL    HW213287   6.886   2.730   6.056
 4130SOL     OW13288   6.657   2.842   0.867
 4130SOL    HW113289   6.750   2.862   0.835
 4130SOL    HW213290   6.599   2.823   0.788
 4131SOL     OW13291   6.903   3.703   3.042
 4131SOL    HW113292   6.860   3.770   2.982
 4131SOL    HW213293   6.916   3.742   3.133
 4132SOL     OW13294   4.913   2.247   4.948
 4132SOL    HW113295   4.941   2.220   4.856
 4132SOL    HW213296   4.887   2.166   5.001
 4133SOL     OW13297   2.343   2.587   1.235
 4133SOL    HW113298   2.349   2.553   1.328
 4133SOL    HW213299   2.407   2.537   1.177
 4134SOL     OW13300   1.939   1.134   0.406
 4134SOL    HW113301   1.987   1.047   0.410
 4134SOL    HW213302   1.900   1.147   0.314
 4135SOL     OW13303   1.934   0.559   1.121
 4135SOL    HW113304   1.868   0.603   1.060
 4135SOL    HW213305   1.939   0.462   1.100
 4136SOL     OW13306   0.701   1.650   3.589
 4136SOL    HW113307   0.657   1.572   3.545
 4136SOL    HW213308   0.672   1.656   3.684
 4137SOL     OW13309   4.107   3.048   5.743
 4137SOL    HW113310   4.181   2.981   5.746
 4137SOL    HW213311   4.081   3.073   5.836
 4138SOL     OW13312   4.257   5.545   1.965
 4138SOL    HW113313   4.167   5.543   2.008
 4138SOL    HW213314   4.250   5.518   1.869
 4139SOL     OW13315   2.795   1.356   0.568
 4139SOL    HW113316   2.713   1.406   0.540
 4139SOL    HW213317   2.794   1.343   0.667
 4140SOL     OW13318   4.192   1.849   5.457
 4140SOL    HW113319   4.108   1.799   5.436
 4140SOL    HW213320   4.237   1.806   5.535
 4141SOL     OW13321   5.296   5.321   0.429
 4141SOL    HW113322   5.342   5.312   0.340
 4141SOL    HW213323   5.356   5.370   0.492
 4142SOL     OW13324   5.978   3.354   1.564
 4142SOL    HW113325   5.963   3.264   1.605
 4142SOL    HW213326   6.069   3.387   1.587
 4143SOL     OW13327   0.447   2.802   2.019
 4143SOL    HW113328   0.495   2.830   1.937
 4143SOL    HW213329   0.359   2.760   1.994
 4144SOL     OW13330   4.100   0.799   2.075
 4144SOL    HW113331   4.039   0.878   2.065
 4144SOL    HW213332   4.186   0.828   2.115
 4145SOL     OW13333   3.014   6.697   3.080
 4145SOL    HW113334   3.034   6.757   3.002
 4145SOL    HW213335   3.096   6.644   3.102
 4146SOL     OW13336   4.591   4.726   0.294
 4146SOL    HW113337   4.671   4.680   0.255
 4146SOL    HW213338   4.619   4.814   0.332
 4147SOL     OW13339   2.606   1.952   6.172
 4147SOL    HW113340   2.553   2.022   6.220
 4147SOL    HW213341   2.550   1.910   6.101
 4148SOL     OW13342   6.670   6.982   2.577
 4148SOL    HW113343   6.759   6.980   2.530
 4148SOL    HW213344   6.664   0.041   2.634
 4149SOL     OW13345   4.716   4.267   2.128
 4149SOL    HW113346   4.702   4.302   2.220
 4149SOL    HW213347   4.635   4.285   2.072
 4150SOL     OW13348   4.489   0.294   5.235
 4150SOL    HW113349   4.452   0.359   5.302
 4150SOL    HW213350   4.435   0.299   5.151
 4151SOL     OW13351   0.357   5.694   0.636
 4151SOL    HW113352   0.276   5.639   0.655
 4151SOL    HW213353   0.423   5.682   0.710
 4152SOL     OW13354   3.178   3.906   1.520
 4152SOL    HW113355   3.236   3.970   1.570
 4152SOL    HW213356   3.208   3.900   1.425
 4153SOL     OW13357   6.190   5.924   6.197
 4153SOL    HW113358   6.200   6.022   6.183
 4153SOL    HW213359   6.193   5.877   6.109
 4154SOL     OW13360   4.430   2.576   5.079
 4154SOL    HW113361   4.523   2.610   5.091
 4154SOL    HW213362   4.368   2.623   5.142
 4155SOL     OW13363   1.812   2.923   0.635
 4155SOL    HW113364   1.877   2.911   0.560
 4155SOL    HW213365   1.725   2.955   0.599
 4156SOL     OW13366   5.850   0.759   5.021
 4156SOL    HW113367   5.906   0.821   4.965
 4156SOL    HW213368   5.786   0.813   5.076
 4157SOL     OW13369   2.770   0.591   3.576
 4157SOL    HW113370   2.750   0.652   3.499
 4157SOL    HW213371   2.711   0.615   3.654
 4158SOL     OW13372   0.802   0.290   3.913
 4158SOL    HW113373   0.736   0.232   3.961
 4158SOL    HW213374   0.760   0.377   3.890
 4159SOL     OW13375   0.248   3.934   5.572
 4159SOL    HW113376   0.255   3.981   5.660
 4159SOL    HW213377   0.154   3.940   5.538
 4160SOL     OW13378   0.387   0.654   1.102
 4160SOL    HW113379   0.473   0.628   1.056
 4160SOL    HW213380   0.369   0.751   1.086
 4161SOL     OW13381   6.450   1.788   1.151
 4161SOL    HW113382   6.420   1.874   1.110
 4161SOL    HW213383   6.376   1.750   1.206
 4162SOL     OW13384   0.697   6.759   5.402
 4162SOL    HW113385   0.770   6.706   5.445
 4162SOL    HW213386   0.725   6.786   5.310
 4163SOL     OW13387   6.581   1.518   5.622
 4163SOL    HW113388   6.516   1.534   5.548
 4163SOL    HW213389   6.532   1.523   5.710
 4164SOL     OW13390   2.872   6.975   5.667
 4164SOL    HW113391   2.945   0.021   5.673
 4164SOL    HW213392   2.839   6.954   5.759
 4165SOL     OW13393   2.590   6.095   2.078
 4165SOL    HW113394   2.506   6.138   2.110
 4165SOL    HW213395   2.573   5.998   2.058
 4166SOL     OW13396   6.348   1.774   1.835
 4166SOL    HW113397   6.283   1.801   1.764
 4166SOL    HW213398   6.344   1.839   1.911
 4167SOL     OW13399   1.970   2.767   1.201
 4167SOL    HW113400   1.890   2.723   1.160
 4167SOL    HW213401   1.957   2.866   1.201
 4168SOL     OW13402   1.841   5.208   1.309
 4168SOL    HW113403   1.791   5.237   1.227
 4168SOL    HW213404   1.794   5.132   1.352
 4169SOL     OW13405   6.424   3.430   6.378
 4169SOL    HW113406   6.492   3.360   6.402
 4169SOL    HW213407   6.471   3.513   6.348
 4170SOL     OW13408   3.686   1.257   5.144
 4170SOL    HW113409   3.600   1.253   5.093
 4170SOL    HW213410   3.689   1.341   5.198
 4171SOL     OW13411   5.904   3.482   1.338
 4171SOL    HW113412   5.954   3.421   1.399
 4171SOL    HW213413   5.866   3.429   1.262
 4172SOL     OW13414   2.664   0.822   0.599
 4172SOL    HW113415   2.728   0.820   0.675
 4172SOL    HW213416   2.713   0.846   0.515
 4173SOL     OW13417   4.980   3.403   5.480
 4173SOL    HW113418   4.896   3.422   5.429
 4173SOL    HW213419   5.016   3.488   5.518
 4174SOL     OW13420   5.321   0.666   3.655
 4174SOL    HW113421   5.253   0.595   3.638
 4174SOL    HW213422   5.340   0.672   3.753
 4175SOL     OW13423   2.552   1.370   2.542
 4175SOL    HW113424   2.458   1.337   2.550
 4175SOL    HW213425   2.562   1.420   2.456
 4176SOL     OW13426   5.886   4.463   2.978
 4176SOL    HW113427   5.803   4.456   2.921
 4176SOL    HW213428   5.859   4.483   3.072
 4177SOL     OW13429   6.497   5.423   3.282
 4177SOL    HW113430   6.468   5.453   3.373
 4177SOL    HW213431   6.538   5.332   3.289
 4178SOL     OW13432   4.241   2.395   5.545
 4178SOL    HW113433   4.147   2.370   5.567
 4178SOL    HW213434   4.262   2.485   5.585
 4179SOL     OW13435   6.579   2.409   0.266
 4179SOL    HW113436   6.630   2.486   0.305
 4179SOL    HW213437   6.515   2.374   0.334
 4180SOL     OW13438   4.649   3.450   1.716
 4180SOL    HW113439   4.684   3.544   1.712
 4180SOL    HW213440   4.723   3.386   1.692
 4181SOL     OW13441   6.682   0.546   0.672
 4181SOL    HW113442   6.709   0.641   0.691
 4181SOL    HW213443   6.736   0.511   0.595
 4182SOL     OW13444   5.599   1.119   3.505
 4182SOL    HW113445   5.655   1.052   3.455
 4182SOL    HW213446   5.530   1.070   3.559
 4183SOL     OW13447   1.587   0.884   1.839
 4183SOL    HW113448   1.506   0.932   1.805
 4183SOL    HW213449   1.669   0.939   1.823
 4184SOL     OW13450   4.388   4.733   6.623
 4184SOL    HW113451   4.473   4.758   6.577
 4184SOL    HW213452   4.400   4.646   6.671
 4185SOL     OW13453   0.093   0.315   4.066
 4185SOL    HW113454   0.169   0.337   4.004
 4185SOL    HW213455   0.109   0.359   4.155
 4186SOL     OW13456   3.841   4.223   1.772
 4186SOL    HW113457   3.805   4.185   1.857
 4186SOL    HW213458   3.875   4.148   1.715
 4187SOL     OW13459   3.921   4.977   6.569
 4187SOL    HW113460   3.938   4.982   6.668
 4187SOL    HW213461   3.849   5.042   6.544
 4188SOL     OW13462   4.860   6.332   3.581
 4188SOL    HW113463   4.928   6.288   3.639
 4188SOL    HW213464   4.892   6.332   3.486
 4189SOL     OW13465   1.612   3.543   3.381
 4189SOL    HW113466   1.645   3.463   3.331
 4189SOL    HW213467   1.512   3.537   3.391
 4190SOL     OW13468   2.340   0.049   1.451
 4190SOL    HW113469   2.395   0.071   1.532
 4190SOL    HW213470   2.261   7.017   1.477
 4191SOL     OW13471   0.541   2.258   2.902
 4191SOL    HW113472   0.567   2.294   2.812
 4191SOL    HW213473   0.615   2.273   2.967
 4192SOL     OW13474   5.867   0.648   3.505
 4192SOL    HW113475   5.833   0.652   3.599
 4192SOL    HW213476   5.932   0.572   3.497
 4193SOL     OW13477   1.682   6.460   3.895
 4193SOL    HW113478   1.590   6.496   3.878
 4193SOL    HW213479   1.736   6.465   3.811
 4194SOL     OW13480   5.971   0.212   3.124
 4194SOL    HW113481   5.983   0.310   3.140
 4194SOL    HW213482   5.937   0.197   3.031
 4195SOL     OW13483   5.095   1.039   3.623
 4195SOL    HW113484   5.026   0.970   3.597
 4195SOL    HW213485   5.049   1.126   3.641
 4196SOL     OW13486   4.716   2.904   3.377
 4196SOL    HW113487   4.808   2.940   3.365
 4196SOL    HW213488   4.658   2.974   3.418
 4197SOL     OW13489   5.432   4.197   4.906
 4197SOL    HW113490   5.453   4.268   4.973
 4197SOL    HW213491   5.511   4.181   4.848
 4198SOL     OW13492   6.635   3.881   6.080
 4198SOL    HW113493   6.617   3.803   6.021
 4198SOL    HW213494   6.668   3.958   6.025
 4199SOL     OW13495   3.048   4.070   6.420
 4199SOL    HW113496   3.140   4.036   6.436
 4199SOL    HW213497   3.051   4.151   6.362
 4200SOL     OW13498   3.174   0.624   6.940
 4200SOL    HW113499   3.242   0.624   6.867
 4200SOL    HW213500   3.150   0.719   6.964
 4201SOL     OW13501   6.151   0.003   4.725
 4201SOL    HW113502   6.154   0.102   4.716
 4201SOL    HW213503   6.092   6.988   4.653
 4202SOL     OW13504   5.447   3.681   5.439
 4202SOL    HW113505   5.464   3.762   5.495
 4202SOL    HW213506   5.412   3.607   5.497
 4203SOL     OW13507   3.998   5.773   4.350
 4203SOL    HW113508   4.079   5.752   4.295
 4203SOL    HW213509   3.998   5.718   4.433
 4204SOL     OW13510   1.472   3.989   0.392
 4204SOL    HW113511   1.411   4.005   0.470
 4204SOL    HW213512   1.433   4.034   0.311
 4205SOL     OW13513   2.974   5.998   3.156
 4205SOL    HW113514   2.875   5.982   3.157
 4205SOL    HW213515   2.999   6.046   3.073
 4206SOL     OW13516   5.262   6.509   4.179
 4206SOL    HW113517   5.276   6.566   4.260
 4206SOL    HW213518   5.229   6.565   4.103
 4207SOL     OW13519   0.930   6.595   0.179
 4207SOL    HW113520   0.998   6.536   0.221
 4207SOL    HW213521   0.859   6.617   0.246
 4208SOL     OW13522   0.524   2.985   1.250
 4208SOL    HW113523   0.586   2.928   1.196
 4208SOL    HW213524   0.504   3.070   1.200
 4209SOL     OW13525   2.984   0.485   5.345
 4209SOL    HW113526   3.075   0.503   5.380
 4209SOL    HW213527   2.991   0.446   5.253
 4210SOL     OW13528   3.803   2.817   0.448
 4210SOL    HW113529   3.901   2.836   0.435
 4210SOL    HW213530   3.786   2.720   0.434
 4211SOL     OW13531   5.123   4.000   4.414
 4211SOL    HW113532   5.189   4.047   4.356
 4211SOL    HW213533   5.167   3.972   4.499
 4212SOL     OW13534   6.387   6.946   2.093
 4212SOL    HW113535   6.403   0.012   2.138
 4212SOL    HW213536   6.467   6.887   2.105
 4213SOL     OW13537   0.713   6.982   1.128
 4213SOL    HW113538   0.734   0.056   1.148
 4213SOL    HW213539   0.631   6.955   1.178
 4214SOL     OW13540   2.969   5.443   4.239
 4214SOL    HW113541   2.885   5.388   4.240
 4214SOL    HW213542   3.047   5.384   4.261
 4215SOL     OW13543   1.579   6.051   6.961
 4215SOL    HW113544   1.543   6.030   6.871
 4215SOL    HW213545   1.560   6.147   6.983
 4216SOL     OW13546   2.724   3.112   5.334
 4216SOL    HW113547   2.649   3.092   5.272
 4216SOL    HW213548   2.716   3.055   5.416
 4217SOL     OW13549   6.541   0.859   4.536
 4217SOL    HW113550   6.448   0.843   4.568
 4217SOL    HW213551   6.574   0.947   4.572
 4218SOL     OW13552   3.190   5.572   2.150
 4218SOL    HW113553   3.127   5.607   2.219
 4218SOL    HW213554   3.275   5.624   2.153
 4219SOL     OW13555   5.854   0.234   2.883
 4219SOL    HW113556   5.790   0.157   2.886
 4219SOL    HW213557   5.906   0.231   2.798
 4220SOL     OW13558   0.495   4.255   3.115
 4220SOL    HW113559   0.536   4.220   3.200
 4220SOL    HW213560   0.489   4.180   3.049
 4221SOL     OW13561   5.510   6.516   5.915
 4221SOL    HW113562   5.527   6.430   5.867
 4221SOL    HW213563   5.489   6.588   5.849
 4222SOL     OW13564   2.729   2.958   0.115
 4222SOL    HW113565   2.731   3.013   0.032
 4222SOL    HW213566   2.640   2.914   0.124
 4223SOL     OW13567   3.430   3.790   2.870
 4223SOL    HW113568   3.444   3.717   2.937
 4223SOL    HW213569   3.468   3.876   2.906
 4224SOL     OW13570   3.446   1.673   5.802
 4224SOL    HW113571   3.417   1.687   5.707
 4224SOL    HW213572   3.385   1.724   5.863
 4225SOL     OW13573   5.170   0.079   4.516
 4225SOL    HW113574   5.214   7.021   4.476
 4225SOL    HW213575   5.107   0.049   4.589
 4226SOL     OW13576   2.143   1.689   2.421
 4226SOL    HW113577   2.214   1.727   2.362
 4226SOL    HW213578   2.117   1.599   2.387
 4227SOL     OW13579   5.292   3.991   6.475
 4227SOL    HW113580   5.235   3.911   6.492
 4227SOL    HW213581   5.353   3.973   6.398
 4228SOL     OW13582   4.688   4.852   2.920
 4228SOL    HW113583   4.693   4.937   2.867
 4228SOL    HW213584   4.677   4.875   3.017
 4229SOL     OW13585   4.160   5.121   5.493
 4229SOL    HW113586   4.155   5.039   5.549
 4229SOL    HW213587   4.142   5.098   5.398
 4230SOL     OW13588   2.493   1.501   6.254
 4230SOL    HW113589   2.574   1.468   6.206
 4230SOL    HW213590   2.512   1.591   6.293
 4231SOL     OW13591   3.675   6.459   6.236
 4231SOL    HW113592   3.741   6.525   6.199
 4231SOL    HW213593   3.702   6.434   6.329
 4232SOL     OW13594   1.828   3.979   1.241
 4232SOL    HW113595   1.771   3.981   1.323
 4232SOL    HW213596   1.906   3.917   1.255
 4233SOL     OW13597   5.677   5.332   1.126
 4233SOL    HW113598   5.756   5.378   1.168
 4233SOL    HW213599   5.706   5.243   1.091
 4234SOL     OW13600   3.681   3.561   5.527
 4234SOL    HW113601   3.676   3.498   5.604
 4234SOL    HW213602   3.740   3.522   5.456
 4235SOL     OW13603   0.345   4.018   4.668
 4235SOL    HW113604   0.328   4.058   4.758
 4235SOL    HW213605   0.332   4.088   4.598
 4236SOL     OW13606   0.929   3.593   4.903
 4236SOL    HW113607   0.860   3.633   4.844
 4236SOL    HW213608   0.938   3.647   4.987
 4237SOL     OW13609   6.397   3.876   5.286
 4237SOL    HW113610   6.317   3.821   5.262
 4237SOL    HW213611   6.383   3.970   5.255
 4238SOL     OW13612   4.750   5.274   4.835
 4238SOL    HW113613   4.760   5.244   4.740
 4238SOL    HW213614   4.718   5.369   4.837
 4239SOL     OW13615   5.087   5.955   5.440
 4239SOL    HW113616   5.053   5.954   5.346
 4239SOL    HW213617   5.057   5.872   5.487
 4240SOL     OW13618   2.794   4.515   6.458
 4240SOL    HW113619   2.733   4.543   6.384
 4240SOL    HW213620   2.833   4.596   6.501
 4241SOL     OW13621   2.925   2.059   1.311
 4241SOL    HW113622   3.010   2.071   1.362
 4241SOL    HW213623   2.870   2.142   1.319
 4242SOL     OW13624   2.498   0.378   2.423
 4242SOL    HW113625   2.502   0.416   2.330
 4242SOL    HW213626   2.535   0.284   2.421
 4243SOL     OW13627   1.572   2.461   2.783
 4243SOL    HW113628   1.495   2.409   2.746
 4243SOL    HW213629   1.542   2.512   2.864
 4244SOL     OW13630   3.178   0.728   1.070
 4244SOL    HW113631   3.214   0.635   1.083
 4244SOL    HW213632   3.244   0.794   1.106
 4245SOL     OW13633   0.089   1.568   1.221
 4245SOL    HW113634   0.022   1.498   1.197
 4245SOL    HW213635   0.171   1.524   1.258
 4246SOL     OW13636   4.614   2.722   3.902
 4246SOL    HW113637   4.643   2.748   3.994
 4246SOL    HW213638   4.680   2.757   3.835
 4247SOL     OW13639   2.705   5.686   6.906
 4247SOL    HW113640   2.655   5.713   6.824
 4247SOL    HW213641   2.641   5.664   6.980
 4248SOL     OW13642   2.481   0.290   3.041
 4248SOL    HW113643   2.475   0.209   2.984
 4248SOL    HW213644   2.410   0.356   3.014
 4249SOL     OW13645   5.983   1.248   5.814
 4249SOL    HW113646   5.945   1.317   5.753
 4249SOL    HW213647   5.925   1.167   5.814
 4250SOL     OW13648   0.746   5.484   4.621
 4250SOL    HW113649   0.663   5.539   4.631
 4250SOL    HW213650   0.803   5.522   4.548
 4251SOL     OW13651   4.801   2.230   5.309
 4251SOL    HW113652   4.802   2.151   5.248
 4251SOL    HW213653   4.895   2.260   5.326
 4252SOL     OW13654   1.005   6.834   6.476
 4252SOL    HW113655   1.041   6.753   6.523
 4252SOL    HW213656   0.971   6.899   6.543
 4253SOL     OW13657   4.031   0.034   3.090
 4253SOL    HW113658   3.936   0.001   3.086
 4253SOL    HW213659   4.085   7.010   3.020
 4254SOL     OW13660   0.996   2.000   5.395
 4254SOL    HW113661   1.053   2.077   5.367
 4254SOL    HW213662   1.054   1.927   5.431
 4255SOL     OW13663   0.987   3.210   3.814
 4255SOL    HW113664   0.948   3.152   3.886
 4255SOL    HW213665   0.915   3.240   3.752
 4256SOL     OW13666   6.201   6.135   0.440
 4256SOL    HW113667   6.147   6.167   0.362
 4256SOL    HW213668   6.166   6.175   0.524
 4257SOL     OW13669   0.049   0.729   2.591
 4257SOL    HW113670   7.005   0.745   2.518
 4257SOL    HW213671   0.132   0.688   2.553
 4258SOL     OW13672   2.845   5.652   0.809
 4258SOL    HW113673   2.825   5.693   0.719
 4258SOL    HW213674   2.771   5.591   0.835
 4259SOL     OW13675   0.650   6.275   0.255
 4259SOL    HW113676   0.746   6.249   0.248
 4259SOL    HW213677   0.610   6.233   0.336
 4260SOL     OW13678   6.934   0.320   5.354
 4260SOL    HW113679   6.953   0.412   5.320
 4260SOL    HW213680   6.910   0.261   5.277
 4261SOL     OW13681   2.734   6.301   3.269
 4261SOL    HW113682   2.641   6.294   3.234
 4261SOL    HW213683   2.789   6.359   3.209
 4262SOL     OW13684   1.410   4.180   4.886
 4262SOL    HW113685   1.400   4.279   4.890
 4262SOL    HW213686   1.505   4.155   4.908
 4263SOL     OW13687   3.370   1.017   2.389
 4263SOL    HW113688   3.370   1.110   2.353
 4263SOL    HW213689   3.434   0.961   2.337
 4264SOL     OW13690   4.816   2.205   6.670
 4264SOL    HW113691   4.821   2.112   6.633
 4264SOL    HW213692   4.877   2.213   6.749
 4265SOL     OW13693   3.487   6.394   6.892
 4265SOL    HW113694   3.452   6.488   6.902
 4265SOL    HW213695   3.574   6.396   6.843
 4266SOL     OW13696   1.397   4.405   1.815
 4266SOL    HW113697   1.478   4.377   1.762
 4266SOL    HW213698   1.330   4.444   1.753
 4267SOL     OW13699   1.375   3.546   4.426
 4267SOL    HW113700   1.373   3.479   4.352
 4267SOL    HW213701   1.354   3.636   4.389
 4268SOL     OW13702   1.331   4.464   6.050
 4268SOL    HW113703   1.355   4.559   6.073
 4268SOL    HW213704   1.411   4.418   6.011
 4269SOL     OW13705   2.695   1.518   3.887
 4269SOL    HW113706   2.680   1.460   3.967
 4269SOL    HW213707   2.609   1.561   3.860
 4270SOL     OW13708   4.202   3.963   1.036
 4270SOL    HW113709   4.189   3.922   0.946
 4270SOL    HW213710   4.229   3.892   1.101
 4271SOL     OW13711   6.344   0.561   0.542
 4271SOL    HW113712   6.437   0.598   0.549
 4271SOL    HW213713   6.346   0.462   0.559
 4272SOL     OW13714   6.615   1.804   5.425
 4272SOL    HW113715   6.550   1.738   5.386
 4272SOL    HW213716   6.575   1.896   5.420
 4273SOL     OW13717   3.711   5.443   3.500
 4273SOL    HW113718   3.785   5.509   3.495
 4273SOL    HW213719   3.747   5.350   3.487
 4274SOL     OW13720   6.971   0.537   1.208
 4274SOL    HW113721   6.889   0.480   1.204
 4274SOL    HW213722   6.948   0.631   1.182
 4275SOL     OW13723   6.609   1.755   3.934
 4275SOL    HW113724   6.596   1.699   4.016
 4275SOL    HW213725   6.698   1.800   3.938
 4276SOL     OW13726   1.603   6.972   2.945
 4276SOL    HW113727   1.648   0.029   2.986
 4276SOL    HW213728   1.668   6.896   2.940
 4277SOL     OW13729   6.121   5.708   2.906
 4277SOL    HW113730   6.033   5.728   2.863
 4277SOL    HW213731   6.185   5.672   2.837
 4278SOL     OW13732   0.352   6.999   0.952
 4278SOL    HW113733   0.350   6.952   0.864
 4278SOL    HW213734   0.424   0.046   0.951
 4279SOL     OW13735   1.077   3.408   3.112
 4279SOL    HW113736   1.172   3.377   3.100
 4279SOL    HW213737   1.021   3.372   3.038
 4280SOL     OW13738   2.966   6.588   6.473
 4280SOL    HW113739   2.883   6.588   6.530
 4280SOL    HW213740   3.036   6.533   6.518
 4281SOL     OW13741   0.056   6.432   2.330
 4281SOL    HW113742   0.117   6.396   2.401
 4281SOL    HW213743   0.097   6.415   2.240
 4282SOL     OW13744   5.240   4.777   1.672
 4282SOL    HW113745   5.313   4.844   1.663
 4282SOL    HW213746   5.160   4.807   1.619
 4283SOL     OW13747   6.047   1.125   5.128
 4283SOL    HW113748   6.036   1.034   5.168
 4283SOL    HW213749   6.007   1.127   5.037
 4284SOL     OW13750   4.777   6.138   6.875
 4284SOL    HW113751   4.734   6.109   6.961
 4284SOL    HW213752   4.840   6.067   6.844
 4285SOL     OW13753   2.878   1.592   6.174
 4285SOL    HW113754   2.847   1.666   6.234
 4285SOL    HW213755   2.903   1.512   6.229
 4286SOL     OW13756   5.168   6.306   6.799
 4286SOL    HW113757   5.218   6.386   6.768
 4286SOL    HW213758   5.072   6.330   6.813
 4287SOL     OW13759   4.095   0.656   1.233
 4287SOL    HW113760   4.002   0.617   1.230
 4287SOL    HW213761   4.091   0.754   1.218
 4288SOL     OW13762   0.299   6.424   2.050
 4288SOL    HW113763   0.281   6.517   2.018
 4288SOL    HW213764   0.386   6.421   2.099
 4289SOL     OW13765   0.214   4.344   6.112
 4289SOL    HW113766   0.164   4.313   6.193
 4289SOL    HW213767   0.298   4.292   6.103
 4290SOL     OW13768   7.007   1.427   2.978
 4290SOL    HW113769   7.012   1.507   2.919
 4290SOL    HW213770   6.925   1.373   2.954
 4291SOL     OW13771   4.195   4.837   6.421
 4291SOL    HW113772   4.223   4.926   6.384
 4291SOL    HW213773   4.268   4.800   6.477
 4292SOL     OW13774   6.838   0.360   0.792
 4292SOL    HW113775   6.915   0.348   0.729
 4292SOL    HW213776   6.782   0.437   0.762
 4293SOL     OW13777   3.709   3.287   6.238
 4293SOL    HW113778   3.612   3.309   6.228
 4293SOL    HW213779   3.764   3.346   6.179
 4294SOL     OW13780   3.263   1.720   0.370
 4294SOL    HW113781   3.271   1.620   0.375
 4294SOL    HW213782   3.230   1.747   0.280
 4295SOL     OW13783   4.266   6.717   2.443
 4295SOL    HW113784   4.309   6.654   2.508
 4295SOL    HW213785   4.208   6.781   2.493
 4296SOL     OW13786   1.995   5.481   2.315
 4296SOL    HW113787   1.995   5.461   2.413
 4296SOL    HW213788   1.993   5.395   2.263
 4297SOL     OW13789   5.070   4.792   0.181
 4297SOL    HW113790   5.072   4.862   0.110
 4297SOL    HW213791   5.130   4.716   0.155
 4298SOL     OW13792   1.700   6.719   0.733
 4298SOL    HW113793   1.744   6.656   0.798
 4298SOL    HW213794   1.697   6.811   0.772
 4299SOL     OW13795   0.125   3.073   5.833
 4299SOL    HW113796   0.201   3.010   5.846
 4299SOL    HW213797   0.157   3.167   5.845
 4300SOL     OW13798   3.607   0.677   1.709
 4300SOL    HW113799   3.615   0.691   1.610
 4300SOL    HW213800   3.620   0.580   1.730
 4301SOL     OW13801   1.709   6.348   5.023
 4301SOL    HW113802   1.729   6.250   5.029
 4301SOL    HW213803   1.621   6.362   4.978
 4302SOL     OW13804   4.101   4.841   0.273
 4302SOL    HW113805   4.105   4.755   0.221
 4302SOL    HW213806   4.192   4.862   0.308
 4303SOL     OW13807   4.204   5.140   3.078
 4303SOL    HW113808   4.272   5.210   3.099
 4303SOL    HW213809   4.165   5.105   3.163
 4304SOL     OW13810   3.010   4.299   1.732
 4304SOL    HW113811   2.987   4.367   1.801
 4304SOL    HW213812   3.103   4.316   1.697
 4305SOL     OW13813   1.113   6.310   6.190
 4305SOL    HW113814   1.179   6.377   6.157
 4305SOL    HW213815   1.025   6.356   6.206
 4306SOL     OW13816   5.685   3.767   5.267
 4306SOL    HW113817   5.616   3.733   5.331
 4306SOL    HW213818   5.681   3.867   5.264
 4307SOL     OW13819   6.870   1.548   5.303
 4307SOL    HW113820   6.843   1.484   5.375
 4307SOL    HW213821   6.943   1.607   5.338
 4308SOL     OW13822   4.396   5.924   5.598
 4308SOL    HW113823   4.495   5.935   5.588
 4308SOL    HW213824   4.376   5.857   5.669
 4309SOL     OW13825   3.126   1.760   1.067
 4309SOL    HW113826   3.214   1.730   1.103
 4309SOL    HW213827   3.130   1.858   1.046
 4310SOL     OW13828   6.942   1.763   3.876
 4310SOL    HW113829   6.901   1.758   3.785
 4310SOL    HW213830   7.005   1.841   3.880
 4311SOL     OW13831   0.565   6.614   1.122
 4311SOL    HW113832   0.559   6.520   1.089
 4311SOL    HW213833   0.554   6.677   1.045
 4312SOL     OW13834   0.323   3.839   2.719
 4312SOL    HW113835   0.308   3.928   2.675
 4312SOL    HW213836   0.275   3.768   2.667
 4313SOL     OW13837   0.867   3.240   0.725
 4313SOL    HW113838   0.797   3.219   0.794
 4313SOL    HW213839   0.871   3.338   0.711
 4314SOL     OW13840   2.168   1.424   5.859
 4314SOL    HW113841   2.248   1.467   5.900
 4314SOL    HW213842   2.085   1.463   5.900
 4315SOL     OW13843   2.513   2.382   5.610
 4315SOL    HW113844   2.445   2.343   5.548
 4315SOL    HW213845   2.599   2.332   5.602
 4316SOL     OW13846   4.664   4.693   1.290
 4316SOL    HW113847   4.625   4.613   1.336
 4316SOL    HW213848   4.605   4.719   1.214
 4317SOL     OW13849   5.132   0.701   4.796
 4317SOL    HW113850   5.068   0.657   4.860
 4317SOL    HW213851   5.081   0.751   4.726
 4318SOL     OW13852   1.609   6.140   3.934
 4318SOL    HW113853   1.558   6.067   3.979
 4318SOL    HW213854   1.693   6.160   3.985
 4319SOL     OW13855   2.059   4.540   1.678
 4319SOL    HW113856   2.064   4.472   1.751
 4319SOL    HW213857   2.079   4.497   1.591
 4320SOL     OW13858   3.852   1.111   1.695
 4320SOL    HW113859   3.763   1.139   1.733
 4320SOL    HW213860   3.876   1.171   1.619
 4321SOL     OW13861   6.450   5.643   3.083
 4321SOL    HW113862   6.442   5.725   3.140
 4321SOL    HW213863   6.452   5.562   3.140
 4322SOL     OW13864   2.701   2.139   4.629
 4322SOL    HW113865   2.662   2.070   4.569
 4322SOL    HW213866   2.774   2.188   4.582
 4323SOL     OW13867   5.447   4.090   1.548
 4323SOL    HW113868   5.348   4.079   1.557
 4323SOL    HW213869   5.467   4.172   1.495
 4324SOL     OW13870   6.667   3.812   5.316
 4324SOL    HW113871   6.667   3.722   5.358
 4324SOL    HW213872   6.573   3.843   5.303
 4325SOL     OW13873   1.620   0.534   1.220
 4325SOL    HW113874   1.717   0.555   1.213
 4325SOL    HW213875   1.568   0.619   1.231
 4326SOL     OW13876   4.746   2.875   2.933
 4326SOL    HW113877   4.819   2.811   2.955
 4326SOL    HW213878   4.767   2.920   2.846
 4327SOL     OW13879   3.308   6.763   3.831
 4327SOL    HW113880   3.338   6.707   3.909
 4327SOL    HW213881   3.307   6.707   3.749
 4328SOL     OW13882   6.428   0.151   2.268
 4328SOL    HW113883   6.416   0.217   2.194
 4328SOL    HW213884   6.520   0.113   2.264
 4329SOL     OW13885   6.107   4.111   0.308
 4329SOL    HW113886   6.019   4.078   0.273
 4329SOL    HW213887   6.120   4.206   0.280
 4330SOL     OW13888   2.551   5.452   5.358
 4330SOL    HW113889   2.459   5.475   5.390
 4330SOL    HW213890   2.571   5.505   5.276
 4331SOL     OW13891   5.920   1.684   2.942
 4331SOL    HW113892   5.830   1.703   2.903
 4331SOL    HW213893   5.913   1.607   3.006
 4332SOL     OW13894   6.996   5.524   1.138
 4332SOL    HW113895   6.930   5.453   1.111
 4332SOL    HW213896   6.947   5.601   1.179
 4333SOL     OW13897   3.638   2.819   6.247
 4333SOL    HW113898   3.735   2.823   6.269
 4333SOL    HW213899   3.627   2.810   6.148
 4334SOL     OW13900   0.531   2.554   3.797
 4334SOL    HW113901   0.625   2.521   3.789
 4334SOL    HW213902   0.476   2.515   3.723
 4335SOL     OW13903   2.143   3.808   1.746
 4335SOL    HW113904   2.182   3.716   1.745
 4335SOL    HW213905   2.212   3.873   1.777
 4336SOL     OW13906   2.301   5.146   5.408
 4336SOL    HW113907   2.382   5.103   5.369
 4336SOL    HW213908   2.277   5.101   5.493
 4337SOL     OW13909   6.906   4.540   4.276
 4337SOL    HW113910   6.901   4.634   4.309
 4337SOL    HW213911   6.838   4.525   4.204
 4338SOL     OW13912   3.385   2.906   5.318
 4338SOL    HW113913   3.444   2.929   5.241
 4338SOL    HW213914   3.296   2.950   5.307
 4339SOL     OW13915   4.518   4.215   5.427
 4339SOL    HW113916   4.561   4.191   5.514
 4339SOL    HW213917   4.471   4.302   5.436
 4340SOL     OW13918   0.136   3.859   0.210
 4340SOL    HW113919   0.088   3.825   0.129
 4340SOL    HW213920   0.070   3.882   0.281
 4341SOL     OW13921   6.092   5.891   0.980
 4341SOL    HW113922   6.048   5.831   1.048
 4341SOL    HW213923   6.181   5.852   0.956
 4342SOL     OW13924   5.095   3.688   2.413
 4342SOL    HW113925   5.058   3.767   2.462
 4342SOL    HW213926   5.046   3.605   2.440
 4343SOL     OW13927   4.592   0.566   6.615
 4343SOL    HW113928   4.522   0.496   6.632
 4343SOL    HW213929   4.560   0.629   6.544
 4344SOL     OW13930   1.365   3.944   1.956
 4344SOL    HW113931   1.360   3.857   2.005
 4344SOL    HW213932   1.313   4.014   2.006
 4345SOL     OW13933   3.856   2.983   2.972
 4345SOL    HW113934   3.834   3.081   2.966
 4345SOL    HW213935   3.903   2.954   2.888
 4346SOL     OW13936   1.076   3.851   2.697
 4346SOL    HW113937   1.116   3.762   2.719
 4346SOL    HW213938   1.120   3.888   2.615
 4347SOL     OW13939   6.297   5.728   0.859
 4347SOL    HW113940   6.337   5.805   0.810
 4347SOL    HW213941   6.281   5.653   0.795
 4348SOL     OW13942   6.387   4.050   5.872
 4348SOL    HW113943   6.483   4.069   5.890
 4348SOL    HW213944   6.350   3.991   5.944
 4349SOL     OW13945   1.036   4.203   4.256
 4349SOL    HW113946   0.961   4.140   4.274
 4349SOL    HW213947   1.123   4.152   4.257
 4350SOL     OW13948   5.204   0.192   3.976
 4350SOL    HW113949   5.254   0.270   4.014
 4350SOL    HW213950   5.252   0.157   3.896
 4351SOL     OW13951   0.623   5.755   1.088
 4351SOL    HW113952   0.556   5.704   1.034
 4351SOL    HW213953   0.668   5.822   1.029
 4352SOL     OW13954   3.432   4.288   1.496
 4352SOL    HW113955   3.415   4.202   1.544
 4352SOL    HW213956   3.498   4.343   1.547
 4353SOL     OW13957   2.114   3.861   0.024
 4353SOL    HW113958   2.154   3.853   0.115
 4353SOL    HW213959   2.170   3.923   6.991
 4354SOL     OW13960   5.171   5.481   2.049
 4354SOL    HW113961   5.241   5.433   2.100
 4354SOL    HW213962   5.080   5.449   2.078
 4355SOL     OW13963   1.909   4.946   3.453
 4355SOL    HW113964   1.916   4.856   3.495
 4355SOL    HW213965   1.984   4.958   3.388
 4356SOL     OW13966   6.045   1.824   5.667
 4356SOL    HW113967   6.076   1.910   5.707
 4356SOL    HW213968   6.048   1.832   5.567
 4357SOL     OW13969   5.220   5.895   2.975
 4357SOL    HW113970   5.296   5.906   2.911
 4357SOL    HW213971   5.248   5.926   3.066
 4358SOL     OW13972   2.708   0.696   1.262
 4358SOL    HW113973   2.649   0.689   1.181
 4358SOL    HW213974   2.664   0.649   1.339
 4359SOL     OW13975   2.498   2.372   1.146
 4359SOL    HW113976   2.546   2.408   1.067
 4359SOL    HW213977   2.543   2.288   1.177
 4360SOL     OW13978   3.226   6.075   3.812
 4360SOL    HW113979   3.297   6.024   3.763
 4360SOL    HW213980   3.264   6.162   3.844
 4361SOL     OW13981   1.520   1.254   6.852
 4361SOL    HW113982   1.465   1.332   6.824
 4361SOL    HW213983   1.500   1.175   6.795
 4362SOL     OW13984   0.075   5.803   2.684
 4362SOL    HW113985   0.008   5.734   2.658
 4362SOL    HW213986   0.166   5.773   2.657
 4363SOL     OW13987   3.791   0.448   2.146
 4363SOL    HW113988   3.813   0.355   2.175
 4363SOL    HW213989   3.852   0.513   2.191
 4364SOL     OW13990   3.294   3.846   3.453
 4364SOL    HW113991   3.327   3.919   3.394
 4364SOL    HW213992   3.357   3.834   3.530
 4365SOL     OW13993   2.703   1.433   1.089
 4365SOL    HW113994   2.799   1.420   1.116
 4365SOL    HW213995   2.698   1.503   1.018
 4366SOL     OW13996   4.776   5.707   4.880
 4366SOL    HW113997   4.863   5.698   4.832
 4366SOL    HW213998   4.765   5.801   4.913
 4367SOL     OW13999   2.288   6.692   1.701
 4367SOL    HW114000   2.232   6.620   1.740
 4367SOL    HW214001   2.378   6.656   1.677
 4368SOL     OW14002   4.737   4.302   4.478
 4368SOL    HW114003   4.784   4.216   4.458
 4368SOL    HW214004   4.718   4.308   4.576
 4369SOL     OW14005   5.944   4.638   3.592
 4369SOL    HW114006   6.015   4.571   3.568
 4369SOL    HW214007   5.855   4.604   3.562
 4370SOL     OW14008   4.505   4.799   0.685
 4370SOL    HW114009   4.584   4.818   0.743
 4370SOL    HW214010   4.498   4.700   0.669
 4371SOL     OW14011   3.748   1.253   3.351
 4371SOL    HW114012   3.689   1.333   3.363
 4371SOL    HW214013   3.701   1.172   3.385
 4372SOL     OW14014   1.659   4.713   4.831
 4372SOL    HW114015   1.708   4.704   4.744
 4372SOL    HW214016   1.571   4.759   4.815
 4373SOL     OW14017   4.485   0.445   0.459
 4373SOL    HW114018   4.497   0.544   0.453
 4373SOL    HW214019   4.573   0.400   0.442
 4374SOL     OW14020   2.372   6.005   0.603
 4374SOL    HW114021   2.432   6.080   0.578
 4374SOL    HW214022   2.365   5.999   0.703
 4375SOL     OW14023   4.822   1.344   5.946
 4375SOL    HW114024   4.825   1.376   6.041
 4375SOL    HW214025   4.738   1.378   5.902
 4376SOL     OW14026   3.227   5.324   0.067
 4376SOL    HW114027   3.135   5.300   0.036
 4376SOL    HW214028   3.276   5.241   0.094
 4377SOL     OW14029   5.459   5.919   6.409
 4377SOL    HW114030   5.386   5.968   6.362
 4377SOL    HW214031   5.478   5.964   6.497
 4378SOL     OW14032   3.250   4.955   1.455
 4378SOL    HW114033   3.238   5.032   1.517
 4378SOL    HW214034   3.325   4.975   1.392
 4379SOL     OW14035   6.853   6.198   0.430
 4379SOL    HW114036   6.814   6.290   0.429
 4379SOL    HW214037   6.833   6.153   0.343
 4380SOL     OW14038   2.238   5.412   4.856
 4380SOL    HW114039   2.192   5.487   4.808
 4380SOL    HW214040   2.273   5.446   4.944
 4381SOL     OW14041   3.518   6.055   4.772
 4381SOL    HW114042   3.579   6.125   4.809
 4381SOL    HW214043   3.566   6.001   4.703
 4382SOL     OW14044   5.060   4.270   2.826
 4382SOL    HW114045   5.084   4.341   2.760
 4382SOL    HW214046   4.984   4.300   2.883
 4383SOL     OW14047   1.327   0.567   0.668
 4383SOL    HW114048   1.316   0.640   0.600
 4383SOL    HW214049   1.265   0.491   0.645
 4384SOL     OW14050   3.847   0.005   1.828
 4384SOL    HW114051   3.819   0.053   1.745
 4384SOL    HW214052   3.780   0.022   1.900
 4385SOL     OW14053   6.450   2.523   3.917
 4385SOL    HW114054   6.435   2.594   3.848
 4385SOL    HW214055   6.395   2.443   3.893
 4386SOL     OW14056   1.954   5.007   6.577
 4386SOL    HW114057   1.886   5.041   6.512
 4386SOL    HW214058   2.040   5.059   6.566
 4387SOL     OW14059   6.043   1.917   1.129
 4387SOL    HW114060   6.108   1.978   1.175
 4387SOL    HW214061   6.062   1.822   1.155
 4388SOL     OW14062   4.073   1.069   6.156
 4388SOL    HW114063   4.018   1.062   6.073
 4388SOL    HW214064   4.130   1.152   6.152
 4389SOL     OW14065   0.041   2.661   2.999
 4389SOL    HW114066   6.995   2.732   2.987
 4389SOL    HW214067   0.126   2.702   3.033
 4390SOL     OW14068   4.149   3.520   1.105
 4390SOL    HW114069   4.148   3.421   1.122
 4390SOL    HW214070   4.163   3.568   1.191
 4391SOL     OW14071   0.849   5.946   0.426
 4391SOL    HW114072   0.822   5.924   0.520
 4391SOL    HW214073   0.867   5.861   0.377
 4392SOL     OW14074   5.338   5.116   5.183
 4392SOL    HW114075   5.273   5.040   5.174
 4392SOL    HW214076   5.431   5.080   5.188
 4393SOL     OW14077   5.252   6.717   2.903
 4393SOL    HW114078   5.314   6.654   2.856
 4393SOL    HW214079   5.301   6.764   2.976
 4394SOL     OW14080   4.570   0.309   2.025
 4394SOL    HW114081   4.538   0.351   2.110
 4394SOL    HW214082   4.527   0.220   2.013
 4395SOL     OW14083   4.559   2.162   1.077
 4395SOL    HW114084   4.524   2.254   1.097
 4395SOL    HW214085   4.642   2.170   1.021
 4396SOL     OW14086   1.142   1.320   2.922
 4396SOL    HW114087   1.086   1.298   3.003
 4396SOL    HW214088   1.125   1.253   2.851
 4397SOL     OW14089   4.663   0.670   6.920
 4397SOL    HW114090   4.586   0.670   6.984
 4397SOL    HW214091   4.691   0.575   6.902
 4398SOL     OW14092   0.383   5.176   4.629
 4398SOL    HW114093   0.378   5.258   4.572
 4398SOL    HW214094   0.368   5.202   4.725
 4399SOL     OW14095   2.863   0.556   2.020
 4399SOL    HW114096   2.795   0.601   1.962
 4399SOL    HW214097   2.928   0.507   1.962
 4400SOL     OW14098   3.224   4.891   2.651
 4400SOL    HW114099   3.286   4.843   2.714
 4400SOL    HW214100   3.131   4.854   2.663
 4401SOL     OW14101   5.550   6.161   4.654
 4401SOL    HW114102   5.526   6.251   4.690
 4401SOL    HW214103   5.633   6.128   4.698
 4402SOL     OW14104   6.293   6.517   1.430
 4402SOL    HW114105   6.220   6.493   1.494
 4402SOL    HW214106   6.318   6.437   1.375
 4403SOL     OW14107   6.480   1.158   2.783
 4403SOL    HW114108   6.427   1.076   2.808
 4403SOL    HW214109   6.420   1.238   2.784
 4404SOL     OW14110   2.113   4.103   2.425
 4404SOL    HW114111   2.023   4.141   2.403
 4404SOL    HW214112   2.115   4.006   2.401
 4405SOL     OW14113   2.524   3.756   6.298
 4405SOL    HW114114   2.460   3.806   6.240
 4405SOL    HW214115   2.551   3.671   6.253
 4406SOL     OW14116   6.381   2.624   2.072
 4406SOL    HW114117   6.435   2.635   2.155
 4406SOL    HW214118   6.440   2.633   1.992
 4407SOL     OW14119   1.106   0.894   0.124
 4407SOL    HW114120   1.067   0.952   0.052
 4407SOL    HW214121   1.132   0.806   0.086
 4408SOL     OW14122   3.897   6.366   1.230
 4408SOL    HW114123   3.917   6.435   1.300
 4408SOL    HW214124   3.954   6.286   1.245
 4409SOL     OW14125   3.401   2.123   2.570
 4409SOL    HW114126   3.447   2.157   2.488
 4409SOL    HW214127   3.313   2.084   2.544
 4410SOL     OW14128   2.012   5.709   1.273
 4410SOL    HW114129   2.085   5.676   1.332
 4410SOL    HW214130   1.934   5.737   1.330
 4411SOL     OW14131   3.959   3.370   2.521
 4411SOL    HW114132   3.885   3.415   2.472
 4411SOL    HW214133   3.931   3.351   2.615
 4412SOL     OW14134   4.070   1.340   6.369
 4412SOL    HW114135   4.072   1.426   6.319
 4412SOL    HW214136   4.161   1.299   6.368
 4413SOL     OW14137   4.068   5.532   3.951
 4413SOL    HW114138   4.081   5.450   3.896
 4413SOL    HW214139   4.079   5.613   3.893
 4414SOL     OW14140   3.319   4.923   2.104
 4414SOL    HW114141   3.355   5.015   2.119
 4414SOL    HW214142   3.387   4.867   2.056
 4415SOL     OW14143   4.774   1.667   1.790
 4415SOL    HW114144   4.735   1.751   1.826
 4415SOL    HW214145   4.701   1.601   1.772
 4416SOL     OW14146   2.592   2.016   4.386
 4416SOL    HW114147   2.506   2.052   4.422
 4416SOL    HW214148   2.614   2.063   4.300
 4417SOL     OW14149   6.102   6.944   1.025
 4417SOL    HW114150   6.082   0.008   1.069
 4417SOL    HW214151   6.019   6.910   0.980
 4418SOL     OW14152   5.062   0.593   3.291
 4418SOL    HW114153   5.098   0.525   3.227
 4418SOL    HW214154   4.972   0.564   3.323
 4419SOL     OW14155   6.091   5.569   6.323
 4419SOL    HW114156   6.055   5.558   6.230
 4419SOL    HW214157   6.054   5.652   6.363
 4420SOL     OW14158   5.186   1.010   0.850
 4420SOL    HW114159   5.251   1.078   0.815
 4420SOL    HW214160   5.193   0.926   0.795
 4421SOL     OW14161   0.149   1.356   3.195
 4421SOL    HW114162   0.123   1.265   3.228
 4421SOL    HW214163   0.085   1.385   3.124
 4422SOL     OW14164   1.702   3.952   5.775
 4422SOL    HW114165   1.691   4.029   5.712
 4422SOL    HW214166   1.786   3.903   5.753
 4423SOL     OW14167   0.008   1.768   5.970
 4423SOL    HW114168   0.105   1.747   5.975
 4423SOL    HW214169   7.013   1.828   5.892
 4424SOL     OW14170   1.827   5.337   3.536
 4424SOL    HW114171   1.876   5.335   3.622
 4424SOL    HW214172   1.786   5.247   3.518
 4425SOL     OW14173   4.736   3.703   1.658
 4425SOL    HW114174   4.783   3.763   1.593
 4425SOL    HW214175   4.795   3.688   1.738
 4426SOL     OW14176   0.470   6.914   6.674
 4426SOL    HW114177   0.564   6.944   6.686
 4426SOL    HW214178   0.458   6.823   6.715
 4427SOL     OW14179   1.024   5.472   3.365
 4427SOL    HW114180   0.938   5.479   3.416
 4427SOL    HW214181   1.022   5.391   3.308
 4428SOL     OW14182   1.194   6.717   2.690
 4428SOL    HW114183   1.116   6.729   2.751
 4428SOL    HW214184   1.267   6.670   2.739
 4429SOL     OW14185   2.923   0.575   2.820
 4429SOL    HW114186   2.950   0.480   2.807
 4429SOL    HW214187   2.877   0.585   2.909
 4430SOL     OW14188   2.027   0.795   1.932
 4430SOL    HW114189   1.982   0.795   2.021
 4430SOL    HW214190   2.085   0.714   1.924
 4431SOL     OW14191   1.917   2.266   3.374
 4431SOL    HW114192   1.943   2.242   3.281
 4431SOL    HW214193   1.817   2.263   3.383
 4432SOL     OW14194   2.863   3.565   4.514
 4432SOL    HW114195   2.768   3.593   4.521
 4432SOL    HW214196   2.898   3.589   4.423
 4433SOL     OW14197   6.752   0.390   2.539
 4433SOL    HW114198   6.789   0.358   2.626
 4433SOL    HW214199   6.719   0.484   2.549
 4434SOL     OW14200   5.948   2.101   5.335
 4434SOL    HW114201   5.946   2.160   5.415
 4434SOL    HW214202   5.858   2.100   5.292
 4435SOL     OW14203   3.537   3.042   1.935
 4435SOL    HW114204   3.594   3.125   1.932
 4435SOL    HW214205   3.440   3.068   1.934
 4436SOL     OW14206   5.731   0.326   0.001
 4436SOL    HW114207   5.824   0.337   6.991
 4436SOL    HW214208   5.667   0.343   6.949
 4437SOL     OW14209   3.171   0.224   6.024
 4437SOL    HW114210   3.084   0.273   6.015
 4437SOL    HW214211   3.222   0.231   5.938
 4438SOL     OW14212   3.799   2.369   6.771
 4438SOL    HW114213   3.749   2.389   6.687
 4438SOL    HW214214   3.835   2.453   6.810
 4439SOL     OW14215   1.594   4.411   2.929
 4439SOL    HW114216   1.641   4.416   2.841
 4439SOL    HW214217   1.499   4.383   2.914
 4440SOL     OW14218   6.332   1.131   0.601
 4440SOL    HW114219   6.290   1.040   0.605
 4440SOL    HW214220   6.260   1.200   0.595
 4441SOL     OW14221   6.864   7.002   3.957
 4441SOL    HW114222   6.861   0.042   4.035
 4441SOL    HW214223   6.929   0.014   3.889
 4442SOL     OW14224   1.603   5.652   2.230
 4442SOL    HW114225   1.572   5.747   2.239
 4442SOL    HW214226   1.631   5.617   2.320
 4443SOL     OW14227   2.528   1.273   0.961
 4443SOL    HW114228   2.587   1.342   1.003
 4443SOL    HW214229   2.553   1.183   0.996
 4444SOL     OW14230   4.971   1.542   3.088
 4444SOL    HW114231   5.055   1.551   3.035
 4444SOL    HW214232   4.893   1.538   3.025
 4445SOL     OW14233   0.724   1.152   6.227
 4445SOL    HW114234   0.817   1.114   6.229
 4445SOL    HW214235   0.709   1.202   6.142
 4446SOL     OW14236   6.086   5.199   4.024
 4446SOL    HW114237   5.996   5.237   4.044
 4446SOL    HW214238   6.157   5.264   4.051
 4447SOL     OW14239   4.901   3.795   5.182
 4447SOL    HW114240   4.869   3.716   5.129
 4447SOL    HW214241   4.824   3.835   5.231
 4448SOL     OW14242   2.519   3.449   6.815
 4448SOL    HW114243   2.503   3.452   6.716
 4448SOL    HW214244   2.526   3.354   6.845
 4449SOL     OW14245   0.216   0.989   5.666
 4449SOL    HW114246   0.224   1.088   5.676
 4449SOL    HW214247   0.231   0.964   5.570
 4450SOL     OW14248   3.707   3.649   3.179
 4450SOL    HW114249   3.770   3.641   3.102
 4450SOL    HW214250   3.748   3.606   3.260
 4451SOL     OW14251   0.273   4.511   0.796
 4451SOL    HW114252   0.354   4.570   0.796
 4451SOL    HW214253   0.290   4.431   0.738
 4452SOL     OW14254   6.911   3.388   6.493
 4452SOL    HW114255   6.842   3.459   6.503
 4452SOL    HW214256   6.929   3.371   6.396
 4453SOL     OW14257   5.519   0.702   0.456
 4453SOL    HW114258   5.510   0.791   0.501
 4453SOL    HW214259   5.464   0.634   0.505
 4454SOL     OW14260   5.489   2.741   1.644
 4454SOL    HW114261   5.474   2.715   1.549
 4454SOL    HW214262   5.498   2.840   1.651
 4455SOL     OW14263   4.277   2.259   2.861
 4455SOL    HW114264   4.195   2.215   2.897
 4455SOL    HW214265   4.290   2.232   2.766
 4456SOL     OW14266   0.444   5.790   2.172
 4456SOL    HW114267   0.349   5.762   2.186
 4456SOL    HW214268   0.446   5.875   2.120
 4457SOL     OW14269   4.091   2.461   6.471
 4457SOL    HW114270   3.995   2.482   6.488
 4457SOL    HW214271   4.098   2.392   6.398
 4458SOL     OW14272   4.175   1.751   1.406
 4458SOL    HW114273   4.233   1.801   1.341
 4458SOL    HW214274   4.233   1.700   1.470
 4459SOL     OW14275   5.834   6.101   5.570
 4459SOL    HW114276   5.836   6.144   5.660
 4459SOL    HW214277   5.926   6.103   5.530
 4460SOL     OW14278   1.374   1.632   0.333
 4460SOL    HW114279   1.387   1.533   0.330
 4460SOL    HW214280   1.276   1.651   0.343
 4461SOL     OW14281   1.868   6.783   2.849
 4461SOL    HW114282   1.836   6.707   2.793
 4461SOL    HW214283   1.891   6.861   2.791
 4462SOL     OW14284   6.964   4.010   0.416
 4462SOL    HW114285   7.009   3.932   0.460
 4462SOL    HW214286   6.965   4.088   0.478
 4463SOL     OW14287   0.939   4.289   6.850
 4463SOL    HW114288   1.029   4.334   6.854
 4463SOL    HW214289   0.896   4.309   6.763
 4464SOL     OW14290   6.789   2.592   6.809
 4464SOL    HW114291   6.788   2.570   6.711
 4464SOL    HW214292   6.732   2.525   6.858
 4465SOL     OW14293   5.995   5.178   0.965
 4465SOL    HW114294   5.977   5.080   0.956
 4465SOL    HW214295   6.031   5.197   1.057
 4466SOL     OW14296   0.086   3.058   3.244
 4466SOL    HW114297   0.114   3.063   3.148
 4466SOL    HW214298   0.152   3.108   3.300
 4467SOL     OW14299   1.276   0.596   4.036
 4467SOL    HW114300   1.326   0.509   4.025
 4467SOL    HW214301   1.206   0.603   3.965
 4468SOL     OW14302   1.427   1.942   0.724
 4468SOL    HW114303   1.412   2.041   0.722
 4468SOL    HW214304   1.523   1.922   0.741
 4469SOL     OW14305   4.963   6.592   0.670
 4469SOL    HW114306   5.041   6.655   0.667
 4469SOL    HW214307   4.946   6.565   0.765
 4470SOL     OW14308   4.720   4.821   1.746
 4470SOL    HW114309   4.663   4.749   1.706
 4470SOL    HW214310   4.811   4.818   1.704
 4471SOL     OW14311   6.069   2.695   1.940
 4471SOL    HW114312   5.993   2.639   1.909
 4471SOL    HW214313   6.139   2.637   1.982
 4472SOL     OW14314   2.298   5.090   1.531
 4472SOL    HW114315   2.330   5.159   1.596
 4472SOL    HW214316   2.377   5.046   1.488
 4473SOL     OW14317   6.102   0.738   0.130
 4473SOL    HW114318   6.159   0.769   0.054
 4473SOL    HW214319   6.115   0.799   0.209
 4474SOL     OW14320   6.330   0.721   4.340
 4474SOL    HW114321   6.253   0.782   4.321
 4474SOL    HW214322   6.408   0.749   4.285
 4475SOL     OW14323   1.569   3.009   0.518
 4475SOL    HW114324   1.599   3.101   0.541
 4475SOL    HW214325   1.469   3.006   0.514
 4476SOL     OW14326   4.240   6.652   2.864
 4476SOL    HW114327   4.289   6.614   2.943
 4476SOL    HW214328   4.175   6.584   2.830
 4477SOL     OW14329   1.830   2.274   1.112
 4477SOL    HW114330   1.904   2.341   1.113
 4477SOL    HW214331   1.836   2.220   1.028
 4478SOL     OW14332   1.408   5.009   1.200
 4478SOL    HW114333   1.386   4.963   1.114
 4478SOL    HW214334   1.439   4.942   1.267
 4479SOL     OW14335   1.807   0.218   6.029
 4479SOL    HW114336   1.751   0.136   6.038
 4479SOL    HW214337   1.858   0.215   5.943
 4480SOL     OW14338   0.053   4.053   3.284
 4480SOL    HW114339   0.109   4.056   3.201
 4480SOL    HW214340   7.014   3.975   3.280
 4481SOL     OW14341   0.492   0.966   4.183
 4481SOL    HW114342   0.587   0.990   4.166
 4481SOL    HW214343   0.452   0.927   4.100
 4482SOL     OW14344   1.179   4.060   2.960
 4482SOL    HW114345   1.200   4.000   2.883
 4482SOL    HW214346   1.103   4.022   3.012
 4483SOL     OW14347   5.420   3.462   0.437
 4483SOL    HW114348   5.395   3.519   0.359
 4483SOL    HW214349   5.515   3.433   0.428
 4484SOL     OW14350   3.310   3.480   6.730
 4484SOL    HW114351   3.228   3.538   6.730
 4484SOL    HW214352   3.284   3.385   6.714
 4485SOL     OW14353   4.828   0.013   6.241
 4485SOL    HW114354   4.791   7.012   6.331
 4485SOL    HW214355   4.779   0.092   6.204
 4486SOL     OW14356   6.306   3.465   4.090
 4486SOL    HW114357   6.342   3.543   4.040
 4486SOL    HW214358   6.273   3.494   4.180
 4487SOL     OW14359   3.021   3.079   5.808
 4487SOL    HW114360   2.982   3.158   5.854
 4487SOL    HW214361   3.096   3.108   5.749
 4488SOL     OW14362   6.824   2.162   6.543
 4488SOL    HW114363   6.792   2.082   6.492
 4488SOL    HW214364   6.924   2.158   6.552
 4489SOL     OW14365   1.085   0.916   2.437
 4489SOL    HW114366   1.044   0.984   2.498
 4489SOL    HW214367   1.084   0.827   2.482
 4490SOL     OW14368   6.629   1.912   4.259
 4490SOL    HW114369   6.706   1.848   4.265
 4490SOL    HW214370   6.655   1.999   4.301
 4491SOL     OW14371   1.851   4.229   2.332
 4491SOL    HW114372   1.867   4.286   2.251
 4491SOL    HW214373   1.761   4.185   2.324
 4492SOL     OW14374   4.947   4.129   6.227
 4492SOL    HW114375   4.911   4.214   6.265
 4492SOL    HW214376   4.926   4.053   6.288
 4493SOL     OW14377   6.123   4.456   3.315
 4493SOL    HW114378   6.088   4.364   3.332
 4493SOL    HW214379   6.217   4.463   3.348
 4494SOL     OW14380   5.927   1.868   2.324
 4494SOL    HW114381   5.995   1.827   2.385
 4494SOL    HW214382   5.886   1.948   2.368
 4495SOL     OW14383   5.257   5.873   1.524
 4495SOL    HW114384   5.221   5.785   1.556
 4495SOL    HW214385   5.263   5.937   1.600
 4496SOL     OW14386   6.326   3.545   5.941
 4496SOL    HW114387   6.271   3.626   5.963
 4496SOL    HW214388   6.339   3.540   5.842
 4497SOL     OW14389   6.713   6.002   0.919
 4497SOL    HW114390   6.701   6.002   0.820
 4497SOL    HW214391   6.654   6.072   0.960
 4498SOL     OW14392   1.061   4.373   6.491
 4498SOL    HW114393   1.152   4.395   6.525
 4498SOL    HW214394   1.062   4.282   6.449
 4499SOL     OW14395   5.352   3.477   6.909
 4499SOL    HW114396   5.260   3.441   6.919
 4499SOL    HW214397   5.359   3.566   6.955
 4500SOL     OW14398   3.974   3.786   2.679
 4500SOL    HW114399   3.972   3.766   2.581
 4500SOL    HW214400   4.006   3.706   2.729
 4501SOL     OW14401   1.291   4.786   5.041
 4501SOL    HW114402   1.203   4.748   5.013
 4501SOL    HW214403   1.361   4.715   5.034
 4502SOL     OW14404   5.645   2.467   0.161
 4502SOL    HW114405   5.649   2.474   0.061
 4502SOL    HW214406   5.734   2.491   0.199
 4503SOL     OW14407   1.380   3.206   2.572
 4503SOL    HW114408   1.402   3.248   2.484
 4503SOL    HW214409   1.357   3.276   2.638
 4504SOL     OW14410   4.520   2.408   4.517
 4504SOL    HW114411   4.445   2.394   4.453
 4504SOL    HW214412   4.483   2.420   4.609
 4505SOL     OW14413   1.980   4.989   0.707
 4505SOL    HW114414   2.059   5.021   0.761
 4505SOL    HW214415   1.898   4.993   0.764
 4506SOL     OW14416   3.698   0.582   5.726
 4506SOL    HW114417   3.668   0.620   5.638
 4506SOL    HW214418   3.662   0.637   5.801
 4507SOL     OW14419   6.210   3.558   2.282
 4507SOL    HW114420   6.199   3.499   2.201
 4507SOL    HW214421   6.120   3.583   2.317
 4508SOL     OW14422   1.954   3.818   0.459
 4508SOL    HW114423   1.894   3.898   0.452
 4508SOL    HW214424   1.937   3.757   0.382
 4509SOL     OW14425   0.406   2.537   2.829
 4509SOL    HW114426   0.410   2.621   2.775
 4509SOL    HW214427   0.450   2.463   2.779
 4510SOL     OW14428   2.927   6.725   6.053
 4510SOL    HW114429   2.853   6.678   6.103
 4510SOL    HW214430   2.989   6.657   6.015
 4511SOL     OW14431   6.772   2.063   0.269
 4511SOL    HW114432   6.736   2.139   0.215
 4511SOL    HW214433   6.724   2.060   0.357
 4512SOL     OW14434   2.518   4.016   6.883
 4512SOL    HW114435   2.613   4.010   6.914
 4512SOL    HW214436   2.509   4.093   6.820
 4513SOL     OW14437   6.052   1.286   3.052
 4513SOL    HW114438   6.041   1.320   2.959
 4513SOL    HW214439   6.136   1.232   3.058
 4514SOL     OW14440   2.705   0.515   5.382
 4514SOL    HW114441   2.678   0.424   5.352
 4514SOL    HW214442   2.805   0.521   5.386
 4515SOL     OW14443   6.859   5.075   0.132
 4515SOL    HW114444   6.848   5.167   0.094
 4515SOL    HW214445   6.956   5.049   0.129
 4516SOL     OW14446   0.688   6.926   3.509
 4516SOL    HW114447   0.766   6.906   3.569
 4516SOL    HW214448   0.717   6.923   3.414
 4517SOL     OW14449   2.737   0.924   6.828
 4517SOL    HW114450   2.763   0.890   6.919
 4517SOL    HW214451   2.755   1.022   6.822
 4518SOL     OW14452   1.622   6.752   3.565
 4518SOL    HW114453   1.550   6.770   3.498
 4518SOL    HW214454   1.594   6.678   3.626
 4519SOL     OW14455   6.654   2.110   4.995
 4519SOL    HW114456   6.723   2.138   4.928
 4519SOL    HW214457   6.564   2.140   4.965
 4520SOL     OW14458   0.032   3.703   2.831
 4520SOL    HW114459   6.995   3.693   2.910
 4520SOL    HW214460   0.076   3.793   2.833
 4521SOL     OW14461   5.420   1.408   6.513
 4521SOL    HW114462   5.477   1.397   6.432
 4521SOL    HW214463   5.371   1.495   6.508
 4522SOL     OW14464   5.677   6.685   3.358
 4522SOL    HW114465   5.629   6.769   3.384
 4522SOL    HW214466   5.626   6.606   3.393
 4523SOL     OW14467   4.856   2.487   5.535
 4523SOL    HW114468   4.843   2.575   5.581
 4523SOL    HW214469   4.777   2.469   5.476
 4524SOL     OW14470   6.039   0.436   4.947
 4524SOL    HW114471   6.052   0.489   5.031
 4524SOL    HW214472   6.118   0.448   4.887
 4525SOL     OW14473   6.596   1.093   4.248
 4525SOL    HW114474   6.563   1.158   4.179
 4525SOL    HW214475   6.656   1.141   4.312
 4526SOL     OW14476   3.029   1.541   1.650
 4526SOL    HW114477   3.095   1.532   1.725
 4526SOL    HW214478   3.071   1.591   1.575
 4527SOL     OW14479   4.449   6.423   4.215
 4527SOL    HW114480   4.425   6.354   4.147
 4527SOL    HW214481   4.367   6.451   4.265
 4528SOL     OW14482   4.637   0.192   6.150
 4528SOL    HW114483   4.561   0.219   6.209
 4528SOL    HW214484   4.619   0.223   6.057
 4529SOL     OW14485   3.387   0.057   3.875
 4529SOL    HW114486   3.340   0.075   3.962
 4529SOL    HW214487   3.364   6.988   3.842
 4530SOL     OW14488   0.221   2.340   4.182
 4530SOL    HW114489   0.191   2.349   4.087
 4530SOL    HW214490   0.217   2.428   4.228
 4531SOL     OW14491   0.823   4.036   4.180
 4531SOL    HW114492   0.829   4.037   4.080
 4531SOL    HW214493   0.727   4.035   4.208
 4532SOL     OW14494   0.558   2.118   0.347
 4532SOL    HW114495   0.564   2.019   0.350
 4532SOL    HW214496   0.600   2.157   0.429
 4533SOL     OW14497   3.471   6.179   2.364
 4533SOL    HW114498   3.404   6.216   2.298
 4533SOL    HW214499   3.489   6.247   2.434
 4534SOL     OW14500   6.739   4.410   5.938
 4534SOL    HW114501   6.828   4.438   5.901
 4534SOL    HW214502   6.753   4.361   6.024
 4535SOL     OW14503   5.169   2.447   3.010
 4535SOL    HW114504   5.194   2.403   2.923
 4535SOL    HW214505   5.096   2.394   3.054
 4536SOL     OW14506   6.963   0.402   3.831
 4536SOL    HW114507   6.906   0.460   3.890
 4536SOL    HW214508   0.011   0.357   3.886
 4537SOL     OW14509   4.756   3.376   6.060
 4537SOL    HW114510   4.808   3.364   5.975
 4537SOL    HW214511   4.761   3.292   6.114
 4538SOL     OW14512   3.464   2.246   1.691
 4538SOL    HW114513   3.461   2.152   1.658
 4538SOL    HW214514   3.530   2.254   1.766
 4539SOL     OW14515   2.286   2.541   1.880
 4539SOL    HW114516   2.334   2.585   1.804
 4539SOL    HW214517   2.307   2.590   1.965
 4540SOL     OW14518   3.703   2.868   5.261
 4540SOL    HW114519   3.656   2.897   5.177
 4540SOL    HW214520   3.665   2.780   5.291
 4541SOL     OW14521   6.129   1.084   1.768
 4541SOL    HW114522   6.145   1.042   1.678
 4541SOL    HW214523   6.191   1.043   1.835
 4542SOL     OW14524   5.249   6.538   3.311
 4542SOL    HW114525   5.254   6.482   3.228
 4542SOL    HW214526   5.173   6.603   3.301
 4543SOL     OW14527   5.942   2.729   2.296
 4543SOL    HW114528   6.014   2.683   2.348
 4543SOL    HW214529   5.968   2.825   2.281
 4544SOL     OW14530   5.377   5.278   6.393
 4544SOL    HW114531   5.443   5.334   6.343
 4544SOL    HW214532   5.426   5.215   6.453
 4545SOL     OW14533   3.828   4.168   6.207
 4545SOL    HW114534   3.833   4.081   6.158
 4545SOL    HW214535   3.771   4.233   6.156
 4546SOL     OW14536   0.393   6.136   6.846
 4546SOL    HW114537   0.464   6.096   6.905
 4546SOL    HW214538   0.345   6.063   6.798
 4547SOL     OW14539   4.752   1.721   2.304
 4547SOL    HW114540   4.734   1.746   2.399
 4547SOL    HW214541   4.666   1.720   2.253
 4548SOL     OW14542   0.850   3.438   4.230
 4548SOL    HW114543   0.932   3.415   4.178
 4548SOL    HW214544   0.832   3.536   4.224
 4549SOL     OW14545   5.685   1.541   2.586
 4549SOL    HW114546   5.690   1.638   2.561
 4549SOL    HW214547   5.613   1.497   2.532
 4550SOL     OW14548   2.495   5.472   4.253
 4550SOL    HW114549   2.460   5.470   4.159
 4550SOL    HW214550   2.424   5.439   4.315
 4551SOL     OW14551   6.757   3.598   0.721
 4551SOL    HW114552   6.719   3.613   0.812
 4551SOL    HW214553   6.833   3.533   0.727
 4552SOL     OW14554   6.837   2.791   4.422
 4552SOL    HW114555   6.924   2.743   4.423
 4552SOL    HW214556   6.779   2.755   4.496
 4553SOL     OW14557   5.195   5.035   6.347
 4553SOL    HW114558   5.253   5.116   6.339
 4553SOL    HW214559   5.250   4.957   6.376
 4554SOL     OW14560   6.735   6.691   3.955
 4554SOL    HW114561   6.789   6.732   3.881
 4554SOL    HW214562   6.638   6.711   3.939
 4555SOL     OW14563   3.731   3.067   0.007
 4555SOL    HW114564   3.691   3.148   6.988
 4555SOL    HW214565   3.672   3.034   0.080
 4556SOL     OW14566   4.765   0.321   5.241
 4556SOL    HW114567   4.788   0.374   5.160
 4556SOL    HW214568   4.666   0.304   5.243
 4557SOL     OW14569   5.663   1.238   4.732
 4557SOL    HW114570   5.711   1.273   4.651
 4557SOL    HW214571   5.698   1.146   4.754
 4558SOL     OW14572   6.846   3.036   6.181
 4558SOL    HW114573   6.844   2.954   6.123
 4558SOL    HW214574   6.931   3.038   6.233
 4559SOL     OW14575   1.269   6.371   1.515
 4559SOL    HW114576   1.194   6.320   1.558
 4559SOL    HW214577   1.273   6.463   1.553
 4560SOL     OW14578   5.752   2.802   2.681
 4560SOL    HW114579   5.765   2.736   2.755
 4560SOL    HW214580   5.755   2.754   2.593
 4561SOL     OW14581   3.537   6.532   6.607
 4561SOL    HW114582   3.462   6.577   6.560
 4561SOL    HW214583   3.545   6.437   6.576
 4562SOL     OW14584   2.410   4.188   5.655
 4562SOL    HW114585   2.431   4.273   5.607
 4562SOL    HW214586   2.312   4.183   5.670
 4563SOL     OW14587   6.025   2.334   6.750
 4563SOL    HW114588   6.109   2.388   6.738
 4563SOL    HW214589   6.008   2.280   6.668
 4564SOL     OW14590   0.928   5.060   6.976
 4564SOL    HW114591   0.841   5.057   0.003
 4564SOL    HW214592   0.995   5.003   0.000
 4565SOL     OW14593   2.605   1.219   3.918
 4565SOL    HW114594   2.692   1.230   3.870
 4565SOL    HW214595   2.566   1.130   3.896
 4566SOL     OW14596   1.734   0.908   1.062
 4566SOL    HW114597   1.736   1.006   1.043
 4566SOL    HW214598   1.777   0.891   1.150
 4567SOL     OW14599   5.581   1.644   0.837
 4567SOL    HW114600   5.516   1.633   0.913
 4567SOL    HW214601   5.664   1.690   0.871
 4568SOL     OW14602   4.381   4.752   3.973
 4568SOL    HW114603   4.295   4.760   4.023
 4568SOL    HW214604   4.445   4.697   4.026
 4569SOL     OW14605   0.784   1.753   3.196
 4569SOL    HW114606   0.760   1.800   3.281
 4569SOL    HW214607   0.881   1.728   3.198
 4570SOL     OW14608   5.594   5.659   4.635
 4570SOL    HW114609   5.596   5.690   4.730
 4570SOL    HW214610   5.571   5.736   4.575
 4571SOL     OW14611   3.854   3.029   4.195
 4571SOL    HW114612   3.825   3.010   4.289
 4571SOL    HW214613   3.784   2.998   4.131
 4572SOL     OW14614   2.237   5.551   1.350
 4572SOL    HW114615   2.281   5.523   1.265
 4572SOL    HW214616   2.229   5.472   1.411
 4573SOL     OW14617   5.434   0.575   1.050
 4573SOL    HW114618   5.460   0.575   1.147
 4573SOL    HW214619   5.414   0.481   1.022
 4574SOL     OW14620   0.123   4.466   1.438
 4574SOL    HW114621   0.217   4.446   1.410
 4574SOL    HW214622   0.069   4.492   1.358
 4575SOL     OW14623   6.587   6.372   1.905
 4575SOL    HW114624   6.576   6.274   1.887
 4575SOL    HW214625   6.507   6.421   1.870
 4576SOL     OW14626   3.136   6.345   3.924
 4576SOL    HW114627   3.140   6.308   3.831
 4576SOL    HW214628   3.066   6.416   3.929
 4577SOL     OW14629   1.881   3.369   3.794
 4577SOL    HW114630   1.870   3.459   3.836
 4577SOL    HW214631   1.831   3.301   3.848
 4578SOL     OW14632   6.815   6.015   4.082
 4578SOL    HW114633   6.839   6.105   4.118
 4578SOL    HW214634   6.877   5.946   4.119
 4579SOL     OW14635   5.175   2.354   3.936
 4579SOL    HW114636   5.186   2.267   3.887
 4579SOL    HW214637   5.210   2.428   3.879
 4580SOL     OW14638   0.623   5.062   6.858
 4580SOL    HW114639   0.639   5.064   6.956
 4580SOL    HW214640   0.547   5.123   6.835
 4581SOL     OW14641   3.219   6.061   5.246
 4581SOL    HW114642   3.126   6.025   5.252
 4581SOL    HW214643   3.255   6.043   5.154
 4582SOL     OW14644   5.036   6.758   3.280
 4582SOL    HW114645   5.025   6.788   3.375
 4582SOL    HW214646   5.061   6.836   3.223
 4583SOL     OW14647   3.810   0.571   5.285
 4583SOL    HW114648   3.888   0.537   5.337
 4583SOL    HW214649   3.749   0.621   5.347
 4584SOL     OW14650   0.166   4.908   5.435
 4584SOL    HW114651   0.189   4.957   5.352
 4584SOL    HW214652   0.212   4.951   5.513
 4585SOL     OW14653   3.198   6.298   2.214
 4585SOL    HW114654   3.103   6.275   2.238
 4585SOL    HW214655   3.244   6.217   2.178
 4586SOL     OW14656   3.040   6.034   1.339
 4586SOL    HW114657   3.052   5.963   1.269
 4586SOL    HW214658   3.055   6.124   1.298
 4587SOL     OW14659   3.204   5.080   1.120
 4587SOL    HW114660   3.170   4.988   1.139
 4587SOL    HW214661   3.143   5.126   1.055
 4588SOL     OW14662   3.077   4.068   5.021
 4588SOL    HW114663   2.999   4.130   5.015
 4588SOL    HW214664   3.158   4.118   5.052
 4589SOL     OW14665   1.424   1.902   2.952
 4589SOL    HW114666   1.329   1.929   2.932
 4589SOL    HW214667   1.445   1.818   2.902
 4590SOL     OW14668   4.081   6.421   3.182
 4590SOL    HW114669   4.040   6.338   3.143
 4590SOL    HW214670   4.087   6.412   3.281
 4591SOL     OW14671   5.821   6.212   4.998
 4591SOL    HW114672   5.739   6.266   5.018
 4591SOL    HW214673   5.868   6.190   5.083
 4592SOL     OW14674   3.663   1.235   5.876
 4592SOL    HW114675   3.660   1.221   5.974
 4592SOL    HW214676   3.589   1.296   5.849
 4593SOL     OW14677   5.050   6.808   1.758
 4593SOL    HW114678   5.084   6.756   1.836
 4593SOL    HW214679   5.030   6.902   1.786
 4594SOL     OW14680   3.641   1.912   2.760
 4594SOL    HW114681   3.681   1.986   2.707
 4594SOL    HW214682   3.551   1.940   2.794
 4595SOL     OW14683   4.648   3.189   5.826
 4595SOL    HW114684   4.672   3.256   5.755
 4595SOL    HW214685   4.551   3.165   5.817
 4596SOL     OW14686   4.910   0.299   2.550
 4596SOL    HW114687   4.879   0.342   2.635
 4596SOL    HW214688   4.835   0.297   2.484
 4597SOL     OW14689   6.397   3.806   5.553
 4597SOL    HW114690   6.479   3.831   5.605
 4597SOL    HW214691   6.398   3.852   5.464
 4598SOL     OW14692   2.735   4.172   0.070
 4598SOL    HW114693   2.750   4.108   7.018
 4598SOL    HW214694   2.821   4.187   0.119
 4599SOL     OW14695   3.172   5.530   0.297
 4599SOL    HW114696   3.265   5.539   0.333
 4599SOL    HW214697   3.154   5.434   0.275
 4600SOL     OW14698   2.992   4.089   0.979
 4600SOL    HW114699   3.059   4.029   0.935
 4600SOL    HW214700   3.005   4.086   1.078
 4601SOL     OW14701   2.010   5.432   4.167
 4601SOL    HW114702   1.918   5.427   4.207
 4601SOL    HW214703   2.041   5.340   4.143
 4602SOL     OW14704   1.726   0.040   1.342
 4602SOL    HW114705   1.661   7.001   1.387
 4602SOL    HW214706   1.689   0.133   1.342
 4603SOL     OW14707   2.900   1.303   1.950
 4603SOL    HW114708   2.900   1.295   1.850
 4603SOL    HW214709   2.913   1.213   1.991
 4604SOL     OW14710   1.155   0.214   2.619
 4604SOL    HW114711   1.232   0.277   2.612
 4604SOL    HW214712   1.143   0.187   2.714
 4605SOL     OW14713   5.289   6.161   5.530
 4605SOL    HW114714   5.362   6.105   5.570
 4605SOL    HW214715   5.223   6.101   5.484
 4606SOL     OW14716   6.440   6.348   4.652
 4606SOL    HW114717   6.357   6.402   4.638
 4606SOL    HW214718   6.416   6.260   4.691
 4607SOL     OW14719   2.750   3.021   1.002
 4607SOL    HW114720   2.682   3.091   1.018
 4607SOL    HW214721   2.806   3.046   0.922
 4608SOL     OW14722   0.821   3.502   5.581
 4608SOL    HW114723   0.758   3.438   5.625
 4608SOL    HW214724   0.902   3.453   5.550
 4609SOL     OW14725   3.186   0.410   1.118
 4609SOL    HW114726   3.265   0.351   1.134
 4609SOL    HW214727   3.135   0.377   1.038
 4610SOL     OW14728   6.761   3.621   6.514
 4610SOL    HW114729   6.803   3.674   6.441
 4610SOL    HW214730   6.669   3.656   6.533
 4611SOL     OW14731   1.790   4.317   6.951
 4611SOL    HW114732   1.740   4.284   0.008
 4611SOL    HW214733   1.815   4.413   6.965
 4612SOL     OW14734   2.095   0.562   6.283
 4612SOL    HW114735   2.067   0.552   6.378
 4612SOL    HW214736   2.020   0.600   6.229
 4613SOL     OW14737   3.326   4.695   1.707
 4613SOL    HW114738   3.399   4.668   1.770
 4613SOL    HW214739   3.329   4.794   1.694
 4614SOL     OW14740   2.217   5.052   6.663
 4614SOL    HW114741   2.270   4.968   6.671
 4614SOL    HW214742   2.265   5.126   6.712
 4615SOL     OW14743   6.630   3.189   6.241
 4615SOL    HW114744   6.581   3.209   6.156
 4615SOL    HW214745   6.705   3.125   6.221
 4616SOL     OW14746   5.855   0.982   6.607
 4616SOL    HW114747   5.817   0.904   6.559
 4616SOL    HW214748   5.891   1.048   6.541
 4617SOL     OW14749   6.622   3.495   1.609
 4617SOL    HW114750   6.561   3.552   1.665
 4617SOL    HW214751   6.567   3.437   1.549
 4618SOL     OW14752   0.493   2.926   6.609
 4618SOL    HW114753   0.494   3.011   6.662
 4618SOL    HW214754   0.587   2.893   6.598
 4619SOL     OW14755   4.460   0.508   3.732
 4619SOL    HW114756   4.408   0.535   3.813
 4619SOL    HW214757   4.434   0.415   3.705
 4620SOL     OW14758   2.534   5.871   0.159
 4620SOL    HW114759   2.605   5.810   0.194
 4620SOL    HW214760   2.558   5.900   0.066
 4621SOL     OW14761   7.007   0.445   6.186
 4621SOL    HW114762   6.912   0.434   6.213
 4621SOL    HW214763   0.003   0.542   6.169
 4622SOL     OW14764   1.757   4.069   0.594
 4622SOL    HW114765   1.794   4.105   0.508
 4622SOL    HW214766   1.823   4.086   0.667
 4623SOL     OW14767   5.549   4.104   2.808
 4623SOL    HW114768   5.631   4.121   2.863
 4623SOL    HW214769   5.575   4.073   2.717
 4624SOL     OW14770   4.705   6.855   6.091
 4624SOL    HW114771   4.766   6.901   6.156
 4624SOL    HW214772   4.705   6.905   6.005
 4625SOL     OW14773   1.284   4.051   6.079
 4625SOL    HW114774   1.330   4.110   6.146
 4625SOL    HW214775   1.351   4.016   6.014
 4626SOL     OW14776   5.432   4.627   2.177
 4626SOL    HW114777   5.356   4.589   2.124
 4626SOL    HW214778   5.493   4.553   2.205
 4627SOL     OW14779   1.446   6.845   5.458
 4627SOL    HW114780   1.486   6.931   5.489
 4627SOL    HW214781   1.516   6.792   5.409
 4628SOL     OW14782   6.550   2.684   1.841
 4628SOL    HW114783   6.584   2.750   1.908
 4628SOL    HW214784   6.503   2.733   1.767
 4629SOL     OW14785   4.358   5.317   4.080
 4629SOL    HW114786   4.362   5.352   4.173
 4629SOL    HW214787   4.289   5.244   4.075
 4630SOL     OW14788   2.287   6.272   2.642
 4630SOL    HW114789   2.222   6.348   2.642
 4630SOL    HW214790   2.256   6.202   2.577
 4631SOL     OW14791   1.797   0.348   3.248
 4631SOL    HW114792   1.829   0.259   3.280
 4631SOL    HW214793   1.875   0.405   3.223
 4632SOL     OW14794   5.521   6.124   3.912
 4632SOL    HW114795   5.588   6.172   3.969
 4632SOL    HW214796   5.433   6.171   3.918
 4633SOL     OW14797   5.118   2.533   5.530
 4633SOL    HW114798   5.156   2.596   5.598
 4633SOL    HW214799   5.025   2.507   5.557
 4634SOL     OW14800   2.876   4.433   0.132
 4634SOL    HW114801   2.804   4.404   0.195
 4634SOL    HW214802   2.941   4.358   0.118
 4635SOL     OW14803   4.861   3.279   1.628
 4635SOL    HW114804   4.792   3.207   1.641
 4635SOL    HW214805   4.942   3.258   1.683
 4636SOL     OW14806   0.466   5.816   1.526
 4636SOL    HW114807   0.521   5.896   1.503
 4636SOL    HW214808   0.523   5.751   1.579
 4637SOL     OW14809   1.502   0.760   4.901
 4637SOL    HW114810   1.523   0.819   4.979
 4637SOL    HW214811   1.440   0.807   4.838
 4638SOL     OW14812   4.231   4.953   5.849
 4638SOL    HW114813   4.233   4.932   5.752
 4638SOL    HW214814   4.307   5.013   5.872
 4639SOL     OW14815   6.730   1.742   5.112
 4639SOL    HW114816   6.726   1.834   5.152
 4639SOL    HW214817   6.758   1.676   5.182
 4640SOL     OW14818   6.128   5.067   2.878
 4640SOL    HW114819   6.210   5.011   2.890
 4640SOL    HW214820   6.073   5.064   2.962
 4641SOL     OW14821   2.555   3.422   5.487
 4641SOL    HW114822   2.463   3.446   5.455
 4641SOL    HW214823   2.620   3.429   5.412
 4642SOL     OW14824   5.754   5.948   3.901
 4642SOL    HW114825   5.801   5.868   3.863
 4642SOL    HW214826   5.664   5.956   3.859
 4643SOL     OW14827   4.213   3.248   1.104
 4643SOL    HW114828   4.287   3.182   1.115
 4643SOL    HW214829   4.151   3.241   1.183
 4644SOL     OW14830   3.669   4.255   5.619
 4644SOL    HW114831   3.674   4.273   5.521
 4644SOL    HW214832   3.590   4.302   5.658
 4645SOL     OW14833   1.696   6.074   5.045
 4645SOL    HW114834   1.692   6.051   4.948
 4645SOL    HW214835   1.791   6.084   5.074
 4646SOL     OW14836   3.417   0.262   1.086
 4646SOL    HW114837   3.453   0.173   1.112
 4646SOL    HW214838   3.436   0.280   0.990
 4647SOL     OW14839   6.700   0.615   5.261
 4647SOL    HW114840   6.625   0.622   5.327
 4647SOL    HW214841   6.715   0.519   5.237
 4648SOL     OW14842   1.975   6.074   3.542
 4648SOL    HW114843   2.072   6.081   3.568
 4648SOL    HW214844   1.955   5.982   3.509
 4649SOL     OW14845   6.008   6.631   5.726
 4649SOL    HW114846   6.105   6.636   5.703
 4649SOL    HW214847   5.953   6.639   5.643
 4650SOL     OW14848   6.766   4.404   1.201
 4650SOL    HW114849   6.715   4.483   1.166
 4650SOL    HW214850   6.756   4.398   1.300
 4651SOL     OW14851   6.132   2.097   1.645
 4651SOL    HW114852   6.088   2.155   1.714
 4651SOL    HW214853   6.229   2.090   1.665
 4652SOL     OW14854   0.363   6.610   5.580
 4652SOL    HW114855   0.375   6.660   5.494
 4652SOL    HW214856   0.450   6.606   5.628
 4653SOL     OW14857   0.434   4.820   6.956
 4653SOL    HW114858   0.477   4.909   6.973
 4653SOL    HW214859   0.477   4.776   6.878
 4654SOL     OW14860   1.289   2.064   6.847
 4654SOL    HW114861   1.200   2.111   6.841
 4654SOL    HW214862   1.307   2.017   6.761
 4655SOL     OW14863   0.226   5.200   3.760
 4655SOL    HW114864   0.291   5.205   3.836
 4655SOL    HW214865   0.273   5.172   3.677
 4656SOL     OW14866   2.420   6.336   3.207
 4656SOL    HW114867   2.340   6.338   3.267
 4656SOL    HW214868   2.407   6.399   3.131
 4657SOL     OW14869   6.083   0.899   5.988
 4657SOL    HW114870   6.102   0.874   5.893
 4657SOL    HW214871   6.044   0.820   6.036
 4658SOL     OW14872   4.855   0.687   4.206
 4658SOL    HW114873   4.933   0.624   4.207
 4658SOL    HW214874   4.785   0.653   4.270
 4659SOL     OW14875   1.814   2.577   4.230
 4659SOL    HW114876   1.912   2.576   4.251
 4659SOL    HW214877   1.780   2.671   4.232
 4660SOL     OW14878   6.445   1.568   5.403
 4660SOL    HW114879   6.347   1.563   5.422
 4660SOL    HW214880   6.460   1.567   5.304
 4661SOL     OW14881   3.407   2.845   3.055
 4661SOL    HW114882   3.492   2.872   3.099
 4661SOL    HW214883   3.341   2.815   3.124
 4662SOL     OW14884   5.995   6.759   3.854
 4662SOL    HW114885   6.054   6.699   3.908
 4662SOL    HW214886   6.014   6.746   3.757
 4663SOL     OW14887   0.267   3.171   2.046
 4663SOL    HW114888   0.328   3.129   2.113
 4663SOL    HW214889   0.230   3.099   1.986
 4664SOL     OW14890   3.170   4.297   0.374
 4664SOL    HW114891   3.158   4.284   0.276
 4664SOL    HW214892   3.185   4.208   0.417
 4665SOL     OW14893   5.643   0.465   6.000
 4665SOL    HW114894   5.672   0.370   5.994
 4665SOL    HW214895   5.718   0.525   5.974
 4666SOL     OW14896   1.587   1.577   0.816
 4666SOL    HW114897   1.662   1.622   0.864
 4666SOL    HW214898   1.512   1.642   0.802
 4667SOL     OW14899   0.548   5.820   3.869
 4667SOL    HW114900   0.492   5.832   3.951
 4667SOL    HW214901   0.618   5.751   3.886
 4668SOL     OW14902   5.450   0.276   5.190
 4668SOL    HW114903   5.418   0.368   5.169
 4668SOL    HW214904   5.372   0.219   5.215
 4669SOL     OW14905   2.133   1.982   2.539
 4669SOL    HW114906   2.113   1.886   2.520
 4669SOL    HW214907   2.226   1.991   2.574
 4670SOL     OW14908   2.344   1.339   3.953
 4670SOL    HW114909   2.336   1.346   4.053
 4670SOL    HW214910   2.438   1.313   3.929
 4671SOL     OW14911   5.825   2.110   2.424
 4671SOL    HW114912   5.849   2.061   2.508
 4671SOL    HW214913   5.824   2.208   2.441
 4672SOL     OW14914   2.744   2.695   5.383
 4672SOL    HW114915   2.720   2.603   5.355
 4672SOL    HW214916   2.825   2.726   5.332
 4673SOL     OW14917   4.742   0.545   2.397
 4673SOL    HW114918   4.677   0.479   2.359
 4673SOL    HW214919   4.826   0.543   2.342
 4674SOL     OW14920   4.864   6.709   5.187
 4674SOL    HW114921   4.900   6.667   5.271
 4674SOL    HW214922   4.870   6.644   5.112
 4675SOL     OW14923   1.209   4.590   7.001
 4675SOL    HW114924   1.150   4.657   6.956
 4675SOL    HW214925   1.256   4.633   0.056
 4676SOL     OW14926   1.074   4.513   4.312
 4676SOL    HW114927   1.000   4.540   4.373
 4676SOL    HW214928   1.092   4.415   4.323
 4677SOL     OW14929   1.455   3.442   0.481
 4677SOL    HW114930   1.524   3.500   0.437
 4677SOL    HW214931   1.498   3.357   0.509
 4678SOL     OW14932   0.863   3.647   1.518
 4678SOL    HW114933   0.936   3.681   1.577
 4678SOL    HW214934   0.774   3.665   1.560
 4679SOL     OW14935   4.581   0.064   2.177
 4679SOL    HW114936   4.490   0.023   2.189
 4679SOL    HW214937   4.651   7.020   2.200
 4680SOL     OW14938   1.891   0.848   6.424
 4680SOL    HW114939   1.854   0.762   6.459
 4680SOL    HW214940   1.939   0.896   6.497
 4681SOL     OW14941   4.865   5.713   2.374
 4681SOL    HW114942   4.841   5.740   2.467
 4681SOL    HW214943   4.785   5.674   2.329
 4682SOL     OW14944   3.533   3.809   6.235
 4682SOL    HW114945   3.511   3.716   6.207
 4682SOL    HW214946   3.610   3.807   6.298
 4683SOL     OW14947   6.435   4.831   3.865
 4683SOL    HW114948   6.465   4.842   3.770
 4683SOL    HW214949   6.504   4.870   3.926
 4684SOL     OW14950   5.676   6.970   5.823
 4684SOL    HW114951   5.623   6.926   5.895
 4684SOL    HW214952   5.727   6.901   5.772
 4685SOL     OW14953   3.088   3.433   4.635
 4685SOL    HW114954   3.077   3.466   4.728
 4685SOL    HW214955   3.018   3.473   4.576
 4686SOL     OW14956   1.725   0.000   7.006
 4686SOL    HW114957   1.692   0.018   0.076
 4686SOL    HW214958   1.654   6.978   6.952
 4687SOL     OW14959   1.749   0.420   2.577
 4687SOL    HW114960   1.727   0.515   2.598
 4687SOL    HW214961   1.705   0.360   2.643
 4688SOL     OW14962   4.863   2.612   5.189
 4688SOL    HW114963   4.817   2.625   5.101
 4688SOL    HW214964   4.815   2.666   5.259
 4689SOL     OW14965   6.899   1.411   1.080
 4689SOL    HW114966   6.898   1.462   0.994
 4689SOL    HW214967   6.834   1.452   1.144
 4690SOL     OW14968   2.966   2.764   0.872
 4690SOL    HW114969   3.022   2.820   0.811
 4690SOL    HW214970   3.018   2.742   0.955
 4691SOL     OW14971   6.211   3.382   1.687
 4691SOL    HW114972   6.188   3.470   1.729
 4691SOL    HW214973   6.290   3.394   1.627
 4692SOL     OW14974   5.117   3.086   2.380
 4692SOL    HW114975   5.084   3.097   2.287
 4692SOL    HW214976   5.139   2.990   2.396
 4693SOL     OW14977   0.433   6.924   2.790
 4693SOL    HW114978   0.524   6.882   2.798
 4693SOL    HW214979   0.423   6.995   2.860
 4694SOL     OW14980   2.105   0.009   6.086
 4694SOL    HW114981   2.060   0.098   6.086
 4694SOL    HW214982   2.063   6.972   6.018
 4695SOL     OW14983   1.854   4.646   2.003
 4695SOL    HW114984   1.853   4.660   2.102
 4695SOL    HW214985   1.785   4.705   1.961
 4696SOL     OW14986   1.641   6.359   6.410
 4696SOL    HW114987   1.542   6.344   6.412
 4696SOL    HW214988   1.684   6.296   6.346
 4697SOL     OW14989   4.383   5.375   1.502
 4697SOL    HW114990   4.446   5.373   1.424
 4697SOL    HW214991   4.331   5.289   1.505
 4698SOL     OW14992   5.662   0.975   4.822
 4698SOL    HW114993   5.724   0.905   4.787
 4698SOL    HW214994   5.669   0.978   4.922
 4699SOL     OW14995   0.886   1.055   2.536
 4699SOL    HW114996   0.869   1.021   2.628
 4699SOL    HW214997   0.801   1.091   2.497
 4700SOL     OW14998   6.374   1.531   3.035
 4700SOL    HW114999   6.297   1.546   3.097
 4700SOL    HW215000   6.352   1.566   2.944
 4701SOL     OW15001   2.994   2.662   1.771
 4701SOL    HW115002   2.978   2.573   1.813
 4701SOL    HW215003   3.087   2.692   1.791
 4702SOL     OW15004   6.070   5.253   0.542
 4702SOL    HW115005   6.015   5.179   0.582
 4702SOL    HW215006   6.077   5.328   0.608
 4703SOL     OW15007   0.350   5.369   3.972
 4703SOL    HW115008   0.289   5.434   4.018
 4703SOL    HW215009   0.390   5.308   4.040
 4704SOL     OW15010   1.859   4.911   4.501
 4704SOL    HW115011   1.897   4.827   4.541
 4704SOL    HW215012   1.856   4.902   4.401
 4705SOL     OW15013   3.292   2.109   1.877
 4705SOL    HW115014   3.372   2.168   1.885
 4705SOL    HW215015   3.213   2.154   1.918
 4706SOL     OW15016   2.273   1.311   1.088
 4706SOL    HW115017   2.363   1.322   1.047
 4706SOL    HW215018   2.269   1.226   1.140
 4707SOL     OW15019   1.201   5.354   2.138
 4707SOL    HW115020   1.295   5.388   2.143
 4707SOL    HW215021   1.179   5.330   2.043
 4708SOL     OW15022   2.088   3.076   6.206
 4708SOL    HW115023   2.137   2.991   6.225
 4708SOL    HW215024   2.128   3.120   6.126
 4709SOL     OW15025   5.567   4.430   5.390
 4709SOL    HW115026   5.493   4.414   5.456
 4709SOL    HW215027   5.573   4.528   5.369
 4710SOL     OW15028   6.328   5.786   5.065
 4710SOL    HW115029   6.363   5.869   5.022
 4710SOL    HW215030   6.312   5.803   5.163
 4711SOL     OW15031   5.388   3.989   2.495
 4711SOL    HW115032   5.358   3.939   2.413
 4711SOL    HW215033   5.323   4.062   2.515
 4712SOL     OW15034   3.542   4.169   6.003
 4712SOL    HW115035   3.450   4.131   6.009
 4712SOL    HW215036   3.595   4.119   5.935
 4713SOL     OW15037   5.680   4.305   1.064
 4713SOL    HW115038   5.708   4.226   1.010
 4713SOL    HW215039   5.589   4.334   1.036
 4714SOL     OW15040   3.916   2.163   6.654
 4714SOL    HW115041   3.851   2.126   6.588
 4714SOL    HW215042   3.869   2.228   6.714
 4715SOL     OW15043   6.647   1.715   2.259
 4715SOL    HW115044   6.640   1.615   2.262
 4715SOL    HW215045   6.711   1.746   2.330
 4716SOL     OW15046   2.934   4.464   5.655
 4716SOL    HW115047   2.902   4.456   5.560
 4716SOL    HW215048   2.920   4.377   5.702
 4717SOL     OW15049   1.968   4.956   5.559
 4717SOL    HW115050   1.879   4.918   5.586
 4717SOL    HW215051   2.032   4.881   5.540
 4718SOL     OW15052   4.781   4.046   1.920
 4718SOL    HW115053   4.739   4.097   1.996
 4718SOL    HW215054   4.712   4.028   1.850
 4719SOL     OW15055   5.605   4.566   3.896
 4719SOL    HW115056   5.577   4.481   3.942
 4719SOL    HW215057   5.571   4.565   3.802
 4720SOL     OW15058   1.532   2.173   6.446
 4720SOL    HW115059   1.456   2.110   6.463
 4720SOL    HW215060   1.531   2.245   6.516
 4721SOL     OW15061   0.644   2.895   2.682
 4721SOL    HW115062   0.592   2.980   2.694
 4721SOL    HW215063   0.741   2.915   2.684
 4722SOL     OW15064   1.222   5.197   6.412
 4722SOL    HW115065   1.196   5.182   6.507
 4722SOL    HW215066   1.160   5.263   6.370
 4723SOL     OW15067   2.763   5.071   6.732
 4723SOL    HW115068   2.714   5.154   6.761
 4723SOL    HW215069   2.737   4.995   6.791
 4724SOL     OW15070   0.511   6.843   4.006
 4724SOL    HW115071   0.420   6.802   4.007
 4724SOL    HW215072   0.533   6.876   4.097
 4725SOL     OW15073   6.418   4.738   1.055
 4725SOL    HW115074   6.403   4.834   1.077
 4725SOL    HW215075   6.516   4.722   1.040
 4726SOL     OW15076   1.802   2.937   5.723
 4726SOL    HW115077   1.741   2.857   5.723
 4726SOL    HW215078   1.765   3.007   5.785
 4727SOL     OW15079   6.472   5.028   1.047
 4727SOL    HW115080   6.482   5.099   0.977
 4727SOL    HW215081   6.552   5.028   1.106
 4728SOL     OW15082   5.014   1.309   3.588
 4728SOL    HW115083   5.102   1.331   3.630
 4728SOL    HW215084   4.963   1.394   3.572
 4729SOL     OW15085   6.271   1.130   2.431
 4729SOL    HW115086   6.266   1.074   2.514
 4729SOL    HW215087   6.236   1.077   2.353
 4730SOL     OW15088   3.490   0.705   3.370
 4730SOL    HW115089   3.555   0.650   3.422
 4730SOL    HW215090   3.411   0.727   3.428
 4731SOL     OW15091   3.390   0.105   1.892
 4731SOL    HW115092   3.376   0.189   1.840
 4731SOL    HW215093   3.301   0.062   1.909
 4732SOL     OW15094   0.075   5.036   4.872
 4732SOL    HW115095   0.165   5.032   4.915
 4732SOL    HW215096   0.077   4.987   4.785
 4733SOL     OW15097   1.293   4.102   2.411
 4733SOL    HW115098   1.299   4.185   2.355
 4733SOL    HW215099   1.371   4.043   2.393
 4734SOL     OW15100   4.786   3.900   6.748
 4734SOL    HW115101   4.781   3.987   6.700
 4734SOL    HW215102   4.745   3.909   6.839
 4735SOL     OW15103   0.039   0.787   5.032
 4735SOL    HW115104   6.978   0.819   5.075
 4735SOL    HW215105   0.017   0.723   4.960
 4736SOL     OW15106   6.313   0.802   3.757
 4736SOL    HW115107   6.251   0.780   3.682
 4736SOL    HW215108   6.356   0.718   3.791
 4737SOL     OW15109   2.232   5.191   0.241
 4737SOL    HW115110   2.141   5.150   0.231
 4737SOL    HW215111   2.298   5.120   0.266
 4738SOL     OW15112   0.650   5.837   4.242
 4738SOL    HW115113   0.713   5.779   4.191
 4738SOL    HW215114   0.682   5.847   4.336
 4739SOL     OW15115   5.918   3.826   3.117
 4739SOL    HW115116   5.975   3.750   3.150
 4739SOL    HW215117   5.843   3.841   3.181
 4740SOL     OW15118   1.822   6.563   0.937
 4740SOL    HW115119   1.903   6.597   0.985
 4740SOL    HW215120   1.746   6.554   1.002
 4741SOL     OW15121   5.859   4.643   1.062
 4741SOL    HW115122   5.771   4.690   1.061
 4741SOL    HW215123   5.882   4.615   1.155
 4742SOL     OW15124   2.139   5.699   2.198
 4742SOL    HW115125   2.110   5.610   2.233
 4742SOL    HW215126   2.081   5.771   2.237
 4743SOL     OW15127   2.527   3.840   0.314
 4743SOL    HW115128   2.450   3.830   0.378
 4743SOL    HW215129   2.520   3.929   0.269
 4744SOL     OW15130   2.743   2.248   5.330
 4744SOL    HW115131   2.756   2.241   5.428
 4744SOL    HW215132   2.667   2.190   5.301
 4745SOL     OW15133   4.230   5.518   4.435
 4745SOL    HW115134   4.155   5.473   4.483
 4745SOL    HW215135   4.206   5.531   4.339
 4746SOL     OW15136   5.593   1.156   1.486
 4746SOL    HW115137   5.534   1.224   1.443
 4746SOL    HW215138   5.625   1.191   1.574
 4747SOL     OW15139   0.671   3.114   2.282
 4747SOL    HW115140   0.732   3.037   2.301
 4747SOL    HW215141   0.697   3.156   2.195
 4748SOL     OW15142   2.196   6.916   0.673
 4748SOL    HW115143   2.107   6.888   0.708
 4748SOL    HW215144   2.185   6.955   0.582
 4749SOL     OW15145   3.161   0.719   0.385
 4749SOL    HW115146   3.221   0.797   0.368
 4749SOL    HW215147   3.169   0.691   0.480
 4750SOL     OW15148   0.812   1.726   4.747
 4750SOL    HW115149   0.739   1.783   4.784
 4750SOL    HW215150   0.846   1.768   4.663
 4751SOL     OW15151   1.283   3.749   6.592
 4751SOL    HW115152   1.289   3.815   6.518
 4751SOL    HW215153   1.225   3.672   6.564
 4752SOL     OW15154   2.637   5.994   0.988
 4752SOL    HW115155   2.685   5.955   1.066
 4752SOL    HW215156   2.696   5.991   0.907
 4753SOL     OW15157   0.719   0.313   6.304
 4753SOL    HW115158   0.644   0.259   6.344
 4753SOL    HW215159   0.784   0.252   6.259
 4754SOL     OW15160   1.331   0.907   6.292
 4754SOL    HW115161   1.311   0.845   6.367
 4754SOL    HW215162   1.361   0.855   6.212
 4755SOL     OW15163   2.836   6.969   2.609
 4755SOL    HW115164   2.833   6.906   2.531
 4755SOL    HW215165   2.834   0.041   2.575
 4756SOL     OW15166   5.422   1.714   1.437
 4756SOL    HW115167   5.351   1.650   1.407
 4756SOL    HW215168   5.453   1.767   1.358
 4757SOL     OW15169   2.582   1.992   0.716
 4757SOL    HW115170   2.664   2.019   0.766
 4757SOL    HW215171   2.543   1.910   0.757
 4758SOL     OW15172   5.925   3.538   6.038
 4758SOL    HW115173   5.949   3.442   6.048
 4758SOL    HW215174   6.002   3.588   5.997
 4759SOL     OW15175   6.380   4.135   6.554
 4759SOL    HW115176   6.412   4.224   6.521
 4759SOL    HW215177   6.281   4.128   6.543
 4760SOL     OW15178   1.786   2.785   0.126
 4760SOL    HW115179   1.865   2.798   0.067
 4760SOL    HW215180   1.744   2.874   0.146
 4761SOL     OW15181   2.128   6.056   6.332
 4761SOL    HW115182   2.201   6.045   6.399
 4761SOL    HW215183   2.160   6.025   6.242
 4762SOL     OW15184   3.716   6.745   2.466
 4762SOL    HW115185   3.658   6.676   2.422
 4762SOL    HW215186   3.659   6.818   2.503
 4763SOL     OW15187   5.447   5.751   5.421
 4763SOL    HW115188   5.492   5.663   5.438
 4763SOL    HW215189   5.510   5.825   5.443
 4764SOL     OW15190   4.015   3.551   3.868
 4764SOL    HW115191   3.923   3.530   3.835
 4764SOL    HW215192   4.070   3.586   3.791
 4765SOL     OW15193   5.891   5.058   6.715
 4765SOL    HW115194   5.975   5.011   6.688
 4765SOL    HW215195   5.824   5.054   6.641
 4766SOL     OW15196   2.939   0.795   3.081
 4766SOL    HW115197   3.028   0.824   3.048
 4766SOL    HW215198   2.867   0.839   3.026
 4767SOL     OW15199   4.481   0.278   6.953
 4767SOL    HW115200   4.512   0.282   6.858
 4767SOL    HW215201   4.501   0.188   6.991
 4768SOL     OW15202   1.604   0.937   5.097
 4768SOL    HW115203   1.557   0.980   5.174
 4768SOL    HW215204   1.694   0.904   5.127
 4769SOL     OW15205   4.875   0.902   2.026
 4769SOL    HW115206   4.962   0.866   2.061
 4769SOL    HW215207   4.892   0.963   1.949
 4770SOL     OW15208   2.177   0.514   4.427
 4770SOL    HW115209   2.159   0.612   4.418
 4770SOL    HW215210   2.247   0.499   4.498
 4771SOL     OW15211   4.114   4.043   5.622
 4771SOL    HW115212   4.209   4.047   5.593
 4771SOL    HW215213   4.074   3.955   5.596
 4772SOL     OW15214   3.072   2.510   6.844
 4772SOL    HW115215   2.990   2.498   6.900
 4772SOL    HW215216   3.081   2.432   6.781
 4773SOL     OW15217   0.070   4.949   4.578
 4773SOL    HW115218   0.104   4.933   4.485
 4773SOL    HW215219   0.056   4.861   4.624
 4774SOL     OW15220   1.194   4.261   0.049
 4774SOL    HW115221   1.179   4.264   6.973
 4774SOL    HW215222   1.115   4.301   0.096
 4775SOL     OW15223   1.824   2.214   2.557
 4775SOL    HW115224   1.820   2.218   2.657
 4775SOL    HW215225   1.903   2.267   2.524
 4776SOL     OW15226   4.222   5.016   2.309
 4776SOL    HW115227   4.266   4.972   2.388
 4776SOL    HW215228   4.211   5.114   2.327
 4777SOL     OW15229   2.459   3.700   1.710
 4777SOL    HW115230   2.442   3.779   1.768
 4777SOL    HW215231   2.475   3.619   1.767
 4778SOL     OW15232   4.865   3.220   2.910
 4778SOL    HW115233   4.870   3.299   2.849
 4778SOL    HW215234   4.808   3.149   2.868
 4779SOL     OW15235   4.648   1.792   2.599
 4779SOL    HW115236   4.586   1.865   2.570
 4779SOL    HW215237   4.595   1.719   2.642
 4780SOL     OW15238   2.146   1.379   5.347
 4780SOL    HW115239   2.143   1.456   5.410
 4780SOL    HW215240   2.125   1.294   5.396
 4781SOL     OW15241   1.948   5.417   2.621
 4781SOL    HW115242   1.987   5.465   2.699
 4781SOL    HW215243   1.930   5.322   2.645
 4782SOL     OW15244   5.841   5.908   6.960
 4782SOL    HW115245   5.822   5.818   6.921
 4782SOL    HW215246   5.758   5.945   7.001
 4783SOL     OW15247   6.436   3.816   2.579
 4783SOL    HW115248   6.408   3.895   2.633
 4783SOL    HW215249   6.358   3.754   2.569
 4784SOL     OW15250   5.094   4.982   5.314
 4784SOL    HW115251   5.040   4.904   5.346
 4784SOL    HW215252   5.174   4.993   5.373
 4785SOL     OW15253   5.739   6.695   0.451
 4785SOL    HW115254   5.738   6.794   0.469
 4785SOL    HW215255   5.748   6.679   0.353
 4786SOL     OW15256   0.948   3.456   2.067
 4786SOL    HW115257   1.019   3.394   2.100
 4786SOL    HW215258   0.935   3.530   2.133
 4787SOL     OW15259   4.317   2.396   3.399
 4787SOL    HW115260   4.392   2.452   3.363
 4787SOL    HW215261   4.352   2.336   3.471
 4788SOL     OW15262   2.123   0.010   5.139
 4788SOL    HW115263   2.179   7.016   5.219
 4788SOL    HW215264   2.171   7.001   5.057
 4789SOL     OW15265   5.252   6.126   0.311
 4789SOL    HW115266   5.279   6.141   0.216
 4789SOL    HW215267   5.236   6.214   0.356
 4790SOL     OW15268   5.224   0.324   6.586
 4790SOL    HW115269   5.171   0.391   6.533
 4790SOL    HW215270   5.162   0.274   6.646
 4791SOL     OW15271   4.644   1.875   3.500
 4791SOL    HW115272   4.679   1.938   3.431
 4791SOL    HW215273   4.552   1.846   3.475
 4792SOL     OW15274   2.681   2.521   0.982
 4792SOL    HW115275   2.750   2.527   1.054
 4792SOL    HW215276   2.692   2.596   0.918
 4793SOL     OW15277   0.820   6.881   0.030
 4793SOL    HW115278   0.870   6.836   6.978
 4793SOL    HW215279   0.747   6.821   0.062
 4794SOL     OW15280   5.293   1.322   2.241
 4794SOL    HW115281   5.337   1.317   2.151
 4794SOL    HW215282   5.331   1.252   2.301
 4795SOL     OW15283   6.000   2.759   4.144
 4795SOL    HW115284   6.089   2.713   4.150
 4795SOL    HW215285   6.014   2.856   4.124
 4796SOL     OW15286   5.733   3.252   0.370
 4796SOL    HW115287   5.753   3.158   0.345
 4796SOL    HW215288   5.730   3.260   0.470
 4797SOL     OW15289   0.844   5.691   4.875
 4797SOL    HW115290   0.844   5.624   4.801
 4797SOL    HW215291   0.858   5.644   4.962
 4798SOL     OW15292   6.751   4.929   5.907
 4798SOL    HW115293   6.677   4.895   5.965
 4798SOL    HW215294   6.839   4.917   5.954
 4799SOL     OW15295   4.875   1.581   4.248
 4799SOL    HW115296   4.843   1.539   4.333
 4799SOL    HW215297   4.842   1.527   4.170
 4800SOL     OW15298   1.914   2.790   3.977
 4800SOL    HW115299   1.935   2.785   3.879
 4800SOL    HW215300   1.823   2.831   3.989
 4801SOL     OW15301   0.285   2.359   0.864
 4801SOL    HW115302   0.291   2.278   0.923
 4801SOL    HW215303   0.297   2.331   0.769
 4802SOL     OW15304   1.939   0.118   1.936
 4802SOL    HW115305   2.023   0.067   1.954
 4802SOL    HW215306   1.936   0.199   1.995
 4803SOL     OW15307   1.601   0.316   0.788
 4803SOL    HW115308   1.617   0.350   0.695
 4803SOL    HW215309   1.530   0.372   0.832
 4804SOL     OW15310   4.649   6.073   0.095
 4804SOL    HW115311   4.657   6.173   0.097
 4804SOL    HW215312   4.665   6.037   0.187
 4805SOL     OW15313   0.094   0.197   1.485
 4805SOL    HW115314   0.061   0.210   1.391
 4805SOL    HW215315   0.171   0.134   1.485
 4806SOL     OW15316   0.140   2.342   3.900
 4806SOL    HW115317   0.179   2.268   3.846
 4806SOL    HW215318   0.040   2.335   3.898
 4807SOL     OW15319   0.965   6.942   2.577
 4807SOL    HW115320   0.896   6.925   2.508
 4807SOL    HW215321   1.025   6.862   2.585
 4808SOL     OW15322   5.821   2.989   0.309
 4808SOL    HW115323   5.744   2.989   0.372
 4808SOL    HW215324   5.813   2.911   0.246
 4809SOL     OW15325   4.853   6.882   0.401
 4809SOL    HW115326   4.803   6.947   0.458
 4809SOL    HW215327   4.830   6.788   0.429
 4810SOL     OW15328   1.928   6.392   0.762
 4810SOL    HW115329   1.875   6.446   0.826
 4810SOL    HW215330   1.988   6.329   0.812
 4811SOL     OW15331   5.086   3.951   3.769
 4811SOL    HW115332   5.039   3.901   3.843
 4811SOL    HW215333   5.184   3.952   3.787
 4812SOL     OW15334   6.091   5.027   3.798
 4812SOL    HW115335   6.064   4.936   3.831
 4812SOL    HW215336   6.095   5.090   3.875
 4813SOL     OW15337   5.749   3.275   2.951
 4813SOL    HW115338   5.665   3.284   2.897
 4813SOL    HW215339   5.729   3.292   3.047
 4814SOL     OW15340   6.534   3.121   0.797
 4814SOL    HW115341   6.509   3.213   0.830
 4814SOL    HW215342   6.459   3.058   0.817
 4815SOL     OW15343   5.005   0.751   3.084
 4815SOL    HW115344   4.951   0.830   3.113
 4815SOL    HW215345   5.041   0.704   3.164
 4816SOL     OW15346   5.209   5.305   3.323
 4816SOL    HW115347   5.178   5.375   3.258
 4816SOL    HW215348   5.285   5.254   3.283
 4817SOL     OW15349   6.157   1.262   6.796
 4817SOL    HW115350   6.128   1.352   6.763
 4817SOL    HW215351   6.101   1.191   6.754
 4818SOL     OW15352   0.211   5.769   3.449
 4818SOL    HW115353   0.262   5.853   3.430
 4818SOL    HW215354   0.232   5.737   3.541
 4819SOL     OW15355   2.216   2.951   0.616
 4819SOL    HW115356   2.240   2.995   0.530
 4819SOL    HW215357   2.288   2.887   0.643
 4820SOL     OW15358   6.909   3.433   2.265
 4820SOL    HW115359   6.835   3.442   2.198
 4820SOL    HW215360   6.976   3.367   2.231
 4821SOL     OW15361   0.363   5.768   3.683
 4821SOL    HW115362   0.323   5.684   3.720
 4821SOL    HW215363   0.439   5.798   3.741
 4822SOL     OW15364   2.363   4.863   4.272
 4822SOL    HW115365   2.453   4.905   4.286
 4822SOL    HW215366   2.329   4.828   4.359
 4823SOL     OW15367   1.573   2.271   0.417
 4823SOL    HW115368   1.641   2.318   0.473
 4823SOL    HW215369   1.528   2.338   0.357
 4824SOL     OW15370   6.302   1.656   0.054
 4824SOL    HW115371   6.392   1.698   0.051
 4824SOL    HW215372   6.263   1.665   0.146
 4825SOL     OW15373   1.123   6.676   3.920
 4825SOL    HW115374   1.061   6.647   3.847
 4825SOL    HW215375   1.070   6.721   3.992
 4826SOL     OW15376   4.432   6.074   0.901
 4826SOL    HW115377   4.345   6.099   0.858
 4826SOL    HW215378   4.444   5.975   0.896
 4827SOL     OW15379   5.856   1.495   0.891
 4827SOL    HW115380   5.925   1.423   0.884
 4827SOL    HW215381   5.834   1.529   0.800
 4828SOL     OW15382   5.262   1.117   6.348
 4828SOL    HW115383   5.251   1.174   6.430
 4828SOL    HW215384   5.328   1.160   6.286
 4829SOL     OW15385   4.104   6.188   5.433
 4829SOL    HW115386   4.069   6.277   5.461
 4829SOL    HW215387   4.059   6.116   5.487
 4830SOL     OW15388   1.744   6.647   4.079
 4830SOL    HW115389   1.690   6.730   4.070
 4830SOL    HW215390   1.706   6.576   4.019
 4831SOL     OW15391   3.739   4.834   6.029
 4831SOL    HW115392   3.825   4.797   5.994
 4831SOL    HW215393   3.662   4.781   5.993
 4832SOL     OW15394   4.077   3.860   4.981
 4832SOL    HW115395   4.137   3.899   5.051
 4832SOL    HW215396   4.105   3.766   4.962
 4833SOL     OW15397   6.059   2.680   5.279
 4833SOL    HW115398   6.000   2.608   5.244
 4833SOL    HW215399   6.006   2.743   5.336
 4834SOL     OW15400   0.595   5.553   1.333
 4834SOL    HW115401   0.612   5.612   1.254
 4834SOL    HW215402   0.497   5.535   1.340
 4835SOL     OW15403   6.975   3.367   5.738
 4835SOL    HW115404   6.924   3.302   5.795
 4835SOL    HW215405   0.037   3.392   5.784
 4836SOL     OW15406   4.652   1.420   5.541
 4836SOL    HW115407   4.715   1.413   5.463
 4836SOL    HW215408   4.643   1.516   5.567
 4837SOL     OW15409   1.646   3.475   4.876
 4837SOL    HW115410   1.720   3.415   4.908
 4837SOL    HW215411   1.560   3.449   4.920
 4838SOL     OW15412   1.651   4.071   6.265
 4838SOL    HW115413   1.701   4.034   6.186
 4838SOL    HW215414   1.633   3.998   6.330
 4839SOL     OW15415   2.938   1.382   2.398
 4839SOL    HW115416   2.946   1.470   2.445
 4839SOL    HW215417   2.878   1.321   2.450
 4840SOL     OW15418   4.940   2.900   4.491
 4840SOL    HW115419   4.911   2.977   4.549
 4840SOL    HW215420   4.929   2.925   4.395
 4841SOL     OW15421   3.062   5.800   3.376
 4841SOL    HW115422   3.052   5.751   3.289
 4841SOL    HW215423   3.130   5.873   3.365
 4842SOL     OW15424   4.267   5.864   3.594
 4842SOL    HW115425   4.256   5.916   3.678
 4842SOL    HW215426   4.255   5.767   3.613
 4843SOL     OW15427   5.552   1.414   1.273
 4843SOL    HW115428   5.510   1.330   1.237
 4843SOL    HW215429   5.647   1.419   1.242
 4844SOL     OW15430   1.531   5.262   6.730
 4844SOL    HW115431   1.510   5.275   6.827
 4844SOL    HW215432   1.590   5.336   6.698
 4845SOL     OW15433   5.005   3.945   4.960
 4845SOL    HW115434   4.990   3.921   4.864
 4845SOL    HW215435   4.973   3.871   5.018
 4846SOL     OW15436   6.284   4.103   4.679
 4846SOL    HW115437   6.377   4.098   4.715
 4846SOL    HW215438   6.264   4.020   4.626
 4847SOL     OW15439   3.373   6.996   0.271
 4847SOL    HW115440   3.311   0.013   0.338
 4847SOL    HW215441   3.468   7.005   0.303
 4848SOL     OW15442   4.676   1.697   3.863
 4848SOL    HW115443   4.579   1.719   3.852
 4848SOL    HW215444   4.699   1.619   3.805
 4849SOL     OW15445   1.242   5.667   1.984
 4849SOL    HW115446   1.321   5.614   2.013
 4849SOL    HW215447   1.198   5.622   1.907
 4850SOL     OW15448   3.389   6.535   2.098
 4850SOL    HW115449   3.350   6.625   2.117
 4850SOL    HW215450   3.317   6.466   2.104
 4851SOL     OW15451   4.359   4.494   6.835
 4851SOL    HW115452   4.381   4.577   6.885
 4851SOL    HW215453   4.394   4.414   6.885
 4852SOL     OW15454   4.793   4.851   5.729
 4852SOL    HW115455   4.849   4.927   5.699
 4852SOL    HW215456   4.698   4.881   5.740
 4853SOL     OW15457   3.987   0.447   2.612
 4853SOL    HW115458   4.023   0.408   2.697
 4853SOL    HW215459   4.062   0.491   2.562
 4854SOL     OW15460   4.355   6.533   2.244
 4854SOL    HW115461   4.339   6.597   2.319
 4854SOL    HW215462   4.282   6.464   2.242
 4855SOL     OW15463   3.940   4.765   5.846
 4855SOL    HW115464   4.006   4.699   5.810
 4855SOL    HW215465   3.906   4.823   5.771
 4856SOL     OW15466   0.416   2.755   2.651
 4856SOL    HW115467   0.508   2.793   2.640
 4856SOL    HW215468   0.348   2.828   2.641
 4857SOL     OW15469   1.832   2.343   6.061
 4857SOL    HW115470   1.858   2.409   5.990
 4857SOL    HW215471   1.896   2.267   6.061
 4858SOL     OW15472   1.572   5.396   4.653
 4858SOL    HW115473   1.533   5.461   4.588
 4858SOL    HW215474   1.610   5.446   4.731
 4859SOL     OW15475   6.552   5.169   3.847
 4859SOL    HW115476   6.579   5.118   3.929
 4859SOL    HW215477   6.469   5.129   3.809
 4860SOL     OW15478   4.151   5.575   1.227
 4860SOL    HW115479   4.149   5.611   1.134
 4860SOL    HW215480   4.070   5.520   1.243
 4861SOL     OW15481   5.952   5.164   5.039
 4861SOL    HW115482   6.013   5.092   5.071
 4861SOL    HW215483   6.002   5.226   4.978
 4862SOL     OW15484   2.322   5.761   4.354
 4862SOL    HW115485   2.329   5.834   4.422
 4862SOL    HW215486   2.289   5.678   4.398
 4863SOL     OW15487   5.481   1.232   2.428
 4863SOL    HW115488   5.515   1.317   2.388
 4863SOL    HW215489   5.501   1.231   2.526
 4864SOL     OW15490   2.084   3.111   1.640
 4864SOL    HW115491   2.160   3.163   1.679
 4864SOL    HW215492   2.117   3.022   1.608
 4865SOL     OW15493   3.989   6.665   4.950
 4865SOL    HW115494   3.963   6.636   4.859
 4865SOL    HW215495   4.074   6.620   4.977
 4866SOL     OW15496   6.836   5.397   1.419
 4866SOL    HW115497   6.786   5.396   1.506
 4866SOL    HW215498   6.885   5.311   1.408
 4867SOL     OW15499   5.540   4.877   5.595
 4867SOL    HW115500   5.579   4.804   5.651
 4867SOL    HW215501   5.610   4.914   5.534
 4868SOL     OW15502   1.748   6.125   1.909
 4868SOL    HW115503   1.734   6.027   1.891
 4868SOL    HW215504   1.837   6.138   1.954
 4869SOL     OW15505   6.931   1.380   1.962
 4869SOL    HW115506   6.868   1.445   1.919
 4869SOL    HW215507   6.909   1.373   2.060
 4870SOL     OW15508   6.018   0.707   0.826
 4870SOL    HW115509   6.000   0.612   0.803
 4870SOL    HW215510   5.998   0.765   0.747
 4871SOL     OW15511   1.776   2.822   5.148
 4871SOL    HW115512   1.846   2.781   5.207
 4871SOL    HW215513   1.761   2.916   5.176
 4872SOL     OW15514   1.498   1.878   2.562
 4872SOL    HW115515   1.490   1.830   2.649
 4872SOL    HW215516   1.595   1.899   2.544
 4873SOL     OW15517   1.233   7.006   5.125
 4873SOL    HW115518   1.279   0.070   5.106
 4873SOL    HW215519   1.194   7.009   5.217
 4874SOL     OW15520   6.259   2.309   3.831
 4874SOL    HW115521   6.267   2.273   3.923
 4874SOL    HW215522   6.176   2.273   3.788
 4875SOL     OW15523   0.248   2.829   6.588
 4875SOL    HW115524   0.338   2.872   6.588
 4875SOL    HW215525   0.192   2.871   6.659
 4876SOL     OW15526   6.810   0.932   6.863
 4876SOL    HW115527   6.740   0.865   6.885
 4876SOL    HW215528   6.812   1.003   6.933
 4877SOL     OW15529   4.568   2.046   1.486
 4877SOL    HW115530   4.542   2.030   1.581
 4877SOL    HW215531   4.525   2.131   1.454
 4878SOL     OW15532   1.189   3.085   1.860
 4878SOL    HW115533   1.184   2.985   1.868
 4878SOL    HW215534   1.252   3.121   1.928
 4879SOL     OW15535   3.775   6.152   4.097
 4879SOL    HW115536   3.693   6.097   4.081
 4879SOL    HW215537   3.807   6.191   4.011
 4880SOL     OW15538   6.701   1.718   5.863
 4880SOL    HW115539   6.617   1.670   5.887
 4880SOL    HW215540   6.751   1.742   5.946
 4881SOL     OW15541   2.809   6.071   6.021
 4881SOL    HW115542   2.850   6.107   5.936
 4881SOL    HW215543   2.807   5.972   6.018
 4882SOL     OW15544   5.325   5.536   6.938
 4882SOL    HW115545   5.375   5.621   6.923
 4882SOL    HW215546   5.386   5.468   6.979
 4883SOL     OW15547   5.996   5.630   0.076
 4883SOL    HW115548   5.932   5.672   0.141
 4883SOL    HW215549   6.074   5.691   0.062
 4884SOL     OW15550   3.668   6.569   1.993
 4884SOL    HW115551   3.664   6.652   1.937
 4884SOL    HW215552   3.578   6.552   2.033
 4885SOL     OW15553   1.803   0.576   2.164
 4885SOL    HW115554   1.729   0.550   2.226
 4885SOL    HW215555   1.803   0.675   2.151
 4886SOL     OW15556   6.315   0.517   5.477
 4886SOL    HW115557   6.263   0.534   5.394
 4886SOL    HW215558   6.278   0.437   5.524
 4887SOL     OW15559   0.507   1.634   5.140
 4887SOL    HW115560   0.552   1.715   5.101
 4887SOL    HW215561   0.559   1.600   5.218
 4888SOL     OW15562   4.212   5.629   1.669
 4888SOL    HW115563   4.160   5.684   1.603
 4888SOL    HW215564   4.165   5.542   1.684
 4889SOL     OW15565   1.668   3.340   6.676
 4889SOL    HW115566   1.760   3.378   6.677
 4889SOL    HW215567   1.602   3.412   6.656
 4890SOL     OW15568   0.513   0.264   4.465
 4890SOL    HW115569   0.488   0.320   4.544
 4890SOL    HW215570   0.435   0.257   4.403
 4891SOL     OW15571   1.033   4.605   0.880
 4891SOL    HW115572   0.948   4.645   0.915
 4891SOL    HW215573   1.064   4.658   0.801
 4892SOL     OW15574   1.986   5.915   2.239
 4892SOL    HW115575   1.922   5.862   2.183
 4892SOL    HW215576   1.935   5.973   2.302
 4893SOL     OW15577   0.527   3.789   6.439
 4893SOL    HW115578   0.558   3.807   6.346
 4893SOL    HW215579   0.582   3.842   6.503
 4894SOL     OW15580   0.691   6.657   3.081
 4894SOL    HW115581   0.674   6.710   2.998
 4894SOL    HW215582   0.710   6.562   3.057
 4895SOL     OW15583   6.194   3.920   6.787
 4895SOL    HW115584   6.265   3.991   6.792
 4895SOL    HW215585   6.237   3.830   6.792
 4896SOL     OW15586   4.402   0.259   4.296
 4896SOL    HW115587   4.351   0.342   4.318
 4896SOL    HW215588   4.458   0.275   4.215
 4897SOL     OW15589   2.511   5.918   6.350
 4897SOL    HW115590   2.545   5.837   6.302
 4897SOL    HW215591   2.554   6.000   6.312
 4898SOL     OW15592   5.187   2.447   4.653
 4898SOL    HW115593   5.164   2.533   4.608
 4898SOL    HW215594   5.229   2.466   4.742
 4899SOL     OW15595   5.875   4.235   4.310
 4899SOL    HW115596   5.879   4.257   4.212
 4899SOL    HW215597   5.923   4.306   4.362
 4900SOL     OW15598   1.004   6.932   4.991
 4900SOL    HW115599   1.013   6.934   4.891
 4900SOL    HW215600   1.094   6.945   5.032
 4901SOL     OW15601   6.116   6.387   3.268
 4901SOL    HW115602   6.124   6.485   3.288
 4901SOL    HW215603   6.021   6.364   3.249
 4902SOL     OW15604   3.384   5.014   0.864
 4902SOL    HW115605   3.346   5.068   0.940
 4902SOL    HW215606   3.430   4.933   0.901
 4903SOL     OW15607   6.150   5.112   6.042
 4903SOL    HW115608   6.073   5.071   5.992
 4903SOL    HW215609   6.210   5.159   5.978
 4904SOL     OW15610   3.060   0.554   3.592
 4904SOL    HW115611   2.960   0.555   3.588
 4904SOL    HW215612   3.096   0.481   3.534
 4905SOL     OW15613   6.584   3.302   2.866
 4905SOL    HW115614   6.589   3.257   2.776
 4905SOL    HW215615   6.504   3.362   2.867
 4906SOL     OW15616   4.795   0.394   1.390
 4906SOL    HW115617   4.708   0.438   1.413
 4906SOL    HW215618   4.858   0.404   1.467
 4907SOL     OW15619   2.183   2.202   1.623
 4907SOL    HW115620   2.150   2.128   1.682
 4907SOL    HW215621   2.272   2.234   1.656
 4908SOL     OW15622   4.972   5.364   6.548
 4908SOL    HW115623   5.033   5.328   6.618
 4908SOL    HW215624   4.960   5.463   6.563
 4909SOL     OW15625   6.265   6.650   5.704
 4909SOL    HW115626   6.283   6.689   5.614
 4909SOL    HW215627   6.309   6.706   5.774
 4910SOL     OW15628   4.734   6.348   5.777
 4910SOL    HW115629   4.635   6.354   5.788
 4910SOL    HW215630   4.762   6.394   5.693
 4911SOL     OW15631   0.272   3.858   6.564
 4911SOL    HW115632   0.340   3.807   6.511
 4911SOL    HW215633   0.307   3.873   6.656
 4912SOL     OW15634   2.176   2.878   1.529
 4912SOL    HW115635   2.225   2.912   1.449
 4912SOL    HW215636   2.123   2.797   1.503
 4913SOL     OW15637   2.683   3.024   1.741
 4913SOL    HW115638   2.606   2.970   1.707
 4913SOL    HW215639   2.656   3.120   1.747
 4914SOL     OW15640   1.411   6.560   2.816
 4914SOL    HW115641   1.350   6.491   2.776
 4914SOL    HW215642   1.490   6.574   2.755
 4915SOL     OW15643   3.655   6.708   3.851
 4915SOL    HW115644   3.647   6.608   3.844
 4915SOL    HW215645   3.648   6.735   3.947
 4916SOL     OW15646   1.046   1.782   1.981
 4916SOL    HW115647   0.998   1.867   1.961
 4916SOL    HW215648   1.047   1.725   1.899
 4917SOL     OW15649   1.271   3.884   0.012
 4917SOL    HW115650   1.292   3.922   0.103
 4917SOL    HW215651   1.270   3.959   6.968
 4918SOL     OW15652   2.662   6.787   3.884
 4918SOL    HW115653   2.723   6.848   3.934
 4918SOL    HW215654   2.600   6.841   3.827
 4919SOL     OW15655   2.437   3.181   1.469
 4919SOL    HW115656   2.421   3.237   1.387
 4919SOL    HW215657   2.496   3.104   1.445
 4920SOL     OW15658   3.452   1.180   0.250
 4920SOL    HW115659   3.394   1.153   0.173
 4920SOL    HW215660   3.548   1.162   0.227
 4921SOL     OW15661   6.565   5.472   2.222
 4921SOL    HW115662   6.643   5.477   2.159
 4921SOL    HW215663   6.516   5.386   2.207
 4922SOL     OW15664   0.874   2.676   6.005
 4922SOL    HW115665   0.823   2.723   6.077
 4922SOL    HW215666   0.908   2.589   6.039
 4923SOL     OW15667   2.701   1.962   6.601
 4923SOL    HW115668   2.720   1.994   6.694
 4923SOL    HW215669   2.767   2.001   6.538
 4924SOL     OW15670   0.559   3.027   4.023
 4924SOL    HW115671   0.614   3.075   4.091
 4924SOL    HW215672   0.618   2.992   3.950
 4925SOL     OW15673   4.450   5.246   5.441
 4925SOL    HW115674   4.423   5.306   5.365
 4925SOL    HW215675   4.368   5.219   5.492
 4926SOL     OW15676   4.196   3.313   0.335
 4926SOL    HW115677   4.223   3.348   0.246
 4926SOL    HW215678   4.262   3.245   0.366
 4927SOL     OW15679   3.465   3.873   1.867
 4927SOL    HW115680   3.450   3.956   1.919
 4927SOL    HW215681   3.394   3.805   1.889
 4928SOL     OW15682   0.183   1.226   0.027
 4928SOL    HW115683   0.208   1.231   0.123
 4928SOL    HW215684   0.216   1.140   7.010
 4929SOL     OW15685   0.541   4.498   4.471
 4929SOL    HW115686   0.540   4.458   4.562
 4929SOL    HW215687   0.559   4.428   4.402
 4930SOL     OW15688   0.293   3.261   0.320
 4930SOL    HW115689   0.378   3.242   0.272
 4930SOL    HW215690   0.215   3.245   0.259
 4931SOL     OW15691   5.625   6.831   1.124
 4931SOL    HW115692   5.646   6.919   1.166
 4931SOL    HW215693   5.694   6.809   1.056
 4932SOL     OW15694   3.641   1.266   1.280
 4932SOL    HW115695   3.547   1.301   1.287
 4932SOL    HW215696   3.706   1.341   1.293
 4933SOL     OW15697   3.040   0.149   4.845
 4933SOL    HW115698   2.972   0.084   4.878
 4933SOL    HW215699   3.132   0.114   4.864
 4934SOL     OW15700   1.952   5.725   5.139
 4934SOL    HW115701   1.956   5.625   5.141
 4934SOL    HW215702   1.978   5.761   5.229
 4935SOL     OW15703   2.166   2.525   0.792
 4935SOL    HW115704   2.085   2.466   0.793
 4935SOL    HW215705   2.170   2.577   0.878
 4936SOL     OW15706   6.406   4.050   1.481
 4936SOL    HW115707   6.355   3.971   1.446
 4936SOL    HW215708   6.473   4.018   1.549
 4937SOL     OW15709   0.739   3.338   4.759
 4937SOL    HW115710   0.764   3.430   4.788
 4937SOL    HW215711   0.649   3.314   4.796
 4938SOL     OW15712   3.298   4.266   1.232
 4938SOL    HW115713   3.353   4.206   1.173
 4938SOL    HW215714   3.347   4.284   1.317
 4939SOL     OW15715   1.265   1.202   1.340
 4939SOL    HW115716   1.354   1.164   1.364
 4939SOL    HW215717   1.193   1.153   1.388
 4940SOL     OW15718   1.189   1.811   5.490
 4940SOL    HW115719   1.188   1.779   5.585
 4940SOL    HW215720   1.283   1.830   5.462
 4941SOL     OW15721   4.161   2.032   5.855
 4941SOL    HW115722   4.065   2.007   5.843
 4941SOL    HW215723   4.193   2.001   5.944
 4942SOL     OW15724   6.924   1.094   2.294
 4942SOL    HW115725   6.894   1.148   2.373
 4942SOL    HW215726   7.023   1.079   2.300
 4943SOL     OW15727   4.967   2.238   6.415
 4943SOL    HW115728   4.900   2.207   6.483
 4943SOL    HW215729   5.052   2.262   6.461
 4944SOL     OW15730   1.066   4.760   0.662
 4944SOL    HW115731   1.023   4.850   0.657
 4944SOL    HW215732   1.143   4.756   0.599
 4945SOL     OW15733   2.375   0.313   5.592
 4945SOL    HW115734   2.451   0.352   5.645
 4945SOL    HW215735   2.412   0.254   5.521
 4946SOL     OW15736   2.541   5.816   0.493
 4946SOL    HW115737   2.519   5.824   0.396
 4946SOL    HW215738   2.461   5.836   0.548
 4947SOL     OW15739   0.814   0.218   1.204
 4947SOL    HW115740   0.769   0.291   1.256
 4947SOL    HW215741   0.875   0.258   1.136
 4948SOL     OW15742   1.031   2.661   2.148
 4948SOL    HW115743   0.961   2.731   2.160
 4948SOL    HW215744   1.108   2.699   2.096
 4949SOL     OW15745   6.277   4.567   6.231
 4949SOL    HW115746   6.360   4.549   6.178
 4949SOL    HW215747   6.292   4.647   6.289
 4950SOL     OW15748   4.164   4.632   5.732
 4950SOL    HW115749   4.151   4.563   5.661
 4950SOL    HW215750   4.262   4.643   5.750
 4951SOL     OW15751   4.719   5.475   3.021
 4951SOL    HW115752   4.777   5.553   3.043
 4951SOL    HW215753   4.623   5.504   3.023
 4952SOL     OW15754   0.933   0.825   6.569
 4952SOL    HW115755   0.840   0.791   6.571
 4952SOL    HW215756   0.939   0.903   6.506
 4953SOL     OW15757   1.376   1.835   5.935
 4953SOL    HW115758   1.437   1.770   5.980
 4953SOL    HW215759   1.318   1.787   5.869
 4954SOL     OW15760   3.286   3.496   5.244
 4954SOL    HW115761   3.314   3.422   5.182
 4954SOL    HW215762   3.289   3.583   5.195
 4955SOL     OW15763   4.090   5.938   0.196
 4955SOL    HW115764   4.144   5.856   0.214
 4955SOL    HW215765   4.148   6.019   0.208
 4956SOL     OW15766   2.280   0.305   4.810
 4956SOL    HW115767   2.275   0.290   4.909
 4956SOL    HW215768   2.227   0.386   4.786
 4957SOL     OW15769   5.834   5.486   0.362
 4957SOL    HW115770   5.925   5.454   0.336
 4957SOL    HW215771   5.821   5.580   0.330
 4958SOL     OW15772   3.505   5.729   6.915
 4958SOL    HW115773   3.482   5.641   6.956
 4958SOL    HW215774   3.504   5.800   6.986
 4959SOL     OW15775   7.023   2.335   2.946
 4959SOL    HW115776   0.095   2.361   2.960
 4959SOL    HW215777   6.963   2.414   2.961
 4960SOL     OW15778   5.007   4.522   3.778
 4960SOL    HW115779   4.970   4.609   3.811
 4960SOL    HW215780   5.095   4.504   3.823
 4961SOL     OW15781   3.869   2.996   2.243
 4961SOL    HW115782   3.933   3.020   2.316
 4961SOL    HW215783   3.917   3.001   2.155
 4962SOL     OW15784   1.694   2.509   0.096
 4962SOL    HW115785   1.720   2.606   0.094
 4962SOL    HW215786   1.617   2.497   0.159
 4963SOL     OW15787   0.448   4.096   0.080
 4963SOL    HW115788   0.359   4.134   0.057
 4963SOL    HW215789   0.443   3.996   0.079
 4964SOL     OW15790   1.869   4.609   4.263
 4964SOL    HW115791   1.801   4.539   4.282
 4964SOL    HW215792   1.953   4.566   4.231
 4965SOL     OW15793   2.296   0.198   3.476
 4965SOL    HW115794   2.228   0.228   3.542
 4965SOL    HW215795   2.273   0.233   3.385
 4966SOL     OW15796   4.597   0.004   5.529
 4966SOL    HW115797   4.538   0.007   5.610
 4966SOL    HW215798   4.541   7.016   5.447
 4967SOL     OW15799   4.722   4.594   3.943
 4967SOL    HW115800   4.683   4.522   4.000
 4967SOL    HW215801   4.729   4.678   3.997
 4968SOL     OW15802   6.282   2.999   4.070
 4968SOL    HW115803   6.271   3.094   4.042
 4968SOL    HW215804   6.228   2.941   4.009
 4969SOL     OW15805   0.431   5.893   4.528
 4969SOL    HW115806   0.359   5.890   4.459
 4969SOL    HW215807   0.481   5.980   4.520
 4970SOL     OW15808   2.288   1.408   1.611
 4970SOL    HW115809   2.237   1.364   1.684
 4970SOL    HW215810   2.294   1.346   1.533
 4971SOL     OW15811   0.042   5.865   1.413
 4971SOL    HW115812   0.090   5.919   1.483
 4971SOL    HW215813   0.027   5.773   1.448
 4972SOL     OW15814   0.193   4.134   6.960
 4972SOL    HW115815   0.149   4.149   0.026
 4972SOL    HW215816   0.138   4.070   6.907
 4973SOL     OW15817   5.571   2.395   6.594
 4973SOL    HW115818   5.589   2.490   6.566
 4973SOL    HW215819   5.566   2.337   6.512
 4974SOL     OW15820   3.396   6.957   6.001
 4974SOL    HW115821   3.479   6.969   5.947
 4974SOL    HW215822   3.319   6.934   5.941
 4975SOL     OW15823   5.792   3.946   1.368
 4975SOL    HW115824   5.706   3.903   1.343
 4975SOL    HW215825   5.779   4.005   1.447
 4976SOL     OW15826   0.608   0.155   4.033
 4976SOL    HW115827   0.659   0.089   4.089
 4976SOL    HW215828   0.589   0.237   4.088
 4977SOL     OW15829   1.435   3.825   5.346
 4977SOL    HW115830   1.379   3.889   5.292
 4977SOL    HW215831   1.395   3.733   5.339
 4978SOL     OW15832   6.366   5.263   4.699
 4978SOL    HW115833   6.319   5.262   4.611
 4978SOL    HW215834   6.406   5.173   4.717
 4979SOL     OW15835   2.831   6.840   6.647
 4979SOL    HW115836   2.924   6.861   6.617
 4979SOL    HW215837   2.773   6.821   6.568
 4980SOL     OW15838   5.847   3.046   3.874
 4980SOL    HW115839   5.820   2.959   3.834
 4980SOL    HW215840   5.787   3.118   3.839
 4981SOL     OW15841   3.613   6.217   3.493
 4981SOL    HW115842   3.652   6.284   3.431
 4981SOL    HW215843   3.608   6.128   3.448
 4982SOL     OW15844   4.107   1.757   5.060
 4982SOL    HW115845   4.078   1.716   5.146
 4982SOL    HW215846   4.047   1.724   4.986
 4983SOL     OW15847   6.041   3.404   3.029
 4983SOL    HW115848   6.041   3.488   2.976
 4983SOL    HW215849   5.993   3.332   2.977
 4984SOL     OW15850   5.021   3.651   4.845
 4984SOL    HW115851   4.986   3.713   4.775
 4984SOL    HW215852   4.949   3.631   4.911
 4985SOL     OW15853   5.411   0.336   2.024
 4985SOL    HW115854   5.376   0.393   2.098
 4985SOL    HW215855   5.364   0.358   1.939
 4986SOL     OW15856   1.754   5.415   1.116
 4986SOL    HW115857   1.687   5.344   1.138
 4986SOL    HW215858   1.768   5.474   1.195
 4987SOL     OW15859   1.829   3.401   2.615
 4987SOL    HW115860   1.815   3.305   2.640
 4987SOL    HW215861   1.907   3.408   2.552
 4988SOL     OW15862   6.104   5.578   4.169
 4988SOL    HW115863   6.177   5.509   4.162
 4988SOL    HW215864   6.137   5.657   4.220
 4989SOL     OW15865   7.002   6.854   3.551
 4989SOL    HW115866   6.918   6.825   3.598
 4989SOL    HW215867   6.981   6.928   3.488
 4990SOL     OW15868   5.078   1.924   6.022
 4990SOL    HW115869   5.105   1.851   6.086
 4990SOL    HW215870   5.117   1.905   5.932
 4991SOL     OW15871   1.996   5.518   5.709
 4991SOL    HW115872   2.048   5.519   5.624
 4991SOL    HW215873   1.900   5.540   5.690
 4992SOL     OW15874   1.870   3.344   5.019
 4992SOL    HW115875   1.890   3.255   4.979
 4992SOL    HW215876   1.867   3.336   5.118
 4993SOL     OW15877   2.183   5.853   3.797
 4993SOL    HW115878   2.244   5.900   3.860
 4993SOL    HW215879   2.096   5.833   3.842
 4994SOL     OW15880   3.110   5.314   5.623
 4994SOL    HW115881   3.127   5.254   5.545
 4994SOL    HW215882   3.186   5.308   5.687
 4995SOL     OW15883   0.463   1.170   5.856
 4995SOL    HW115884   0.467   1.073   5.881
 4995SOL    HW215885   0.425   1.179   5.764
 4996SOL     OW15886   0.183   0.946   4.239
 4996SOL    HW115887   0.239   0.965   4.159
 4996SOL    HW215888   0.197   0.851   4.268
 4997SOL     OW15889   4.267   1.613   0.399
 4997SOL    HW115890   4.247   1.521   0.365
 4997SOL    HW215891   4.353   1.612   0.450
 4998SOL     OW15892   0.873   3.815   3.932
 4998SOL    HW115893   0.854   3.865   3.848
 4998SOL    HW215894   0.791   3.814   3.989
 4999SOL     OW15895   0.250   3.116   3.721
 4999SOL    HW115896   0.266   3.019   3.742
 4999SOL    HW215897   0.309   3.173   3.778
 5000SOL     OW15898   3.215   6.501   3.130
 5000SOL    HW115899   3.151   6.433   3.166
 5000SOL    HW215900   3.298   6.502   3.186
 5001SOL     OW15901   0.346   5.611   3.223
 5001SOL    HW115902   0.322   5.679   3.292
 5001SOL    HW215903   0.273   5.605   3.155
 5002SOL     OW15904   1.226   4.880   3.803
 5002SOL    HW115905   1.314   4.837   3.824
 5002SOL    HW215906   1.209   4.954   3.867
 5003SOL     OW15907   3.436   0.942   1.659
 5003SOL    HW115908   3.508   0.877   1.684
 5003SOL    HW215909   3.462   1.033   1.689
 5004SOL     OW15910   4.305   6.084   0.302
 5004SOL    HW115911   4.258   6.082   0.390
 5004SOL    HW215912   4.352   6.171   0.290
 5005SOL     OW15913   3.727   3.079   0.893
 5005SOL    HW115914   3.717   2.992   0.942
 5005SOL    HW215915   3.695   3.067   0.799
 5006SOL     OW15916   5.310   0.404   2.608
 5006SOL    HW115917   5.307   0.503   2.599
 5006SOL    HW215918   5.286   0.361   2.521
 5007SOL     OW15919   6.210   5.315   2.470
 5007SOL    HW115920   6.279   5.270   2.527
 5007SOL    HW215921   6.139   5.353   2.528
 5008SOL     OW15922   5.033   6.938   3.506
 5008SOL    HW115923   5.032   7.012   3.573
 5008SOL    HW215924   5.128   6.916   3.482
 5009SOL     OW15925   0.220   1.498   6.926
 5009SOL    HW115926   0.206   1.524   7.021
 5009SOL    HW215927   0.294   1.431   6.920
 5010SOL     OW15928   5.091   3.876   1.010
 5010SOL    HW115929   5.097   3.927   0.925
 5010SOL    HW215930   5.050   3.786   0.992
 5011SOL     OW15931   1.819   2.796   6.369
 5011SOL    HW115932   1.788   2.817   6.462
 5011SOL    HW215933   1.740   2.773   6.312
 5012SOL     OW15934   6.576   1.925   6.035
 5012SOL    HW115935   6.537   1.956   6.121
 5012SOL    HW215936   6.660   1.875   6.052
 5013SOL     OW15937   5.373   0.125   5.650
 5013SOL    HW115938   5.431   0.202   5.675
 5013SOL    HW215939   5.425   0.062   5.592
 5014SOL     OW15940   6.158   3.632   0.785
 5014SOL    HW115941   6.253   3.643   0.755
 5014SOL    HW215942   6.146   3.544   0.830
 5015SOL     OW15943   5.922   5.429   4.399
 5015SOL    HW115944   5.957   5.410   4.307
 5015SOL    HW215945   5.822   5.425   4.397
 5016SOL     OW15946   1.565   2.577   6.495
 5016SOL    HW115947   1.539   2.520   6.417
 5016SOL    HW215948   1.523   2.541   6.578
 5017SOL     OW15949   0.989   2.258   1.842
 5017SOL    HW115950   1.020   2.301   1.757
 5017SOL    HW215951   0.923   2.318   1.887
 5018SOL     OW15952   1.203   0.658   0.002
 5018SOL    HW115953   1.288   0.607   7.015
 5018SOL    HW215954   1.164   0.676   6.934
 5019SOL     OW15955   1.673   4.148   4.105
 5019SOL    HW115956   1.629   4.126   4.192
 5019SOL    HW215957   1.739   4.075   4.082
 5020SOL     OW15958   1.615   6.905   4.042
 5020SOL    HW115959   1.647   6.936   3.953
 5020SOL    HW215960   1.523   6.940   4.059
 5021SOL     OW15961   2.124   0.291   1.428
 5021SOL    HW115962   2.161   0.279   1.520
 5021SOL    HW215963   2.165   0.372   1.386
 5022SOL     OW15964   6.984   2.743   0.750
 5022SOL    HW115965   0.028   2.668   0.751
 5022SOL    HW215966   7.002   2.805   0.825
 5023SOL     OW15967   0.151   3.430   2.918
 5023SOL    HW115968   0.055   3.455   2.920
 5023SOL    HW215969   0.207   3.513   2.920
 5024SOL     OW15970   4.802   4.294   0.043
 5024SOL    HW115971   4.734   4.278   0.116
 5024SOL    HW215972   4.770   4.250   6.981
 5025SOL     OW15973   4.970   2.117   4.721
 5025SOL    HW115974   4.995   2.020   4.713
 5025SOL    HW215975   5.001   2.166   4.639
 5026SOL     OW15976   5.111   5.976   5.138
 5026SOL    HW115977   5.079   5.983   5.043
 5026SOL    HW215978   5.146   5.883   5.154
 5027SOL     OW15979   5.385   6.441   0.952
 5027SOL    HW115980   5.318   6.395   1.011
 5027SOL    HW215981   5.421   6.376   0.885
 5028SOL     OW15982   6.428   1.753   2.533
 5028SOL    HW115983   6.352   1.734   2.470
 5028SOL    HW215984   6.410   1.839   2.581
 5029SOL     OW15985   5.142   2.472   2.134
 5029SOL    HW115986   5.047   2.443   2.143
 5029SOL    HW215987   5.185   2.425   2.057
 5030SOL     OW15988   0.421   3.595   0.915
 5030SOL    HW115989   0.478   3.614   0.835
 5030SOL    HW215990   0.351   3.666   0.924
 5031SOL     OW15991   6.337   0.133   6.063
 5031SOL    HW115992   6.363   0.118   5.968
 5031SOL    HW215993   6.238   0.149   6.069
 5032SOL     OW15994   2.306   4.160   6.203
 5032SOL    HW115995   2.393   4.203   6.178
 5032SOL    HW215996   2.275   4.197   6.291
 5033SOL     OW15997   2.128   6.565   5.740
 5033SOL    HW115998   2.222   6.598   5.745
 5033SOL    HW215999   2.121   6.496   5.667
 5034SOL     OW16000   4.144   6.185   4.153
 5034SOL    HW116001   4.076   6.114   4.135
 5034SOL    HW216002   4.152   6.245   4.074
 5035SOL     OW16003   1.940   4.097   3.465
 5035SOL    HW116004   2.031   4.056   3.466
 5035SOL    HW216005   1.899   4.090   3.555
 5036SOL     OW16006   1.148   3.413   4.863
 5036SOL    HW116007   1.171   3.397   4.767
 5036SOL    HW216008   1.074   3.480   4.868
 5037SOL     OW16009   5.187   4.567   1.152
 5037SOL    HW116010   5.099   4.546   1.110
 5037SOL    HW216011   5.192   4.666   1.170
 5038SOL     OW16012   2.962   3.815   4.031
 5038SOL    HW116013   2.884   3.823   3.969
 5038SOL    HW216014   3.046   3.806   3.977
 5039SOL     OW16015   0.651   3.480   6.769
 5039SOL    HW116016   0.675   3.574   6.793
 5039SOL    HW216017   0.623   3.476   6.672
 5040SOL     OW16018   0.671   1.275   5.471
 5040SOL    HW116019   0.672   1.282   5.570
 5040SOL    HW216020   0.616   1.350   5.433
 5041SOL     OW16021   6.806   1.823   1.631
 5041SOL    HW116022   6.722   1.846   1.681
 5041SOL    HW216023   6.857   1.906   1.611
 5042SOL     OW16024   0.936   1.812   5.754
 5042SOL    HW116025   0.853   1.858   5.788
 5042SOL    HW216026   0.914   1.763   5.670
 5043SOL     OW16027   3.029   6.723   2.071
 5043SOL    HW116028   3.021   6.746   1.974
 5043SOL    HW216029   2.949   6.758   2.120
 5044SOL     OW16030   6.964   5.835   6.919
 5044SOL    HW116031   6.962   5.789   7.008
 5044SOL    HW216032   6.949   5.767   6.847
 5045SOL     OW16033   6.002   2.521   0.896
 5045SOL    HW116034   6.096   2.552   0.907
 5045SOL    HW216035   5.965   2.494   0.985
 5046SOL     OW16036   4.046   3.148   2.403
 5046SOL    HW116037   4.072   3.174   2.310
 5046SOL    HW216038   4.044   3.230   2.461
 5047SOL     OW16039   1.913   4.326   3.317
 5047SOL    HW116040   1.928   4.240   3.365
 5047SOL    HW216041   1.858   4.310   3.236
 5048SOL     OW16042   2.767   0.500   5.958
 5048SOL    HW116043   2.667   0.505   5.963
 5048SOL    HW216044   2.804   0.588   5.930
 5049SOL     OW16045   3.979   1.665   6.660
 5049SOL    HW116046   3.886   1.629   6.667
 5049SOL    HW216047   3.982   1.759   6.693
 5050SOL     OW16048   1.735   0.654   0.950
 5050SOL    HW116049   1.648   0.605   0.956
 5050SOL    HW216050   1.725   0.745   0.988
 5051SOL     OW16051   4.330   4.890   1.012
 5051SOL    HW116052   4.272   4.906   1.091
 5051SOL    HW216053   4.320   4.795   0.982
 5052SOL     OW16054   2.237   2.903   4.515
 5052SOL    HW116055   2.268   2.997   4.514
 5052SOL    HW216056   2.164   2.893   4.583
 5053SOL     OW16057   6.221   0.889   0.655
 5053SOL    HW116058   6.261   0.799   0.638
 5053SOL    HW216059   6.225   0.909   0.753
 5054SOL     OW16060   4.052   5.132   3.316
 5054SOL    HW116061   3.959   5.157   3.288
 5054SOL    HW216062   4.064   5.034   3.307
 5055SOL     OW16063   0.065   3.328   5.193
 5055SOL    HW116064   0.041   3.344   5.289
 5055SOL    HW216065   0.004   3.382   5.135
 5056SOL     OW16066   6.115   4.395   3.686
 5056SOL    HW116067   6.121   4.365   3.781
 5056SOL    HW216068   6.206   4.417   3.652
 5057SOL     OW16069   6.801   5.873   2.086
 5057SOL    HW116070   6.813   5.957   2.033
 5057SOL    HW216071   6.868   5.870   2.160
 5058SOL     OW16072   2.245   5.733   6.080
 5058SOL    HW116073   2.244   5.702   5.985
 5058SOL    HW216074   2.232   5.654   6.140
 5059SOL     OW16075   6.924   0.487   2.247
 5059SOL    HW116076   6.930   0.572   2.300
 5059SOL    HW216077   7.008   0.435   2.259
 5060SOL     OW16078   0.084   2.169   6.842
 5060SOL    HW116079   0.039   2.141   6.757
 5060SOL    HW216080   0.155   2.102   6.865
 5061SOL     OW16081   5.393   3.392   0.748
 5061SOL    HW116082   5.336   3.316   0.714
 5061SOL    HW216083   5.426   3.445   0.670
 5062SOL     OW16084   6.708   0.128   0.154
 5062SOL    HW116085   6.697   0.119   0.253
 5062SOL    HW216086   6.804   0.110   0.130
 5063SOL     OW16087   1.264   6.351   2.698
 5063SOL    HW116088   1.274   6.269   2.755
 5063SOL    HW216089   1.203   6.330   2.621
 5064SOL     OW16090   5.055   3.827   6.923
 5064SOL    HW116091   5.064   3.729   6.907
 5064SOL    HW216092   4.998   3.867   6.851
 5065SOL     OW16093   3.131   6.764   6.357
 5065SOL    HW116094   3.053   6.707   6.383
 5065SOL    HW216095   3.123   6.789   6.261
 5066SOL     OW16096   4.570   5.015   1.047
 5066SOL    HW116097   4.621   4.946   0.997
 5066SOL    HW216098   4.473   4.989   1.050
 5067SOL     OW16099   4.955   1.260   6.653
 5067SOL    HW116100   5.044   1.254   6.608
 5067SOL    HW216101   4.883   1.237   6.587
 5068SOL     OW16102   3.583   4.902   1.088
 5068SOL    HW116103   3.665   4.921   1.035
 5068SOL    HW216104   3.549   4.811   1.067
 5069SOL     OW16105   6.809   5.143   3.142
 5069SOL    HW116106   6.830   5.213   3.073
 5069SOL    HW216107   6.870   5.153   3.220
 5070SOL     OW16108   4.885   3.108   3.736
 5070SOL    HW116109   4.969   3.094   3.788
 5070SOL    HW216110   4.852   3.020   3.702
 5071SOL     OW16111   4.826   0.966   0.716
 5071SOL    HW116112   4.728   0.947   0.725
 5071SOL    HW216113   4.860   1.005   0.801
 5072SOL     OW16114   0.647   3.876   1.101
 5072SOL    HW116115   0.558   3.878   1.146
 5072SOL    HW216116   0.719   3.888   1.170
 5073SOL     OW16117   4.078   2.215   3.580
 5073SOL    HW116118   3.988   2.240   3.614
 5073SOL    HW216119   4.077   2.119   3.550
 5074SOL     OW16120   4.181   4.712   5.208
 5074SOL    HW116121   4.228   4.778   5.149
 5074SOL    HW216122   4.227   4.623   5.201
 5075SOL     OW16123   0.210   6.711   4.026
 5075SOL    HW116124   0.205   6.811   4.030
 5075SOL    HW216125   0.120   6.673   4.047
 5076SOL     OW16126   4.552   0.369   0.866
 5076SOL    HW116127   4.514   0.365   0.958
 5076SOL    HW216128   4.612   0.291   0.851
 5077SOL     OW16129   6.594   2.537   2.221
 5077SOL    HW116130   6.570   2.447   2.183
 5077SOL    HW216131   6.603   2.529   2.321
 5078SOL     OW16132   0.053   1.051   4.454
 5078SOL    HW116133   7.010   1.120   4.423
 5078SOL    HW216134   0.110   1.022   4.377
 5079SOL     OW16135   4.583   5.016   4.857
 5079SOL    HW116136   4.580   4.917   4.847
 5079SOL    HW216137   4.618   5.057   4.773
 5080SOL     OW16138   5.843   0.611   5.927
 5080SOL    HW116139   5.888   0.686   5.879
 5080SOL    HW216140   5.908   0.535   5.938
 5081SOL     OW16141   2.916   3.270   2.844
 5081SOL    HW116142   2.914   3.369   2.828
 5081SOL    HW216143   2.942   3.224   2.759
 5082SOL     OW16144   0.549   0.913   5.951
 5082SOL    HW116145   0.640   0.948   5.930
 5082SOL    HW216146   0.535   0.914   6.050
 5083SOL     OW16147   1.011   4.262   2.240
 5083SOL    HW116148   0.950   4.338   2.262
 5083SOL    HW216149   1.105   4.285   2.268
 5084SOL     OW16150   0.833   5.776   2.341
 5084SOL    HW116151   0.901   5.845   2.366
 5084SOL    HW216152   0.855   5.737   2.252
 5085SOL     OW16153   6.629   3.237   6.501
 5085SOL    HW116154   6.632   3.196   6.410
 5085SOL    HW216155   6.709   3.296   6.513
 5086SOL     OW16156   6.165   5.654   4.791
 5086SOL    HW116157   6.204   5.568   4.823
 5086SOL    HW216158   6.121   5.701   4.868
 5087SOL     OW16159   5.754   5.312   5.187
 5087SOL    HW116160   5.812   5.299   5.106
 5087SOL    HW216161   5.807   5.291   5.269
 5088SOL     OW16162   6.300   0.818   6.957
 5088SOL    HW116163   6.265   0.818   6.864
 5088SOL    HW216164   6.308   0.913   6.989
 5089SOL     OW16165   5.540   2.738   4.313
 5089SOL    HW116166   5.617   2.717   4.253
 5089SOL    HW216167   5.513   2.656   4.362
 5090SOL     OW16168   1.418   5.384   0.292
 5090SOL    HW116169   1.466   5.443   0.226
 5090SOL    HW216170   1.324   5.371   0.262
 5091SOL     OW16171   0.752   6.163   3.227
 5091SOL    HW116172   0.709   6.075   3.206
 5091SOL    HW216173   0.703   6.207   3.301
 5092SOL     OW16174   3.420   2.830   1.317
 5092SOL    HW116175   3.453   2.737   1.302
 5092SOL    HW216176   3.332   2.842   1.271
 5093SOL     OW16177   1.068   1.799   1.534
 5093SOL    HW116178   1.030   1.869   1.595
 5093SOL    HW216179   1.166   1.790   1.550
 5094SOL     OW16180   0.295   0.116   6.659
 5094SOL    HW116181   0.336   0.029   6.686
 5094SOL    HW216182   0.283   0.174   6.739
 5095SOL     OW16183   3.166   0.208   5.375
 5095SOL    HW116184   3.144   0.152   5.454
 5095SOL    HW216185   3.256   0.250   5.388
 5096SOL     OW16186   3.759   6.078   2.972
 5096SOL    HW116187   3.687   6.021   3.010
 5096SOL    HW216188   3.812   6.026   2.905
 5097SOL     OW16189   0.862   1.782   6.530
 5097SOL    HW116190   0.795   1.751   6.598
 5097SOL    HW216191   0.836   1.872   6.495
 5098SOL     OW16192   7.012   2.530   3.258
 5098SOL    HW116193   0.008   2.550   3.162
 5098SOL    HW216194   6.984   2.615   3.304
 5099SOL     OW16195   0.420   1.130   4.390
 5099SOL    HW116196   0.451   1.069   4.317
 5099SOL    HW216197   0.379   1.212   4.350
 5100SOL     OW16198   4.434   5.154   5.843
 5100SOL    HW116199   4.405   5.167   5.938
 5100SOL    HW216200   4.518   5.206   5.827
 5101SOL     OW16201   5.595   6.085   0.700
 5101SOL    HW116202   5.623   6.065   0.606
 5101SOL    HW216203   5.655   6.035   0.763
 5102SOL     OW16204   3.632   5.343   3.980
 5102SOL    HW116205   3.596   5.391   4.060
 5102SOL    HW216206   3.659   5.250   4.006
 5103SOL     OW16207   1.071   1.701   3.669
 5103SOL    HW116208   0.990   1.750   3.699
 5103SOL    HW216209   1.044   1.614   3.627
 5104SOL     OW16210   0.626   0.678   0.751
 5104SOL    HW116211   0.720   0.712   0.745
 5104SOL    HW216212   0.616   0.622   0.834
 5105SOL     OW16213   1.222   3.006   6.382
 5105SOL    HW116214   1.131   3.047   6.368
 5105SOL    HW216215   1.286   3.045   6.316
 5106SOL     OW16216   2.387   6.732   2.243
 5106SOL    HW116217   2.401   6.651   2.186
 5106SOL    HW216218   2.447   6.806   2.211
 5107SOL     OW16219   2.176   6.755   6.666
 5107SOL    HW116220   2.129   6.745   6.578
 5107SOL    HW216221   2.110   6.742   6.741
 5108SOL     OW16222   3.282   3.996   4.750
 5108SOL    HW116223   3.214   3.928   4.776
 5108SOL    HW216224   3.252   4.042   4.666
 5109SOL     OW16225   6.755   2.296   2.705
 5109SOL    HW116226   6.775   2.329   2.613
 5109SOL    HW216227   6.841   2.282   2.755
 5110SOL     OW16228   2.197   6.195   5.348
 5110SOL    HW116229   2.277   6.159   5.396
 5110SOL    HW216230   2.168   6.280   5.391
 5111SOL     OW16231   1.848   0.513   6.851
 5111SOL    HW116232   1.915   0.584   6.828
 5111SOL    HW216233   1.854   0.439   6.785
 5112SOL     OW16234   6.902   6.786   2.885
 5112SOL    HW116235   6.895   6.885   2.897
 5112SOL    HW216236   6.812   6.749   2.862
 5113SOL     OW16237   0.747   0.551   6.160
 5113SOL    HW116238   0.838   0.587   6.178
 5113SOL    HW216239   0.735   0.464   6.208
 5114SOL     OW16240   4.298   5.626   6.611
 5114SOL    HW116241   4.371   5.577   6.563
 5114SOL    HW216242   4.218   5.634   6.551
 5115SOL     OW16243   2.491   3.829   5.367
 5115SOL    HW116244   2.408   3.822   5.422
 5115SOL    HW216245   2.470   3.877   5.282
 5116SOL     OW16246   6.634   4.086   1.314
 5116SOL    HW116247   6.639   4.177   1.271
 5116SOL    HW216248   6.552   4.081   1.372
 5117SOL     OW16249   2.165   4.768   2.572
 5117SOL    HW116250   2.177   4.669   2.564
 5117SOL    HW216251   2.124   4.789   2.661
 5118SOL     OW16252   4.174   0.064   1.603
 5118SOL    HW116253   4.111   0.142   1.609
 5118SOL    HW216254   4.156   0.014   1.518
 5119SOL     OW16255   6.129   0.709   2.403
 5119SOL    HW116256   6.050   0.656   2.434
 5119SOL    HW216257   6.180   0.656   2.336
 5120SOL     OW16258   3.135   1.488   1.918
 5120SOL    HW116259   3.104   1.581   1.936
 5120SOL    HW216260   3.055   1.427   1.912
 5121SOL     OW16261   0.305   3.646   4.076
 5121SOL    HW116262   0.359   3.562   4.074
 5121SOL    HW216263   0.294   3.676   4.171
 5122SOL     OW16264   2.120   5.358   3.509
 5122SOL    HW116265   2.135   5.449   3.547
 5122SOL    HW216266   2.023   5.346   3.486
 5123SOL     OW16267   6.150   3.267   2.396
 5123SOL    HW116268   6.114   3.188   2.346
 5123SOL    HW216269   6.172   3.340   2.332
 5124SOL     OW16270   3.493   6.287   0.766
 5124SOL    HW116271   3.502   6.301   0.865
 5124SOL    HW216272   3.523   6.369   0.718
 5125SOL     OW16273   0.681   1.934   5.854
 5125SOL    HW116274   0.647   1.870   5.924
 5125SOL    HW216275   0.604   1.980   5.811
 5126SOL     OW16276   4.003   1.729   0.379
 5126SOL    HW116277   4.047   1.815   0.404
 5126SOL    HW216278   4.073   1.662   0.352
 5127SOL     OW16279   4.904   2.958   6.785
 5127SOL    HW116280   4.864   2.870   6.813
 5127SOL    HW216281   4.848   2.999   6.713
 5128SOL     OW16282   0.348   0.458   6.418
 5128SOL    HW116283   0.365   0.444   6.321
 5128SOL    HW216284   0.426   0.424   6.471
 5129SOL     OW16285   4.858   3.210   3.472
 5129SOL    HW116286   4.858   3.308   3.453
 5129SOL    HW216287   4.860   3.194   3.570
 5130SOL     OW16288   2.380   6.562   5.011
 5130SOL    HW116289   2.426   6.497   5.072
 5130SOL    HW216290   2.394   6.534   4.916
 5131SOL     OW16291   3.344   4.933   2.933
 5131SOL    HW116292   3.245   4.915   2.937
 5131SOL    HW216293   3.370   4.991   3.011
 5132SOL     OW16294   3.414   2.027   6.346
 5132SOL    HW116295   3.328   1.977   6.358
 5132SOL    HW216296   3.451   2.050   6.436
 5133SOL     OW16297   4.257   4.486   6.381
 5133SOL    HW116298   4.253   4.484   6.281
 5133SOL    HW216299   4.303   4.569   6.412
 5134SOL     OW16300   5.814   5.737   0.261
 5134SOL    HW116301   5.743   5.791   0.216
 5134SOL    HW216302   5.837   5.778   0.349
 5135SOL     OW16303   6.940   3.393   1.909
 5135SOL    HW116304   6.906   3.343   1.829
 5135SOL    HW216305   6.968   3.328   1.979
 5136SOL     OW16306   0.279   0.705   4.421
 5136SOL    HW116307   0.337   0.647   4.478
 5136SOL    HW216308   0.259   0.790   4.471
 5137SOL     OW16309   5.753   0.479   2.953
 5137SOL    HW116310   5.672   0.446   3.001
 5137SOL    HW216311   5.802   0.402   2.912
 5138SOL     OW16312   3.179   4.066   2.442
 5138SOL    HW116313   3.102   4.129   2.431
 5138SOL    HW216314   3.230   4.091   2.524
 5139SOL     OW16315   5.210   0.226   4.984
 5139SOL    HW116316   5.300   0.223   4.941
 5139SOL    HW216317   5.161   0.141   4.965
 5140SOL     OW16318   2.919   3.841   6.359
 5140SOL    HW116319   2.869   3.856   6.274
 5140SOL    HW216320   2.964   3.926   6.388
 5141SOL     OW16321   0.738   2.864   1.427
 5141SOL    HW116322   0.748   2.916   1.512
 5141SOL    HW216323   0.658   2.896   1.377
 5142SOL     OW16324   0.094   6.635   2.824
 5142SOL    HW116325   0.175   6.652   2.880
 5142SOL    HW216326   0.017   6.688   2.860
 5143SOL     OW16327   6.573   6.288   2.431
 5143SOL    HW116328   6.536   6.282   2.338
 5143SOL    HW216329   6.646   6.220   2.441
 5144SOL     OW16330   2.162   2.902   5.409
 5144SOL    HW116331   2.199   2.812   5.431
 5144SOL    HW216332   2.121   2.900   5.318
 5145SOL     OW16333   1.910   5.600   5.436
 5145SOL    HW116334   1.910   5.683   5.493
 5145SOL    HW216335   1.826   5.548   5.452
 5146SOL     OW16336   6.146   5.648   6.627
 5146SOL    HW116337   6.185   5.579   6.689
 5146SOL    HW216338   6.048   5.632   6.616
 5147SOL     OW16339   5.289   1.907   3.710
 5147SOL    HW116340   5.357   1.843   3.747
 5147SOL    HW216341   5.209   1.908   3.770
 5148SOL     OW16342   6.343   1.757   0.801
 5148SOL    HW116343   6.297   1.810   0.873
 5148SOL    HW216344   6.287   1.677   0.778
 5149SOL     OW16345   3.505   5.796   3.860
 5149SOL    HW116346   3.474   5.863   3.793
 5149SOL    HW216347   3.502   5.704   3.820
 5150SOL     OW16348   6.988   0.608   3.445
 5150SOL    HW116349   0.034   0.632   3.513
 5150SOL    HW216350   6.898   0.608   3.487
 5151SOL     OW16351   5.560   5.056   1.876
 5151SOL    HW116352   5.554   5.055   1.776
 5151SOL    HW216353   5.469   5.074   1.914
 5152SOL     OW16354   2.265   2.083   0.502
 5152SOL    HW116355   2.280   2.155   0.570
 5152SOL    HW216356   2.298   2.114   0.413
 5153SOL     OW16357   2.545   2.675   0.480
 5153SOL    HW116358   2.619   2.741   0.496
 5153SOL    HW216359   2.482   2.677   0.559
 5154SOL     OW16360   0.609   2.547   0.631
 5154SOL    HW116361   0.577   2.573   0.722
 5154SOL    HW216362   0.550   2.588   0.562
 5155SOL     OW16363   1.757   0.798   0.346
 5155SOL    HW116364   1.808   0.865   0.291
 5155SOL    HW216365   1.679   0.764   0.293
 5156SOL     OW16366   5.001   5.383   6.265
 5156SOL    HW116367   5.007   5.286   6.243
 5156SOL    HW216368   4.988   5.394   6.363
 5157SOL     OW16369   3.610   1.152   2.082
 5157SOL    HW116370   3.623   1.173   2.179
 5157SOL    HW216371   3.655   1.064   2.062
 5158SOL     OW16372   1.290   2.773   2.381
 5158SOL    HW116373   1.192   2.756   2.387
 5158SOL    HW216374   1.306   2.860   2.333
 5159SOL     OW16375   6.636   2.641   5.158
 5159SOL    HW116376   6.618   2.543   5.153
 5159SOL    HW216377   6.651   2.667   5.253
 5160SOL     OW16378   6.630   6.705   2.810
 5160SOL    HW116379   6.627   6.673   2.715
 5160SOL    HW216380   6.609   6.629   2.872
 5161SOL     OW16381   1.048   1.984   6.070
 5161SOL    HW116382   1.121   1.954   6.131
 5161SOL    HW216383   0.983   1.910   6.056
 5162SOL     OW16384   0.127   6.788   5.651
 5162SOL    HW116385   0.058   6.779   5.579
 5162SOL    HW216386   0.212   6.746   5.622
 5163SOL     OW16387   3.265   0.729   1.750
 5163SOL    HW116388   3.318   0.813   1.733
 5163SOL    HW216389   3.261   0.674   1.667
 5164SOL     OW16390   2.721   3.357   0.349
 5164SOL    HW116391   2.734   3.454   0.370
 5164SOL    HW216392   2.646   3.347   0.283
 5165SOL     OW16393   1.384   5.223   5.764
 5165SOL    HW116394   1.433   5.310   5.775
 5165SOL    HW216395   1.329   5.226   5.681
 5166SOL     OW16396   6.924   5.764   5.691
 5166SOL    HW116397   6.842   5.779   5.746
 5166SOL    HW216398   6.904   5.779   5.594
 5167SOL     OW16399   6.235   3.871   5.758
 5167SOL    HW116400   6.296   3.947   5.778
 5167SOL    HW216401   6.275   3.813   5.687
 5168SOL     OW16402   4.610   1.819   3.009
 5168SOL    HW116403   4.681   1.826   3.080
 5168SOL    HW216404   4.605   1.906   2.959
 5169SOL     OW16405   4.998   5.842   4.339
 5169SOL    HW116406   5.070   5.799   4.394
 5169SOL    HW216407   4.937   5.893   4.399
 5170SOL     OW16408   1.787   3.978   6.033
 5170SOL    HW116409   1.744   3.962   5.944
 5170SOL    HW216410   1.887   3.973   6.023
 5171SOL     OW16411   2.764   6.862   5.875
 5171SOL    HW116412   2.698   6.898   5.941
 5171SOL    HW216413   2.846   6.830   5.923
 5172SOL     OW16414   5.794   5.599   6.021
 5172SOL    HW116415   5.713   5.540   6.031
 5172SOL    HW216416   5.841   5.605   6.109
 5173SOL     OW16417   3.839   5.971   4.481
 5173SOL    HW116418   3.826   6.053   4.426
 5173SOL    HW216419   3.873   5.896   4.423
 5174SOL     OW16420   0.642   6.288   2.459
 5174SOL    HW116421   0.621   6.198   2.498
 5174SOL    HW216422   0.606   6.359   2.520
 5175SOL     OW16423   2.181   1.839   6.640
 5175SOL    HW116424   2.220   1.863   6.729
 5175SOL    HW216425   2.206   1.745   6.616
 5176SOL     OW16426   6.097   6.363   6.213
 5176SOL    HW116427   6.102   6.462   6.230
 5176SOL    HW216428   6.024   6.323   6.267
 5177SOL     OW16429   5.484   5.533   0.639
 5177SOL    HW116430   5.488   5.517   0.737
 5177SOL    HW216431   5.566   5.582   0.609
 5178SOL     OW16432   0.361   3.824   1.218
 5178SOL    HW116433   0.374   3.734   1.262
 5178SOL    HW216434   0.373   3.896   1.286
 5179SOL     OW16435   4.548   5.276   2.485
 5179SOL    HW116436   4.519   5.213   2.557
 5179SOL    HW216437   4.550   5.369   2.521
 5180SOL     OW16438   2.237   4.623   1.903
 5180SOL    HW116439   2.202   4.604   1.811
 5180SOL    HW216440   2.195   4.707   1.938
 5181SOL     OW16441   6.808   1.388   5.516
 5181SOL    HW116442   6.722   1.424   5.551
 5181SOL    HW216443   6.830   1.302   5.562
 5182SOL     OW16444   2.357   6.227   2.140
 5182SOL    HW116445   2.302   6.259   2.062
 5182SOL    HW216446   2.335   6.282   2.221
 5183SOL     OW16447   4.757   2.061   3.351
 5183SOL    HW116448   4.681   2.122   3.328
 5183SOL    HW216449   4.816   2.105   3.418
 5184SOL     OW16450   2.575   1.900   2.994
 5184SOL    HW116451   2.642   1.946   2.935
 5184SOL    HW216452   2.515   1.843   2.937
 5185SOL     OW16453   6.271   7.004   1.855
 5185SOL    HW116454   6.177   0.008   1.876
 5185SOL    HW216455   6.317   6.974   1.938
 5186SOL     OW16456   6.286   2.435   6.708
 5186SOL    HW116457   6.323   2.488   6.785
 5186SOL    HW216458   6.267   2.496   6.632
 5187SOL     OW16459   1.649   4.392   5.195
 5187SOL    HW116460   1.726   4.441   5.153
 5187SOL    HW216461   1.663   4.293   5.186
 5188SOL     OW16462   6.838   0.381   1.594
 5188SOL    HW116463   6.783   0.299   1.613
 5188SOL    HW216464   6.935   0.357   1.597
 5189SOL     OW16465   5.027   6.088   6.639
 5189SOL    HW116466   4.967   6.078   6.559
 5189SOL    HW216467   5.055   6.184   6.648
 5190SOL     OW16468   1.594   4.780   0.924
 5190SOL    HW116469   1.663   4.747   0.989
 5190SOL    HW216470   1.542   4.854   0.966
 5191SOL     OW16471   2.667   4.025   1.624
 5191SOL    HW116472   2.655   3.928   1.605
 5191SOL    HW216473   2.760   4.042   1.656
 5192SOL     OW16474   0.622   4.721   2.910
 5192SOL    HW116475   0.580   4.642   2.956
 5192SOL    HW216476   0.550   4.785   2.883
 5193SOL     OW16477   4.095   0.727   5.075
 5193SOL    HW116478   4.128   0.772   4.992
 5193SOL    HW216479   4.081   0.629   5.057
 5194SOL     OW16480   4.355   1.864   5.124
 5194SOL    HW116481   4.368   1.804   5.203
 5194SOL    HW216482   4.264   1.851   5.086
 5195SOL     OW16483   1.673   1.332   5.763
 5195SOL    HW116484   1.715   1.416   5.730
 5195SOL    HW216485   1.594   1.309   5.706
 5196SOL     OW16486   5.808   6.380   3.173
 5196SOL    HW116487   5.829   6.327   3.090
 5196SOL    HW216488   5.751   6.458   3.148
 5197SOL     OW16489   1.661   3.927   4.940
 5197SOL    HW116490   1.673   3.861   5.013
 5197SOL    HW216491   1.748   3.937   4.890
 5198SOL     OW16492   6.149   5.855   3.924
 5198SOL    HW116493   6.150   5.922   3.850
 5198SOL    HW216494   6.107   5.770   3.890
 5199SOL     OW16495   0.629   5.178   1.319
 5199SOL    HW116496   0.633   5.171   1.219
 5199SOL    HW216497   0.664   5.094   1.359
 5200SOL     OW16498   6.134   3.742   5.099
 5200SOL    HW116499   6.072   3.734   5.177
 5200SOL    HW216500   6.193   3.661   5.096
 5201SOL     OW16501   1.409   6.234   4.561
 5201SOL    HW116502   1.448   6.146   4.535
 5201SOL    HW216503   1.347   6.221   4.638
 5202SOL     OW16504   7.006   4.296   1.079
 5202SOL    HW116505   0.026   4.367   1.023
 5202SOL    HW216506   6.925   4.333   1.125
 5203SOL     OW16507   6.362   3.278   6.902
 5203SOL    HW116508   6.290   3.317   6.847
 5203SOL    HW216509   6.448   3.279   6.851
 5204SOL     OW16510   5.312   5.480   6.582
 5204SOL    HW116511   5.299   5.417   6.506
 5204SOL    HW216512   5.410   5.489   6.601
 5205SOL     OW16513   2.723   6.366   0.101
 5205SOL    HW116514   2.777   6.287   0.129
 5205SOL    HW216515   2.656   6.388   0.172
 5206SOL     OW16516   0.204   4.373   4.838
 5206SOL    HW116517   0.205   4.447   4.770
 5206SOL    HW216518   0.280   4.386   4.902
 5207SOL     OW16519   1.510   4.973   2.612
 5207SOL    HW116520   1.528   5.032   2.691
 5207SOL    HW216521   1.448   5.020   2.549
 5208SOL     OW16522   4.961   1.404   0.296
 5208SOL    HW116523   5.060   1.418   0.295
 5208SOL    HW216524   4.915   1.488   0.270
 5209SOL     OW16525   5.738   4.877   2.887
 5209SOL    HW116526   5.717   4.781   2.866
 5209SOL    HW216527   5.819   4.881   2.945
 5210SOL     OW16528   4.879   3.724   3.090
 5210SOL    HW116529   4.857   3.803   3.033
 5210SOL    HW216530   4.874   3.749   3.186
 5211SOL     OW16531   3.105   3.947   2.192
 5211SOL    HW116532   3.101   3.847   2.185
 5211SOL    HW216533   3.111   3.973   2.288
 5212SOL     OW16534   0.963   6.650   6.922
 5212SOL    HW116535   0.945   6.631   7.019
 5212SOL    HW216536   1.047   6.703   6.913
 5213SOL     OW16537   4.506   2.070   6.094
 5213SOL    HW116538   4.594   2.089   6.137
 5213SOL    HW216539   4.521   2.026   6.005
 5214SOL     OW16540   4.301   2.303   0.118
 5214SOL    HW116541   4.301   2.239   0.195
 5214SOL    HW216542   4.369   2.374   0.134
 5215SOL     OW16543   5.406   5.404   3.613
 5215SOL    HW116544   5.373   5.325   3.666
 5215SOL    HW216545   5.391   5.387   3.515
 5216SOL     OW16546   4.526   5.909   1.387
 5216SOL    HW116547   4.473   5.839   1.437
 5216SOL    HW216548   4.520   5.891   1.289
 5217SOL     OW16549   3.008   4.879   3.432
 5217SOL    HW116550   2.996   4.979   3.429
 5217SOL    HW216551   2.951   4.841   3.504
 5218SOL     OW16552   1.948   6.952   4.121
 5218SOL    HW116553   1.925   0.026   4.114
 5218SOL    HW216554   1.913   6.904   4.040
 5219SOL     OW16555   3.260   0.398   1.401
 5219SOL    HW116556   3.235   0.316   1.348
 5219SOL    HW216557   3.252   0.378   1.499
 5220SOL     OW16558   1.144   6.739   2.124
 5220SOL    HW116559   1.174   6.795   2.201
 5220SOL    HW216560   1.222   6.716   2.066
 5221SOL     OW16561   4.425   1.043   0.370
 5221SOL    HW116562   4.357   1.056   0.298
 5221SOL    HW216563   4.430   1.125   0.427
 5222SOL     OW16564   0.950   6.589   2.402
 5222SOL    HW116565   0.876   6.640   2.445
 5222SOL    HW216566   0.924   6.493   2.394
 5223SOL     OW16567   4.401   6.548   0.891
 5223SOL    HW116568   4.333   6.586   0.953
 5223SOL    HW216569   4.362   6.539   0.799
 5224SOL     OW16570   5.542   1.132   3.901
 5224SOL    HW116571   5.491   1.096   3.823
 5224SOL    HW216572   5.597   1.210   3.872
 5225SOL     OW16573   0.211   6.923   4.985
 5225SOL    HW116574   0.307   6.952   4.991
 5225SOL    HW216575   0.156   6.978   5.047
 5226SOL     OW16576   2.550   0.508   4.216
 5226SOL    HW116577   2.599   0.507   4.304
 5226SOL    HW216578   2.600   0.454   4.149
 5227SOL     OW16579   4.940   3.528   4.326
 5227SOL    HW116580   5.025   3.580   4.314
 5227SOL    HW216581   4.902   3.504   4.236
 5228SOL     OW16582   5.115   0.974   1.677
 5228SOL    HW116583   5.141   0.878   1.670
 5228SOL    HW216584   5.023   0.987   1.639
 5229SOL     OW16585   1.086   4.350   3.818
 5229SOL    HW116586   1.020   4.307   3.880
 5229SOL    HW216587   1.038   4.406   3.752
 5230SOL     OW16588   1.103   1.018   6.205
 5230SOL    HW116589   1.097   0.991   6.109
 5230SOL    HW216590   1.192   0.993   6.242
 5231SOL     OW16591   3.081   3.601   3.578
 5231SOL    HW116592   3.084   3.665   3.501
 5231SOL    HW216593   3.035   3.518   3.549
 5232SOL     OW16594   5.542   2.859   5.025
 5232SOL    HW116595   5.511   2.869   4.931
 5232SOL    HW216596   5.464   2.853   5.086
 5233SOL     OW16597   0.487   0.180   2.993
 5233SOL    HW116598   0.408   0.206   2.938
 5233SOL    HW216599   0.455   0.135   3.076
 5234SOL     OW16600   4.304   5.159   1.216
 5234SOL    HW116601   4.214   5.162   1.173
 5234SOL    HW216602   4.301   5.095   1.293
 5235SOL     OW16603   0.770   3.000   1.686
 5235SOL    HW116604   0.818   2.920   1.721
 5235SOL    HW216605   0.833   3.077   1.680
 5236SOL     OW16606   6.262   3.566   0.224
 5236SOL    HW116607   6.317   3.646   0.200
 5236SOL    HW216608   6.204   3.541   0.146
 5237SOL     OW16609   1.797   1.426   3.162
 5237SOL    HW116610   1.775   1.463   3.072
 5237SOL    HW216611   1.738   1.468   3.231
 5238SOL     OW16612   2.385   3.151   0.757
 5238SOL    HW116613   2.290   3.119   0.762
 5238SOL    HW216614   2.413   3.157   0.661
 5239SOL     OW16615   3.026   3.212   4.788
 5239SOL    HW116616   2.985   3.262   4.865
 5239SOL    HW216617   3.079   3.275   4.732
 5240SOL     OW16618   3.622   2.104   4.794
 5240SOL    HW116619   3.643   2.201   4.802
 5240SOL    HW216620   3.525   2.089   4.813
 5241SOL     OW16621   2.983   5.473   5.438
 5241SOL    HW116622   2.913   5.405   5.415
 5241SOL    HW216623   3.023   5.452   5.527
 5242SOL     OW16624   4.152   0.082   5.668
 5242SOL    HW116625   4.196   0.005   5.621
 5242SOL    HW216626   4.077   0.047   5.725
 5243SOL     OW16627   0.831   4.052   0.588
 5243SOL    HW116628   0.861   4.136   0.634
 5243SOL    HW216629   0.813   3.981   0.657
 5244SOL     OW16630   5.597   3.502   6.734
 5244SOL    HW116631   5.578   3.494   6.636
 5244SOL    HW216632   5.521   3.462   6.785
 5245SOL     OW16633   4.959   4.804   6.243
 5245SOL    HW116634   4.899   4.770   6.171
 5245SOL    HW216635   4.993   4.895   6.218
 5246SOL     OW16636   1.388   3.783   3.366
 5246SOL    HW116637   1.418   3.737   3.282
 5246SOL    HW216638   1.456   3.852   3.391
 5247SOL     OW16639   0.212   4.517   0.060
 5247SOL    HW116640   0.199   4.610   0.024
 5247SOL    HW216641   0.123   4.476   0.079
 5248SOL     OW16642   5.096   1.112   0.293
 5248SOL    HW116643   5.081   1.048   0.219
 5248SOL    HW216644   5.059   1.202   0.268
 5249SOL     OW16645   1.520   5.576   0.072
 5249SOL    HW116646   1.443   5.595   0.012
 5249SOL    HW216647   1.564   5.662   0.098
 5250SOL     OW16648   1.176   1.460   5.627
 5250SOL    HW116649   1.111   1.392   5.593
 5250SOL    HW216650   1.229   1.497   5.551
 5251SOL     OW16651   0.211   3.130   0.867
 5251SOL    HW116652   0.249   3.154   0.778
 5251SOL    HW216653   0.243   3.196   0.935
 5252SOL     OW16654   5.130   6.787   1.096
 5252SOL    HW116655   5.036   6.817   1.080
 5252SOL    HW216656   5.155   6.718   1.027
 5253SOL     OW16657   5.845   2.818   3.747
 5253SOL    HW116658   5.848   2.855   3.655
 5253SOL    HW216659   5.784   2.738   3.749
 5254SOL     OW16660   5.453   0.941   4.641
 5254SOL    HW116661   5.520   0.968   4.710
 5254SOL    HW216662   5.436   0.843   4.647
 5255SOL     OW16663   2.772   5.557   3.837
 5255SOL    HW116664   2.707   5.486   3.867
 5255SOL    HW216665   2.799   5.613   3.915
 5256SOL     OW16666   4.976   6.357   1.812
 5256SOL    HW116667   5.043   6.323   1.878
 5256SOL    HW216668   4.887   6.366   1.857
 5257SOL     OW16669   3.183   1.587   3.181
 5257SOL    HW116670   3.086   1.581   3.155
 5257SOL    HW216671   3.214   1.498   3.214
 5258SOL     OW16672   5.673   1.957   1.647
 5258SOL    HW116673   5.608   1.889   1.613
 5258SOL    HW216674   5.624   2.030   1.693
 5259SOL     OW16675   5.699   4.264   1.574
 5259SOL    HW116676   5.710   4.278   1.476
 5259SOL    HW216677   5.677   4.351   1.618
 5260SOL     OW16678   4.637   2.409   1.513
 5260SOL    HW116679   4.703   2.356   1.566
 5260SOL    HW216680   4.575   2.456   1.576
 5261SOL     OW16681   2.578   2.493   5.199
 5261SOL    HW116682   2.528   2.440   5.268
 5261SOL    HW216683   2.524   2.572   5.173
 5262SOL     OW16684   1.455   0.124   1.784
 5262SOL    HW116685   1.376   0.160   1.734
 5262SOL    HW216686   1.522   0.197   1.798
 5263SOL     OW16687   1.515   6.543   6.606
 5263SOL    HW116688   1.437   6.583   6.558
 5263SOL    HW216689   1.549   6.465   6.555
 5264SOL     OW16690   1.020   1.360   1.272
 5264SOL    HW116691   1.023   1.457   1.300
 5264SOL    HW216692   1.025   1.302   1.354
 5265SOL     OW16693   5.152   4.828   3.734
 5265SOL    HW116694   5.178   4.786   3.821
 5265SOL    HW216695   5.218   4.899   3.711
 5266SOL     OW16696   1.920   6.919   1.226
 5266SOL    HW116697   1.845   6.967   1.271
 5266SOL    HW216698   1.995   6.984   1.208
 5267SOL     OW16699   4.200   3.885   5.240
 5267SOL    HW116700   4.229   3.789   5.229
 5267SOL    HW216701   4.105   3.888   5.269
 5268SOL     OW16702   5.690   5.028   5.775
 5268SOL    HW116703   5.677   5.059   5.680
 5268SOL    HW216704   5.603   4.993   5.811
 5269SOL     OW16705   1.812   4.843   5.871
 5269SOL    HW116706   1.774   4.905   5.940
 5269SOL    HW216707   1.765   4.855   5.784
 5270SOL     OW16708   6.796   2.113   3.710
 5270SOL    HW116709   6.845   2.043   3.659
 5270SOL    HW216710   6.698   2.107   3.690
 5271SOL     OW16711   5.442   3.595   5.837
 5271SOL    HW116712   5.390   3.672   5.875
 5271SOL    HW216713   5.528   3.586   5.887
 5272SOL     OW16714   2.101   1.303   3.721
 5272SOL    HW116715   2.028   1.370   3.714
 5272SOL    HW216716   2.108   1.269   3.815
 5273SOL     OW16717   6.649   0.343   5.273
 5273SOL    HW116718   6.666   0.244   5.279
 5273SOL    HW216719   6.656   0.383   5.364
 5274SOL     OW16720   0.546   5.664   4.609
 5274SOL    HW116721   0.550   5.682   4.707
 5274SOL    HW216722   0.508   5.744   4.562
 5275SOL     OW16723   2.156   6.466   6.813
 5275SOL    HW116724   2.131   6.370   6.825
 5275SOL    HW216725   2.158   6.487   6.715
 5276SOL     OW16726   0.610   6.816   0.492
 5276SOL    HW116727   0.592   6.809   0.590
 5276SOL    HW216728   0.620   6.912   0.466
 5277SOL     OW16729   0.225   1.133   2.234
 5277SOL    HW116730   0.221   1.233   2.227
 5277SOL    HW216731   0.205   1.092   2.145
 5278SOL     OW16732   0.675   4.248   5.838
 5278SOL    HW116733   0.632   4.334   5.866
 5278SOL    HW216734   0.765   4.240   5.882
 5279SOL     OW16735   2.736   6.683   6.845
 5279SOL    HW116736   2.668   6.744   6.887
 5279SOL    HW216737   2.784   6.732   6.772
 5280SOL     OW16738   4.520   6.489   5.384
 5280SOL    HW116739   4.581   6.474   5.462
 5280SOL    HW216740   4.425   6.489   5.416
 5281SOL     OW16741   3.059   6.831   4.947
 5281SOL    HW116742   3.029   6.898   5.015
 5281SOL    HW216743   3.018   6.853   4.858
 5282SOL     OW16744   0.360   6.466   0.555
 5282SOL    HW116745   0.423   6.396   0.520
 5282SOL    HW216746   0.379   6.553   0.509
 5283SOL     OW16747   1.361   0.860   3.962
 5283SOL    HW116748   1.396   0.940   4.011
 5283SOL    HW216749   1.354   0.783   4.025
 5284SOL     OW16750   4.999   3.016   2.102
 5284SOL    HW116751   5.069   2.950   2.075
 5284SOL    HW216752   4.910   2.988   2.064
 5285SOL     OW16753   1.784   2.209   4.057
 5285SOL    HW116754   1.789   2.160   3.970
 5285SOL    HW216755   1.864   2.187   4.112
 5286SOL     OW16756   6.309   3.101   1.171
 5286SOL    HW116757   6.395   3.152   1.174
 5286SOL    HW216758   6.327   3.005   1.152
 5287SOL     OW16759   0.821   5.180   2.081
 5287SOL    HW116760   0.911   5.137   2.082
 5287SOL    HW216761   0.821   5.259   2.143
 5288SOL     OW16762   4.186   0.655   1.563
 5288SOL    HW116763   4.250   0.579   1.554
 5288SOL    HW216764   4.149   0.657   1.656
 5289SOL     OW16765   2.170   4.532   5.761
 5289SOL    HW116766   2.152   4.526   5.859
 5289SOL    HW216767   2.095   4.488   5.711
 5290SOL     OW16768   1.854   2.784   4.878
 5290SOL    HW116769   1.773   2.815   4.827
 5290SOL    HW216770   1.839   2.797   4.976
 5291SOL     OW16771   2.838   4.869   4.535
 5291SOL    HW116772   2.800   4.809   4.605
 5291SOL    HW216773   2.938   4.860   4.534
 5292SOL     OW16774   0.430   3.784   4.550
 5292SOL    HW116775   0.398   3.878   4.563
 5292SOL    HW216776   0.401   3.728   4.628
 5293SOL     OW16777   2.282   0.450   4.131
 5293SOL    HW116778   2.210   0.456   4.200
 5293SOL    HW216779   2.369   0.478   4.172
 5294SOL     OW16780   4.976   0.004   4.691
 5294SOL    HW116781   5.002   6.931   4.677
 5294SOL    HW216782   5.000   0.032   4.784
 5295SOL     OW16783   2.173   0.998   1.534
 5295SOL    HW116784   2.166   0.900   1.514
 5295SOL    HW216785   2.112   1.022   1.609
 5296SOL     OW16786   4.684   4.975   1.985
 5296SOL    HW116787   4.691   4.934   1.894
 5296SOL    HW216788   4.611   4.930   2.036
 5297SOL     OW16789   3.428   5.585   6.066
 5297SOL    HW116790   3.524   5.603   6.087
 5297SOL    HW216791   3.418   5.491   6.033
 5298SOL     OW16792   2.877   1.868   0.281
 5298SOL    HW116793   2.797   1.928   0.285
 5298SOL    HW216794   2.850   1.775   0.306
 5299SOL     OW16795   2.337   0.656   1.705
 5299SOL    HW116796   2.355   0.725   1.775
 5299SOL    HW216797   2.242   0.626   1.711
 5300SOL     OW16798   3.211   5.159   6.707
 5300SOL    HW116799   3.284   5.227   6.709
 5300SOL    HW216800   3.125   5.203   6.680
 5301SOL     OW16801   6.095   0.010   5.628
 5301SOL    HW116802   6.042   0.016   5.544
 5301SOL    HW216803   6.044   0.054   5.702
 5302SOL     OW16804   4.801   5.719   2.687
 5302SOL    HW116805   4.879   5.703   2.747
 5302SOL    HW216806   4.751   5.800   2.718
 5303SOL     OW16807   1.204   5.715   5.572
 5303SOL    HW116808   1.162   5.649   5.510
 5303SOL    HW216809   1.232   5.668   5.656
 5304SOL     OW16810   0.523   0.790   2.961
 5304SOL    HW116811   0.530   0.751   2.869
 5304SOL    HW216812   0.605   0.767   3.014
 5305SOL     OW16813   0.027   5.287   4.732
 5305SOL    HW116814   0.058   5.200   4.771
 5305SOL    HW216815   0.063   5.295   4.639
 5306SOL     OW16816   0.847   2.133   5.893
 5306SOL    HW116817   0.934   2.099   5.930
 5306SOL    HW216818   0.784   2.056   5.881
 5307SOL     OW16819   0.092   1.406   1.564
 5307SOL    HW116820   0.080   1.323   1.509
 5307SOL    HW216821   0.114   1.381   1.658
 5308SOL     OW16822   1.607   4.488   2.477
 5308SOL    HW116823   1.599   4.586   2.496
 5308SOL    HW216824   1.522   4.456   2.435
 5309SOL     OW16825   5.765   5.687   3.304
 5309SOL    HW116826   5.837   5.748   3.338
 5309SOL    HW216827   5.687   5.741   3.275
 5310SOL     OW16828   6.419   2.336   3.365
 5310SOL    HW116829   6.430   2.352   3.267
 5310SOL    HW216830   6.411   2.424   3.412
 5311SOL     OW16831   6.268   0.444   0.238
 5311SOL    HW116832   6.269   0.357   0.287
 5311SOL    HW216833   6.174   0.479   0.234
 5312SOL     OW16834   6.216   6.600   0.445
 5312SOL    HW116835   6.239   6.683   0.393
 5312SOL    HW216836   6.264   6.522   0.405
 5313SOL     OW16837   1.072   0.018   5.902
 5313SOL    HW116838   1.033   6.990   5.979
 5313SOL    HW216839   1.034   0.111   5.901
 5314SOL     OW16840   6.027   1.996   1.984
 5314SOL    HW116841   6.062   1.902   1.984
 5314SOL    HW216842   6.104   2.060   1.983
 5315SOL     OW16843   4.363   2.288   3.828
 5315SOL    HW116844   4.457   2.320   3.833
 5315SOL    HW216845   4.359   2.202   3.779
 5316SOL     OW16846   0.517   2.714   4.550
 5316SOL    HW116847   0.465   2.749   4.472
 5316SOL    HW216848   0.611   2.696   4.522
 5317SOL     OW16849   5.688   2.888   6.519
 5317SOL    HW116850   5.743   2.809   6.542
 5317SOL    HW216851   5.718   2.926   6.432
 5318SOL     OW16852   0.094   3.801   5.846
 5318SOL    HW116853   0.076   3.877   5.783
 5318SOL    HW216854   0.185   3.812   5.886
 5319SOL     OW16855   3.317   6.048   2.657
 5319SOL    HW116856   3.391   6.056   2.591
 5319SOL    HW216857   3.253   6.123   2.645
 5320SOL     OW16858   4.507   5.710   1.159
 5320SOL    HW116859   4.489   5.668   1.248
 5320SOL    HW216860   4.425   5.705   1.102
 5321SOL     OW16861   1.430   4.386   5.571
 5321SOL    HW116862   1.467   4.413   5.660
 5321SOL    HW216863   1.499   4.403   5.500
 5322SOL     OW16864   3.908   6.663   2.102
 5322SOL    HW116865   3.962   6.599   2.047
 5322SOL    HW216866   3.827   6.691   2.051
 5323SOL     OW16867   4.221   0.408   6.131
 5323SOL    HW116868   4.161   0.406   6.052
 5323SOL    HW216869   4.280   0.489   6.126
 5324SOL     OW16870   1.835   2.039   1.653
 5324SOL    HW116871   1.746   2.081   1.668
 5324SOL    HW216872   1.867   2.060   1.561
 5325SOL     OW16873   1.952   2.455   4.992
 5325SOL    HW116874   1.861   2.498   4.993
 5325SOL    HW216875   1.961   2.395   5.071
 5326SOL     OW16876   6.018   0.157   1.154
 5326SOL    HW116877   5.946   0.226   1.164
 5326SOL    HW216878   6.107   0.203   1.157
 5327SOL     OW16879   0.423   2.496   5.435
 5327SOL    HW116880   0.472   2.411   5.451
 5327SOL    HW216881   0.488   2.572   5.430
 5328SOL     OW16882   5.016   5.202   0.424
 5328SOL    HW116883   5.114   5.208   0.407
 5328SOL    HW216884   4.970   5.163   0.344
 5329SOL     OW16885   2.149   6.939   6.322
 5329SOL    HW116886   2.236   6.893   6.340
 5329SOL    HW216887   2.147   6.969   6.227
 5330SOL     OW16888   2.686   4.804   1.140
 5330SOL    HW116889   2.751   4.817   1.215
 5330SOL    HW216890   2.691   4.709   1.108
 5331SOL     OW16891   6.531   0.941   6.604
 5331SOL    HW116892   6.555   0.900   6.692
 5331SOL    HW216893   6.455   1.005   6.616
 5332SOL     OW16894   6.974   5.168   1.769
 5332SOL    HW116895   6.949   5.238   1.835
 5332SOL    HW216896   0.003   5.096   1.814
 5333SOL     OW16897   0.983   5.949   5.331
 5333SOL    HW116898   1.073   5.907   5.320
 5333SOL    HW216899   0.913   5.877   5.335
 5334SOL     OW16900   4.088   6.945   4.921
 5334SOL    HW116901   4.061   6.856   4.886
 5334SOL    HW216902   4.164   6.981   4.867
 5335SOL     OW16903   0.302   5.616   0.047
 5335SOL    HW116904   0.284   5.714   0.032
 5335SOL    HW216905   0.226   5.575   0.097
 5336SOL     OW16906   0.938   4.642   1.387
 5336SOL    HW116907   0.970   4.568   1.329
 5336SOL    HW216908   1.011   4.709   1.399
 5337SOL     OW16909   5.097   3.988   1.277
 5337SOL    HW116910   5.083   4.087   1.289
 5337SOL    HW216911   5.098   3.966   1.179
 5338SOL     OW16912   6.017   2.341   0.172
 5338SOL    HW116913   6.033   2.416   0.108
 5338SOL    HW216914   5.978   2.263   0.123
 5339SOL     OW16915   6.122   0.381   2.181
 5339SOL    HW116916   6.071   0.434   2.114
 5339SOL    HW216917   6.200   0.434   2.214
 5340SOL     OW16918   5.717   2.274   6.080
 5340SOL    HW116919   5.663   2.356   6.100
 5340SOL    HW216920   5.801   2.300   6.031
 5341SOL     OW16921   4.600   0.652   0.775
 5341SOL    HW116922   4.637   0.616   0.689
 5341SOL    HW216923   4.533   0.588   0.811
 5342SOL     OW16924   2.581   0.836   6.209
 5342SOL    HW116925   2.568   0.743   6.245
 5342SOL    HW216926   2.537   0.843   6.120
 5343SOL     OW16927   3.735   4.092   2.002
 5343SOL    HW116928   3.725   3.993   1.992
 5343SOL    HW216929   3.750   4.114   2.099
 5344SOL     OW16930   2.323   2.822   2.805
 5344SOL    HW116931   2.317   2.872   2.891
 5344SOL    HW216932   2.285   2.878   2.731
 5345SOL     OW16933   5.123   0.387   2.870
 5345SOL    HW116934   5.174   0.344   2.796
 5345SOL    HW216935   5.025   0.375   2.853
 5346SOL     OW16936   2.767   6.852   3.595
 5346SOL    HW116937   2.787   6.949   3.578
 5346SOL    HW216938   2.671   6.834   3.576
 5347SOL     OW16939   6.600   1.886   1.820
 5347SOL    HW116940   6.661   1.843   1.887
 5347SOL    HW216941   6.508   1.849   1.830
 5348SOL     OW16942   0.007   1.206   0.861
 5348SOL    HW116943   6.941   1.252   0.852
 5348SOL    HW216944   0.006   1.148   0.943
 5349SOL     OW16945   6.314   0.293   1.151
 5349SOL    HW116946   6.357   0.299   1.061
 5349SOL    HW216947   6.384   0.284   1.221
 5350SOL     OW16948   2.719   0.442   6.767
 5350SOL    HW116949   2.811   0.448   6.806
 5350SOL    HW216950   2.652   0.445   6.840
 5351SOL     OW16951   4.085   0.689   1.829
 5351SOL    HW116952   3.991   0.655   1.831
 5351SOL    HW216953   4.105   0.736   1.915
 5352SOL     OW16954   3.358   6.318   3.526
 5352SOL    HW116955   3.368   6.379   3.446
 5352SOL    HW216956   3.445   6.274   3.545
 5353SOL     OW16957   5.973   0.293   5.726
 5353SOL    HW116958   6.028   0.359   5.777
 5353SOL    HW216959   5.915   0.342   5.661
 5354SOL     OW16960   1.989   3.194   0.963
 5354SOL    HW116961   2.067   3.240   1.005
 5354SOL    HW216962   2.021   3.126   0.897
 5355SOL     OW16963   4.383   1.447   6.004
 5355SOL    HW116964   4.355   1.543   6.006
 5355SOL    HW216965   4.408   1.418   6.096
 5356SOL     OW16966   6.029   3.182   0.722
 5356SOL    HW116967   6.084   3.167   0.639
 5356SOL    HW216968   5.995   3.094   0.755
 5357SOL     OW16969   4.163   6.085   0.546
 5357SOL    HW116970   4.107   6.010   0.510
 5357SOL    HW216971   4.202   6.059   0.633
 5358SOL     OW16972   4.930   3.871   1.487
 5358SOL    HW116973   4.908   3.946   1.425
 5358SOL    HW216974   4.950   3.908   1.578
 5359SOL     OW16975   3.247   0.284   6.851
 5359SOL    HW116976   3.267   0.194   6.889
 5359SOL    HW216977   3.304   0.353   6.896
 5360SOL     OW16978   4.292   0.628   0.190
 5360SOL    HW116979   4.265   0.708   0.242
 5360SOL    HW216980   4.212   0.587   0.147
 5361SOL     OW16981   1.645   0.998   6.351
 5361SOL    HW116982   1.558   0.951   6.338
 5361SOL    HW216983   1.706   0.940   6.406
 5362SOL     OW16984   4.279   5.497   3.360
 5362SOL    HW116985   4.232   5.573   3.315
 5362SOL    HW216986   4.230   5.471   3.443
 5363SOL     OW16987   0.544   5.214   4.961
 5363SOL    HW116988   0.579   5.165   5.041
 5363SOL    HW216989   0.482   5.286   4.990
 5364SOL     OW16990   1.182   6.276   6.665
 5364SOL    HW116991   1.133   6.362   6.680
 5364SOL    HW216992   1.156   6.238   6.576
 5365SOL     OW16993   3.473   1.793   6.074
 5365SOL    HW116994   3.533   1.717   6.048
 5365SOL    HW216995   3.520   1.851   6.141
 5366SOL     OW16996   3.291   4.333   6.520
 5366SOL    HW116997   3.279   4.366   6.614
 5366SOL    HW216998   3.236   4.389   6.458
 5367SOL     OW16999   0.692   4.911   0.778
 5367SOL    HW117000   0.761   4.970   0.737
 5367SOL    HW217001   0.734   4.858   0.852
 5368SOL     OW17002   0.099   0.694   3.773
 5368SOL    HW117003   0.134   0.614   3.724
 5368SOL    HW217004   0.152   0.775   3.746
 5369SOL     OW17005   2.027   3.421   2.263
 5369SOL    HW117006   2.086   3.476   2.205
 5369SOL    HW217007   1.942   3.400   2.214
 5370SOL     OW17008   3.867   2.972   1.415
 5370SOL    HW117009   3.899   3.028   1.492
 5370SOL    HW217010   3.945   2.930   1.370
 5371SOL     OW17011   1.747   4.225   4.912
 5371SOL    HW117012   1.841   4.224   4.945
 5371SOL    HW217013   1.738   4.293   4.838
 5372SOL     OW17014   3.245   6.397   2.880
 5372SOL    HW117015   3.212   6.459   2.951
 5372SOL    HW217016   3.175   6.388   2.809
 5373SOL     OW17017   1.599   5.248   4.386
 5373SOL    HW117018   1.553   5.242   4.475
 5373SOL    HW217019   1.659   5.169   4.375
 5374SOL     OW17020   2.913   2.601   0.581
 5374SOL    HW117021   2.886   2.587   0.676
 5374SOL    HW217022   2.973   2.681   0.575
 5375SOL     OW17023   0.971   3.857   5.039
 5375SOL    HW117024   0.921   3.940   5.016
 5375SOL    HW217025   0.974   3.847   5.139
 5376SOL     OW17026   3.005   4.386   6.790
 5376SOL    HW117027   2.943   4.438   6.849
 5376SOL    HW217028   2.970   4.293   6.780
 5377SOL     OW17029   0.687   1.488   2.023
 5377SOL    HW117030   0.645   1.573   1.993
 5377SOL    HW217031   0.787   1.496   2.018
 5378SOL     OW17032   5.060   6.925   0.182
 5378SOL    HW117033   5.013   6.986   0.118
 5378SOL    HW217034   4.994   6.891   0.249
 5379SOL     OW17035   0.083   6.448   1.008
 5379SOL    HW117036   0.136   6.465   0.924
 5379SOL    HW217037   0.072   6.533   1.059
 5380SOL     OW17038   2.075   1.279   4.552
 5380SOL    HW117039   2.169   1.309   4.536
 5380SOL    HW217040   2.012   1.333   4.496
 5381SOL     OW17041   5.844   3.746   1.680
 5381SOL    HW117042   5.934   3.787   1.665
 5381SOL    HW217043   5.836   3.718   1.776
 5382SOL     OW17044   1.764   6.930   1.662
 5382SOL    HW117045   1.719   6.909   1.749
 5382SOL    HW217046   1.831   7.003   1.675
 5383SOL     OW17047   2.084   1.979   4.504
 5383SOL    HW117048   2.021   2.053   4.481
 5383SOL    HW217049   2.102   1.979   4.602
 5384SOL     OW17050   5.367   6.600   4.424
 5384SOL    HW117051   5.446   6.549   4.457
 5384SOL    HW217052   5.288   6.582   4.483
 5385SOL     OW17053   3.107   3.998   3.137
 5385SOL    HW117054   3.122   4.077   3.077
 5385SOL    HW217055   3.093   3.916   3.082
 5386SOL     OW17056   5.685   0.142   5.589
 5386SOL    HW117057   5.677   0.073   5.660
 5386SOL    HW217058   5.781   0.148   5.559
 5387SOL     OW17059   3.478   5.013   1.306
 5387SOL    HW117060   3.569   5.026   1.345
 5387SOL    HW217061   3.486   4.987   1.210
 5388SOL     OW17062   6.089   5.924   2.616
 5388SOL    HW117063   6.018   5.992   2.601
 5388SOL    HW217064   6.059   5.836   2.579
 5389SOL     OW17065   5.653   2.360   1.258
 5389SOL    HW117066   5.681   2.393   1.348
 5389SOL    HW217067   5.656   2.260   1.257
 5390SOL     OW17068   6.262   4.791   5.833
 5390SOL    HW117069   6.254   4.791   5.932
 5390SOL    HW217070   6.256   4.697   5.799
 5391SOL     OW17071   3.600   3.522   6.693
 5391SOL    HW117072   3.504   3.543   6.673
 5391SOL    HW217073   3.659   3.573   6.631
 5392SOL     OW17074   6.891   2.888   3.009
 5392SOL    HW117075   6.829   2.825   3.055
 5392SOL    HW217076   6.851   2.980   3.008
 5393SOL     OW17077   6.430   6.575   6.313
 5393SOL    HW117078   6.503   6.518   6.276
 5393SOL    HW217079   6.464   6.625   6.393
 5394SOL     OW17080   2.233   3.601   5.728
 5394SOL    HW117081   2.252   3.576   5.823
 5394SOL    HW217082   2.246   3.521   5.669
 5395SOL     OW17083   4.481   0.267   1.299
 5395SOL    HW117084   4.541   0.187   1.305
 5395SOL    HW217085   4.517   0.331   1.231
 5396SOL     OW17086   4.483   2.519   1.937
 5396SOL    HW117087   4.509   2.509   2.033
 5396SOL    HW217088   4.475   2.429   1.895
 5397SOL     OW17089   0.850   2.718   1.814
 5397SOL    HW117090   0.931   2.685   1.766
 5397SOL    HW217091   0.773   2.658   1.795
 5398SOL     OW17092   3.314   2.999   2.247
 5398SOL    HW117093   3.360   2.912   2.231
 5398SOL    HW217094   3.216   2.983   2.260
 5399SOL     OW17095   0.709   5.409   6.829
 5399SOL    HW117096   0.687   5.339   6.761
 5399SOL    HW217097   0.721   5.366   6.919
 5400SOL     OW17098   2.289   3.325   0.032
 5400SOL    HW117099   2.241   3.277   0.106
 5400SOL    HW217100   2.296   3.265   6.975
 5401SOL     OW17101   6.511   1.993   0.792
 5401SOL    HW117102   6.452   1.913   0.779
 5401SOL    HW217103   6.607   1.966   0.784
 5402SOL     OW17104   1.291   6.060   2.310
 5402SOL    HW117105   1.331   6.111   2.234
 5402SOL    HW217106   1.341   6.079   2.394
 5403SOL     OW17107   6.229   3.129   6.612
 5403SOL    HW117108   6.226   3.037   6.652
 5403SOL    HW217109   6.288   3.128   6.531
 5404SOL     OW17110   1.338   3.029   3.168
 5404SOL    HW117111   1.374   2.999   3.256
 5404SOL    HW217112   1.326   2.949   3.108
 5405SOL     OW17113   0.021   4.023   5.247
 5405SOL    HW117114   0.030   3.982   5.338
 5405SOL    HW217115   6.953   4.004   5.210
 5406SOL     OW17116   1.202   6.994   3.886
 5406SOL    HW117117   1.280   6.979   3.946
 5406SOL    HW217118   1.228   6.977   3.791
 5407SOL     OW17119   4.164   3.383   6.534
 5407SOL    HW117120   4.230   3.315   6.504
 5407SOL    HW217121   4.092   3.393   6.465
 5408SOL     OW17122   3.438   1.036   6.855
 5408SOL    HW117123   3.431   0.975   6.777
 5408SOL    HW217124   3.351   1.038   6.904
 5409SOL     OW17125   4.800   0.274   2.300
 5409SOL    HW117126   4.888   0.241   2.265
 5409SOL    HW217127   4.726   0.226   2.254
 5410SOL     OW17128   1.627   2.630   3.209
 5410SOL    HW117129   1.722   2.658   3.196
 5410SOL    HW217130   1.593   2.663   3.297
 5411SOL     OW17131   2.089   4.649   4.853
 5411SOL    HW117132   2.172   4.595   4.846
 5411SOL    HW217133   2.113   4.744   4.873
 5412SOL     OW17134   6.517   2.282   2.166
 5412SOL    HW117135   6.590   2.247   2.225
 5412SOL    HW217136   6.527   2.242   2.075
 5413SOL     OW17137   1.981   6.878   2.459
 5413SOL    HW117138   1.969   6.926   2.546
 5413SOL    HW217139   1.939   6.931   2.386
 5414SOL     OW17140   4.267   0.786   5.301
 5414SOL    HW117141   4.205   0.765   5.225
 5414SOL    HW217142   4.213   0.816   5.380
 5415SOL     OW17143   6.656   3.942   2.405
 5415SOL    HW117144   6.576   3.904   2.451
 5415SOL    HW217145   6.735   3.938   2.467
 5416SOL     OW17146   4.179   5.610   4.172
 5416SOL    HW117147   4.268   5.642   4.140
 5416SOL    HW217148   4.130   5.568   4.096
 5417SOL     OW17149   2.943   0.007   6.386
 5417SOL    HW117150   2.946   0.082   6.320
 5417SOL    HW217151   2.943   6.942   6.338
 5418SOL     OW17152   3.578   0.906   3.695
 5418SOL    HW117153   3.489   0.871   3.667
 5418SOL    HW217154   3.634   0.831   3.729
 5419SOL     OW17155   3.409   3.922   6.887
 5419SOL    HW117156   3.393   3.975   6.970
 5419SOL    HW217157   3.388   3.826   6.903
 5420SOL     OW17158   0.802   2.644   2.705
 5420SOL    HW117159   0.757   2.731   2.683
 5420SOL    HW217160   0.881   2.662   2.764
 5421SOL     OW17161   2.054   2.690   0.597
 5421SOL    HW117162   1.988   2.731   0.659
 5421SOL    HW217163   2.123   2.641   0.650
 5422SOL     OW17164   0.704   3.891   0.045
 5422SOL    HW117165   0.681   3.871   0.140
 5422SOL    HW217166   0.725   3.988   0.036
 5423SOL     OW17167   5.026   3.234   5.968
 5423SOL    HW117168   4.980   3.290   5.899
 5423SOL    HW217169   5.109   3.280   5.998
 5424SOL     OW17170   5.369   3.465   5.621
 5424SOL    HW117171   5.403   3.509   5.703
 5424SOL    HW217172   5.426   3.386   5.599
 5425SOL     OW17173   5.214   1.032   4.776
 5425SOL    HW117174   5.296   0.992   4.736
 5425SOL    HW217175   5.133   0.988   4.737
 5426SOL     OW17176   0.248   6.651   5.114
 5426SOL    HW117177   0.217   6.739   5.080
 5426SOL    HW217178   0.314   6.666   5.189
 5427SOL     OW17179   4.299   6.847   6.934
 5427SOL    HW117180   4.297   6.803   0.001
 5427SOL    HW217181   4.246   6.793   6.868
 5428SOL     OW17182   1.914   0.959   0.161
 5428SOL    HW117183   1.982   0.930   0.093
 5428SOL    HW217184   1.884   1.052   0.138
 5429SOL     OW17185   1.176   2.336   5.950
 5429SOL    HW117186   1.126   2.389   6.019
 5429SOL    HW217187   1.186   2.242   5.982
 5430SOL     OW17188   2.068   2.313   5.555
 5430SOL    HW117189   2.100   2.278   5.643
 5430SOL    HW217190   1.968   2.314   5.553
 5431SOL     OW17191   3.465   5.712   4.456
 5431SOL    HW117192   3.397   5.712   4.530
 5431SOL    HW217193   3.552   5.748   4.491
 5432SOL     OW17194   5.543   5.448   0.911
 5432SOL    HW117195   5.450   5.474   0.936
 5432SOL    HW217196   5.592   5.413   0.991
 5433SOL     OW17197   0.350   1.721   3.883
 5433SOL    HW117198   0.255   1.737   3.859
 5433SOL    HW217199   0.393   1.807   3.911
 5434SOL     OW17200   2.539   6.822   5.363
 5434SOL    HW117201   2.523   6.866   5.274
 5434SOL    HW217202   2.604   6.748   5.353
 5435SOL     OW17203   5.332   1.283   1.918
 5435SOL    HW117204   5.381   1.364   1.883
 5435SOL    HW217205   5.328   1.213   1.847
 5436SOL     OW17206   5.337   3.899   2.750
 5436SOL    HW117207   5.361   3.931   2.658
 5436SOL    HW217208   5.420   3.882   2.802
 5437SOL     OW17209   3.565   4.820   6.557
 5437SOL    HW117210   3.589   4.911   6.522
 5437SOL    HW217211   3.641   4.784   6.610
 5438SOL     OW17212   6.954   0.804   1.168
 5438SOL    HW117213   7.010   0.885   1.153
 5438SOL    HW217214   6.925   0.800   1.263
 5439SOL     OW17215   1.310   2.945   1.011
 5439SOL    HW117216   1.245   3.013   0.977
 5439SOL    HW217217   1.383   2.934   0.944
 5440SOL     OW17218   1.530   1.215   1.492
 5440SOL    HW117219   1.591   1.252   1.561
 5440SOL    HW217220   1.524   1.279   1.415
 5441SOL     OW17221   3.702   1.857   4.017
 5441SOL    HW117222   3.668   1.903   3.935
 5441SOL    HW217223   3.676   1.761   4.015
 5442SOL     OW17224   3.558   0.803   1.954
 5442SOL    HW117225   3.560   0.727   1.889
 5442SOL    HW217226   3.637   0.862   1.939
 5443SOL     OW17227   2.574   6.900   6.032
 5443SOL    HW117228   2.573   6.938   6.125
 5443SOL    HW217229   2.482   6.872   6.007
 5444SOL     OW17230   0.349   0.718   3.455
 5444SOL    HW117231   0.424   0.651   3.453
 5444SOL    HW217232   0.351   0.773   3.372
 5445SOL     OW17233   6.101   3.124   1.888
 5445SOL    HW117234   6.082   3.031   1.920
 5445SOL    HW217235   6.179   3.121   1.825
 5446SOL     OW17236   6.622   5.489   5.862
 5446SOL    HW117237   6.705   5.495   5.917
 5446SOL    HW217238   6.609   5.574   5.812
 5447SOL     OW17239   2.810   2.044   0.861
 5447SOL    HW117240   2.863   1.964   0.833
 5447SOL    HW217241   2.859   2.127   0.835
 5448SOL     OW17242   5.768   1.763   6.262
 5448SOL    HW117243   5.731   1.851   6.234
 5448SOL    HW217244   5.867   1.764   6.255
 5449SOL     OW17245   0.491   2.312   6.764
 5449SOL    HW117246   0.529   2.313   6.671
 5449SOL    HW217247   0.398   2.349   6.763
 5450SOL     OW17248   2.378   6.009   0.888
 5450SOL    HW117249   2.474   5.988   0.911
 5450SOL    HW217250   2.321   5.996   0.969
 5451SOL     OW17251   2.231   0.244   3.185
 5451SOL    HW117252   2.177   0.167   3.151
 5451SOL    HW217253   2.306   0.263   3.122
 5452SOL     OW17254   2.546   3.691   5.681
 5452SOL    HW117255   2.609   3.670   5.606
 5452SOL    HW217256   2.455   3.707   5.644
 5453SOL     OW17257   0.501   5.015   6.037
 5453SOL    HW117258   0.552   5.071   6.103
 5453SOL    HW217259   0.477   5.071   5.958
 5454SOL     OW17260   0.478   3.913   5.023
 5454SOL    HW117261   0.379   3.908   5.009
 5454SOL    HW217262   0.514   3.822   5.043
 5455SOL     OW17263   6.754   2.643   0.654
 5455SOL    HW117264   6.842   2.689   0.670
 5455SOL    HW217265   6.752   2.558   0.706
 5456SOL     OW17266   3.304   6.703   1.776
 5456SOL    HW117267   3.341   6.729   1.686
 5456SOL    HW217268   3.347   6.618   1.806
 5457SOL     OW17269   6.408   3.817   0.761
 5457SOL    HW117270   6.448   3.853   0.676
 5457SOL    HW217271   6.309   3.831   0.760
 5458SOL     OW17272   1.545   4.260   5.986
 5458SOL    HW117273   1.545   4.240   6.084
 5458SOL    HW217274   1.545   4.175   5.934
 5459SOL     OW17275   2.132   4.193   5.754
 5459SOL    HW117276   2.092   4.235   5.836
 5459SOL    HW217277   2.166   4.102   5.777
 5460SOL     OW17278   4.071   0.162   3.331
 5460SOL    HW117279   4.054   0.120   3.242
 5460SOL    HW217280   4.017   0.246   3.338
 5461SOL     OW17281   4.822   6.799   4.790
 5461SOL    HW117282   4.765   6.797   4.708
 5461SOL    HW217283   4.880   6.880   4.787
 5462SOL     OW17284   0.574   0.660   1.448
 5462SOL    HW117285   0.610   0.727   1.514
 5462SOL    HW217286   0.494   0.615   1.487
 5463SOL     OW17287   6.894   3.822   0.824
 5463SOL    HW117288   6.835   3.743   0.809
 5463SOL    HW217289   6.893   3.847   0.921
 5464SOL     OW17290   2.041   6.433   4.309
 5464SOL    HW117291   2.111   6.476   4.251
 5464SOL    HW217292   2.077   6.421   4.401
 5465SOL     OW17293   2.594   5.744   6.661
 5465SOL    HW117294   2.496   5.765   6.661
 5465SOL    HW217295   2.645   5.828   6.642
 5466SOL     OW17296   5.447   5.293   4.715
 5466SOL    HW117297   5.386   5.280   4.636
 5466SOL    HW217298   5.409   5.246   4.794
 5467SOL     OW17299   5.951   1.487   2.167
 5467SOL    HW117300   6.015   1.459   2.238
 5467SOL    HW217301   5.980   1.452   2.079
 5468SOL     OW17302   4.614   1.477   5.860
 5468SOL    HW117303   4.591   1.414   5.786
 5468SOL    HW217304   4.534   1.489   5.919
 5469SOL     OW17305   4.793   4.446   1.552
 5469SOL    HW117306   4.813   4.399   1.638
 5469SOL    HW217307   4.878   4.479   1.511
 5470SOL     OW17308   0.323   5.067   3.529
 5470SOL    HW117309   0.234   5.024   3.512
 5470SOL    HW217310   0.395   4.997   3.528
 5471SOL     OW17311   6.278   4.594   2.613
 5471SOL    HW117312   6.323   4.632   2.532
 5471SOL    HW217313   6.204   4.655   2.642
 5472SOL     OW17314   3.668   5.289   5.121
 5472SOL    HW117315   3.684   5.367   5.182
 5472SOL    HW217316   3.738   5.287   5.050
 5473SOL     OW17317   1.344   4.431   3.641
 5473SOL    HW117318   1.279   4.419   3.717
 5473SOL    HW217319   1.422   4.369   3.654
 5474SOL     OW17320   1.230   6.353   3.237
 5474SOL    HW117321   1.191   6.312   3.319
 5474SOL    HW217322   1.329   6.363   3.248
 5475SOL     OW17323   3.309   2.790   1.955
 5475SOL    HW117324   3.300   2.870   1.896
 5475SOL    HW217325   3.380   2.807   2.024
 5476SOL     OW17326   1.771   3.260   7.002
 5476SOL    HW117327   1.679   3.261   6.964
 5476SOL    HW217328   1.770   3.298   0.072
 5477SOL     OW17329   2.195   2.513   2.374
 5477SOL    HW117330   2.116   2.485   2.320
 5477SOL    HW217331   2.181   2.487   2.470
 5478SOL     OW17332   7.014   5.478   5.973
 5478SOL    HW117333   6.975   5.554   6.024
 5478SOL    HW217334   6.963   5.395   5.992
 5479SOL     OW17335   4.932   0.159   5.383
 5479SOL    HW117336   4.886   0.072   5.397
 5479SOL    HW217337   4.881   0.212   5.315
 5480SOL     OW17338   0.945   2.613   5.485
 5480SOL    HW117339   0.897   2.607   5.572
 5480SOL    HW217340   1.035   2.569   5.493
 5481SOL     OW17341   4.528   6.635   3.631
 5481SOL    HW117342   4.445   6.671   3.588
 5481SOL    HW217343   4.551   6.691   3.711
 5482SOL     OW17344   1.830   5.766   2.090
 5482SOL    HW117345   1.737   5.736   2.115
 5482SOL    HW217346   1.849   5.740   1.996
 5483SOL     OW17347   0.925   2.378   6.450
 5483SOL    HW117348   0.985   2.298   6.461
 5483SOL    HW217349   0.940   2.440   6.527
 5484SOL     OW17350   5.428   0.254   4.854
 5484SOL    HW117351   5.443   0.348   4.883
 5484SOL    HW217352   5.426   0.250   4.754
 5485SOL     OW17353   3.877   0.302   4.723
 5485SOL    HW117354   3.869   0.398   4.699
 5485SOL    HW217355   3.946   0.259   4.665
 5486SOL     OW17356   3.115   5.036   3.840
 5486SOL    HW117357   3.095   5.016   3.936
 5486SOL    HW217358   3.086   5.130   3.819
 5487SOL     OW17359   3.128   5.723   5.370
 5487SOL    HW117360   3.113   5.712   5.272
 5487SOL    HW217361   3.137   5.633   5.412
 5488SOL     OW17362   4.869   1.987   6.879
 5488SOL    HW117363   4.945   2.046   6.853
 5488SOL    HW217364   4.848   1.999   6.976
 5489SOL     OW17365   0.285   2.967   4.073
 5489SOL    HW117366   0.381   2.983   4.052
 5489SOL    HW217367   0.250   2.892   4.016
 5490SOL     OW17368   0.721   5.127   2.696
 5490SOL    HW117369   0.701   5.041   2.648
 5490SOL    HW217370   0.741   5.199   2.629
 5491SOL     OW17371   6.163   3.968   0.704
 5491SOL    HW117372   6.243   4.007   0.658
 5491SOL    HW217373   6.127   3.893   0.648
 5492SOL     OW17374   0.205   1.833   6.162
 5492SOL    HW117375   0.115   1.851   6.200
 5492SOL    HW217376   0.253   1.766   6.219
 5493SOL     OW17377   4.124   4.069   0.083
 5493SOL    HW117378   4.108   4.116   7.019
 5493SOL    HW217379   4.069   3.986   0.086
 5494SOL     OW17380   6.058   2.900   5.501
 5494SOL    HW117381   6.127   2.927   5.567
 5494SOL    HW217382   5.982   2.965   5.503
 5495SOL     OW17383   5.981   0.521   0.251
 5495SOL    HW117384   5.886   0.490   0.242
 5495SOL    HW217385   5.995   0.603   0.196
 5496SOL     OW17386   3.967   6.998   5.830
 5496SOL    HW117387   3.943   0.020   5.916
 5496SOL    HW217388   3.992   6.903   5.847
 5497SOL     OW17389   0.849   0.612   5.372
 5497SOL    HW117390   0.917   0.682   5.395
 5497SOL    HW217391   0.797   0.588   5.454
 5498SOL     OW17392   0.908   5.312   1.541
 5498SOL    HW117393   0.830   5.253   1.522
 5498SOL    HW217394   0.877   5.407   1.552
 5499SOL     OW17395   2.380   0.337   3.848
 5499SOL    HW117396   2.339   0.404   3.786
 5499SOL    HW217397   2.310   0.273   3.879
 5500SOL     OW17398   2.224   6.423   1.351
 5500SOL    HW117399   2.240   6.520   1.370
 5500SOL    HW217400   2.311   6.374   1.352
 5501SOL     OW17401   4.580   3.087   6.857
 5501SOL    HW117402   4.522   3.087   6.938
 5501SOL    HW217403   4.544   3.152   6.790
 5502SOL     OW17404   4.384   3.217   6.506
 5502SOL    HW117405   4.430   3.266   6.580
 5502SOL    HW217406   4.376   3.120   6.529
 5503SOL     OW17407   5.856   3.380   1.089
 5503SOL    HW117408   5.937   3.324   1.071
 5503SOL    HW217409   5.793   3.372   1.012
 5504SOL     OW17410   3.289   2.189   6.961
 5504SOL    HW117411   3.356   2.194   0.013
 5504SOL    HW217412   3.297   2.101   6.915
 5505SOL     OW17413   2.781   5.096   2.397
 5505SOL    HW117414   2.682   5.082   2.404
 5505SOL    HW217415   2.827   5.007   2.396
 5506SOL     OW17416   6.560   2.410   6.046
 5506SOL    HW117417   6.514   2.427   6.134
 5506SOL    HW217418   6.491   2.386   5.977
 5507SOL     OW17419   4.174   6.756   0.780
 5507SOL    HW117420   4.141   6.663   0.797
 5507SOL    HW217421   4.238   6.754   0.703
 5508SOL     OW17422   0.139   1.321   6.499
 5508SOL    HW117423   0.192   1.240   6.474
 5508SOL    HW217424   0.135   1.329   6.599
 5509SOL     OW17425   6.390   3.825   0.239
 5509SOL    HW117426   6.330   3.869   0.171
 5509SOL    HW217427   6.485   3.843   0.216
 5510SOL     OW17428   5.282   6.003   6.679
 5510SOL    HW117429   5.203   6.064   6.676
 5510SOL    HW217430   5.256   5.912   6.646
 5511SOL     OW17431   1.041   2.453   6.203
 5511SOL    HW117432   0.986   2.440   6.285
 5511SOL    HW217433   1.138   2.458   6.228
 5512SOL     OW17434   2.633   6.957   2.374
 5512SOL    HW117435   2.609   7.002   2.459
 5512SOL    HW217436   2.628   6.857   2.386
 5513SOL     OW17437   3.832   4.518   6.854
 5513SOL    HW117438   3.931   4.520   6.865
 5513SOL    HW217439   3.801   4.604   6.814
 5514SOL     OW17440   3.491   1.051   0.516
 5514SOL    HW117441   3.461   1.030   0.423
 5514SOL    HW217442   3.542   1.137   0.516
 5515SOL     OW17443   3.082   5.105   2.571
 5515SOL    HW117444   3.043   5.118   2.480
 5515SOL    HW217445   3.140   5.024   2.571
 5516SOL     OW17446   1.591   2.341   5.901
 5516SOL    HW117447   1.562   2.292   5.820
 5516SOL    HW217448   1.656   2.284   5.953
 5517SOL     OW17449   0.977   2.038   3.353
 5517SOL    HW117450   0.934   1.951   3.377
 5517SOL    HW217451   0.910   2.098   3.310
 5518SOL     OW17452   4.478   4.632   6.305
 5518SOL    HW117453   4.531   4.706   6.347
 5518SOL    HW217454   4.450   4.660   6.213
 5519SOL     OW17455   5.631   2.598   6.019
 5519SOL    HW117456   5.649   2.696   6.011
 5519SOL    HW217457   5.554   2.574   5.962
 5520SOL     OW17458   5.243   6.322   1.140
 5520SOL    HW117459   5.165   6.382   1.160
 5520SOL    HW217460   5.216   6.252   1.075
 5521SOL     OW17461   4.574   6.704   2.061
 5521SOL    HW117462   4.593   6.689   2.158
 5521SOL    HW217463   4.482   6.671   2.040
 5522SOL     OW17464   5.043   6.189   0.012
 5522SOL    HW117465   5.103   6.187   6.955
 5522SOL    HW217466   4.993   6.102   0.018
 5523SOL     OW17467   5.119   2.114   0.587
 5523SOL    HW117468   5.149   2.205   0.617
 5523SOL    HW217469   5.092   2.060   0.667
 5524SOL     OW17470   2.956   1.345   3.387
 5524SOL    HW117471   2.871   1.394   3.407
 5524SOL    HW217472   2.945   1.249   3.412
 5525SOL     OW17473   6.903   1.587   1.495
 5525SOL    HW117474   6.873   1.668   1.545
 5525SOL    HW217475   6.996   1.563   1.522
 5526SOL     OW17476   5.539   4.087   4.105
 5526SOL    HW117477   5.592   4.032   4.039
 5526SOL    HW217478   5.577   4.074   4.196
 5527SOL     OW17479   6.480   0.368   2.449
 5527SOL    HW117480   6.539   0.347   2.526
 5527SOL    HW217481   6.482   0.292   2.383
 5528SOL     OW17482   1.119   1.791   6.642
 5528SOL    HW117483   1.118   1.703   6.690
 5528SOL    HW217484   1.038   1.797   6.584
 5529SOL     OW17485   3.305   0.591   1.979
 5529SOL    HW117486   3.275   0.639   1.897
 5529SOL    HW217487   3.403   0.609   1.995
 5530SOL     OW17488   1.092   1.635   1.281
 5530SOL    HW117489   1.189   1.623   1.261
 5530SOL    HW217490   1.080   1.671   1.373
 5531SOL     OW17491   1.684   4.322   0.362
 5531SOL    HW117492   1.712   4.415   0.339
 5531SOL    HW217493   1.766   4.266   0.380
 5532SOL     OW17494   0.371   4.066   6.353
 5532SOL    HW117495   0.400   4.125   6.429
 5532SOL    HW217496   0.360   3.972   6.386
 5533SOL     OW17497   3.618   1.138   2.913
 5533SOL    HW117498   3.648   1.122   3.007
 5533SOL    HW217499   3.589   1.233   2.903
 5534SOL     OW17500   1.495   0.491   4.568
 5534SOL    HW117501   1.433   0.420   4.535
 5534SOL    HW217502   1.587   0.454   4.578
 5535SOL     OW17503   0.212   1.899   2.658
 5535SOL    HW117504   0.164   1.950   2.730
 5535SOL    HW217505   0.303   1.875   2.691
 5536SOL     OW17506   4.671   0.049   4.654
 5536SOL    HW117507   4.628   0.114   4.592
 5536SOL    HW217508   4.723   0.099   4.725
 5537SOL     OW17509   2.366   2.489   3.014
 5537SOL    HW117510   2.415   2.534   2.939
 5537SOL    HW217511   2.310   2.557   3.062
 5538SOL     OW17512   4.289   5.723   3.872
 5538SOL    HW117513   4.357   5.777   3.921
 5538SOL    HW217514   4.319   5.627   3.870
 5539SOL     OW17515   2.252   4.086   6.981
 5539SOL    HW117516   2.346   4.054   6.970
 5539SOL    HW217517   2.230   4.153   6.910
 5540SOL     OW17518   3.905   5.476   1.259
 5540SOL    HW117519   3.831   5.481   1.193
 5540SOL    HW217520   3.881   5.529   1.341
 5541SOL     OW17521   4.674   0.758   6.174
 5541SOL    HW117522   4.665   0.740   6.076
 5541SOL    HW217523   4.740   0.695   6.215
 5542SOL     OW17524   5.242   4.589   6.035
 5542SOL    HW117525   5.236   4.650   6.114
 5542SOL    HW217526   5.315   4.522   6.051
 5543SOL     OW17527   0.672   1.829   5.048
 5543SOL    HW117528   0.755   1.875   5.081
 5543SOL    HW217529   0.642   1.871   4.963
 5544SOL     OW17530   5.800   0.820   0.079
 5544SOL    HW117531   5.875   0.789   0.021
 5544SOL    HW217532   5.769   0.744   0.137
 5545SOL     OW17533   2.252   2.051   2.136
 5545SOL    HW117534   2.286   2.133   2.182
 5545SOL    HW217535   2.257   1.973   2.199
 5546SOL     OW17536   3.829   5.629   5.499
 5546SOL    HW117537   3.734   5.647   5.524
 5546SOL    HW217538   3.882   5.713   5.508
 5547SOL     OW17539   3.602   5.544   3.763
 5547SOL    HW117540   3.640   5.485   3.834
 5547SOL    HW217541   3.619   5.502   3.673
 5548SOL     OW17542   0.236   1.557   4.905
 5548SOL    HW117543   0.316   1.500   4.926
 5548SOL    HW217544   0.160   1.498   4.876
 5549SOL     OW17545   3.816   5.263   6.644
 5549SOL    HW117546   3.792   5.358   6.663
 5549SOL    HW217547   3.742   5.204   6.677
 5550SOL     OW17548   2.734   6.189   2.823
 5550SOL    HW117549   2.783   6.163   2.906
 5550SOL    HW217550   2.636   6.183   2.840
 5551SOL     OW17551   1.040   1.190   2.367
 5551SOL    HW117552   1.013   1.170   2.273
 5551SOL    HW217553   0.983   1.138   2.430
 5552SOL     OW17554   2.003   2.594   2.796
 5552SOL    HW117555   1.944   2.558   2.723
 5552SOL    HW217556   2.025   2.689   2.777
 5553SOL     OW17557   4.509   6.325   6.158
 5553SOL    HW117558   4.488   6.310   6.062
 5553SOL    HW217559   4.607   6.312   6.174
 5554SOL     OW17560   3.350   0.504   4.579
 5554SOL    HW117561   3.280   0.436   4.558
 5554SOL    HW217562   3.377   0.496   4.675
 5555SOL     OW17563   0.766   6.368   1.561
 5555SOL    HW117564   0.853   6.320   1.560
 5555SOL    HW217565   0.757   6.424   1.479
 5556SOL     OW17566   6.954   0.991   5.429
 5556SOL    HW117567   6.911   1.048   5.359
 5556SOL    HW217568   0.024   0.967   5.400
 5557SOL     OW17569   3.531   0.849   2.222
 5557SOL    HW117570   3.581   0.785   2.280
 5557SOL    HW217571   3.531   0.817   2.128
 5558SOL     OW17572   5.182   2.159   5.725
 5558SOL    HW117573   5.170   2.066   5.758
 5558SOL    HW217574   5.094   2.206   5.721
 5559SOL     OW17575   2.832   0.816   0.818
 5559SOL    HW117576   2.919   0.771   0.837
 5559SOL    HW217577   2.848   0.910   0.787
 5560SOL     OW17578   0.247   1.225   4.881
 5560SOL    HW117579   0.228   1.130   4.906
 5560SOL    HW217580   0.270   1.231   4.784
 5561SOL     OW17581   1.395   4.242   2.045
 5561SOL    HW117582   1.399   4.299   1.963
 5561SOL    HW217583   1.331   4.283   2.110
 5562SOL     OW17584   3.402   2.341   6.757
 5562SOL    HW117585   3.485   2.287   6.765
 5562SOL    HW217586   3.328   2.296   6.808
 5563SOL     OW17587   3.848   4.364   1.139
 5563SOL    HW117588   3.790   4.300   1.089
 5563SOL    HW217589   3.797   4.402   1.216
 5564SOL     OW17590   5.924   1.365   2.806
 5564SOL    HW117591   5.958   1.387   2.714
 5564SOL    HW217592   5.829   1.397   2.815
 5565SOL     OW17593   1.681   2.677   5.695
 5565SOL    HW117594   1.680   2.663   5.794
 5565SOL    HW217595   1.605   2.627   5.654
 5566SOL     OW17596   2.517   4.086   0.225
 5566SOL    HW117597   2.445   4.154   0.239
 5566SOL    HW217598   2.589   4.126   0.168
 5567SOL     OW17599   1.374   5.316   3.637
 5567SOL    HW117600   1.312   5.393   3.620
 5567SOL    HW217601   1.463   5.352   3.665
 5568SOL     OW17602   3.615   2.683   6.534
 5568SOL    HW117603   3.621   2.670   6.632
 5568SOL    HW217604   3.520   2.671   6.505
 5569SOL     OW17605   4.599   1.920   6.820
 5569SOL    HW117606   4.698   1.923   6.838
 5569SOL    HW217607   4.550   1.903   6.905
 5570SOL     OW17608   1.683   2.612   5.957
 5570SOL    HW117609   1.660   2.650   6.047
 5570SOL    HW217610   1.646   2.520   5.949
 5571SOL     OW17611   0.208   4.214   6.618
 5571SOL    HW117612   0.307   4.205   6.628
 5571SOL    HW217613   0.181   4.306   6.647
 5572SOL     OW17614   0.389   3.150   6.011
 5572SOL    HW117615   0.370   3.140   6.109
 5572SOL    HW217616   0.330   3.221   5.973
 5573SOL     OW17617   6.855   3.802   6.241
 5573SOL    HW117618   6.890   3.889   6.276
 5573SOL    HW217619   6.778   3.820   6.179
 5574SOL     OW17620   2.081   6.309   4.542
 5574SOL    HW117621   1.999   6.363   4.561
 5574SOL    HW217622   2.136   6.301   4.625
 5575SOL     OW17623   0.907   1.256   2.729
 5575SOL    HW117624   0.976   1.201   2.681
 5575SOL    HW217625   0.894   1.343   2.681
 5576SOL     OW17626   5.522   6.462   5.229
 5576SOL    HW117627   5.431   6.504   5.222
 5576SOL    HW217628   5.534   6.425   5.321
 5577SOL     OW17629   1.457   4.505   4.807
 5577SOL    HW117630   1.446   4.521   4.905
 5577SOL    HW217631   1.393   4.563   4.757
 5578SOL     OW17632   3.891   1.784   6.119
 5578SOL    HW117633   3.819   1.833   6.168
 5578SOL    HW217634   3.854   1.742   6.037
 5579SOL     OW17635   5.051   4.201   2.143
 5579SOL    HW117636   4.963   4.153   2.148
 5579SOL    HW217637   5.055   4.253   2.057
 5580SOL     OW17638   6.049   1.159   2.084
 5580SOL    HW117639   6.145   1.154   2.111
 5580SOL    HW217640   6.030   1.092   2.012
 5581SOL     OW17641   3.114   2.868   0.632
 5581SOL    HW117642   3.074   2.956   0.605
 5581SOL    HW217643   3.194   2.884   0.690
 5582SOL     OW17644   2.960   3.433   3.877
 5582SOL    HW117645   2.906   3.500   3.826
 5582SOL    HW217646   2.917   3.415   3.965
 5583SOL     OW17647   4.074   0.722   6.374
 5583SOL    HW117648   4.002   0.661   6.340
 5583SOL    HW217649   4.159   0.670   6.386
 5584SOL     OW17650   5.127   3.174   4.166
 5584SOL    HW117651   5.152   3.267   4.141
 5584SOL    HW217652   5.142   3.113   4.087
 5585SOL     OW17653   0.286   0.368   3.863
 5585SOL    HW117654   0.324   0.276   3.869
 5585SOL    HW217655   0.341   0.431   3.918
 5586SOL     OW17656   1.980   0.595   0.205
 5586SOL    HW117657   1.934   0.645   0.277
 5586SOL    HW217658   2.071   0.633   0.190
 5587SOL     OW17659   3.980   6.189   3.027
 5587SOL    HW117660   3.888   6.155   3.007
 5587SOL    HW217661   4.004   6.166   3.121
 5588SOL     OW17662   5.197   6.719   6.631
 5588SOL    HW117663   5.139   6.672   6.565
 5588SOL    HW217664   5.149   6.729   6.718
 5589SOL     OW17665   1.746   3.655   0.005
 5589SOL    HW117666   1.796   3.725   6.977
 5589SOL    HW217667   1.665   3.628   6.976
 5590SOL     OW17668   6.513   0.261   3.070
 5590SOL    HW117669   6.613   0.271   3.069
 5590SOL    HW217670   6.475   0.302   2.987
 5591SOL     OW17671   5.557   0.454   6.859
 5591SOL    HW117672   5.625   0.515   6.817
 5591SOL    HW217673   5.488   0.508   6.907
 5592SOL     OW17674   1.367   2.785   2.707
 5592SOL    HW117675   1.363   2.774   2.608
 5592SOL    HW217676   1.413   2.706   2.747
 5593SOL     OW17677   2.182   3.739   5.023
 5593SOL    HW117678   2.209   3.715   4.929
 5593SOL    HW217679   2.241   3.813   5.056
 5594SOL     OW17680   2.872   1.232   6.072
 5594SOL    HW117681   2.832   1.266   5.987
 5594SOL    HW217682   2.809   1.167   6.115
 5595SOL     OW17683   6.918   3.248   6.862
 5595SOL    HW117684   6.974   3.215   6.786
 5595SOL    HW217685   6.942   3.343   6.883
 5596SOL     OW17686   4.913   3.544   4.603
 5596SOL    HW117687   4.927   3.522   4.506
 5596SOL    HW217688   4.878   3.463   4.651
 5597SOL     OW17689   0.246   1.782   6.619
 5597SOL    HW117690   0.317   1.722   6.657
 5597SOL    HW217691   0.288   1.850   6.559
 5598SOL     OW17692   6.393   0.308   3.324
 5598SOL    HW117693   6.428   0.250   3.250
 5598SOL    HW217694   6.458   0.306   3.400
 5599SOL     OW17695   5.561   3.546   3.005
 5599SOL    HW117696   5.472   3.570   2.967
 5599SOL    HW217697   5.600   3.469   2.955
 5600SOL     OW17698   1.749   3.081   2.412
 5600SOL    HW117699   1.820   3.110   2.348
 5600SOL    HW217700   1.758   3.132   2.498
 5601SOL     OW17701   6.070   2.433   6.277
 5601SOL    HW117702   6.012   2.456   6.355
 5601SOL    HW217703   6.052   2.497   6.202
 5602SOL     OW17704   6.112   1.607   3.163
 5602SOL    HW117705   6.063   1.637   3.245
 5602SOL    HW217706   6.060   1.634   3.082
 5603SOL     OW17707   3.344   1.444   6.134
 5603SOL    HW117708   3.315   1.417   6.043
 5603SOL    HW217709   3.272   1.425   6.200
 5604SOL     OW17710   1.635   4.816   3.573
 5604SOL    HW117711   1.711   4.779   3.627
 5604SOL    HW217712   1.607   4.904   3.611
 5605SOL     OW17713   3.475   6.442   4.566
 5605SOL    HW117714   3.491   6.435   4.665
 5605SOL    HW217715   3.513   6.527   4.531
 5606SOL     OW17716   4.575   3.880   1.063
 5606SOL    HW117717   4.638   3.843   1.131
 5606SOL    HW217718   4.483   3.886   1.102
 5607SOL     OW17719   1.075   2.598   2.562
 5607SOL    HW117720   0.996   2.633   2.512
 5607SOL    HW217721   1.158   2.612   2.507
 5608SOL     OW17722   6.584   7.004   3.690
 5608SOL    HW117723   6.606   7.011   3.787
 5608SOL    HW217724   6.645   0.041   3.637
 5609SOL     OW17725   6.575   1.324   0.363
 5609SOL    HW117726   6.600   1.378   0.283
 5609SOL    HW217727   6.609   1.231   0.353
 5610SOL     OW17728   5.950   0.085   6.292
 5610SOL    HW117729   5.952   0.063   6.194
 5610SOL    HW217730   6.028   0.042   6.337
 5611SOL     OW17731   6.364   4.087   1.099
 5611SOL    HW117732   6.294   4.035   1.049
 5611SOL    HW217733   6.455   4.063   1.064
 5612SOL     OW17734   4.812   2.003   1.592
 5612SOL    HW117735   4.726   2.028   1.547
 5612SOL    HW217736   4.807   1.910   1.626
 5613SOL     OW17737   6.389   5.087   5.489
 5613SOL    HW117738   6.445   5.003   5.485
 5613SOL    HW217739   6.415   5.139   5.571
 5614SOL     OW17740   5.723   2.656   4.939
 5614SOL    HW117741   5.683   2.630   5.027
 5614SOL    HW217742   5.821   2.672   4.950
 5615SOL     OW17743   0.256   3.633   2.567
 5615SOL    HW117744   0.179   3.610   2.509
 5615SOL    HW217745   0.302   3.550   2.597
 5616SOL     OW17746   1.663   3.081   1.560
 5616SOL    HW117747   1.585   3.072   1.621
 5616SOL    HW217748   1.708   2.992   1.550
 5617SOL     OW17749   0.605   5.056   5.174
 5617SOL    HW117750   0.577   5.002   5.254
 5617SOL    HW217751   0.650   4.997   5.108
 5618SOL     OW17752   4.850   0.974   3.119
 5618SOL    HW117753   4.858   1.023   3.206
 5618SOL    HW217754   4.852   1.039   3.044
 5619SOL     OW17755   2.962   3.674   4.280
 5619SOL    HW117756   3.039   3.710   4.332
 5619SOL    HW217757   2.956   3.720   4.191
 5620SOL     OW17758   4.721   5.240   5.582
 5620SOL    HW117759   4.696   5.260   5.677
 5620SOL    HW217760   4.639   5.243   5.525
 5621SOL     OW17761   1.208   3.468   6.572
 5621SOL    HW117762   1.123   3.422   6.595
 5621SOL    HW217763   1.283   3.427   6.624
 5622SOL     OW17764   5.826   5.541   3.002
 5622SOL    HW117765   5.776   5.538   3.088
 5622SOL    HW217766   5.909   5.486   3.010
 5623SOL     OW17767   4.827   5.119   3.504
 5623SOL    HW117768   4.798   5.158   3.417
 5623SOL    HW217769   4.831   5.019   3.496
 5624SOL     OW17770   4.760   3.961   3.899
 5624SOL    HW117771   4.772   3.999   3.990
 5624SOL    HW217772   4.842   3.911   3.872
 5625SOL     OW17773   3.212   0.169   6.286
 5625SOL    HW117774   3.190   0.158   6.189
 5625SOL    HW217775   3.269   0.093   6.316
 5626SOL     OW17776   2.070   4.901   5.864
 5626SOL    HW117777   2.124   4.844   5.802
 5626SOL    HW217778   1.975   4.868   5.865
 5627SOL     OW17779   1.270   5.130   0.763
 5627SOL    HW117780   1.229   5.220   0.776
 5627SOL    HW217781   1.259   5.102   0.668
 5628SOL     OW17782   0.873   2.683   0.365
 5628SOL    HW117783   0.962   2.691   0.319
 5628SOL    HW217784   0.801   2.707   0.300
 5629SOL     OW17785   0.137   3.443   3.895
 5629SOL    HW117786   0.137   3.475   3.990
 5629SOL    HW217787   0.118   3.345   3.893
 5630SOL     OW17788   1.117   4.678   0.350
 5630SOL    HW117789   1.076   4.632   0.272
 5630SOL    HW217790   1.208   4.713   0.325
 5631SOL     OW17791   3.822   0.631   2.876
 5631SOL    HW117792   3.824   0.600   2.781
 5631SOL    HW217793   3.748   0.697   2.888
 5632SOL     OW17794   3.377   6.800   6.700
 5632SOL    HW117795   3.436   6.753   6.634
 5632SOL    HW217796   3.392   6.762   6.792
 5633SOL     OW17797   1.509   5.434   5.215
 5633SOL    HW117798   1.418   5.472   5.196
 5633SOL    HW217799   1.548   5.396   5.132
 5634SOL     OW17800   2.745   6.927   1.843
 5634SOL    HW117801   2.777   7.014   1.806
 5634SOL    HW217802   2.664   6.897   1.793
 5635SOL     OW17803   3.551   0.476   2.023
 5635SOL    HW117804   3.618   0.492   2.096
 5635SOL    HW217805   3.474   0.424   2.061
 5636SOL     OW17806   5.257   0.498   4.649
 5636SOL    HW117807   5.183   0.496   4.583
 5636SOL    HW217808   5.228   0.550   4.730
 5637SOL     OW17809   5.628   0.102   5.077
 5637SOL    HW117810   5.591   0.014   5.048
 5637SOL    HW217811   5.553   0.166   5.096
 5638SOL     OW17812   1.032   5.448   0.013
 5638SOL    HW117813   1.100   5.515   0.044
 5638SOL    HW217814   0.955   5.446   0.077
 5639SOL     OW17815   3.130   7.009   1.942
 5639SOL    HW117816   3.101   6.939   1.877
 5639SOL    HW217817   3.052   0.043   1.968
 5640SOL     OW17818   3.685   6.810   4.110
 5640SOL    HW117819   3.716   6.899   4.143
 5640SOL    HW217820   3.757   6.742   4.125
 5641SOL     OW17821   6.623   5.098   3.450
 5641SOL    HW117822   6.622   5.015   3.506
 5641SOL    HW217823   6.614   5.074   3.354
 5642SOL     OW17824   2.100   1.602   6.298
 5642SOL    HW117825   2.059   1.693   6.310
 5642SOL    HW217826   2.164   1.584   6.373
 5643SOL     OW17827   5.431   3.101   3.690
 5643SOL    HW117828   5.413   3.162   3.612
 5643SOL    HW217829   5.486   3.023   3.659
 5644SOL     OW17830   3.179   0.684   5.935
 5644SOL    HW117831   3.232   0.748   5.880
 5644SOL    HW217832   3.094   0.662   5.887
 5645SOL     OW17833   6.307   6.530   3.768
 5645SOL    HW117834   6.230   6.468   3.753
 5645SOL    HW217835   6.347   6.554   3.679
 5646SOL     OW17836   6.791   0.570   2.954
 5646SOL    HW117837   6.718   0.558   2.886
 5646SOL    HW217838   6.869   0.514   2.928
 5647SOL     OW17839   6.255   3.880   6.046
 5647SOL    HW117840   6.245   3.934   6.129
 5647SOL    HW217841   6.165   3.861   6.008
 5648SOL     OW17842   1.684   1.681   4.024
 5648SOL    HW117843   1.595   1.660   3.983
 5648SOL    HW217844   1.701   1.621   4.101
 5649SOL     OW17845   0.249   0.673   4.800
 5649SOL    HW117846   0.201   0.728   4.731
 5649SOL    HW217847   0.346   0.696   4.798
 5650SOL     OW17848   6.124   4.938   5.078
 5650SOL    HW117849   6.200   4.915   5.138
 5650SOL    HW217850   6.062   4.860   5.071
 5651SOL     OW17851   5.927   0.559   2.456
 5651SOL    HW117852   5.934   0.462   2.433
 5651SOL    HW217853   5.882   0.569   2.545
 5652SOL     OW17854   5.016   4.413   0.160
 5652SOL    HW117855   4.996   4.419   0.257
 5652SOL    HW217856   4.945   4.358   0.114
 5653SOL     OW17857   2.125   5.889   6.685
 5653SOL    HW117858   2.066   5.838   6.623
 5653SOL    HW217859   2.199   5.931   6.633
 5654SOL     OW17860   2.232   6.818   0.218
 5654SOL    HW117861   2.178   6.736   0.238
 5654SOL    HW217862   2.329   6.795   0.221
 5655SOL     OW17863   6.255   5.967   3.008
 5655SOL    HW117864   6.204   5.893   2.965
 5655SOL    HW217865   6.195   6.018   3.069
 5656SOL     OW17866   3.704   5.122   6.015
 5656SOL    HW117867   3.734   5.125   5.920
 5656SOL    HW217868   3.752   5.049   6.063
 5657SOL     OW17869   4.561   5.237   2.155
 5657SOL    HW117870   4.567   5.175   2.233
 5657SOL    HW217871   4.652   5.269   2.131
 5658SOL     OW17872   4.356   6.744   6.128
 5658SOL    HW117873   4.388   6.690   6.205
 5658SOL    HW217874   4.386   6.839   6.138
 5659SOL     OW17875   3.755   4.082   2.266
 5659SOL    HW117876   3.752   4.130   2.354
 5659SOL    HW217877   3.677   4.020   2.259
 5660SOL     OW17878   6.579   5.959   1.371
 5660SOL    HW117879   6.674   5.931   1.365
 5660SOL    HW217880   6.546   5.946   1.464
 5661SOL     OW17881   6.242   6.073   4.471
 5661SOL    HW117882   6.280   6.009   4.538
 5661SOL    HW217883   6.309   6.089   4.398
 5662SOL     OW17884   1.503   4.097   4.578
 5662SOL    HW117885   1.595   4.133   4.594
 5662SOL    HW217886   1.478   4.035   4.652
 5663SOL     OW17887   2.500   3.530   0.862
 5663SOL    HW117888   2.583   3.477   0.875
 5663SOL    HW217889   2.513   3.594   0.786
 5664SOL     OW17890   6.350   6.456   1.831
 5664SOL    HW117891   6.253   6.444   1.853
 5664SOL    HW217892   6.365   6.551   1.800
 5665SOL     OW17893   2.124   1.106   5.704
 5665SOL    HW117894   2.058   1.147   5.766
 5665SOL    HW217895   2.088   1.107   5.610
 5666SOL     OW17896   5.625   5.698   6.438
 5666SOL    HW117897   5.567   5.776   6.414
 5666SOL    HW217898   5.718   5.729   6.456
 5667SOL     OW17899   5.683   4.524   2.678
 5667SOL    HW117900   5.633   4.497   2.596
 5667SOL    HW217901   5.629   4.593   2.728
 5668SOL     OW17902   6.808   1.950   0.036
 5668SOL    HW117903   6.768   2.039   0.019
 5668SOL    HW217904   6.810   1.931   0.135
 5669SOL     OW17905   6.866   2.195   4.863
 5669SOL    HW117906   6.875   2.227   4.768
 5669SOL    HW217907   6.897   2.267   4.925
 5670SOL     OW17908   1.381   3.374   2.294
 5670SOL    HW117909   1.450   3.303   2.279
 5670SOL    HW217910   1.423   3.464   2.280
 5671SOL     OW17911   1.132   0.598   5.429
 5671SOL    HW117912   1.164   0.569   5.339
 5671SOL    HW217913   1.129   0.519   5.491
 5672SOL     OW17914   4.491   4.585   5.475
 5672SOL    HW117915   4.436   4.509   5.441
 5672SOL    HW217916   4.448   4.672   5.449
 5673SOL     OW17917   1.834   6.694   1.541
 5673SOL    HW117918   1.820   6.791   1.560
 5673SOL    HW217919   1.812   6.676   1.445
 5674SOL     OW17920   0.879   3.013   1.204
 5674SOL    HW117921   0.863   3.112   1.206
 5674SOL    HW217922   0.793   2.965   1.185
 5675SOL     OW17923   4.302   1.100   5.741
 5675SOL    HW117924   4.271   1.176   5.798
 5675SOL    HW217925   4.354   1.035   5.797
 5676SOL     OW17926   2.269   6.365   2.358
 5676SOL    HW117927   2.246   6.270   2.381
 5676SOL    HW217928   2.186   6.420   2.356
 5677SOL     OW17929   6.357   6.942   2.659
 5677SOL    HW117930   6.310   6.865   2.703
 5677SOL    HW217931   6.453   6.917   2.642
 5678SOL     OW17932   1.097   5.238   3.214
 5678SOL    HW117933   1.017   5.189   3.180
 5678SOL    HW217934   1.108   5.220   3.312
 5679SOL     OW17935   3.564   5.710   5.549
 5679SOL    HW117936   3.505   5.677   5.474
 5679SOL    HW217937   3.572   5.810   5.543
 5680SOL     OW17938   2.041   6.716   6.433
 5680SOL    HW117939   2.064   6.802   6.388
 5680SOL    HW217940   1.949   6.688   6.407
 5681SOL     OW17941   2.766   3.635   6.794
 5681SOL    HW117942   2.734   3.680   6.710
 5681SOL    HW217943   2.687   3.614   6.852
 5682SOL     OW17944   1.939   3.323   4.259
 5682SOL    HW117945   1.997   3.311   4.179
 5682SOL    HW217946   1.856   3.373   4.232
 5683SOL     OW17947   4.136   2.951   5.342
 5683SOL    HW117948   4.222   2.985   5.379
 5683SOL    HW217949   4.067   3.023   5.346
 5684SOL     OW17950   3.376   4.042   3.261
 5684SOL    HW117951   3.451   4.002   3.207
 5684SOL    HW217952   3.289   4.021   3.218
 5685SOL     OW17953   6.931   6.236   1.363
 5685SOL    HW117954   6.867   6.313   1.358
 5685SOL    HW217955   6.998   6.243   1.289
 5686SOL     OW17956   3.341   4.975   6.856
 5686SOL    HW117957   3.300   4.956   6.946
 5686SOL    HW217958   3.279   5.032   6.803
 5687SOL     OW17959   4.486   6.109   6.541
 5687SOL    HW117960   4.508   6.041   6.611
 5687SOL    HW217961   4.562   6.115   6.476
 5688SOL     OW17962   5.307   1.457   2.573
 5688SOL    HW117963   5.367   1.537   2.568
 5688SOL    HW217964   5.362   1.375   2.586
 5689SOL     OW17965   4.128   3.279   5.557
 5689SOL    HW117966   4.204   3.263   5.494
 5689SOL    HW217967   4.108   3.195   5.607
 5690SOL     OW17968   3.515   0.410   3.035
 5690SOL    HW117969   3.432   0.404   3.089
 5690SOL    HW217970   3.566   0.493   3.061
 5691SOL     OW17971   3.569   0.500   4.391
 5691SOL    HW117972   3.607   0.408   4.401
 5691SOL    HW217973   3.479   0.504   4.435
 5692SOL     OW17974   5.966   2.495   6.962
 5692SOL    HW117975   6.021   2.578   6.949
 5692SOL    HW217976   5.992   2.427   6.894
 5693SOL     OW17977   5.264   2.743   1.809
 5693SOL    HW117978   5.190   2.675   1.803
 5693SOL    HW217979   5.332   2.723   1.739
 5694SOL     OW17980   1.394   2.517   4.763
 5694SOL    HW117981   1.439   2.435   4.728
 5694SOL    HW217982   1.442   2.598   4.730
 5695SOL     OW17983   2.012   4.366   3.749
 5695SOL    HW117984   1.959   4.386   3.667
 5695SOL    HW217985   2.109   4.361   3.725
 5696SOL     OW17986   2.849   1.345   6.690
 5696SOL    HW117987   2.806   1.286   6.622
 5696SOL    HW217988   2.846   1.440   6.659
 5697SOL     OW17989   6.679   3.612   0.256
 5697SOL    HW117990   6.646   3.585   0.347
 5697SOL    HW217991   6.661   3.539   0.191
 5698SOL     OW17992   1.593   4.356   3.911
 5698SOL    HW117993   1.590   4.298   3.993
 5698SOL    HW217994   1.567   4.302   3.831
 5699SOL     OW17995   0.680   2.194   5.015
 5699SOL    HW117996   0.600   2.134   5.006
 5699SOL    HW217997   0.754   2.144   5.060
 5700SOL     OW17998   1.573   4.744   4.512
 5700SOL    HW117999   1.527   4.748   4.601
 5700SOL    HW218000   1.567   4.651   4.475
 5701SOL     OW18001   4.866   3.411   3.143
 5701SOL    HW118002   4.809   3.479   3.098
 5701SOL    HW218003   4.878   3.332   3.083
 5702SOL     OW18004   3.701   0.268   6.815
 5702SOL    HW118005   3.642   0.275   6.735
 5702SOL    HW218006   3.699   0.175   6.851
 5703SOL     OW18007   4.829   4.314   1.814
 5703SOL    HW118008   4.824   4.215   1.821
 5703SOL    HW218009   4.739   4.354   1.834
 5704SOL     OW18010   4.919   4.457   3.054
 5704SOL    HW118011   4.900   4.554   3.067
 5704SOL    HW218012   5.008   4.436   3.095
 5705SOL     OW18013   6.711   1.275   3.782
 5705SOL    HW118014   6.622   1.253   3.821
 5705SOL    HW218015   6.744   1.361   3.822
 5706SOL     OW18016   2.235   1.319   0.046
 5706SOL    HW118017   2.217   1.255   0.120
 5706SOL    HW218018   2.194   1.285   6.984
 5707SOL     OW18019   3.869   1.693   0.738
 5707SOL    HW118020   3.887   1.623   0.807
 5707SOL    HW218021   3.863   1.650   0.647
 5708SOL     OW18022   0.175   6.784   0.620
 5708SOL    HW118023   0.233   6.742   0.551
 5708SOL    HW218024   0.198   6.748   0.710
 5709SOL     OW18025   1.151   2.743   1.211
 5709SOL    HW118026   1.230   2.700   1.253
 5709SOL    HW218027   1.181   2.815   1.148
 5710SOL     OW18028   3.682   4.943   0.031
 5710SOL    HW118029   3.648   4.850   0.045
 5710SOL    HW218030   3.660   4.973   6.960
 5711SOL     OW18031   5.548   1.568   5.301
 5711SOL    HW118032   5.553   1.663   5.332
 5711SOL    HW218033   5.576   1.563   5.206
 5712SOL     OW18034   5.975   7.003   6.666
 5712SOL    HW118035   5.967   6.999   6.766
 5712SOL    HW218036   5.889   0.012   6.628
 5713SOL     OW18037   0.510   3.143   2.686
 5713SOL    HW118038   0.504   3.127   2.785
 5713SOL    HW218039   0.419   3.162   2.650
 5714SOL     OW18040   2.218   0.424   6.786
 5714SOL    HW118041   2.178   0.334   6.770
 5714SOL    HW218042   2.173   0.491   6.728
 5715SOL     OW18043   1.066   6.915   3.565
 5715SOL    HW118044   1.092   6.985   3.498
 5715SOL    HW218045   1.005   6.955   3.633
 5716SOL     OW18046   2.004   2.670   5.240
 5716SOL    HW118047   2.030   2.666   5.144
 5716SOL    HW218048   2.027   2.584   5.285
 5717SOL     OW18049   0.736   3.311   5.805
 5717SOL    HW118050   0.829   3.293   5.838
 5717SOL    HW218051   0.687   3.224   5.795
 5718SOL     OW18052   3.022   5.413   5.937
 5718SOL    HW118053   2.976   5.335   5.895
 5718SOL    HW218054   3.122   5.402   5.929
 5719SOL     OW18055   2.098   0.900   0.461
 5719SOL    HW118056   2.167   0.829   0.475
 5719SOL    HW218057   2.034   0.898   0.538
 5720SOL     OW18058   1.780   5.858   3.829
 5720SOL    HW118059   1.855   5.799   3.862
 5720SOL    HW218060   1.813   5.952   3.821
 5721SOL     OW18061   6.823   4.346   6.935
 5721SOL    HW118062   6.860   4.276   6.874
 5721SOL    HW218063   6.757   4.403   6.886
 5722SOL     OW18064   5.453   1.314   5.201
 5722SOL    HW118065   5.484   1.366   5.121
 5722SOL    HW218066   5.525   1.314   5.270
 5723SOL     OW18067   0.261   4.465   1.084
 5723SOL    HW118068   0.198   4.534   1.120
 5723SOL    HW218069   0.278   4.482   0.987
 5724SOL     OW18070   5.054   3.032   6.147
 5724SOL    HW118071   4.996   2.951   6.160
 5724SOL    HW218072   5.028   3.078   6.062
 5725SOL     OW18073   5.756   6.793   5.616
 5725SOL    HW118074   5.657   6.782   5.610
 5725SOL    HW218075   5.799   6.750   5.537
 5726SOL     OW18076   3.773   4.596   5.647
 5726SOL    HW118077   3.810   4.541   5.572
 5726SOL    HW218078   3.676   4.576   5.659
 5727SOL     OW18079   5.849   2.402   4.239
 5727SOL    HW118080   5.796   2.481   4.210
 5727SOL    HW218081   5.837   2.388   4.338
 5728SOL     OW18082   4.130   0.793   4.726
 5728SOL    HW118083   4.209   0.841   4.688
 5728SOL    HW218084   4.060   0.859   4.752
 5729SOL     OW18085   2.135   2.288   3.959
 5729SOL    HW118086   2.174   2.337   4.037
 5729SOL    HW218087   2.058   2.339   3.923
 5730SOL     OW18088   4.102   4.571   6.875
 5730SOL    HW118089   4.085   4.601   6.969
 5730SOL    HW218090   4.187   4.519   6.871
 5731SOL     OW18091   4.304   1.490   5.059
 5731SOL    HW118092   4.391   1.487   5.107
 5731SOL    HW218093   4.229   1.485   5.125
 5732SOL     OW18094   5.501   4.660   4.270
 5732SOL    HW118095   5.424   4.701   4.319
 5732SOL    HW218096   5.514   4.707   4.183
 5733SOL     OW18097   2.550   6.871   1.668
 5733SOL    HW118098   2.539   6.783   1.622
 5733SOL    HW218099   2.536   6.945   1.603
 5734SOL     OW18100   1.530   0.021   6.006
 5734SOL    HW118101   1.570   7.023   6.095
 5734SOL    HW218102   1.448   0.076   6.018
 5735SOL     OW18103   5.323   1.225   0.790
 5735SOL    HW118104   5.405   1.280   0.777
 5735SOL    HW218105   5.242   1.283   0.777
 5736SOL     OW18106   5.084   3.837   6.576
 5736SOL    HW118107   5.021   3.897   6.625
 5736SOL    HW218108   5.033   3.769   6.523
 5737SOL     OW18109   5.050   6.134   2.459
 5737SOL    HW118110   5.074   6.106   2.553
 5737SOL    HW218111   4.996   6.218   2.462
 5738SOL     OW18112   3.215   0.927   1.484
 5738SOL    HW118113   3.285   0.901   1.550
 5738SOL    HW218114   3.167   1.009   1.516
 5739SOL     OW18115   1.780   1.054   5.435
 5739SOL    HW118116   1.726   0.970   5.431
 5739SOL    HW218117   1.761   1.110   5.354
 5740SOL     OW18118   4.917   3.462   2.743
 5740SOL    HW118119   5.001   3.477   2.690
 5740SOL    HW218120   4.838   3.489   2.689
 5741SOL     OW18121   1.534   3.232   4.202
 5741SOL    HW118122   1.497   3.237   4.110
 5741SOL    HW218123   1.474   3.177   4.260
 5742SOL     OW18124   5.818   5.242   1.822
 5742SOL    HW118125   5.761   5.166   1.855
 5742SOL    HW218126   5.868   5.281   1.899
 5743SOL     OW18127   4.434   6.339   6.970
 5743SOL    HW118128   4.514   6.315   0.002
 5743SOL    HW218129   4.439   6.295   6.881
 5744SOL     OW18130   5.120   5.976   3.450
 5744SOL    HW118131   5.158   6.049   3.507
 5744SOL    HW218132   5.020   5.982   3.452
 5745SOL     OW18133   0.640   3.772   2.706
 5745SOL    HW118134   0.607   3.788   2.613
 5745SOL    HW218135   0.566   3.788   2.771
 5746SOL     OW18136   5.462   0.356   3.464
 5746SOL    HW118137   5.486   0.453   3.460
 5746SOL    HW218138   5.459   0.319   3.371
 5747SOL     OW18139   2.253   6.709   1.301
 5747SOL    HW118140   2.278   6.780   1.235
 5747SOL    HW218141   2.227   6.751   1.388
 5748SOL     OW18142   6.342   6.392   0.290
 5748SOL    HW118143   6.408   6.421   0.220
 5748SOL    HW218144   6.275   6.332   0.248
 5749SOL     OW18145   1.963   6.249   6.856
 5749SOL    HW118146   1.953   6.164   6.909
 5749SOL    HW218147   1.928   6.235   6.764
 5750SOL     OW18148   6.737   2.256   4.088
 5750SOL    HW118149   6.733   2.312   4.172
 5750SOL    HW218150   6.659   2.194   4.086
 5751SOL     OW18151   0.345   3.601   3.809
 5751SOL    HW118152   0.365   3.657   3.890
 5751SOL    HW218153   0.277   3.531   3.834
 5752SOL     OW18154   6.060   1.012   6.781
 5752SOL    HW118155   5.992   0.994   6.710
 5752SOL    HW218156   6.058   0.938   6.848
 5753SOL     OW18157   3.701   3.618   4.416
 5753SOL    HW118158   3.627   3.653   4.475
 5753SOL    HW218159   3.731   3.691   4.355
 5754SOL     OW18160   6.314   6.461   1.106
 5754SOL    HW118161   6.338   6.408   1.187
 5754SOL    HW218162   6.222   6.500   1.119
 5755SOL     OW18163   0.909   3.082   6.392
 5755SOL    HW118164   0.849   3.145   6.440
 5755SOL    HW218165   0.879   3.073   6.297
 5756SOL     OW18166   6.350   6.216   1.633
 5756SOL    HW118167   6.254   6.192   1.645
 5756SOL    HW218168   6.380   6.271   1.711
 5757SOL     OW18169   0.952   1.463   3.523
 5757SOL    HW118170   0.951   1.373   3.480
 5757SOL    HW218171   0.876   1.518   3.488
 5758SOL     OW18172   6.332   6.740   2.925
 5758SOL    HW118173   6.251   6.699   2.968
 5758SOL    HW218174   6.390   6.669   2.887
 5759SOL     OW18175   1.845   6.507   3.130
 5759SOL    HW118176   1.765   6.558   3.098
 5759SOL    HW218177   1.826   6.470   3.221
 5760SOL     OW18178   0.332   2.250   0.351
 5760SOL    HW118179   0.413   2.194   0.331
 5760SOL    HW218180   0.258   2.225   0.289
 5761SOL     OW18181   6.352   6.644   5.071
 5761SOL    HW118182   6.375   6.666   4.977
 5761SOL    HW218183   6.427   6.594   5.113
 5762SOL     OW18184   0.556   5.682   5.434
 5762SOL    HW118185   0.581   5.756   5.497
 5762SOL    HW218186   0.457   5.679   5.424
 5763SOL     OW18187   4.987   0.461   0.280
 5763SOL    HW118188   5.042   0.382   0.308
 5763SOL    HW218189   5.027   0.545   0.317
 5764SOL     OW18190   4.191   6.455   4.324
 5764SOL    HW118191   4.146   6.369   4.301
 5764SOL    HW218192   4.191   6.467   4.423
 5765SOL     OW18193   6.881   5.958   2.511
 5765SOL    HW118194   6.840   5.890   2.450
 5765SOL    HW218195   6.853   5.939   2.605
 5766SOL     OW18196   0.827   1.179   4.288
 5766SOL    HW118197   0.753   1.177   4.220
 5766SOL    HW218198   0.800   1.239   4.364
 5767SOL     OW18199   5.103   6.433   0.131
 5767SOL    HW118200   5.035   6.378   0.083
 5767SOL    HW218201   5.085   6.429   0.230
 5768SOL     OW18202   1.474   1.125   4.931
 5768SOL    HW118203   1.520   1.057   4.989
 5768SOL    HW218204   1.419   1.078   4.862
 5769SOL     OW18205   0.854   2.624   5.754
 5769SOL    HW118206   0.785   2.551   5.756
 5769SOL    HW218207   0.870   2.657   5.847
 5770SOL     OW18208   1.908   4.474   2.444
 5770SOL    HW118209   1.930   4.386   2.403
 5770SOL    HW218210   1.819   4.467   2.491
 5771SOL     OW18211   2.635   5.503   3.095
 5771SOL    HW118212   2.624   5.406   3.078
 5771SOL    HW218213   2.647   5.552   3.009
 5772SOL     OW18214   2.605   0.420   3.245
 5772SOL    HW118215   2.594   0.360   3.166
 5772SOL    HW218216   2.602   0.366   3.329
 5773SOL     OW18217   5.947   0.767   3.925
 5773SOL    HW118218   5.999   0.683   3.915
 5773SOL    HW218219   5.905   0.791   3.837
 5774SOL     OW18220   0.940   6.451   3.453
 5774SOL    HW118221   0.979   6.521   3.393
 5774SOL    HW218222   0.847   6.428   3.423
 5775SOL     OW18223   5.666   5.075   2.433
 5775SOL    HW118224   5.710   5.094   2.345
 5775SOL    HW218225   5.697   4.986   2.467
 5776SOL     OW18226   3.609   0.882   4.100
 5776SOL    HW118227   3.658   0.963   4.069
 5776SOL    HW218228   3.674   0.811   4.125
 5777SOL     OW18229   1.117   0.492   1.523
 5777SOL    HW118230   1.080   0.401   1.540
 5777SOL    HW218231   1.116   0.545   1.608
 5778SOL     OW18232   0.300   0.928   0.232
 5778SOL    HW118233   0.284   1.022   0.202
 5778SOL    HW218234   0.399   0.911   0.235
 5779SOL     OW18235   6.118   1.904   0.857
 5779SOL    HW118236   6.049   1.860   0.801
 5779SOL    HW218237   6.077   1.939   0.941
 5780SOL     OW18238   5.117   5.160   4.494
 5780SOL    HW118239   5.060   5.242   4.482
 5780SOL    HW218240   5.151   5.129   4.404
 5781SOL     OW18241   1.428   5.655   6.025
 5781SOL    HW118242   1.427   5.667   6.124
 5781SOL    HW218243   1.513   5.691   5.987
 5782SOL     OW18244   6.215   0.918   0.351
 5782SOL    HW118245   6.313   0.903   0.350
 5782SOL    HW218246   6.185   0.932   0.446
 5783SOL     OW18247   2.522   2.722   6.586
 5783SOL    HW118248   2.520   2.676   6.497
 5783SOL    HW218249   2.473   2.666   6.653
 5784SOL     OW18250   6.839   6.354   0.051
 5784SOL    HW118251   6.849   6.341   6.975
 5784SOL    HW218252   6.745   6.382   0.071
 5785SOL     OW18253   1.664   1.620   1.786
 5785SOL    HW118254   1.684   1.533   1.742
 5785SOL    HW218255   1.736   1.686   1.763
 5786SOL     OW18256   6.072   5.487   1.734
 5786SOL    HW118257   6.083   5.494   1.635
 5786SOL    HW218258   6.015   5.563   1.767
 5787SOL     OW18259   1.931   3.511   6.211
 5787SOL    HW118260   1.983   3.572   6.151
 5787SOL    HW218261   1.863   3.564   6.261
 5788SOL     OW18262   3.615   0.664   3.805
 5788SOL    HW118263   3.520   0.644   3.831
 5788SOL    HW218264   3.676   0.643   3.881
 5789SOL     OW18265   3.457   4.984   6.007
 5789SOL    HW118266   3.547   5.016   5.980
 5789SOL    HW218267   3.465   4.928   6.090
 5790SOL     OW18268   1.289   4.297   4.040
 5790SOL    HW118269   1.220   4.296   3.967
 5790SOL    HW218270   1.293   4.388   4.081
 5791SOL     OW18271   1.558   0.372   3.376
 5791SOL    HW118272   1.637   0.389   3.318
 5791SOL    HW218273   1.563   0.431   3.457
 5792SOL     OW18274   7.022   2.588   2.725
 5792SOL    HW118275   0.058   2.597   2.806
 5792SOL    HW218276   7.019   2.675   2.676
 5793SOL     OW18277   6.287   0.799   4.632
 5793SOL    HW118278   6.231   0.850   4.697
 5793SOL    HW218279   6.234   0.783   4.548
 5794SOL     OW18280   6.812   4.220   6.566
 5794SOL    HW118281   6.833   4.132   6.524
 5794SOL    HW218282   6.844   4.220   6.661
 5795SOL     OW18283   6.273   4.583   6.653
 5795SOL    HW118284   6.174   4.585   6.643
 5795SOL    HW218285   6.299   4.506   6.711
 5796SOL     OW18286   2.804   2.356   0.787
 5796SOL    HW118287   2.754   2.387   0.867
 5796SOL    HW218288   2.756   2.385   0.704
 5797SOL     OW18289   3.029   2.763   5.345
 5797SOL    HW118290   3.056   2.774   5.441
 5797SOL    HW218291   3.056   2.672   5.314
 5798SOL     OW18292   6.612   5.679   4.164
 5798SOL    HW118293   6.539   5.743   4.140
 5798SOL    HW218294   6.699   5.711   4.126
 5799SOL     OW18295   5.501   1.140   4.201
 5799SOL    HW118296   5.597   1.136   4.228
 5799SOL    HW218297   5.494   1.132   4.101
 5800SOL     OW18298   5.881   5.655   6.601
 5800SOL    HW118299   5.822   5.577   6.580
 5800SOL    HW218300   5.840   5.709   6.675
 5801SOL     OW18301   2.008   0.886   2.960
 5801SOL    HW118302   2.025   0.974   3.004
 5801SOL    HW218303   2.013   0.813   3.029
 5802SOL     OW18304   0.565   2.480   4.701
 5802SOL    HW118305   0.546   2.578   4.707
 5802SOL    HW218306   0.496   2.436   4.644
 5803SOL     OW18307   1.630   5.184   1.125
 5803SOL    HW118308   1.608   5.184   1.028
 5803SOL    HW218309   1.554   5.143   1.176
 5804SOL     OW18310   0.117   2.474   6.410
 5804SOL    HW118311   0.070   2.552   6.450
 5804SOL    HW218312   0.052   2.419   6.358
 5805SOL     OW18313   5.807   3.374   6.844
 5805SOL    HW118314   5.716   3.403   6.814
 5805SOL    HW218315   5.877   3.430   6.799
 5806SOL     OW18316   6.576   6.863   6.770
 5806SOL    HW118317   6.557   6.924   6.846
 5806SOL    HW218318   6.657   6.808   6.790
 5807SOL     OW18319   2.593   3.517   1.470
 5807SOL    HW118320   2.668   3.582   1.475
 5807SOL    HW218321   2.507   3.563   1.493
 5808SOL     OW18322   6.410   1.555   3.523
 5808SOL    HW118323   6.404   1.529   3.427
 5808SOL    HW218324   6.396   1.654   3.533
 5809SOL     OW18325   0.222   2.727   3.576
 5809SOL    HW118326   0.183   2.643   3.615
 5809SOL    HW218327   0.272   2.705   3.492
 5810SOL     OW18328   2.803   2.323   2.723
 5810SOL    HW118329   2.875   2.312   2.790
 5810SOL    HW218330   2.840   2.308   2.631
 5811SOL     OW18331   3.042   0.064   2.406
 5811SOL    HW118332   3.073   0.091   2.315
 5811SOL    HW218333   2.995   6.998   2.400
 5812SOL     OW18334   4.331   0.518   4.967
 5812SOL    HW118335   4.266   0.474   5.029
 5812SOL    HW218336   4.385   0.585   5.017
 5813SOL     OW18337   1.779   1.208   5.190
 5813SOL    HW118338   1.879   1.198   5.187
 5813SOL    HW218339   1.742   1.200   5.097
 5814SOL     OW18340   0.225   5.229   1.146
 5814SOL    HW118341   0.252   5.300   1.212
 5814SOL    HW218342   0.295   5.157   1.144
 5815SOL     OW18343   4.043   0.499   3.840
 5815SOL    HW118344   4.121   0.545   3.882
 5815SOL    HW218345   4.047   0.511   3.741
 5816SOL     OW18346   5.108   6.421   0.406
 5816SOL    HW118347   5.090   6.399   0.502
 5816SOL    HW218348   5.156   6.508   0.400
 5817SOL     OW18349   6.092   2.698   6.181
 5817SOL    HW118350   6.162   2.769   6.192
 5817SOL    HW218351   6.093   2.665   6.087
 5818SOL     OW18352   6.367   6.045   5.567
 5818SOL    HW118353   6.371   6.113   5.640
 5818SOL    HW218354   6.436   6.065   5.498
 5819SOL     OW18355   6.061   0.219   0.545
 5819SOL    HW118356   6.110   0.296   0.586
 5819SOL    HW218357   6.060   0.142   0.610
 5820SOL     OW18358   5.633   4.817   2.046
 5820SOL    HW118359   5.567   4.810   2.120
 5820SOL    HW218360   5.604   4.886   1.981
 5821SOL     OW18361   3.231   0.208   2.585
 5821SOL    HW118362   3.195   0.238   2.497
 5821SOL    HW218363   3.318   0.254   2.603
 5822SOL     OW18364   0.752   1.063   2.206
 5822SOL    HW118365   0.726   1.103   2.293
 5822SOL    HW218366   0.675   1.070   2.142
 5823SOL     OW18367   2.069   2.683   4.191
 5823SOL    HW118368   2.054   2.687   4.092
 5823SOL    HW218369   2.155   2.728   4.213
 5824SOL     OW18370   4.701   0.563   3.913
 5824SOL    HW118371   4.617   0.537   3.867
 5824SOL    HW218372   4.703   0.662   3.926
 5825SOL     OW18373   3.937   1.524   1.690
 5825SOL    HW118374   3.872   1.468   1.639
 5825SOL    HW218375   3.913   1.621   1.678
 5826SOL     OW18376   0.227   6.499   3.841
 5826SOL    HW118377   0.149   6.540   3.793
 5826SOL    HW218378   0.271   6.567   3.899
 5827SOL     OW18379   1.701   4.796   5.552
 5827SOL    HW118380   1.619   4.828   5.599
 5827SOL    HW218381   1.674   4.731   5.480
 5828SOL     OW18382   6.537   2.129   1.379
 5828SOL    HW118383   6.531   2.131   1.279
 5828SOL    HW218384   6.523   2.036   1.412
 5829SOL     OW18385   1.400   1.921   1.751
 5829SOL    HW118386   1.396   1.848   1.683
 5829SOL    HW218387   1.440   1.885   1.835
 5830SOL     OW18388   2.418   0.954   5.443
 5830SOL    HW118389   2.492   1.014   5.412
 5830SOL    HW218390   2.444   0.859   5.428
 5831SOL     OW18391   5.638   5.634   2.733
 5831SOL    HW118392   5.564   5.577   2.768
 5831SOL    HW218393   5.638   5.633   2.633
 5832SOL     OW18394   3.682   3.168   4.445
 5832SOL    HW118395   3.680   3.100   4.519
 5832SOL    HW218396   3.614   3.239   4.463
 5833SOL     OW18397   3.566   3.338   5.153
 5833SOL    HW118398   3.664   3.331   5.136
 5833SOL    HW218399   3.519   3.356   5.067
 5834SOL     OW18400   6.099   1.109   0.229
 5834SOL    HW118401   6.138   1.042   0.292
 5834SOL    HW218402   6.151   1.109   0.144
 5835SOL     OW18403   5.096   3.151   5.013
 5835SOL    HW118404   5.104   3.206   5.096
 5835SOL    HW218405   5.186   3.144   4.969
 5836SOL     OW18406   3.298   0.109   3.037
 5836SOL    HW118407   3.290   0.209   3.029
 5836SOL    HW218408   3.260   0.066   2.955
 5837SOL     OW18409   4.456   4.487   5.936
 5837SOL    HW118410   4.542   4.499   5.985
 5837SOL    HW218411   4.448   4.558   5.865
 5838SOL     OW18412   1.033   0.988   5.706
 5838SOL    HW118413   1.110   0.973   5.644
 5838SOL    HW218414   1.061   1.049   5.780
 5839SOL     OW18415   6.995   2.232   2.082
 5839SOL    HW118416   6.923   2.168   2.106
 5839SOL    HW218417   0.041   2.235   2.155
 5840SOL     OW18418   3.444   5.546   0.356
 5840SOL    HW118419   3.488   5.458   0.340
 5840SOL    HW218420   3.469   5.580   0.447
 5841SOL     OW18421   6.042   2.335   3.337
 5841SOL    HW118422   6.060   2.411   3.400
 5841SOL    HW218423   6.083   2.355   3.248
 5842SOL     OW18424   3.876   2.661   0.806
 5842SOL    HW118425   3.897   2.732   0.739
 5842SOL    HW218426   3.796   2.689   0.859
 5843SOL     OW18427   1.094   3.131   1.342
 5843SOL    HW118428   1.041   3.065   1.290
 5843SOL    HW218429   1.126   3.204   1.281
 5844SOL     OW18430   1.732   6.443   6.896
 5844SOL    HW118431   1.699   6.443   6.801
 5844SOL    HW218432   1.819   6.393   6.901
 5845SOL     OW18433   1.943   2.542   4.508
 5845SOL    HW118434   1.874   2.512   4.575
 5845SOL    HW218435   1.969   2.465   4.450
 5846SOL     OW18436   7.014   3.546   6.810
 5846SOL    HW118437   0.091   3.551   6.811
 5846SOL    HW218438   6.981   3.548   6.716
 5847SOL     OW18439   1.071   2.474   3.933
 5847SOL    HW118440   1.140   2.525   3.881
 5847SOL    HW218441   1.111   2.442   4.019
 5848SOL     OW18442   0.970   4.950   3.406
 5848SOL    HW118443   0.985   5.010   3.484
 5848SOL    HW218444   0.891   4.983   3.354
 5849SOL     OW18445   3.180   6.904   5.859
 5849SOL    HW118446   3.101   6.963   5.876
 5849SOL    HW218447   3.151   6.808   5.862
 5850SOL     OW18448   0.708   4.491   3.173
 5850SOL    HW118449   0.781   4.428   3.143
 5850SOL    HW218450   0.644   4.505   3.097
 5851SOL     OW18451   5.843   3.191   1.877
 5851SOL    HW118452   5.931   3.144   1.879
 5851SOL    HW218453   5.798   3.182   1.966
 5852SOL     OW18454   3.857   6.565   2.776
 5852SOL    HW118455   3.926   6.498   2.803
 5852SOL    HW218456   3.864   6.645   2.836
 5853SOL     OW18457   4.961   3.988   5.563
 5853SOL    HW118458   4.935   3.893   5.580
 5853SOL    HW218459   5.009   3.995   5.476
 5854SOL     OW18460   0.980   1.070   6.453
 5854SOL    HW118461   0.924   1.153   6.458
 5854SOL    HW218462   1.031   1.069   6.367
 5855SOL     OW18463   1.682   1.636   4.632
 5855SOL    HW118464   1.667   1.709   4.699
 5855SOL    HW218465   1.651   1.549   4.671
 5856SOL     OW18466   1.479   5.650   3.350
 5856SOL    HW118467   1.507   5.735   3.395
 5856SOL    HW218468   1.393   5.665   3.301
 5857SOL     OW18469   0.571   2.736   5.402
 5857SOL    HW118470   0.651   2.715   5.345
 5857SOL    HW218471   0.518   2.809   5.359
 5858SOL     OW18472   3.099   6.650   3.532
 5858SOL    HW118473   3.196   6.653   3.558
 5858SOL    HW218474   3.090   6.674   3.436
 5859SOL     OW18475   5.902   5.663   1.878
 5859SOL    HW118476   5.951   5.665   1.965
 5859SOL    HW218477   5.834   5.589   1.880
 5860SOL     OW18478   6.960   4.106   0.842
 5860SOL    HW118479   6.949   4.008   0.824
 5860SOL    HW218480   0.024   4.121   0.889
 5861SOL     OW18481   6.244   1.311   3.601
 5861SOL    HW118482   6.324   1.360   3.567
 5861SOL    HW218483   6.229   1.229   3.546
 5862SOL     OW18484   4.787   5.090   3.774
 5862SOL    HW118485   4.798   5.113   3.677
 5862SOL    HW218486   4.809   4.994   3.788
 5863SOL     OW18487   2.207   1.661   0.688
 5863SOL    HW118488   2.224   1.700   0.779
 5863SOL    HW218489   2.269   1.702   0.622
 5864SOL     OW18490   4.486   5.371   0.795
 5864SOL    HW118491   4.418   5.345   0.863
 5864SOL    HW218492   4.439   5.411   0.715
 5865SOL     OW18493   4.378   0.775   3.274
 5865SOL    HW118494   4.292   0.764   3.224
 5865SOL    HW218495   4.435   0.843   3.229
 5866SOL     OW18496   3.246   1.431   6.858
 5866SOL    HW118497   3.211   1.365   6.791
 5866SOL    HW218498   3.336   1.464   6.829
 5867SOL     OW18499   6.701   3.000   1.275
 5867SOL    HW118500   6.707   2.912   1.323
 5867SOL    HW218501   6.628   2.995   1.207
 5868SOL     OW18502   1.027   6.656   4.988
 5868SOL    HW118503   1.009   6.752   4.968
 5868SOL    HW218504   0.989   6.633   5.077
 5869SOL     OW18505   2.801   4.771   4.220
 5869SOL    HW118506   2.750   4.848   4.257
 5869SOL    HW218507   2.899   4.788   4.228
 5870SOL     OW18508   4.687   5.478   3.920
 5870SOL    HW118509   4.708   5.549   3.987
 5870SOL    HW218510   4.735   5.394   3.945
 5871SOL     OW18511   3.015   3.499   0.643
 5871SOL    HW118512   2.967   3.443   0.710
 5871SOL    HW218513   3.025   3.592   0.679
 5872SOL     OW18514   4.238   5.531   3.642
 5872SOL    HW118515   4.199   5.440   3.624
 5872SOL    HW218516   4.318   5.521   3.702
 5873SOL     OW18517   1.861   2.983   6.961
 5873SOL    HW118518   1.957   3.005   6.945
 5873SOL    HW218519   1.806   3.067   6.962
 5874SOL     OW18520   0.865   4.222   6.037
 5874SOL    HW118521   0.793   4.258   6.097
 5874SOL    HW218522   0.954   4.255   6.069
 5875SOL     OW18523   3.159   2.610   1.035
 5875SOL    HW118524   3.194   2.535   0.980
 5875SOL    HW218525   3.157   2.583   1.132
 5876SOL     OW18526   4.506   4.061   6.256
 5876SOL    HW118527   4.504   4.022   6.164
 5876SOL    HW218528   4.413   4.086   6.284
 5877SOL     OW18529   5.637   0.167   2.594
 5877SOL    HW118530   5.699   0.174   2.516
 5877SOL    HW218531   5.610   0.258   2.624
 5878SOL     OW18532   5.079   3.997   2.771
 5878SOL    HW118533   5.069   4.097   2.769
 5878SOL    HW218534   5.175   3.973   2.765
 5879SOL     OW18535   3.139   4.473   5.322
 5879SOL    HW118536   3.056   4.513   5.283
 5879SOL    HW218537   3.138   4.375   5.307
 5880SOL     OW18538   6.017   2.502   0.408
 5880SOL    HW118539   6.091   2.478   0.470
 5880SOL    HW218540   6.024   2.446   0.325
 5881SOL     OW18541   1.456   5.980   2.522
 5881SOL    HW118542   1.456   5.893   2.572
 5881SOL    HW218543   1.477   6.055   2.585
 5882SOL     OW18544   1.680   5.071   5.425
 5882SOL    HW118545   1.734   4.989   5.441
 5882SOL    HW218546   1.613   5.054   5.353
 5883SOL     OW18547   0.093   5.328   0.077
 5883SOL    HW118548   0.044   5.307   0.162
 5883SOL    HW218549   0.191   5.308   0.090
 5884SOL     OW18550   6.646   0.667   2.524
 5884SOL    HW118551   6.628   0.668   2.623
 5884SOL    HW218552   6.567   0.705   2.476
 5885SOL     OW18553   7.005   5.621   1.524
 5885SOL    HW118554   6.951   5.570   1.457
 5885SOL    HW218555   0.012   5.559   1.597
 5886SOL     OW18556   2.177   4.728   3.535
 5886SOL    HW118557   2.261   4.781   3.523
 5886SOL    HW218558   2.191   4.635   3.502
 5887SOL     OW18559   3.241   3.421   0.332
 5887SOL    HW118560   3.253   3.357   0.408
 5887SOL    HW218561   3.143   3.436   0.317
 5888SOL     OW18562   2.749   5.969   1.460
 5888SOL    HW118563   2.832   5.928   1.496
 5888SOL    HW218564   2.678   5.970   1.530
 5889SOL     OW18565   5.324   1.776   2.593
 5889SOL    HW118566   5.325   1.835   2.512
 5889SOL    HW218567   5.233   1.736   2.604
 5890SOL     OW18568   2.672   4.601   3.484
 5890SOL    HW118569   2.686   4.635   3.391
 5890SOL    HW218570   2.736   4.646   3.546
 5891SOL     OW18571   2.558   2.990   6.643
 5891SOL    HW118572   2.476   3.038   6.609
 5891SOL    HW218573   2.555   2.895   6.613
 5892SOL     OW18574   1.232   2.383   0.559
 5892SOL    HW118575   1.238   2.479   0.587
 5892SOL    HW218576   1.168   2.374   0.482
 5893SOL     OW18577   0.568   6.149   1.598
 5893SOL    HW118578   0.635   6.223   1.591
 5893SOL    HW218579   0.484   6.175   1.551
 5894SOL     OW18580   2.442   5.348   6.480
 5894SOL    HW118581   2.458   5.252   6.457
 5894SOL    HW218582   2.529   5.397   6.481
 5895SOL     OW18583   6.187   3.690   3.924
 5895SOL    HW118584   6.114   3.624   3.943
 5895SOL    HW218585   6.199   3.750   4.003
 5896SOL     OW18586   5.854   2.547   1.814
 5896SOL    HW118587   5.899   2.462   1.789
 5896SOL    HW218588   5.853   2.609   1.736
 5897SOL     OW18589   3.252   2.534   0.370
 5897SOL    HW118590   3.251   2.512   0.273
 5897SOL    HW218591   3.206   2.621   0.385
 5898SOL     OW18592   3.242   1.031   0.012
 5898SOL    HW118593   3.174   0.987   6.976
 5898SOL    HW218594   3.199   1.107   0.061
 5899SOL     OW18595   0.418   6.686   6.807
 5899SOL    HW118596   0.501   6.644   6.845
 5899SOL    HW218597   0.351   6.615   6.787
 5900SOL     OW18598   5.830   6.631   2.540
 5900SOL    HW118599   5.757   6.677   2.489
 5900SOL    HW218600   5.915   6.682   2.530
 5901SOL     OW18601   2.224   0.751   5.130
 5901SOL    HW118602   2.209   0.829   5.191
 5901SOL    HW218603   2.176   0.767   5.044
 5902SOL     OW18604   3.906   4.066   5.936
 5902SOL    HW118605   3.827   4.066   5.875
 5902SOL    HW218606   3.948   4.156   5.938
 5903SOL     OW18607   6.158   2.242   4.945
 5903SOL    HW118608   6.146   2.292   5.030
 5903SOL    HW218609   6.081   2.181   4.930
 5904SOL     OW18610   6.999   4.717   1.844
 5904SOL    HW118611   6.929   4.651   1.817
 5904SOL    HW218612   7.018   4.779   1.768
 5905SOL     OW18613   6.653   2.410   4.922
 5905SOL    HW118614   6.637   2.324   4.970
 5905SOL    HW218615   6.726   2.461   4.967
 5906SOL     OW18616   4.681   1.140   5.610
 5906SOL    HW118617   4.667   1.238   5.592
 5906SOL    HW218618   4.601   1.089   5.579
 5907SOL     OW18619   1.068   3.512   6.047
 5907SOL    HW118620   1.088   3.461   5.963
 5907SOL    HW218621   1.124   3.476   6.122
 5908SOL     OW18622   4.354   3.805   6.742
 5908SOL    HW118623   4.375   3.807   6.839
 5908SOL    HW218624   4.432   3.841   6.690
 5909SOL     OW18625   5.797   5.232   3.487
 5909SOL    HW118626   5.875   5.174   3.508
 5909SOL    HW218627   5.807   5.320   3.534
 5910SOL     OW18628   3.045   4.454   1.421
 5910SOL    HW118629   3.119   4.426   1.484
 5910SOL    HW218630   2.992   4.373   1.396
 5911SOL     OW18631   6.132   0.449   5.911
 5911SOL    HW118632   6.131   0.381   5.984
 5911SOL    HW218633   6.221   0.448   5.866
 5912SOL     OW18634   0.700   3.519   5.962
 5912SOL    HW118635   0.761   3.591   5.926
 5912SOL    HW218636   0.714   3.435   5.910
 5913SOL     OW18637   2.239   2.426   4.202
 5913SOL    HW118638   2.246   2.523   4.176
 5913SOL    HW218639   2.324   2.379   4.179
 5914SOL     OW18640   1.407   5.594   0.845
 5914SOL    HW118641   1.496   5.601   0.890
 5914SOL    HW218642   1.350   5.672   0.871
 5915SOL     OW18643   5.693   3.914   3.985
 5915SOL    HW118644   5.665   3.864   3.903
 5915SOL    HW218645   5.779   3.878   4.019
 5916SOL     OW18646   3.387   0.660   6.728
 5916SOL    HW118647   3.430   0.584   6.777
 5916SOL    HW218648   3.326   0.624   6.658
 5917SOL     OW18649   3.971   3.891   2.237
 5917SOL    HW118650   3.911   3.964   2.267
 5917SOL    HW218651   4.040   3.873   2.307
 5918SOL     OW18652   2.733   1.994   4.018
 5918SOL    HW118653   2.803   1.939   3.973
 5918SOL    HW218654   2.776   2.057   4.082
 5919SOL     OW18655   1.835   2.166   6.749
 5919SOL    HW118656   1.802   2.259   6.734
 5919SOL    HW218657   1.809   2.136   6.841
 5920SOL     OW18658   2.972   5.174   6.968
 5920SOL    HW118659   2.958   5.079   6.938
 5920SOL    HW218660   3.016   5.225   6.894
 5921SOL     OW18661   3.817   5.516   5.252
 5921SOL    HW118662   3.878   5.557   5.183
 5921SOL    HW218663   3.812   5.576   5.332
 5922SOL     OW18664   6.376   4.969   1.973
 5922SOL    HW118665   6.389   4.880   1.930
 5922SOL    HW218666   6.461   5.023   1.966
 5923SOL     OW18667   0.770   0.805   3.083
 5923SOL    HW118668   0.863   0.783   3.053
 5923SOL    HW218669   0.774   0.846   3.174
 5924SOL     OW18670   5.946   1.891   4.674
 5924SOL    HW118671   5.920   1.978   4.631
 5924SOL    HW218672   6.037   1.864   4.643
 5925SOL     OW18673   6.420   5.747   0.455
 5925SOL    HW118674   6.484   5.823   0.468
 5925SOL    HW218675   6.338   5.780   0.408
 5926SOL     OW18676   3.659   6.132   1.726
 5926SOL    HW118677   3.711   6.199   1.780
 5926SOL    HW218678   3.580   6.177   1.684
 5927SOL     OW18679   2.046   5.060   1.365
 5927SOL    HW118680   1.962   5.115   1.366
 5927SOL    HW218681   2.098   5.077   1.449
 5928SOL     OW18682   0.762   6.155   0.913
 5928SOL    HW118683   0.820   6.176   0.834
 5928SOL    HW218684   0.818   6.144   0.994
 5929SOL     OW18685   0.594   6.874   5.691
 5929SOL    HW118686   0.622   6.844   5.600
 5929SOL    HW218687   0.520   6.941   5.682
 5930SOL     OW18688   6.132   1.327   5.288
 5930SOL    HW118689   6.076   1.320   5.370
 5930SOL    HW218690   6.105   1.256   5.223
 5931SOL     OW18691   5.371   4.810   0.892
 5931SOL    HW118692   5.274   4.834   0.884
 5931SOL    HW218693   5.425   4.894   0.900
 5932SOL     OW18694   2.104   0.070   7.009
 5932SOL    HW118695   2.116   0.012   0.068
 5932SOL    HW218696   2.131   0.164   0.009
 5933SOL     OW18697   6.140   3.028   3.042
 5933SOL    HW118698   6.222   3.085   3.043
 5933SOL    HW218699   6.153   2.949   3.102
 5934SOL     OW18700   4.079   3.704   2.406
 5934SOL    HW118701   4.152   3.690   2.473
 5934SOL    HW218702   4.092   3.641   2.329
 5935SOL     OW18703   3.634   2.954   3.153
 5935SOL    HW118704   3.653   3.050   3.174
 5935SOL    HW218705   3.707   2.917   3.095
 5936SOL     OW18706   6.740   6.026   6.603
 5936SOL    HW118707   6.715   6.082   6.682
 5936SOL    HW218708   6.673   5.952   6.593
 5937SOL     OW18709   0.808   4.185   0.064
 5937SOL    HW118710   0.846   4.190   6.994
 5937SOL    HW218711   0.773   4.274   0.090
 5938SOL     OW18712   2.589   4.633   0.450
 5938SOL    HW118713   2.522   4.592   0.513
 5938SOL    HW218714   2.540   4.690   0.383
 5939SOL     OW18715   1.529   0.731   2.108
 5939SOL    HW118716   1.559   0.807   2.049
 5939SOL    HW218717   1.573   0.738   2.197
 5940SOL     OW18718   3.699   4.935   3.334
 5940SOL    HW118719   3.601   4.937   3.350
 5940SOL    HW218720   3.719   4.887   3.249
 5941SOL     OW18721   6.337   2.598   3.435
 5941SOL    HW118722   6.303   2.644   3.517
 5941SOL    HW218723   6.390   2.663   3.380
 5942SOL     OW18724   6.748   1.195   4.450
 5942SOL    HW118725   6.716   1.146   4.531
 5942SOL    HW218726   6.804   1.273   4.479
 5943SOL     OW18727   1.618   5.213   0.852
 5943SOL    HW118728   1.537   5.225   0.794
 5943SOL    HW218729   1.691   5.274   0.820
 5944SOL     OW18730   5.328   2.535   2.351
 5944SOL    HW118731   5.292   2.533   2.444
 5944SOL    HW218732   5.262   2.492   2.288
 5945SOL     OW18733   6.718   5.695   6.187
 5945SOL    HW118734   6.688   5.625   6.252
 5945SOL    HW218735   6.656   5.773   6.192
 5946SOL     OW18736   3.523   2.671   5.352
 5946SOL    HW118737   3.479   2.760   5.342
 5946SOL    HW218738   3.455   2.604   5.380
 5947SOL     OW18739   4.867   3.833   2.069
 5947SOL    HW118740   4.845   3.862   2.162
 5947SOL    HW218741   4.850   3.909   2.006
 5948SOL     OW18742   3.358   5.366   3.195
 5948SOL    HW118743   3.313   5.374   3.284
 5948SOL    HW218744   3.303   5.308   3.134
 5949SOL     OW18745   4.471   4.810   3.154
 5949SOL    HW118746   4.459   4.718   3.191
 5949SOL    HW218747   4.429   4.876   3.216
 5950SOL     OW18748   6.405   2.470   4.422
 5950SOL    HW118749   6.315   2.450   4.460
 5950SOL    HW218750   6.423   2.569   4.429
 5951SOL     OW18751   1.980   0.391   4.305
 5951SOL    HW118752   1.931   0.470   4.267
 5951SOL    HW218753   2.049   0.423   4.369
 5952SOL     OW18754   0.473   6.035   4.878
 5952SOL    HW118755   0.524   5.959   4.838
 5952SOL    HW218756   0.424   6.085   4.806
 5953SOL     OW18757   0.660   3.364   6.188
 5953SOL    HW118758   0.693   3.270   6.178
 5953SOL    HW218759   0.665   3.410   6.099
 5954SOL     OW18760   1.505   4.864   6.402
 5954SOL    HW118761   1.484   4.786   6.461
 5954SOL    HW218762   1.472   4.948   6.445
 5955SOL     OW18763   4.815   5.019   2.721
 5955SOL    HW118764   4.874   5.011   2.641
 5955SOL    HW218765   4.853   5.088   2.783
 5956SOL     OW18766   0.150   2.178   0.172
 5956SOL    HW118767   0.081   2.247   0.152
 5956SOL    HW218768   0.128   2.093   0.123
 5957SOL     OW18769   4.308   6.812   5.552
 5957SOL    HW118770   4.322   6.713   5.551
 5957SOL    HW218771   4.277   6.840   5.643
 5958SOL     OW18772   1.124   5.326   2.686
 5958SOL    HW118773   1.149   5.358   2.595
 5958SOL    HW218774   1.026   5.303   2.687
 5959SOL     OW18775   1.475   1.066   6.662
 5959SOL    HW118776   1.556   1.009   6.651
 5959SOL    HW218777   1.430   1.078   6.574
 5960SOL     OW18778   3.531   6.367   5.681
 5960SOL    HW118779   3.543   6.293   5.615
 5960SOL    HW218780   3.483   6.333   5.761
 5961SOL     OW18781   2.611   1.112   5.309
 5961SOL    HW118782   2.637   1.172   5.385
 5961SOL    HW218783   2.561   1.164   5.240
 5962SOL     OW18784   5.208   3.970   1.830
 5962SOL    HW118785   5.226   3.875   1.855
 5962SOL    HW218786   5.293   4.022   1.829
 5963SOL     OW18787   4.162   4.056   1.715
 5963SOL    HW118788   4.141   4.108   1.632
 5963SOL    HW218789   4.236   4.101   1.764
 5964SOL     OW18790   1.395   3.599   5.915
 5964SOL    HW118791   1.315   3.543   5.895
 5964SOL    HW218792   1.416   3.656   5.836
 5965SOL     OW18793   2.060   1.680   3.842
 5965SOL    HW118794   2.038   1.734   3.761
 5965SOL    HW218795   2.131   1.613   3.821
 5966SOL     OW18796   1.699   5.875   4.301
 5966SOL    HW118797   1.720   5.778   4.315
 5966SOL    HW218798   1.658   5.887   4.211
 5967SOL     OW18799   4.603   5.702   2.258
 5967SOL    HW118800   4.635   5.747   2.175
 5967SOL    HW218801   4.505   5.717   2.269
 5968SOL     OW18802   0.606   1.480   4.008
 5968SOL    HW118803   0.538   1.457   4.078
 5968SOL    HW218804   0.698   1.471   4.047
 5969SOL     OW18805   6.156   1.948   2.801
 5969SOL    HW118806   6.100   1.980   2.877
 5969SOL    HW218807   6.200   2.026   2.757
 5970SOL     OW18808   2.115   3.662   3.688
 5970SOL    HW118809   2.100   3.602   3.766
 5970SOL    HW218810   2.187   3.728   3.710
 5971SOL     OW18811   3.261   6.001   3.406
 5971SOL    HW118812   3.199   6.045   3.471
 5971SOL    HW218813   3.276   6.062   3.328
 5972SOL     OW18814   5.610   0.439   1.546
 5972SOL    HW118815   5.701   0.446   1.506
 5972SOL    HW218816   5.611   0.475   1.639
 5973SOL     OW18817   1.966   4.601   3.294
 5973SOL    HW118818   1.964   4.506   3.263
 5973SOL    HW218819   1.877   4.643   3.279
 5974SOL     OW18820   1.045   4.081   6.330
 5974SOL    HW118821   1.018   4.048   6.420
 5974SOL    HW218822   0.995   4.030   6.259
 5975SOL     OW18823   2.147   2.360   6.183
 5975SOL    HW118824   2.177   2.317   6.098
 5975SOL    HW218825   2.123   2.455   6.167
 5976SOL     OW18826   3.539   2.864   4.811
 5976SOL    HW118827   3.558   2.878   4.908
 5976SOL    HW218828   3.457   2.808   4.800
 5977SOL     OW18829   0.599   3.757   3.020
 5977SOL    HW118830   0.667   3.697   2.978
 5977SOL    HW218831   0.595   3.738   3.119
 5978SOL     OW18832   4.919   5.461   2.132
 5978SOL    HW118833   4.931   5.446   2.230
 5978SOL    HW218834   4.881   5.379   2.090
 5979SOL     OW18835   0.995   1.221   1.536
 5979SOL    HW118836   0.973   1.127   1.512
 5979SOL    HW218837   1.047   1.223   1.621
 5980SOL     OW18838   5.676   2.872   6.017
 5980SOL    HW118839   5.641   2.898   6.108
 5980SOL    HW218840   5.766   2.912   6.003
 5981SOL     OW18841   3.326   2.021   0.849
 5981SOL    HW118842   3.256   1.984   0.787
 5981SOL    HW218843   3.362   2.106   0.811
 5982SOL     OW18844   6.347   2.597   6.927
 5982SOL    HW118845   6.282   2.604   7.003
 5982SOL    HW218846   6.436   2.570   6.961
 5983SOL     OW18847   1.095   0.657   5.016
 5983SOL    HW118848   1.083   0.755   4.995
 5983SOL    HW218849   1.159   0.647   5.092
 5984SOL     OW18850   0.675   0.052   6.005
 5984SOL    HW118851   0.590   0.060   6.057
 5984SOL    HW218852   0.655   0.061   5.907
 5985SOL     OW18853   5.511   3.623   3.894
 5985SOL    HW118854   5.503   3.586   3.987
 5985SOL    HW218855   5.603   3.607   3.859
 5986SOL     OW18856   2.852   3.571   2.854
 5986SOL    HW118857   2.856   3.585   2.953
 5986SOL    HW218858   2.907   3.640   2.808
 5987SOL     OW18859   4.692   0.176   5.737
 5987SOL    HW118860   4.678   0.166   5.639
 5987SOL    HW218861   4.742   0.260   5.756
 5988SOL     OW18862   3.630   0.317   5.770
 5988SOL    HW118863   3.683   0.265   5.703
 5988SOL    HW218864   3.651   0.414   5.760
 5989SOL     OW18865   2.912   1.508   6.972
 5989SOL    HW118866   2.938   1.447   6.898
 5989SOL    HW218867   2.852   1.580   6.937
 5990SOL     OW18868   3.546   5.116   2.573
 5990SOL    HW118869   3.564   5.086   2.667
 5990SOL    HW218870   3.472   5.062   2.534
 5991SOL     OW18871   2.996   5.196   3.393
 5991SOL    HW118872   3.087   5.237   3.406
 5991SOL    HW218873   2.941   5.211   3.475
 5992SOL     OW18874   4.350   2.045   4.052
 5992SOL    HW118875   4.390   1.962   4.091
 5992SOL    HW218876   4.316   2.025   3.960
 5993SOL     OW18877   2.582   5.112   3.653
 5993SOL    HW118878   2.513   5.164   3.603
 5993SOL    HW218879   2.537   5.050   3.718
 5994SOL     OW18880   6.055   2.217   1.216
 5994SOL    HW118881   6.029   2.273   1.137
 5994SOL    HW218882   6.137   2.255   1.258
 5995SOL     OW18883   0.655   4.270   1.244
 5995SOL    HW118884   0.751   4.241   1.250
 5995SOL    HW218885   0.610   4.254   1.332
 5996SOL     OW18886   1.203   5.477   6.104
 5996SOL    HW118887   1.252   5.549   6.054
 5996SOL    HW218888   1.189   5.506   6.199
 5997SOL     OW18889   0.215   0.832   1.439
 5997SOL    HW118890   0.274   0.895   1.389
 5997SOL    HW218891   0.202   0.749   1.386
 5998SOL     OW18892   4.636   2.722   3.171
 5998SOL    HW118893   4.695   2.766   3.238
 5998SOL    HW218894   4.626   2.782   3.091
 5999SOL     OW18895   2.254   2.655   3.198
 5999SOL    HW118896   2.221   2.746   3.225
 5999SOL    HW218897   2.328   2.627   3.258
 6000SOL     OW18898   4.870   0.860   3.583
 6000SOL    HW118899   4.845   0.843   3.488
 6000SOL    HW218900   4.813   0.935   3.619
 6001SOL     OW18901   6.602   1.658   0.434
 6001SOL    HW118902   6.575   1.753   0.448
 6001SOL    HW218903   6.538   1.597   0.481
 6002SOL     OW18904   1.610   0.214   2.135
 6002SOL    HW118905   1.603   0.162   2.050
 6002SOL    HW218906   1.546   0.177   2.202
 6003SOL     OW18907   5.475   4.359   4.039
 6003SOL    HW118908   5.454   4.373   4.136
 6003SOL    HW218909   5.521   4.271   4.028
 6004SOL     OW18910   6.856   3.333   1.658
 6004SOL    HW118911   6.942   3.384   1.646
 6004SOL    HW218912   6.780   3.398   1.663
 6005SOL     OW18913   1.771   6.070   2.325
 6005SOL    HW118914   1.733   6.157   2.295
 6005SOL    HW218915   1.705   5.997   2.307
 6006SOL     OW18916   2.782   5.689   0.165
 6006SOL    HW118917   2.788   5.636   0.080
 6006SOL    HW218918   2.772   5.626   0.243
 6007SOL     OW18919   5.364   3.623   4.566
 6007SOL    HW118920   5.347   3.645   4.662
 6007SOL    HW218921   5.461   3.602   4.554
 6008SOL     OW18922   4.800   4.055   1.341
 6008SOL    HW118923   4.714   4.097   1.367
 6008SOL    HW218924   4.784   3.987   1.270
 6009SOL     OW18925   4.843   2.049   5.115
 6009SOL    HW118926   4.758   2.007   5.083
 6009SOL    HW218927   4.915   1.980   5.119
 6010SOL     OW18928   1.770   4.298   3.093
 6010SOL    HW118929   1.719   4.339   3.017
 6010SOL    HW218930   1.852   4.253   3.057
 6011SOL     OW18931   6.383   2.032   1.677
 6011SOL    HW118932   6.446   2.012   1.752
 6011SOL    HW218933   6.428   2.018   1.590
 6012SOL     OW18934   0.276   2.856   1.625
 6012SOL    HW118935   0.365   2.853   1.672
 6012SOL    HW218936   0.251   2.764   1.595
 6013SOL     OW18937   5.440   0.226   2.811
 6013SOL    HW118938   5.526   0.179   2.791
 6013SOL    HW218939   5.422   0.293   2.739
 6014SOL     OW18940   6.160   0.771   1.036
 6014SOL    HW118941   6.147   0.695   1.100
 6014SOL    HW218942   6.093   0.765   0.962
 6015SOL     OW18943   5.784   0.424   4.065
 6015SOL    HW118944   5.704   0.432   4.005
 6015SOL    HW218945   5.867   0.447   4.014
 6016SOL     OW18946   2.099   0.147   5.505
 6016SOL    HW118947   2.155   0.226   5.530
 6016SOL    HW218948   2.158   0.076   5.468
 6017SOL     OW18949   0.270   4.099   2.659
 6017SOL    HW118950   0.229   4.150   2.583
 6017SOL    HW218951   0.368   4.120   2.663
 6018SOL     OW18952   2.835   5.160   1.496
 6018SOL    HW118953   2.844   5.104   1.578
 6018SOL    HW218954   2.919   5.154   1.442
 6019SOL     OW18955   6.239   6.270   3.504
 6019SOL    HW118956   6.228   6.325   3.421
 6019SOL    HW218957   6.191   6.314   3.580
 6020SOL     OW18958   2.144   6.526   2.698
 6020SOL    HW118959   2.200   6.608   2.688
 6020SOL    HW218960   2.118   6.514   2.794
 6021SOL     OW18961   4.066   0.512   3.549
 6021SOL    HW118962   4.037   0.602   3.516
 6021SOL    HW218963   4.078   0.450   3.471
 6022SOL     OW18964   4.420   1.004   5.115
 6022SOL    HW118965   4.383   1.066   5.185
 6022SOL    HW218966   4.442   0.916   5.157
 6023SOL     OW18967   0.089   2.161   2.320
 6023SOL    HW118968   0.172   2.212   2.342
 6023SOL    HW218969   0.113   2.070   2.286
 6024SOL     OW18970   6.475   5.867   2.869
 6024SOL    HW118971   6.499   5.778   2.909
 6024SOL    HW218972   6.414   5.916   2.931
 6025SOL     OW18973   3.970   2.089   2.641
 6025SOL    HW118974   3.878   2.058   2.619
 6025SOL    HW218975   3.977   2.107   2.739
 6026SOL     OW18976   0.431   4.289   5.386
 6026SOL    HW118977   0.462   4.206   5.432
 6026SOL    HW218978   0.510   4.337   5.347
 6027SOL     OW18979   4.145   3.770   0.443
 6027SOL    HW118980   4.153   3.672   0.457
 6027SOL    HW218981   4.048   3.795   0.433
 6028SOL     OW18982   1.017   4.474   0.128
 6028SOL    HW118983   1.075   4.518   0.060
 6028SOL    HW218984   0.924   4.466   0.092
 6029SOL     OW18985   1.126   5.173   1.652
 6029SOL    HW118986   1.221   5.180   1.623
 6029SOL    HW218987   1.077   5.256   1.625
 6030SOL     OW18988   1.946   6.499   1.711
 6030SOL    HW118989   1.907   6.578   1.662
 6030SOL    HW218990   1.993   6.531   1.793
 6031SOL     OW18991   5.190   1.170   4.274
 6031SOL    HW118992   5.155   1.158   4.367
 6031SOL    HW218993   5.273   1.115   4.263
 6032SOL     OW18994   0.399   3.426   2.049
 6032SOL    HW118995   0.354   3.337   2.060
 6032SOL    HW218996   0.441   3.453   2.135
 6033SOL     OW18997   0.202   6.985   4.504
 6033SOL    HW118998   0.180   6.954   4.597
 6033SOL    HW218999   0.145   6.937   4.438
 6034SOL     OW19000   2.336   4.474   4.861
 6034SOL    HW119001   2.359   4.464   4.957
 6034SOL    HW219002   2.358   4.389   4.812
 6035SOL     OW19003   5.476   0.285   3.747
 6035SOL    HW119004   5.423   0.200   3.747
 6035SOL    HW219005   5.480   0.321   3.654
 6036SOL     OW19006   6.839   0.667   4.886
 6036SOL    HW119007   6.838   0.581   4.936
 6036SOL    HW219008   6.782   0.734   4.933
 6037SOL     OW19009   0.347   5.560   4.801
 6037SOL    HW119010   0.289   5.641   4.801
 6037SOL    HW219011   0.360   5.528   4.707
 6038SOL     OW19012   6.564   3.957   6.705
 6038SOL    HW119013   6.533   4.036   6.653
 6038SOL    HW219014   6.605   3.987   6.791
 6039SOL     OW19015   3.866   3.538   4.622
 6039SOL    HW119016   3.815   3.577   4.545
 6039SOL    HW219017   3.960   3.519   4.593
 6040SOL     OW19018   1.353   0.810   1.445
 6040SOL    HW119019   1.421   0.811   1.372
 6040SOL    HW219020   1.352   0.720   1.488
 6041SOL     OW19021   0.430   2.671   0.481
 6041SOL    HW119022   0.427   2.766   0.450
 6041SOL    HW219023   0.397   2.611   0.408
 6042SOL     OW19024   5.139   5.698   5.142
 6042SOL    HW119025   5.044   5.681   5.117
 6042SOL    HW219026   5.169   5.630   5.209
 6043SOL     OW19027   0.341   4.178   4.238
 6043SOL    HW119028   0.257   4.231   4.224
 6043SOL    HW219029   0.409   4.206   4.171
 6044SOL     OW19030   1.872   0.386   1.539
 6044SOL    HW119031   1.781   0.358   1.509
 6044SOL    HW219032   1.937   0.374   1.463
 6045SOL     OW19033   6.597   3.871   0.563
 6045SOL    HW119034   6.671   3.842   0.623
 6045SOL    HW219035   6.633   3.937   0.496
 6046SOL     OW19036   1.874   3.657   0.256
 6046SOL    HW119037   1.908   3.576   0.304
 6046SOL    HW219038   1.851   3.633   0.162
 6047SOL     OW19039   0.490   6.576   4.979
 6047SOL    HW119040   0.490   6.478   5.002
 6047SOL    HW219041   0.398   6.612   4.988
 6048SOL     OW19042   4.239   6.077   4.380
 6048SOL    HW119043   4.175   6.084   4.457
 6048SOL    HW219044   4.191   6.097   4.295
 6049SOL     OW19045   6.724   5.508   7.002
 6049SOL    HW119046   6.625   5.494   7.004
 6049SOL    HW219047   6.753   5.552   0.064
 6050SOL     OW19048   5.354   4.716   5.363
 6050SOL    HW119049   5.328   4.789   5.427
 6050SOL    HW219050   5.277   4.654   5.350
 6051SOL     OW19051   3.403   2.017   3.633
 6051SOL    HW119052   3.482   1.978   3.585
 6051SOL    HW219053   3.338   2.052   3.566
 6052SOL     OW19054   0.004   1.344   0.458
 6052SOL    HW119055   7.004   1.430   0.502
 6052SOL    HW219056   6.959   1.323   0.387
 6053SOL     OW19057   1.654   0.368   6.448
 6053SOL    HW119058   1.690   0.344   6.358
 6053SOL    HW219059   1.558   0.345   6.454
 6054SOL     OW19060   1.556   4.267   6.618
 6054SOL    HW119061   1.629   4.329   6.649
 6054SOL    HW219062   1.586   4.172   6.628
 6055SOL     OW19063   5.690   0.214   3.169
 6055SOL    HW119064   5.779   0.170   3.183
 6055SOL    HW219065   5.694   0.307   3.204
 6056SOL     OW19066   5.513   3.271   6.314
 6056SOL    HW119067   5.470   3.228   6.394
 6056SOL    HW219068   5.476   3.363   6.302
 6057SOL     OW19069   3.865   0.956   6.256
 6057SOL    HW119070   3.956   0.999   6.259
 6057SOL    HW219071   3.824   0.961   6.347
 6058SOL     OW19072   5.634   1.683   4.853
 6058SOL    HW119073   5.718   1.665   4.801
 6058SOL    HW219074   5.637   1.776   4.890
 6059SOL     OW19075   6.755   6.246   6.435
 6059SOL    HW119076   6.722   6.177   6.499
 6059SOL    HW219077   6.813   6.311   6.485
 6060SOL     OW19078   3.393   6.176   6.313
 6060SOL    HW119079   3.362   6.088   6.348
 6060SOL    HW219080   3.315   6.238   6.305
 6061SOL     OW19081   1.772   1.744   0.181
 6061SOL    HW119082   1.870   1.735   0.163
 6061SOL    HW219083   1.754   1.725   0.277
 6062SOL     OW19084   1.194   0.094   4.381
 6062SOL    HW119085   1.113   0.130   4.335
 6062SOL    HW219086   1.273   0.152   4.361
 6063SOL     OW19087   5.481   5.793   6.899
 6063SOL    HW119088   5.405   5.840   6.943
 6063SOL    HW219089   5.487   5.823   6.803
 6064SOL     OW19090   1.262   4.876   2.850
 6064SOL    HW119091   1.232   4.914   2.762
 6064SOL    HW219092   1.246   4.944   2.922
 6065SOL     OW19093   5.807   6.909   1.803
 6065SOL    HW119094   5.850   6.866   1.724
 6065SOL    HW219095   5.821   6.852   1.884
 6066SOL     OW19096   4.338   1.715   5.974
 6066SOL    HW119097   4.297   1.797   6.015
 6066SOL    HW219098   4.338   1.724   5.875
 6067SOL     OW19099   5.203   2.314   0.037
 6067SOL    HW119100   5.212   2.358   0.127
 6067SOL    HW219101   5.286   2.329   7.006
 6068SOL     OW19102   5.559   1.819   5.476
 6068SOL    HW119103   5.588   1.758   5.550
 6068SOL    HW219104   5.618   1.807   5.397
 6069SOL     OW19105   6.120   5.555   3.821
 6069SOL    HW119106   6.209   5.534   3.863
 6069SOL    HW219107   6.048   5.531   3.886
 6070SOL     OW19108   4.994   3.037   0.157
 6070SOL    HW119109   5.009   3.085   0.244
 6070SOL    HW219110   5.075   3.047   0.099
 6071SOL     OW19111   5.201   6.904   5.688
 6071SOL    HW119112   5.172   6.902   5.592
 6071SOL    HW219113   5.257   6.986   5.704
 6072SOL     OW19114   6.668   1.490   1.225
 6072SOL    HW119115   6.630   1.519   1.313
 6072SOL    HW219116   6.653   1.562   1.157
 6073SOL     OW19117   6.218   0.943   1.260
 6073SOL    HW119118   6.313   0.956   1.288
 6073SOL    HW219119   6.215   0.888   1.176
 6074SOL     OW19120   0.973   0.435   5.222
 6074SOL    HW119121   0.935   0.507   5.280
 6074SOL    HW219122   0.935   0.442   5.130
 6075SOL     OW19123   4.528   3.542   6.513
 6075SOL    HW119124   4.607   3.579   6.465
 6075SOL    HW219125   4.463   3.505   6.446
 6076SOL     OW19126   2.720   0.450   3.988
 6076SOL    HW119127   2.696   0.362   3.948
 6076SOL    HW219128   2.817   0.468   3.973
 6077SOL     OW19129   5.045   5.038   3.118
 6077SOL    HW119130   5.107   5.110   3.086
 6077SOL    HW219131   5.076   5.006   3.208
 6078SOL     OW19132   1.863   4.459   3.941
 6078SOL    HW119133   1.786   4.400   3.964
 6078SOL    HW219134   1.922   4.412   3.875
 6079SOL     OW19135   2.923   1.792   0.866
 6079SOL    HW119136   2.843   1.776   0.923
 6079SOL    HW219137   3.005   1.756   0.912
 6080SOL     OW19138   5.908   2.707   3.235
 6080SOL    HW119139   5.975   2.779   3.216
 6080SOL    HW219140   5.940   2.651   3.312
 6081SOL     OW19141   0.841   3.949   2.785
 6081SOL    HW119142   0.932   3.918   2.759
 6081SOL    HW219143   0.772   3.887   2.747
 6082SOL     OW19144   3.397   1.703   4.872
 6082SOL    HW119145   3.467   1.758   4.825
 6082SOL    HW219146   3.308   1.749   4.864
 6083SOL     OW19147   2.012   6.614   0.262
 6083SOL    HW119148   2.065   6.535   0.232
 6083SOL    HW219149   1.940   6.584   0.325
 6084SOL     OW19150   0.385   5.350   5.932
 6084SOL    HW119151   0.364   5.436   5.886
 6084SOL    HW219152   0.433   5.289   5.869
 6085SOL     OW19153   4.678   5.129   1.653
 6085SOL    HW119154   4.644   5.192   1.722
 6085SOL    HW219155   4.673   5.035   1.688
 6086SOL     OW19156   3.226   1.379   2.551
 6086SOL    HW119157   3.135   1.396   2.514
 6086SOL    HW219158   3.294   1.431   2.498
 6087SOL     OW19159   3.521   0.269   0.836
 6087SOL    HW119160   3.577   0.193   0.804
 6087SOL    HW219161   3.552   0.354   0.793
 6088SOL     OW19162   6.986   0.246   5.056
 6088SOL    HW119163   6.992   0.217   4.961
 6088SOL    HW219164   0.028   0.194   5.112
 6089SOL     OW19165   6.134   3.978   0.996
 6089SOL    HW119166   6.145   3.977   0.897
 6089SOL    HW219167   6.060   4.040   1.021
 6090SOL     OW19168   6.992   5.778   4.131
 6090SOL    HW119169   6.984   5.714   4.055
 6090SOL    HW219170   0.054   5.759   4.182
 6091SOL     OW19171   6.739   2.156   1.575
 6091SOL    HW119172   6.645   2.152   1.543
 6091SOL    HW219173   6.768   2.251   1.584
 6092SOL     OW19174   1.142   3.338   0.923
 6092SOL    HW119175   1.233   3.344   0.882
 6092SOL    HW219176   1.108   3.245   0.914
 6093SOL     OW19177   1.536   4.242   0.858
 6093SOL    HW119178   1.535   4.280   0.766
 6093SOL    HW219179   1.608   4.174   0.867
 6094SOL     OW19180   0.663   1.289   0.665
 6094SOL    HW119181   0.698   1.355   0.731
 6094SOL    HW219182   0.710   1.299   0.578
 6095SOL     OW19183   6.345   4.130   5.216
 6095SOL    HW119184   6.331   4.141   5.118
 6095SOL    HW219185   6.423   4.185   5.245
 6096SOL     OW19186   4.818   2.217   2.866
 6096SOL    HW119187   4.889   2.167   2.816
 6096SOL    HW219188   4.858   2.300   2.905
 6097SOL     OW19189   3.085   2.074   2.505
 6097SOL    HW119190   3.041   2.154   2.464
 6097SOL    HW219191   3.138   2.026   2.435
 6098SOL     OW19192   1.047   0.293   6.517
 6098SOL    HW119193   1.046   0.209   6.463
 6098SOL    HW219194   1.040   0.271   6.614
 6099SOL     OW19195   5.742   4.279   4.950
 6099SOL    HW119196   5.819   4.220   4.975
 6099SOL    HW219197   5.732   4.280   4.851
 6100SOL     OW19198   0.377   2.728   0.032
 6100SOL    HW119199   0.299   2.715   6.992
 6100SOL    HW219200   0.443   2.654   0.019
 6101SOL     OW19201   6.435   6.924   3.494
 6101SOL    HW119202   6.490   6.939   3.411
 6101SOL    HW219203   6.489   6.948   3.574
 6102SOL     OW19204   2.710   6.771   4.951
 6102SOL    HW119205   2.728   6.690   5.005
 6102SOL    HW219206   2.689   6.744   4.857
 6103SOL     OW19207   5.701   1.819   5.244
 6103SOL    HW119208   5.697   1.856   5.152
 6103SOL    HW219209   5.776   1.754   5.251
 6104SOL     OW19210   1.526   2.816   1.142
 6104SOL    HW119211   1.582   2.877   1.198
 6104SOL    HW219212   1.430   2.827   1.168
 6105SOL     OW19213   3.058   4.950   4.830
 6105SOL    HW119214   3.000   5.028   4.807
 6105SOL    HW219215   3.008   4.886   4.888
 6106SOL     OW19216   2.335   5.206   4.269
 6106SOL    HW119217   2.239   5.209   4.244
 6106SOL    HW219218   2.344   5.163   4.359
 6107SOL     OW19219   2.276   5.050   5.697
 6107SOL    HW119220   2.292   4.958   5.660
 6107SOL    HW219221   2.182   5.055   5.731
 6108SOL     OW19222   5.312   1.893   4.543
 6108SOL    HW119223   5.344   1.799   4.547
 6108SOL    HW219224   5.280   1.914   4.451
 6109SOL     OW19225   6.794   3.695   1.557
 6109SOL    HW119226   6.747   3.618   1.601
 6109SOL    HW219227   6.736   3.733   1.485
 6110SOL     OW19228   3.421   2.122   3.229
 6110SOL    HW119229   3.332   2.116   3.276
 6110SOL    HW219230   3.487   2.167   3.289
 6111SOL     OW19231   0.421   4.422   3.649
 6111SOL    HW119232   0.462   4.460   3.732
 6111SOL    HW219233   0.427   4.489   3.576
 6112SOL     OW19234   1.548   2.162   1.374
 6112SOL    HW119235   1.531   2.065   1.357
 6112SOL    HW219236   1.645   2.177   1.392
 6113SOL     OW19237   1.741   4.820   5.165
 6113SOL    HW119238   1.662   4.874   5.136
 6113SOL    HW219239   1.749   4.738   5.108
 6114SOL     OW19240   4.537   4.494   0.704
 6114SOL    HW119241   4.617   4.463   0.653
 6114SOL    HW219242   4.478   4.416   0.726
 6115SOL     OW19243   6.392   4.718   1.881
 6115SOL    HW119244   6.362   4.743   1.789
 6115SOL    HW219245   6.374   4.621   1.896
 6116SOL     OW19246   3.317   2.372   0.996
 6116SOL    HW119247   3.385   2.314   1.039
 6116SOL    HW219248   3.362   2.436   0.933
 6117SOL     OW19249   5.531   6.577   3.998
 6117SOL    HW119250   5.540   6.510   4.072
 6117SOL    HW219251   5.620   6.595   3.957
 6118SOL     OW19252   6.671   6.994   3.293
 6118SOL    HW119253   6.742   6.924   3.299
 6118SOL    HW219254   6.609   6.973   3.218
 6119SOL     OW19255   5.208   5.762   4.471
 6119SOL    HW119256   5.259   5.677   4.483
 6119SOL    HW219257   5.241   5.830   4.536
 6120SOL     OW19258   2.333   1.820   3.245
 6120SOL    HW119259   2.413   1.867   3.283
 6120SOL    HW219260   2.276   1.885   3.196
 6121SOL     OW19261   6.966   1.798   4.656
 6121SOL    HW119262   6.900   1.728   4.684
 6121SOL    HW219263   6.984   1.860   4.732
 6122SOL     OW19264   3.519   6.151   4.473
 6122SOL    HW119265   3.505   6.215   4.548
 6122SOL    HW219266   3.616   6.149   4.448
 6123SOL     OW19267   5.471   1.299   2.705
 6123SOL    HW119268   5.553   1.321   2.758
 6123SOL    HW219269   5.410   1.243   2.760
 6124SOL     OW19270   3.110   0.406   4.785
 6124SOL    HW119271   3.086   0.310   4.803
 6124SOL    HW219272   3.068   0.436   4.700
 6125SOL     OW19273   1.260   4.394   2.337
 6125SOL    HW119274   1.235   4.429   2.427
 6125SOL    HW219275   1.249   4.466   2.268
 6126SOL     OW19276   3.724   6.283   2.591
 6126SOL    HW119277   3.705   6.357   2.656
 6126SOL    HW219278   3.700   6.313   2.499
 6127SOL     OW19279   1.767   5.301   1.768
 6127SOL    HW119280   1.855   5.328   1.805
 6127SOL    HW219281   1.720   5.382   1.730
 6128SOL     OW19282   5.062   3.642   1.448
 6128SOL    HW119283   5.013   3.729   1.442
 6128SOL    HW219284   4.997   3.567   1.455
 6129SOL     OW19285   6.364   3.955   3.441
 6129SOL    HW119286   6.282   3.924   3.395
 6129SOL    HW219287   6.436   3.971   3.374
 6130SOL     OW19288   5.316   3.649   2.884
 6130SOL    HW119289   5.236   3.608   2.927
 6130SOL    HW219290   5.310   3.749   2.890
 6131SOL     OW19291   6.451   1.042   5.086
 6131SOL    HW119292   6.417   1.013   5.175
 6131SOL    HW219293   6.457   0.963   5.025
 6132SOL     OW19294   0.090   2.519   0.705
 6132SOL    HW119295   0.019   2.449   0.699
 6132SOL    HW219296   0.164   2.487   0.764
 6133SOL     OW19297   1.515   4.708   0.425
 6133SOL    HW119298   1.442   4.769   0.457
 6133SOL    HW219299   1.557   4.663   0.503
 6134SOL     OW19300   4.493   4.124   6.962
 6134SOL    HW119301   4.573   4.134   6.904
 6134SOL    HW219302   4.496   4.034   7.007
 6135SOL     OW19303   5.988   6.783   2.784
 6135SOL    HW119304   5.992   6.854   2.714
 6135SOL    HW219305   6.044   6.705   2.757
 6136SOL     OW19306   1.431   1.596   2.256
 6136SOL    HW119307   1.375   1.670   2.219
 6136SOL    HW219308   1.374   1.515   2.269
 6137SOL     OW19309   3.339   0.344   6.626
 6137SOL    HW119310   3.300   0.312   6.711
 6137SOL    HW219311   3.266   0.365   6.561
 6138SOL     OW19312   5.276   0.614   2.859
 6138SOL    HW119313   5.275   0.684   2.930
 6138SOL    HW219314   5.207   0.545   2.879
 6139SOL     OW19315   2.803   6.332   3.707
 6139SOL    HW119316   2.804   6.293   3.799
 6139SOL    HW219317   2.887   6.384   3.692
 6140SOL     OW19318   2.017   5.372   1.424
 6140SOL    HW119319   1.942   5.314   1.392
 6140SOL    HW219320   2.051   5.428   1.348
 6141SOL     OW19321   0.244   6.088   5.211
 6141SOL    HW119322   0.177   6.078   5.137
 6141SOL    HW219323   0.334   6.058   5.180
 6142SOL     OW19324   0.539   3.889   3.495
 6142SOL    HW119325   0.450   3.863   3.459
 6142SOL    HW219326   0.576   3.965   3.442
 6143SOL     OW19327   6.300   4.793   6.399
 6143SOL    HW119328   6.386   4.844   6.395
 6143SOL    HW219329   6.297   4.738   6.482
 6144SOL     OW19330   0.345   5.142   4.129
 6144SOL    HW119331   0.325   5.139   4.226
 6144SOL    HW219332   0.303   5.064   4.083
 6145SOL     OW19333   5.708   5.426   3.265
 6145SOL    HW119334   5.737   5.518   3.292
 6145SOL    HW219335   5.738   5.360   3.334
 6146SOL     OW19336   5.635   2.335   3.751
 6146SOL    HW119337   5.634   2.263   3.820
 6146SOL    HW219338   5.627   2.295   3.660
 6147SOL     OW19339   1.187   3.993   3.469
 6147SOL    HW119340   1.253   3.919   3.455
 6147SOL    HW219341   1.169   4.003   3.567
 6148SOL     OW19342   6.313   6.024   2.672
 6148SOL    HW119343   6.365   5.979   2.744
 6148SOL    HW219344   6.225   5.977   2.660
 6149SOL     OW19345   1.236   5.550   4.920
 6149SOL    HW119346   1.225   5.452   4.905
 6149SOL    HW219347   1.199   5.601   4.843
 6150SOL     OW19348   4.213   6.814   5.823
 6150SOL    HW119349   4.290   6.751   5.836
 6150SOL    HW219350   4.225   6.894   5.882
 6151SOL     OW19351   4.729   6.973   5.855
 6151SOL    HW119352   4.826   6.952   5.843
 6151SOL    HW219353   4.710   0.041   5.817
 6152SOL     OW19354   6.713   4.401   5.556
 6152SOL    HW119355   6.772   4.333   5.512
 6152SOL    HW219356   6.769   4.465   5.609
 6153SOL     OW19357   3.997   5.096   5.977
 6153SOL    HW119358   4.053   5.046   5.911
 6153SOL    HW219359   4.007   5.194   5.962
 6154SOL     OW19360   5.354   3.305   3.496
 6154SOL    HW119361   5.313   3.330   3.583
 6154SOL    HW219362   5.284   3.308   3.424
 6155SOL     OW19363   2.529   4.619   4.541
 6155SOL    HW119364   2.461   4.546   4.544
 6155SOL    HW219365   2.610   4.590   4.591
 6156SOL     OW19366   5.486   0.665   4.676
 6156SOL    HW119367   5.571   0.640   4.629
 6156SOL    HW219368   5.417   0.594   4.661
 6157SOL     OW19369   0.949   1.482   4.382
 6157SOL    HW119370   0.874   1.456   4.444
 6157SOL    HW219371   0.999   1.400   4.356
 6158SOL     OW19372   5.538   6.642   6.873
 6158SOL    HW119373   5.580   6.673   6.787
 6158SOL    HW219374   5.450   6.688   6.885
 6159SOL     OW19375   5.025   3.432   6.651
 6159SOL    HW119376   5.115   3.436   6.608
 6159SOL    HW219377   4.959   3.395   6.585
 6160SOL     OW19378   6.360   4.455   0.149
 6160SOL    HW119379   6.301   4.411   0.217
 6160SOL    HW219380   6.448   4.478   0.191
 6161SOL     OW19381   6.408   0.021   6.367
 6161SOL    HW119382   6.437   0.016   6.271
 6161SOL    HW219383   6.312   7.020   6.374
 6162SOL     OW19384   5.194   5.281   3.964
 6162SOL    HW119385   5.142   5.339   4.026
 6162SOL    HW219386   5.291   5.307   3.969
 6163SOL     OW19387   0.102   4.152   2.868
 6163SOL    HW119388   0.137   4.123   2.957
 6163SOL    HW219389   0.170   4.133   2.797
 6164SOL     OW19390   4.399   3.043   1.118
 6164SOL    HW119391   4.356   2.980   1.054
 6164SOL    HW219392   4.438   2.992   1.194
 6165SOL     OW19393   4.075   0.315   1.340
 6165SOL    HW119394   4.048   0.409   1.318
 6165SOL    HW219395   4.173   0.313   1.362
 6166SOL     OW19396   3.592   0.842   0.641
 6166SOL    HW119397   3.563   0.926   0.593
 6166SOL    HW219398   3.690   0.829   0.628
 6167SOL     OW19399   6.746   5.604   3.529
 6167SOL    HW119400   6.772   5.511   3.503
 6167SOL    HW219401   6.651   5.606   3.559
 6168SOL     OW19402   6.893   3.403   0.832
 6168SOL    HW119403   6.943   3.355   0.760
 6168SOL    HW219404   6.833   3.338   0.879
 6169SOL     OW19405   2.058   3.849   1.313
 6169SOL    HW119406   2.090   3.762   1.350
 6169SOL    HW219407   2.133   3.896   1.267
 6170SOL     OW19408   6.335   1.975   3.145
 6170SOL    HW119409   6.405   1.907   3.121
 6170SOL    HW219410   6.332   1.986   3.244
 6171SOL     OW19411   6.438   1.577   6.226
 6171SOL    HW119412   6.502   1.621   6.289
 6171SOL    HW219413   6.426   1.481   6.252
 6172SOL     OW19414   0.289   4.755   3.779
 6172SOL    HW119415   0.332   4.800   3.701
 6172SOL    HW219416   0.359   4.716   3.838
 6173SOL     OW19417   5.480   6.236   3.037
 6173SOL    HW119418   5.566   6.287   3.038
 6173SOL    HW219419   5.457   6.209   3.131
 6174SOL     OW19420   6.817   2.290   3.309
 6174SOL    HW119421   6.871   2.360   3.357
 6174SOL    HW219422   6.752   2.248   3.372
 6175SOL     OW19423   3.902   1.421   7.017
 6175SOL    HW119424   3.907   1.518   0.020
 6175SOL    HW219425   3.809   1.387   0.008
 6176SOL     OW19426   2.392   4.479   6.159
 6176SOL    HW119427   2.485   4.494   6.124
 6176SOL    HW219428   2.340   4.426   6.092
 6177SOL     OW19429   5.820   5.365   1.561
 6177SOL    HW119430   5.778   5.455   1.554
 6177SOL    HW219431   5.826   5.339   1.657
 6178SOL     OW19432   4.072   4.787   1.955
 6178SOL    HW119433   4.121   4.731   1.889
 6178SOL    HW219434   4.014   4.853   1.907
 6179SOL     OW19435   5.465   5.523   4.877
 6179SOL    HW119436   5.500   5.495   4.966
 6179SOL    HW219437   5.510   5.471   4.805
 6180SOL     OW19438   1.893   3.870   6.887
 6180SOL    HW119439   1.876   3.965   6.861
 6180SOL    HW219440   1.964   3.867   6.957
 6181SOL     OW19441   6.670   6.204   6.804
 6181SOL    HW119442   6.607   6.196   6.882
 6181SOL    HW219443   6.705   6.297   6.799
 6182SOL     OW19444   3.018   2.288   6.658
 6182SOL    HW119445   2.943   2.348   6.630
 6182SOL    HW219446   3.090   2.288   6.588
 6183SOL     OW19447   0.263   0.533   0.499
 6183SOL    HW119448   0.294   0.614   0.549
 6183SOL    HW219449   0.275   0.452   0.556
 6184SOL     OW19450   3.375   6.736   5.667
 6184SOL    HW119451   3.303   6.776   5.610
 6184SOL    HW219452   3.332   6.685   5.742
 6185SOL     OW19453   3.931   3.072   4.583
 6185SOL    HW119454   3.856   3.012   4.611
 6185SOL    HW219455   3.902   3.127   4.504
 6186SOL     OW19456   0.854   2.264   2.276
 6186SOL    HW119457   0.914   2.277   2.355
 6186SOL    HW219458   0.779   2.203   2.301
 6187SOL     OW19459   3.228   1.847   5.928
 6187SOL    HW119460   3.183   1.762   5.953
 6187SOL    HW219461   3.305   1.863   5.990
 6188SOL     OW19462   1.734   1.871   5.430
 6188SOL    HW119463   1.636   1.856   5.413
 6188SOL    HW219464   1.749   1.882   5.528
 6189SOL     OW19465   6.336   5.481   0.379
 6189SOL    HW119466   6.414   5.421   0.398
 6189SOL    HW219467   6.356   5.574   0.409
 6190SOL     OW19468   1.034   2.966   3.557
 6190SOL    HW119469   0.943   2.998   3.584
 6190SOL    HW219470   1.096   3.044   3.551
 6191SOL     OW19471   2.690   4.384   0.356
 6191SOL    HW119472   2.623   4.317   0.387
 6191SOL    HW219473   2.655   4.476   0.371
 6192SOL     OW19474   3.082   1.648   1.413
 6192SOL    HW119475   3.145   1.613   1.344
 6192SOL    HW219476   2.988   1.620   1.390
 6193SOL     OW19477   4.129   5.865   6.622
 6193SOL    HW119478   4.202   5.797   6.624
 6193SOL    HW219479   4.102   5.888   6.715
 6194SOL     OW19480   5.077   0.176   6.004
 6194SOL    HW119481   5.168   0.212   5.983
 6194SOL    HW219482   5.008   0.229   5.956
 6195SOL     OW19483   4.592   5.806   5.294
 6195SOL    HW119484   4.628   5.713   5.305
 6195SOL    HW219485   4.628   5.863   5.368
 6196SOL     OW19486   6.321   3.593   3.322
 6196SOL    HW119487   6.379   3.542   3.259
 6196SOL    HW219488   6.232   3.610   3.280
 6197SOL     OW19489   1.066   5.461   0.620
 6197SOL    HW119490   1.162   5.451   0.645
 6197SOL    HW219491   1.024   5.532   0.678
 6198SOL     OW19492   6.400   1.304   6.384
 6198SOL    HW119493   6.364   1.347   6.467
 6198SOL    HW219494   6.331   1.309   6.312
 6199SOL     OW19495   2.541   0.001   6.292
 6199SOL    HW119496   2.537   0.089   6.245
 6199SOL    HW219497   2.595   0.010   6.376
 6200SOL     OW19498   1.897   7.004   0.566
 6200SOL    HW119499   1.886   6.908   0.537
 6200SOL    HW219500   1.807   0.023   0.578
 6201SOL     OW19501   0.474   4.817   3.540
 6201SOL    HW119502   0.548   4.782   3.597
 6201SOL    HW219503   0.481   4.777   3.448
 6202SOL     OW19504   5.572   0.953   2.058
 6202SOL    HW119505   5.552   1.031   1.999
 6202SOL    HW219506   5.528   0.965   2.147
 6203SOL     OW19507   6.549   1.295   2.530
 6203SOL    HW119508   6.458   1.337   2.521
 6203SOL    HW219509   6.546   1.223   2.600
 6204SOL     OW19510   0.960   6.045   4.672
 6204SOL    HW119511   0.998   5.978   4.736
 6204SOL    HW219512   1.004   6.034   4.583
 6205SOL     OW19513   6.347   4.413   3.472
 6205SOL    HW119514   6.404   4.354   3.414
 6205SOL    HW219515   6.405   4.481   3.518
 6206SOL     OW19516   4.813   1.834   3.175
 6206SOL    HW119517   4.782   1.912   3.230
 6206SOL    HW219518   4.885   1.785   3.224
 6207SOL     OW19519   1.659   6.075   3.400
 6207SOL    HW119520   1.689   6.108   3.489
 6207SOL    HW219521   1.587   6.007   3.412
 6208SOL     OW19522   3.606   4.412   6.380
 6208SOL    HW119523   3.625   4.480   6.450
 6208SOL    HW219524   3.584   4.324   6.423
 6209SOL     OW19525   3.335   1.282   2.299
 6209SOL    HW119526   3.259   1.269   2.235
 6209SOL    HW219527   3.347   1.379   2.317
 6210SOL     OW19528   5.830   1.199   4.196
 6210SOL    HW119529   5.792   1.290   4.184
 6210SOL    HW219530   5.922   1.196   4.157
 6211SOL     OW19531   5.417   3.079   5.223
 6211SOL    HW119532   5.498   3.096   5.280
 6211SOL    HW219533   5.389   3.164   5.179
 6212SOL     OW19534   5.406   4.042   5.152
 6212SOL    HW119535   5.381   4.082   5.065
 6212SOL    HW219536   5.430   3.946   5.139
 6213SOL     OW19537   5.140   5.899   0.400
 6213SOL    HW119538   5.188   5.981   0.369
 6213SOL    HW219539   5.073   5.873   0.331
 6214SOL     OW19540   6.711   6.904   6.350
 6214SOL    HW119541   6.731   6.807   6.366
 6214SOL    HW219542   6.691   6.949   6.436
 6215SOL     OW19543   5.959   2.010   4.923
 6215SOL    HW119544   5.859   2.003   4.926
 6215SOL    HW219545   5.992   1.977   4.835
 6216SOL     OW19546   5.361   2.673   5.423
 6216SOL    HW119547   5.289   2.615   5.384
 6216SOL    HW219548   5.407   2.624   5.497
 6217SOL     OW19549   6.877   4.121   2.500
 6217SOL    HW119550   6.887   4.195   2.433
 6217SOL    HW219551   6.914   4.036   2.463
 6218SOL     OW19552   4.656   6.479   0.995
 6218SOL    HW119553   4.583   6.527   0.946
 6218SOL    HW219554   4.745   6.508   0.961
 6219SOL     OW19555   2.263   0.586   0.134
 6219SOL    HW119556   2.339   0.570   0.072
 6219SOL    HW219557   2.286   0.551   0.225
 6220SOL     OW19558   3.427   0.284   2.174
 6220SOL    HW119559   3.495   0.233   2.120
 6220SOL    HW219560   3.393   0.225   2.247
 6221SOL     OW19561   4.431   5.782   5.051
 6221SOL    HW119562   4.494   5.771   5.128
 6221SOL    HW219563   4.369   5.858   5.069
 6222SOL     OW19564   6.183   1.719   2.406
 6222SOL    HW119565   6.147   1.641   2.457
 6222SOL    HW219566   6.217   1.688   2.317
 6223SOL     OW19567   6.685   5.422   4.237
 6223SOL    HW119568   6.665   5.515   4.206
 6223SOL    HW219569   6.648   5.408   4.328
 6224SOL     OW19570   4.281   6.757   0.175
 6224SOL    HW119571   4.304   6.822   0.247
 6224SOL    HW219572   4.247   6.672   0.216
 6225SOL     OW19573   5.114   6.336   6.484
 6225SOL    HW119574   5.213   6.324   6.486
 6225SOL    HW219575   5.078   6.309   6.395
 6226SOL     OW19576   0.780   0.948   4.116
 6226SOL    HW119577   0.828   1.015   4.060
 6226SOL    HW219578   0.845   0.881   4.150
 6227SOL     OW19579   2.359   4.564   6.429
 6227SOL    HW119580   2.374   4.543   6.332
 6227SOL    HW219581   2.302   4.646   6.437
 6228SOL     OW19582   0.399   3.250   3.927
 6228SOL    HW119583   0.330   3.265   3.998
 6228SOL    HW219584   0.470   3.188   3.962
 6229SOL     OW19585   0.104   3.883   4.543
 6229SOL    HW119586   0.143   3.949   4.607
 6229SOL    HW219587   0.084   3.928   4.457
 6230SOL     OW19588   0.834   0.860   1.566
 6230SOL    HW119589   0.739   0.863   1.598
 6230SOL    HW219590   0.895   0.845   1.644
 6231SOL     OW19591   2.130   5.715   5.824
 6231SOL    HW119592   2.081   5.644   5.774
 6231SOL    HW219593   2.075   5.799   5.827
 6232SOL     OW19594   4.295   0.113   6.514
 6232SOL    HW119595   4.291   0.022   6.473
 6232SOL    HW219596   4.292   0.105   6.614
 6233SOL     OW19597   0.014   4.221   1.598
 6233SOL    HW119598   0.051   4.291   1.536
 6233SOL    HW219599   0.082   4.149   1.612
 6234SOL     OW19600   4.576   5.872   3.651
 6234SOL    HW119601   4.641   5.819   3.596
 6234SOL    HW219602   4.483   5.842   3.631
 6235SOL     OW19603   0.172   0.294   1.802
 6235SOL    HW119604   0.171   0.362   1.728
 6235SOL    HW219605   0.110   0.323   1.874
 6236SOL     OW19606   6.606   6.223   1.543
 6236SOL    HW119607   6.507   6.237   1.547
 6236SOL    HW219608   6.629   6.164   1.466
 6237SOL     OW19609   4.234   1.014   2.740
 6237SOL    HW119610   4.234   1.020   2.840
 6237SOL    HW219611   4.203   0.923   2.712
 6238SOL     OW19612   2.631   0.644   3.818
 6238SOL    HW119613   2.533   0.661   3.811
 6238SOL    HW219614   2.648   0.577   3.891
 6239SOL     OW19615   3.755   1.577   4.044
 6239SOL    HW119616   3.838   1.569   4.099
 6239SOL    HW219617   3.780   1.596   3.949
 6240SOL     OW19618   4.070   3.390   4.076
 6240SOL    HW119619   4.063   3.446   3.993
 6240SOL    HW219620   4.035   3.299   4.057
 6241SOL     OW19621   3.649   0.026   3.387
 6241SOL    HW119622   3.639   6.989   3.467
 6241SOL    HW219623   3.695   0.111   3.414
 6242SOL     OW19624   3.304   2.163   4.375
 6242SOL    HW119625   3.229   2.158   4.441
 6242SOL    HW219626   3.389   2.133   4.419
 6243SOL     OW19627   3.738   1.192   0.235
 6243SOL    HW119628   3.835   1.210   0.247
 6243SOL    HW219629   3.721   1.164   0.140
 6244SOL     OW19630   4.445   2.209   2.158
 6244SOL    HW119631   4.527   2.264   2.171
 6244SOL    HW219632   4.406   2.228   2.068
 6245SOL     OW19633   6.982   4.721   1.538
 6245SOL    HW119634   6.896   4.741   1.492
 6245SOL    HW219635   7.012   4.629   1.515
 6246SOL     OW19636   0.603   5.781   4.860
 6246SOL    HW119637   0.697   5.756   4.882
 6246SOL    HW219638   0.540   5.725   4.913
 6247SOL     OW19639   5.662   5.158   2.843
 6247SOL    HW119640   5.739   5.097   2.864
 6247SOL    HW219641   5.627   5.197   2.928
 6248SOL     OW19642   4.669   2.792   5.546
 6248SOL    HW119643   4.681   2.817   5.450
 6248SOL    HW219644   4.734   2.844   5.602
 6249SOL     OW19645   5.473   2.782   3.372
 6249SOL    HW119646   5.382   2.747   3.353
 6249SOL    HW219647   5.528   2.781   3.288
 6250SOL     OW19648   5.388   0.441   5.848
 6250SOL    HW119649   5.479   0.444   5.888
 6250SOL    HW219650   5.340   0.359   5.880
 6251SOL     OW19651   2.645   0.646   4.512
 6251SOL    HW119652   2.736   0.620   4.477
 6251SOL    HW219653   2.643   0.745   4.528
 6252SOL     OW19654   3.251   4.981   0.459
 6252SOL    HW119655   3.335   5.022   0.496
 6252SOL    HW219656   3.224   5.032   0.377
 6253SOL     OW19657   5.368   6.404   3.555
 6253SOL    HW119658   5.334   6.439   3.467
 6253SOL    HW219659   5.465   6.425   3.563
 6254SOL     OW19660   0.285   7.019   1.559
 6254SOL    HW119661   0.221   6.947   1.586
 6254SOL    HW219662   0.340   0.024   1.638
 6255SOL     OW19663   2.070   0.903   1.002
 6255SOL    HW119664   2.130   0.826   0.982
 6255SOL    HW219665   1.978   0.870   1.023
 6256SOL     OW19666   6.382   5.273   2.147
 6256SOL    HW119667   6.401   5.311   2.056
 6256SOL    HW219668   6.352   5.179   2.139
 6257SOL     OW19669   3.445   3.791   0.765
 6257SOL    HW119670   3.379   3.797   0.841
 6257SOL    HW219671   3.490   3.702   0.767
 6258SOL     OW19672   4.094   5.046   4.914
 6258SOL    HW119673   4.105   5.066   5.011
 6258SOL    HW219674   4.144   4.963   4.890
 6259SOL     OW19675   4.234   1.550   4.789
 6259SOL    HW119676   4.265   1.527   4.882
 6259SOL    HW219677   4.154   1.609   4.794
 6260SOL     OW19678   3.618   2.102   0.075
 6260SOL    HW119679   3.523   2.103   0.107
 6260SOL    HW219680   3.679   2.126   0.151
 6261SOL     OW19681   4.075   7.011   0.811
 6261SOL    HW119682   4.102   7.008   0.907
 6261SOL    HW219683   4.100   6.925   0.767
 6262SOL     OW19684   6.264   1.109   3.030
 6262SOL    HW119685   6.342   1.079   3.084
 6262SOL    HW219686   6.211   1.030   3.000
 6263SOL     OW19687   6.358   6.093   6.468
 6263SOL    HW119688   6.405   6.159   6.527
 6263SOL    HW219689   6.319   6.020   6.525
 6264SOL     OW19690   0.997   6.155   1.080
 6264SOL    HW119691   0.994   6.250   1.109
 6264SOL    HW219692   1.071   6.107   1.127
 6265SOL     OW19693   3.758   6.703   6.518
 6265SOL    HW119694   3.691   6.634   6.545
 6265SOL    HW219695   3.730   6.793   6.552
 6266SOL     OW19696   3.231   5.179   2.810
 6266SOL    HW119697   3.168   5.152   2.737
 6266SOL    HW219698   3.257   5.099   2.863
 6267SOL     OW19699   0.396   6.362   4.545
 6267SOL    HW119700   0.355   6.344   4.456
 6267SOL    HW219701   0.396   6.461   4.563
 6268SOL     OW19702   3.503   1.576   1.485
 6268SOL    HW119703   3.528   1.673   1.484
 6268SOL    HW219704   3.406   1.566   1.466
 6269SOL     OW19705   6.880   6.022   0.208
 6269SOL    HW119706   6.953   6.079   0.170
 6269SOL    HW219707   6.812   6.004   0.138
 6270SOL     OW19708   1.233   6.578   0.830
 6270SOL    HW119709   1.265   6.663   0.870
 6270SOL    HW219710   1.135   6.586   0.809
 6271SOL     OW19711   6.628   2.961   5.361
 6271SOL    HW119712   6.537   2.929   5.386
 6271SOL    HW219713   6.621   3.030   5.289
 6272SOL     OW19714   0.932   1.318   0.181
 6272SOL    HW119715   0.931   1.417   0.167
 6272SOL    HW219716   1.023   1.282   0.159
 6273SOL     OW19717   0.736   6.367   3.020
 6273SOL    HW119718   0.804   6.364   2.948
 6273SOL    HW219719   0.770   6.316   3.100
 6274SOL     OW19720   2.773   5.825   4.005
 6274SOL    HW119721   2.869   5.852   3.995
 6274SOL    HW219722   2.752   5.811   4.102
 6275SOL     OW19723   2.642   5.489   0.905
 6275SOL    HW119724   2.564   5.538   0.944
 6275SOL    HW219725   2.653   5.402   0.952
 6276SOL     OW19726   1.905   5.154   2.697
 6276SOL    HW119727   1.826   5.100   2.729
 6276SOL    HW219728   1.980   5.145   2.763
 6277SOL     OW19729   4.607   2.769   1.595
 6277SOL    HW119730   4.528   2.801   1.646
 6277SOL    HW219731   4.673   2.728   1.658
 6278SOL     OW19732   3.101   2.779   0.357
 6278SOL    HW119733   3.112   2.821   0.447
 6278SOL    HW219734   3.071   2.848   0.291
 6279SOL     OW19735   1.668   6.303   2.210
 6279SOL    HW119736   1.595   6.359   2.169
 6279SOL    HW219737   1.757   6.341   2.184
 6280SOL     OW19738   5.007   1.200   6.928
 6280SOL    HW119739   4.976   1.209   6.834
 6280SOL    HW219740   5.062   1.281   6.953
 6281SOL     OW19741   5.450   3.883   5.652
 6281SOL    HW119742   5.371   3.943   5.639
 6281SOL    HW219743   5.453   3.852   5.747
 6282SOL     OW19744   0.371   3.687   5.565
 6282SOL    HW119745   0.328   3.772   5.596
 6282SOL    HW219746   0.344   3.668   5.471
 6283SOL     OW19747   2.428   0.517   4.574
 6283SOL    HW119748   2.503   0.572   4.536
 6283SOL    HW219749   2.442   0.421   4.552
 6284SOL     OW19750   1.598   3.871   6.446
 6284SOL    HW119751   1.603   3.865   6.546
 6284SOL    HW219752   1.512   3.914   6.419
 6285SOL     OW19753   1.409   4.166   3.331
 6285SOL    HW119754   1.328   4.125   3.372
 6285SOL    HW219755   1.388   4.259   3.300
 6286SOL     OW19756   0.765   2.736   6.802
 6286SOL    HW119757   0.796   2.816   6.852
 6286SOL    HW219758   0.785   2.747   6.704
 6287SOL     OW19759   4.406   5.289   4.694
 6287SOL    HW119760   4.448   5.304   4.604
 6287SOL    HW219761   4.311   5.261   4.683
 6288SOL     OW19762   2.942   3.419   5.527
 6288SOL    HW119763   3.005   3.495   5.507
 6288SOL    HW219764   2.863   3.424   5.466
 6289SOL     OW19765   2.588   4.631   5.224
 6289SOL    HW119766   2.630   4.660   5.310
 6289SOL    HW219767   2.659   4.609   5.157
 6290SOL     OW19768   6.637   6.654   3.102
 6290SOL    HW119769   6.587   6.649   3.189
 6290SOL    HW219770   6.692   6.572   3.091
 6291SOL     OW19771   3.276   3.704   1.941
 6291SOL    HW119772   3.311   3.653   2.020
 6291SOL    HW219773   3.177   3.715   1.950
 6292SOL     OW19774   1.143   4.172   4.669
 6292SOL    HW119775   1.208   4.237   4.628
 6292SOL    HW219776   1.067   4.158   4.606
 6293SOL     OW19777   3.124   1.193   0.183
 6293SOL    HW119778   3.024   1.183   0.182
 6293SOL    HW219779   3.151   1.245   0.264
 6294SOL     OW19780   2.054   0.428   2.252
 6294SOL    HW119781   2.060   0.349   2.190
 6294SOL    HW219782   1.961   0.464   2.251
 6295SOL     OW19783   4.660   2.844   6.045
 6295SOL    HW119784   4.747   2.798   6.063
 6295SOL    HW219785   4.624   2.814   5.957
 6296SOL     OW19786   0.319   2.499   0.285
 6296SOL    HW119787   0.358   2.501   0.193
 6296SOL    HW219788   0.329   2.407   0.324
 6297SOL     OW19789   6.489   0.840   4.171
 6297SOL    HW119790   6.556   0.905   4.206
 6297SOL    HW219791   6.453   0.873   4.083
 6298SOL     OW19792   6.996   0.047   6.849
 6298SOL    HW119793   6.974   0.143   6.830
 6298SOL    HW219794   6.950   7.011   6.783
 6299SOL     OW19795   3.388   1.576   3.959
 6299SOL    HW119796   3.442   1.493   3.944
 6299SOL    HW219797   3.382   1.628   3.874
 6300SOL     OW19798   2.402   1.964   1.223
 6300SOL    HW119799   2.316   1.915   1.212
 6300SOL    HW219800   2.438   1.949   1.316
 6301SOL     OW19801   4.259   6.495   0.673
 6301SOL    HW119802   4.178   6.467   0.725
 6301SOL    HW219803   4.256   6.454   0.582
 6302SOL     OW19804   1.248   3.460   0.289
 6302SOL    HW119805   1.228   3.364   0.268
 6302SOL    HW219806   1.317   3.463   0.361
 6303SOL     OW19807   6.546   5.415   4.470
 6303SOL    HW119808   6.580   5.387   4.560
 6303SOL    HW219809   6.495   5.501   4.479
 6304SOL     OW19810   2.330   1.903   3.648
 6304SOL    HW119811   2.233   1.878   3.654
 6304SOL    HW219812   2.367   1.873   3.560
 6305SOL     OW19813   0.303   5.597   5.516
 6305SOL    HW119814   0.360   5.553   5.586
 6305SOL    HW219815   0.238   5.658   5.561
 6306SOL     OW19816   0.642   4.365   4.222
 6306SOL    HW119817   0.712   4.432   4.195
 6306SOL    HW219818   0.630   4.299   4.149
 6307SOL     OW19819   2.992   3.386   3.082
 6307SOL    HW119820   2.926   3.359   3.012
 6307SOL    HW219821   2.950   3.452   3.145
 6308SOL     OW19822   1.308   1.460   1.170
 6308SOL    HW119823   1.243   1.384   1.176
 6308SOL    HW219824   1.342   1.467   1.076
 6309SOL     OW19825   1.986   5.446   5.233
 6309SOL    HW119826   2.040   5.364   5.219
 6309SOL    HW219827   1.996   5.477   5.328
 6310SOL     OW19828   0.492   6.756   3.289
 6310SOL    HW119829   0.419   6.710   3.239
 6310SOL    HW219830   0.580   6.712   3.268
 6311SOL     OW19831   6.612   1.150   6.429
 6311SOL    HW119832   6.537   1.215   6.422
 6311SOL    HW219833   6.588   1.077   6.494
 6312SOL     OW19834   3.625   5.574   1.184
 6312SOL    HW119835   3.591   5.627   1.262
 6312SOL    HW219836   3.580   5.604   1.100
 6313SOL     OW19837   5.440   4.985   2.933
 6313SOL    HW119838   5.449   4.945   3.024
 6313SOL    HW219839   5.526   5.029   2.907
 6314SOL     OW19840   1.937   6.566   3.727
 6314SOL    HW119841   1.927   6.481   3.676
 6314SOL    HW219842   1.943   6.643   3.663
 6315SOL     OW19843   2.092   2.396   3.142
 6315SOL    HW119844   2.124   2.485   3.110
 6315SOL    HW219845   2.056   2.344   3.064
 6316SOL     OW19846   4.091   0.447   5.124
 6316SOL    HW119847   4.037   0.374   5.082
 6316SOL    HW219848   4.096   0.433   5.223
 6317SOL     OW19849   4.668   4.576   2.866
 6317SOL    HW119850   4.633   4.533   2.949
 6317SOL    HW219851   4.674   4.675   2.880
 6318SOL     OW19852   6.017   0.116   0.140
 6318SOL    HW119853   6.091   0.155   0.195
 6318SOL    HW219854   5.931   0.163   0.161
 6319SOL     OW19855   5.095   2.787   4.842
 6319SOL    HW119856   5.003   2.803   4.807
 6319SOL    HW219857   5.097   2.804   4.941
 6320SOL     OW19858   6.653   1.656   6.414
 6320SOL    HW119859   6.605   1.666   6.502
 6320SOL    HW219860   6.698   1.567   6.411
 6321SOL     OW19861   0.759   3.755   0.302
 6321SOL    HW119862   0.737   3.803   0.387
 6321SOL    HW219863   0.752   3.657   0.316
 6322SOL     OW19864   2.002   1.719   2.644
 6322SOL    HW119865   2.058   1.715   2.562
 6322SOL    HW219866   1.940   1.641   2.646
 6323SOL     OW19867   2.276   6.042   1.171
 6323SOL    HW119868   2.188   6.061   1.213
 6323SOL    HW219869   2.311   5.955   1.205
 6324SOL     OW19870   4.996   3.608   0.978
 6324SOL    HW119871   5.041   3.597   1.067
 6324SOL    HW219872   4.949   3.523   0.954
 6325SOL     OW19873   1.068   3.374   4.093
 6325SOL    HW119874   1.039   3.350   4.000
 6325SOL    HW219875   1.149   3.432   4.088
 6326SOL     OW19876   4.613   5.476   5.056
 6326SOL    HW119877   4.593   5.528   4.973
 6326SOL    HW219878   4.529   5.432   5.088
 6327SOL     OW19879   0.503   0.748   2.438
 6327SOL    HW119880   0.579   0.720   2.379
 6327SOL    HW219881   0.426   0.778   2.381
 6328SOL     OW19882   3.922   3.935   5.294
 6328SOL    HW119883   3.852   3.880   5.249
 6328SOL    HW219884   3.906   4.032   5.274
 6329SOL     OW19885   0.070   2.844   4.886
 6329SOL    HW119886   0.044   2.846   4.982
 6329SOL    HW219887   0.167   2.821   4.878
 6330SOL     OW19888   4.369   1.991   3.749
 6330SOL    HW119889   4.454   2.015   3.702
 6330SOL    HW219890   4.368   1.893   3.767
 6331SOL     OW19891   1.861   3.616   3.940
 6331SOL    HW119892   1.816   3.649   4.023
 6331SOL    HW219893   1.953   3.584   3.962
 6332SOL     OW19894   4.322   1.373   0.045
 6332SOL    HW119895   4.307   1.465   0.008
 6332SOL    HW219896   4.241   1.316   0.026
 6333SOL     OW19897   5.793   1.013   0.395
 6333SOL    HW119898   5.778   0.972   0.305
 6333SOL    HW219899   5.711   1.003   0.451
 6334SOL     OW19900   2.075   1.345   2.077
 6334SOL    HW119901   2.108   1.332   1.984
 6334SOL    HW219902   2.060   1.255   2.120
 6335SOL     OW19903   6.279   2.979   5.684
 6335SOL    HW119904   6.206   2.959   5.749
 6335SOL    HW219905   6.335   3.055   5.718
 6336SOL     OW19906   0.600   4.728   5.794
 6336SOL    HW119907   0.592   4.759   5.700
 6336SOL    HW219908   0.642   4.800   5.850
 6337SOL     OW19909   6.062   6.738   5.224
 6337SOL    HW119910   6.092   6.655   5.178
 6337SOL    HW219911   6.113   6.816   5.188
 6338SOL     OW19912   0.555   0.313   2.354
 6338SOL    HW119913   0.601   0.368   2.424
 6338SOL    HW219914   0.623   0.269   2.296
 6339SOL     OW19915   0.470   4.005   2.982
 6339SOL    HW119916   0.517   3.930   3.030
 6339SOL    HW219917   0.443   3.973   2.891
 6340SOL     OW19918   2.648   5.392   6.180
 6340SOL    HW119919   2.649   5.416   6.083
 6340SOL    HW219920   2.626   5.474   6.234
 6341SOL     OW19921   0.393   4.631   2.405
 6341SOL    HW119922   0.312   4.616   2.462
 6341SOL    HW219923   0.372   4.699   2.334
 6342SOL     OW19924   2.074   0.588   1.681
 6342SOL    HW119925   2.055   0.497   1.717
 6342SOL    HW219926   1.990   0.642   1.678
 6343SOL     OW19927   1.543   4.994   6.784
 6343SOL    HW119928   1.471   4.946   6.735
 6343SOL    HW219929   1.529   5.093   6.777
 6344SOL     OW19930   1.149   1.270   4.229
 6344SOL    HW119931   1.174   1.196   4.292
 6344SOL    HW219932   1.142   1.233   4.136
 6345SOL     OW19933   6.865   3.189   3.137
 6345SOL    HW119934   6.854   3.271   3.081
 6345SOL    HW219935   6.949   3.195   3.189
 6346SOL     OW19936   0.662   4.685   4.297
 6346SOL    HW119937   0.598   4.650   4.366
 6346SOL    HW219938   0.639   4.780   4.276
 6347SOL     OW19939   1.948   2.509   3.526
 6347SOL    HW119940   2.044   2.536   3.531
 6347SOL    HW219941   1.935   2.442   3.452
 6348SOL     OW19942   1.330   2.880   0.106
 6348SOL    HW119943   1.296   2.913   0.018
 6348SOL    HW219944   1.429   2.896   0.111
 6349SOL     OW19945   6.125   1.605   0.877
 6349SOL    HW119946   6.171   1.575   0.960
 6349SOL    HW219947   6.028   1.580   0.882
 6350SOL     OW19948   1.013   6.238   1.553
 6350SOL    HW119949   1.050   6.193   1.634
 6350SOL    HW219950   0.987   6.170   1.485
 6351SOL     OW19951   6.232   2.418   1.627
 6351SOL    HW119952   6.294   2.427   1.705
 6351SOL    HW219953   6.145   2.382   1.658
 6352SOL     OW19954   4.634   0.625   4.361
 6352SOL    HW119955   4.598   0.643   4.453
 6352SOL    HW219956   4.669   0.531   4.357
 6353SOL     OW19957   3.698   6.422   5.886
 6353SOL    HW119958   3.638   6.404   5.963
 6353SOL    HW219959   3.646   6.416   5.801
 6354SOL     OW19960   5.671   4.810   2.614
 6354SOL    HW119961   5.702   4.867   2.690
 6354SOL    HW219962   5.748   4.791   2.553
 6355SOL     OW19963   5.254   5.949   0.011
 6355SOL    HW119964   5.285   6.043   0.024
 6355SOL    HW219965   5.155   5.948   7.016
 6356SOL     OW19966   0.538   6.466   6.364
 6356SOL    HW119967   0.603   6.435   6.433
 6356SOL    HW219968   0.588   6.506   6.287
 6357SOL     OW19969   5.004   2.087   2.709
 6357SOL    HW119970   5.104   2.089   2.710
 6357SOL    HW219971   4.973   1.992   2.708
 6358SOL     OW19972   1.447   1.746   4.515
 6358SOL    HW119973   1.416   1.653   4.496
 6358SOL    HW219974   1.545   1.746   4.531
 6359SOL     OW19975   5.916   4.532   0.814
 6359SOL    HW119976   5.868   4.544   0.901
 6359SOL    HW219977   5.851   4.535   0.739
 6360SOL     OW19978   2.152   2.661   1.043
 6360SOL    HW119979   2.096   2.689   1.120
 6360SOL    HW219980   2.240   2.625   1.077
 6361SOL     OW19981   0.422   2.084   2.656
 6361SOL    HW119982   0.324   2.066   2.641
 6361SOL    HW219983   0.436   2.125   2.745
 6362SOL     OW19984   2.059   5.320   0.558
 6362SOL    HW119985   2.128   5.292   0.624
 6362SOL    HW219986   2.035   5.242   0.500
 6363SOL     OW19987   0.734   2.357   1.971
 6363SOL    HW119988   0.654   2.411   1.997
 6363SOL    HW219989   0.765   2.305   2.051
 6364SOL     OW19990   2.677   1.151   4.401
 6364SOL    HW119991   2.599   1.089   4.391
 6364SOL    HW219992   2.656   1.238   4.356
 6365SOL     OW19993   6.579   6.731   2.511
 6365SOL    HW119994   6.640   6.656   2.534
 6365SOL    HW219995   6.624   6.818   2.529
 6366SOL     OW19996   6.058   1.510   4.926
 6366SOL    HW119997   5.986   1.441   4.933
 6366SOL    HW219998   6.020   1.592   4.883
 6367SOL     OW19999   1.185   2.597   4.579
 6367SOL    HW120000   1.090   2.567   4.567
 6367SOL    HW220001   1.229   2.543   4.650
 6368SOL     OW20002   4.900   3.322   4.914
 6368SOL    HW120003   4.872   3.412   4.947
 6368SOL    HW220004   4.993   3.303   4.945
 6369SOL     OW20005   3.060   4.312   1.098
 6369SOL    HW120006   3.143   4.293   1.152
 6369SOL    HW220007   3.057   4.250   1.020
 6370SOL     OW20008   5.968   4.092   4.736
 6370SOL    HW120009   6.067   4.101   4.746
 6370SOL    HW220010   5.926   4.183   4.740
 6371SOL     OW20011   5.978   4.255   0.866
 6371SOL    HW120012   5.948   4.347   0.890
 6371SOL    HW220013   6.077   4.254   0.857
 6372SOL     OW20014   6.525   1.264   1.112
 6372SOL    HW120015   6.559   1.357   1.125
 6372SOL    HW220016   6.427   1.268   1.090
 6373SOL     OW20017   5.342   1.950   1.225
 6373SOL    HW120018   5.416   1.978   1.164
 6373SOL    HW220019   5.259   2.001   1.202
 6374SOL     OW20020   3.880   3.023   6.599
 6374SOL    HW120021   3.929   2.940   6.572
 6374SOL    HW220022   3.794   3.030   6.548
 6375SOL     OW20023   5.158   1.025   2.208
 6375SOL    HW120024   5.250   1.038   2.246
 6375SOL    HW220025   5.121   0.938   2.241
 6376SOL     OW20026   2.764   6.703   0.643
 6376SOL    HW120027   2.843   6.642   0.640
 6376SOL    HW220028   2.690   6.663   0.588
 6377SOL     OW20029   0.174   0.687   0.278
 6377SOL    HW120030   0.219   0.775   0.264
 6377SOL    HW220031   0.210   0.644   0.361
 6378SOL     OW20032   6.130   4.034   3.098
 6378SOL    HW120033   6.137   4.044   2.999
 6378SOL    HW220034   6.065   3.961   3.120
 6379SOL     OW20035   3.002   5.300   6.662
 6379SOL    HW120036   2.932   5.362   6.698
 6379SOL    HW220037   2.962   5.246   6.588
 6380SOL     OW20038   2.203   3.163   4.822
 6380SOL    HW120039   2.202   3.135   4.726
 6380SOL    HW220040   2.269   3.107   4.873
 6381SOL     OW20041   3.194   3.954   0.880
 6381SOL    HW120042   3.244   3.922   0.961
 6381SOL    HW220043   3.242   4.032   0.840
 6382SOL     OW20044   2.042   1.208   1.341
 6382SOL    HW120045   2.132   1.248   1.355
 6382SOL    HW220046   1.999   1.191   1.430
 6383SOL     OW20047   2.737   2.054   2.853
 6383SOL    HW120048   2.764   2.003   2.771
 6383SOL    HW220049   2.708   2.146   2.826
 6384SOL     OW20050   6.733   2.027   2.386
 6384SOL    HW120051   6.789   1.954   2.424
 6384SOL    HW220052   6.736   2.024   2.286
 6385SOL     OW20053   0.005   3.936   1.328
 6385SOL    HW120054   0.044   4.022   1.294
 6385SOL    HW220055   6.968   3.955   1.406
 6386SOL     OW20056   2.906   3.991   0.243
 6386SOL    HW120057   2.961   3.922   0.291
 6386SOL    HW220058   2.835   4.025   0.305
 6387SOL     OW20059   6.530   0.959   6.235
 6387SOL    HW120060   6.440   0.983   6.199
 6387SOL    HW220061   6.558   1.026   6.303
 6388SOL     OW20062   6.114   5.063   1.925
 6388SOL    HW120063   6.030   5.063   1.979
 6388SOL    HW220064   6.179   4.998   1.965
 6389SOL     OW20065   6.673   6.591   0.773
 6389SOL    HW120066   6.688   6.682   0.734
 6389SOL    HW220067   6.759   6.541   0.776
 6390SOL     OW20068   5.018   6.602   6.445
 6390SOL    HW120069   5.058   6.510   6.458
 6390SOL    HW220070   4.939   6.596   6.385
 6391SOL     OW20071   1.649   2.227   5.075
 6391SOL    HW120072   1.576   2.257   5.014
 6391SOL    HW220073   1.663   2.296   5.146
 6392SOL     OW20074   5.155   6.585   3.940
 6392SOL    HW120075   5.056   6.595   3.948
 6392SOL    HW220076   5.178   6.549   3.850
 6393SOL     OW20077   2.348   5.434   0.348
 6393SOL    HW120078   2.285   5.357   0.343
 6393SOL    HW220079   2.431   5.413   0.295
 6394SOL     OW20080   1.454   5.481   2.071
 6394SOL    HW120081   1.495   5.536   2.144
 6394SOL    HW220082   1.493   5.389   2.071
 6395SOL     OW20083   1.293   3.958   4.781
 6395SOL    HW120084   1.222   3.991   4.719
 6395SOL    HW220085   1.336   4.036   4.827
 6396SOL     OW20086   1.292   3.069   5.094
 6396SOL    HW120087   1.253   2.990   5.141
 6396SOL    HW220088   1.383   3.046   5.060
 6397SOL     OW20089   6.897   2.911   4.711
 6397SOL    HW120090   6.939   2.969   4.641
 6397SOL    HW220091   6.967   2.881   4.776
 6398SOL     OW20092   1.039   0.187   2.380
 6398SOL    HW120093   1.101   0.254   2.338
 6398SOL    HW220094   1.056   0.182   2.478
 6399SOL     OW20095   2.787   0.112   0.009
 6399SOL    HW120096   2.803   0.079   6.939
 6399SOL    HW220097   2.705   0.170   0.009
 6400SOL     OW20098   0.922   6.079   2.942
 6400SOL    HW120099   0.883   6.113   3.027
 6400SOL    HW220100   0.945   5.982   2.952
 6401SOL     OW20101   3.940   4.932   1.773
 6401SOL    HW120102   3.957   5.012   1.715
 6401SOL    HW220103   3.946   4.849   1.718
 6402SOL     OW20104   4.209   4.006   6.031
 6402SOL    HW120105   4.207   4.070   6.108
 6402SOL    HW220106   4.133   4.027   5.969
 6403SOL     OW20107   4.132   5.905   5.699
 6403SOL    HW120108   4.198   5.922   5.626
 6403SOL    HW220109   4.178   5.858   5.775
 6404SOL     OW20110   4.627   5.789   6.213
 6404SOL    HW120111   4.674   5.701   6.215
 6404SOL    HW220112   4.678   5.856   6.266
 6405SOL     OW20113   4.453   0.855   2.581
 6405SOL    HW120114   4.439   0.946   2.544
 6405SOL    HW220115   4.367   0.803   2.577
 6406SOL     OW20116   0.084   3.834   1.943
 6406SOL    HW120117   0.010   3.776   1.909
 6406SOL    HW220118   0.127   3.790   2.021
 6407SOL     OW20119   0.522   6.884   1.758
 6407SOL    HW120120   0.452   6.923   1.817
 6407SOL    HW220121   0.574   6.816   1.808
 6408SOL     OW20122   6.578   1.113   1.991
 6408SOL    HW120123   6.596   1.126   1.893
 6408SOL    HW220124   6.647   1.051   2.030
 6409SOL     OW20125   5.677   4.544   3.520
 6409SOL    HW120126   5.608   4.614   3.539
 6409SOL    HW220127   5.635   4.454   3.522
 6410SOL     OW20128   1.516   0.276   0.024
 6410SOL    HW120129   1.478   0.184   0.022
 6410SOL    HW220130   1.616   0.271   0.015
 6411SOL     OW20131   1.198   2.424   4.164
 6411SOL    HW120132   1.207   2.499   4.229
 6411SOL    HW220133   1.282   2.371   4.161
 6412SOL     OW20134   4.201   0.091   6.771
 6412SOL    HW120135   4.135   0.127   6.837
 6412SOL    HW220136   4.236   0.003   6.803
 6413SOL     OW20137   4.209   6.070   2.930
 6413SOL    HW120138   4.134   6.115   2.978
 6413SOL    HW220139   4.275   6.034   2.997
 6414SOL     OW20140   3.565   0.309   0.289
 6414SOL    HW120141   3.590   0.226   0.339
 6414SOL    HW220142   3.467   0.307   0.269
 6415SOL     OW20143   0.222   2.146   3.741
 6415SOL    HW120144   0.183   2.079   3.805
 6415SOL    HW220145   0.157   2.163   3.667
 6416SOL     OW20146   2.816   4.853   0.481
 6416SOL    HW120147   2.734   4.856   0.537
 6416SOL    HW220148   2.795   4.809   0.393
 6417SOL     OW20149   4.069   3.380   6.198
 6417SOL    HW120150   4.064   3.413   6.104
 6417SOL    HW220151   4.017   3.442   6.258
 6418SOL     OW20152   4.876   5.092   0.230
 6418SOL    HW120153   4.823   5.158   0.177
 6418SOL    HW220154   4.905   5.018   0.171
 6419SOL     OW20155   1.305   6.603   6.436
 6419SOL    HW120156   1.269   6.649   6.355
 6419SOL    HW220157   1.336   6.511   6.411
 6420SOL     OW20158   2.571   4.980   3.192
 6420SOL    HW120159   2.514   5.063   3.199
 6420SOL    HW220160   2.668   5.006   3.201
 6421SOL     OW20161   5.639   7.022   1.366
 6421SOL    HW120162   5.739   0.004   1.375
 6421SOL    HW220163   5.600   0.090   1.377
 6422SOL     OW20164   0.900   1.922   4.286
 6422SOL    HW120165   0.853   1.881   4.208
 6422SOL    HW220166   0.838   1.923   4.365
 6423SOL     OW20167   1.513   3.778   4.573
 6423SOL    HW120168   1.468   3.709   4.630
 6423SOL    HW220169   1.603   3.798   4.611
 6424SOL     OW20170   6.688   3.525   5.360
 6424SOL    HW120171   6.779   3.565   5.356
 6424SOL    HW220172   6.685   3.454   5.430
 6425SOL     OW20173   0.959   6.617   5.495
 6425SOL    HW120174   1.058   6.623   5.479
 6425SOL    HW220175   0.943   6.591   5.590
 6426SOL     OW20176   3.877   5.719   3.769
 6426SOL    HW120177   3.916   5.795   3.821
 6426SOL    HW220178   3.802   5.678   3.821
 6427SOL     OW20179   3.482   3.182   3.739
 6427SOL    HW120180   3.543   3.195   3.817
 6427SOL    HW220181   3.421   3.260   3.730
 6428SOL     OW20182   6.419   2.256   0.519
 6428SOL    HW120183   6.394   2.167   0.557
 6428SOL    HW220184   6.338   2.298   0.478
 6429SOL     OW20185   2.640   1.753   4.488
 6429SOL    HW120186   2.629   1.829   4.423
 6429SOL    HW220187   2.734   1.720   4.484
 6430SOL     OW20188   5.971   1.466   4.524
 6430SOL    HW120189   5.983   1.525   4.444
 6430SOL    HW220190   6.059   1.452   4.568
 6431SOL     OW20191   3.054   4.946   2.943
 6431SOL    HW120192   3.028   4.909   2.854
 6431SOL    HW220193   2.998   4.903   3.015
 6432SOL     OW20194   4.386   2.928   6.636
 6432SOL    HW120195   4.485   2.927   6.652
 6432SOL    HW220196   4.363   2.856   6.570
 6433SOL     OW20197   3.615   5.290   6.205
 6433SOL    HW120198   3.653   5.233   6.133
 6433SOL    HW220199   3.667   5.376   6.210
 6434SOL     OW20200   6.614   4.649   6.191
 6434SOL    HW120201   6.708   4.676   6.171
 6434SOL    HW220202   6.605   4.629   6.288
 6435SOL     OW20203   4.659   1.645   1.247
 6435SOL    HW120204   4.622   1.737   1.234
 6435SOL    HW220205   4.592   1.578   1.216
 6436SOL     OW20206   0.662   2.872   3.605
 6436SOL    HW120207   0.571   2.852   3.639
 6436SOL    HW220208   0.720   2.904   3.680
 6437SOL     OW20209   1.523   2.847   5.942
 6437SOL    HW120210   1.517   2.919   5.872
 6437SOL    HW220211   1.585   2.775   5.910
 6438SOL     OW20212   0.664   5.029   1.059
 6438SOL    HW120213   0.759   4.999   1.069
 6438SOL    HW220214   0.634   5.015   0.965
 6439SOL     OW20215   4.881   6.418   2.921
 6439SOL    HW120216   4.873   6.490   2.990
 6439SOL    HW220217   4.938   6.343   2.957
 6440SOL     OW20218   2.611   2.003   5.501
 6440SOL    HW120219   2.702   1.967   5.482
 6440SOL    HW220220   2.568   2.032   5.416
 6441SOL     OW20221   1.149   2.063   1.716
 6441SOL    HW120222   1.200   1.995   1.768
 6441SOL    HW220223   1.106   2.128   1.780
 6442SOL     OW20224   2.459   1.919   4.079
 6442SOL    HW120225   2.557   1.922   4.062
 6442SOL    HW220226   2.441   1.866   4.162
 6443SOL     OW20227   2.599   2.487   5.917
 6443SOL    HW120228   2.689   2.480   5.959
 6443SOL    HW220229   2.603   2.551   5.840
 6444SOL     OW20230   0.245   3.735   5.032
 6444SOL    HW120231   0.251   3.643   4.993
 6444SOL    HW220232   0.157   3.776   5.007
 6445SOL     OW20233   3.346   2.877   3.454
 6445SOL    HW120234   3.266   2.841   3.407
 6445SOL    HW220235   3.332   2.873   3.553
 6446SOL     OW20236   1.402   0.593   1.600
 6446SOL    HW120237   1.391   0.510   1.545
 6446SOL    HW220238   1.423   0.568   1.695
 6447SOL     OW20239   6.073   3.733   1.095
 6447SOL    HW120240   6.042   3.725   1.190
 6447SOL    HW220241   6.096   3.828   1.076
 6448SOL     OW20242   4.129   4.171   1.456
 6448SOL    HW120243   4.135   4.226   1.373
 6448SOL    HW220244   4.036   4.134   1.465
 6449SOL     OW20245   4.315   5.311   0.567
 6449SOL    HW120246   4.334   5.315   0.469
 6449SOL    HW220247   4.314   5.216   0.597
 6450SOL     OW20248   4.509   3.526   7.022
 6450SOL    HW120249   4.563   3.525   0.084
 6450SOL    HW220250   4.451   3.607   7.021
 6451SOL     OW20251   4.295   2.520   1.436
 6451SOL    HW120252   4.311   2.506   1.534
 6451SOL    HW220253   4.204   2.558   1.422
 6452SOL     OW20254   4.369   2.015   4.386
 6452SOL    HW120255   4.375   1.993   4.483
 6452SOL    HW220256   4.452   2.065   4.357
 6453SOL     OW20257   2.349   0.734   3.045
 6453SOL    HW120258   2.405   0.691   2.974
 6453SOL    HW220259   2.386   0.824   3.068
 6454SOL     OW20260   5.282   3.744   4.858
 6454SOL    HW120261   5.327   3.744   4.948
 6454SOL    HW220262   5.186   3.716   4.869
 6455SOL     OW20263   0.540   2.469   4.250
 6455SOL    HW120264   0.469   2.473   4.180
 6455SOL    HW220265   0.593   2.554   4.248
 6456SOL     OW20266   5.973   1.943   3.367
 6456SOL    HW120267   5.876   1.929   3.382
 6456SOL    HW220268   6.002   2.028   3.410
 6457SOL     OW20269   1.587   6.201   3.679
 6457SOL    HW120270   1.510   6.146   3.646
 6457SOL    HW220271   1.613   6.170   3.770
 6458SOL     OW20272   1.202   0.488   4.825
 6458SOL    HW120273   1.174   0.548   4.900
 6458SOL    HW220274   1.300   0.467   4.835
 6459SOL     OW20275   0.962   3.369   2.866
 6459SOL    HW120276   0.950   3.383   2.768
 6459SOL    HW220277   0.993   3.276   2.883
 6460SOL     OW20278   1.717   5.308   5.541
 6460SOL    HW120279   1.764   5.290   5.627
 6460SOL    HW220280   1.708   5.223   5.489
 6461SOL     OW20281   0.479   6.954   1.299
 6461SOL    HW120282   0.421   7.014   1.353
 6461SOL    HW220283   0.478   6.862   1.337
 6462SOL     OW20284   2.516   3.872   5.875
 6462SOL    HW120285   2.581   3.948   5.880
 6462SOL    HW220286   2.560   3.794   5.831
 6463SOL     OW20287   4.540   3.209   1.426
 6463SOL    HW120288   4.480   3.260   1.487
 6463SOL    HW220289   4.589   3.139   1.479
 6464SOL     OW20290   1.361   3.422   3.413
 6464SOL    HW120291   1.288   3.378   3.361
 6464SOL    HW220292   1.352   3.399   3.510
 6465SOL     OW20293   2.380   1.456   2.972
 6465SOL    HW120294   2.341   1.372   2.933
 6465SOL    HW220295   2.377   1.529   2.903
 6466SOL     OW20296   6.480   4.894   6.788
 6466SOL    HW120297   6.559   4.955   6.784
 6466SOL    HW220298   6.417   4.926   6.859
 6467SOL     OW20299   2.384   3.515   5.936
 6467SOL    HW120300   2.451   3.458   5.984
 6467SOL    HW220301   2.431   3.572   5.869
 6468SOL     OW20302   1.272   0.627   1.076
 6468SOL    HW120303   1.202   0.628   1.147
 6468SOL    HW220304   1.279   0.718   1.034
 6469SOL     OW20305   2.396   0.844   1.237
 6469SOL    HW120306   2.333   0.916   1.209
 6469SOL    HW220307   2.399   0.839   1.337
 6470SOL     OW20308   6.146   1.539   6.708
 6470SOL    HW120309   6.059   1.526   6.662
 6470SOL    HW220310   6.137   1.611   6.777
 6471SOL     OW20311   1.151   6.114   5.994
 6471SOL    HW120312   1.160   6.191   5.931
 6471SOL    HW220313   1.143   6.149   6.088
 6472SOL     OW20314   0.797   6.552   1.280
 6472SOL    HW120315   0.778   6.565   1.377
 6472SOL    HW220316   0.714   6.571   1.227
 6473SOL     OW20317   2.843   1.816   3.685
 6473SOL    HW120318   2.783   1.822   3.605
 6473SOL    HW220319   2.916   1.750   3.667
 6474SOL     OW20320   3.926   6.978   4.176
 6474SOL    HW120321   3.946   6.882   4.155
 6474SOL    HW220322   3.997   0.014   4.134
 6475SOL     OW20323   5.253   5.718   3.468
 6475SOL    HW120324   5.295   5.714   3.377
 6475SOL    HW220325   5.187   5.793   3.470
 6476SOL     OW20326   5.296   4.109   5.424
 6476SOL    HW120327   5.354   4.105   5.342
 6476SOL    HW220328   5.273   4.016   5.453
 6477SOL     OW20329   0.717   6.537   0.691
 6477SOL    HW120330   0.714   6.476   0.612
 6477SOL    HW220331   0.623   6.557   0.720
 6478SOL     OW20332   1.818   6.289   0.526
 6478SOL    HW120333   1.833   6.325   0.618
 6478SOL    HW220334   1.751   6.215   0.529
 6479SOL     OW20335   4.488   6.164   4.058
 6479SOL    HW120336   4.544   6.121   4.128
 6479SOL    HW220337   4.467   6.098   3.985
 6480SOL     OW20338   3.515   1.573   5.076
 6480SOL    HW120339   3.475   1.640   5.013
 6480SOL    HW220340   3.501   1.481   5.041
 6481SOL     OW20341   4.236   3.261   1.841
 6481SOL    HW120342   4.329   3.224   1.842
 6481SOL    HW220343   4.171   3.187   1.824
 6482SOL     OW20344   5.365   3.314   5.081
 6482SOL    HW120345   5.413   3.293   4.996
 6482SOL    HW220346   5.376   3.411   5.102
 6483SOL     OW20347   1.701   5.606   5.665
 6483SOL    HW120348   1.683   5.639   5.758
 6483SOL    HW220349   1.621   5.557   5.630
 6484SOL     OW20350   4.068   1.093   3.401
 6484SOL    HW120351   4.165   1.087   3.379
 6484SOL    HW220352   4.019   1.134   3.324
 6485SOL     OW20353   2.297   5.066   4.536
 6485SOL    HW120354   2.337   4.981   4.569
 6485SOL    HW220355   2.307   5.137   4.605
 6486SOL     OW20356   0.105   4.403   2.180
 6486SOL    HW120357   0.109   4.499   2.154
 6486SOL    HW220358   0.166   4.349   2.121
 6487SOL     OW20359   5.838   5.595   4.066
 6487SOL    HW120360   5.913   5.573   4.128
 6487SOL    HW220361   5.776   5.661   4.110
 6488SOL     OW20362   3.957   5.049   3.960
 6488SOL    HW120363   3.862   5.074   3.976
 6488SOL    HW220364   4.016   5.101   4.022
 6489SOL     OW20365   6.503   3.458   5.173
 6489SOL    HW120366   6.440   3.395   5.219
 6489SOL    HW220367   6.580   3.478   5.233
 6490SOL     OW20368   1.753   3.358   0.303
 6490SOL    HW120369   1.851   3.373   0.317
 6490SOL    HW220370   1.705   3.446   0.306
 6491SOL     OW20371   1.739   0.230   1.774
 6491SOL    HW120372   1.808   0.191   1.835
 6491SOL    HW220373   1.784   0.259   1.689
 6492SOL     OW20374   4.030   3.273   3.648
 6492SOL    HW120375   3.958   3.219   3.691
 6492SOL    HW220376   4.070   3.335   3.716
 6493SOL     OW20377   1.309   4.610   4.251
 6493SOL    HW120378   1.330   4.613   4.153
 6493SOL    HW220379   1.212   4.588   4.263
 6494SOL     OW20380   6.372   1.148   1.566
 6494SOL    HW120381   6.357   1.246   1.560
 6494SOL    HW220382   6.396   1.112   1.476
 6495SOL     OW20383   6.127   6.226   2.586
 6495SOL    HW120384   6.217   6.268   2.597
 6495SOL    HW220385   6.135   6.127   2.596
 6496SOL     OW20386   2.591   2.227   1.462
 6496SOL    HW120387   2.618   2.197   1.370
 6496SOL    HW220388   2.552   2.150   1.512
 6497SOL     OW20389   0.590   2.651   0.900
 6497SOL    HW120390   0.495   2.659   0.931
 6497SOL    HW220391   0.645   2.608   0.970
 6498SOL     OW20392   2.574   4.527   4.282
 6498SOL    HW120393   2.544   4.533   4.377
 6498SOL    HW220394   2.623   4.610   4.257
 6499SOL     OW20395   5.881   2.370   2.509
 6499SOL    HW120396   5.964   2.425   2.497
 6499SOL    HW220397   5.820   2.417   2.572
 6500SOL     OW20398   1.699   3.959   2.720
 6500SOL    HW120399   1.705   3.861   2.699
 6500SOL    HW220400   1.605   3.990   2.705
 6501SOL     OW20401   6.716   1.290   2.913
 6501SOL    HW120402   6.651   1.231   2.866
 6501SOL    HW220403   6.688   1.385   2.905
 6502SOL     OW20404   0.831   2.844   2.062
 6502SOL    HW120405   0.819   2.803   1.972
 6502SOL    HW220406   0.886   2.927   2.054
 6503SOL     OW20407   0.162   2.576   5.547
 6503SOL    HW120408   0.072   2.564   5.505
 6503SOL    HW220409   0.234   2.556   5.479
 6504SOL     OW20410   3.677   6.758   6.010
 6504SOL    HW120411   3.707   6.801   6.095
 6504SOL    HW220412   3.729   6.674   5.995
 6505SOL     OW20413   0.664   6.498   6.947
 6505SOL    HW120414   0.666   6.584   6.998
 6505SOL    HW220415   0.672   6.421   7.010
 6506SOL     OW20416   0.163   3.739   1.478
 6506SOL    HW120417   0.117   3.805   1.418
 6506SOL    HW220418   0.211   3.671   1.422
 6507SOL     OW20419   4.732   5.548   0.855
 6507SOL    HW120420   4.780   5.568   0.770
 6507SOL    HW220421   4.668   5.472   0.840
 6508SOL     OW20422   6.846   0.805   4.481
 6508SOL    HW120423   6.747   0.795   4.484
 6508SOL    HW220424   6.872   0.853   4.396
 6509SOL     OW20425   2.346   1.808   0.504
 6509SOL    HW120426   2.440   1.815   0.469
 6509SOL    HW220427   2.313   1.899   0.529
 6510SOL     OW20428   3.105   4.865   4.542
 6510SOL    HW120429   3.084   4.881   4.638
 6510SOL    HW220430   3.186   4.918   4.516
 6511SOL     OW20431   3.516   2.954   6.778
 6511SOL    HW120432   3.597   2.931   6.833
 6511SOL    HW220433   3.546   2.980   6.686
 6512SOL     OW20434   5.132   1.150   1.248
 6512SOL    HW120435   5.042   1.164   1.289
 6512SOL    HW220436   5.154   1.227   1.189
 6513SOL     OW20437   3.024   5.143   2.275
 6513SOL    HW120438   2.925   5.129   2.286
 6513SOL    HW220439   3.065   5.059   2.241
 6514SOL     OW20440   4.971   5.818   6.050
 6514SOL    HW120441   4.889   5.827   5.993
 6514SOL    HW220442   5.047   5.784   5.994
 6515SOL     OW20443   1.120   4.901   2.585
 6515SOL    HW120444   1.071   4.981   2.549
 6515SOL    HW220445   1.067   4.860   2.659
 6516SOL     OW20446   5.837   1.132   3.669
 6516SOL    HW120447   5.862   1.037   3.686
 6516SOL    HW220448   5.755   1.136   3.612
 6517SOL     OW20449   6.746   4.285   0.211
 6517SOL    HW120450   6.670   4.337   0.250
 6517SOL    HW220451   6.745   4.293   0.112
 6518SOL     OW20452   1.179   1.980   2.321
 6518SOL    HW120453   1.209   1.973   2.417
 6518SOL    HW220454   1.200   2.071   2.286
 6519SOL     OW20455   1.278   1.664   3.360
 6519SOL    HW120456   1.265   1.634   3.454
 6519SOL    HW220457   1.359   1.722   3.354
 6520SOL     OW20458   5.798   6.393   6.250
 6520SOL    HW120459   5.784   6.399   6.349
 6520SOL    HW220460   5.847   6.473   6.218
 6521SOL     OW20461   1.329   4.336   4.571
 6521SOL    HW120462   1.376   4.250   4.591
 6521SOL    HW220463   1.396   4.406   4.547
 6522SOL     OW20464   2.364   3.094   5.409
 6522SOL    HW120465   2.289   3.032   5.428
 6522SOL    HW220466   2.413   3.064   5.326
 6523SOL     OW20467   5.259   6.642   0.408
 6523SOL    HW120468   5.269   6.728   0.358
 6523SOL    HW220469   5.327   6.639   0.482
 6524SOL     OW20470   3.073   2.657   1.456
 6524SOL    HW120471   3.019   2.612   1.527
 6524SOL    HW220472   3.120   2.736   1.497
 6525SOL     OW20473   2.111   4.665   4.017
 6525SOL    HW120474   2.056   4.583   4.036
 6525SOL    HW220475   2.054   4.732   3.969
 6526SOL     OW20476   6.545   6.338   0.462
 6526SOL    HW120477   6.623   6.398   0.444
 6526SOL    HW220478   6.466   6.368   0.408
 6527SOL     OW20479   5.186   2.183   0.984
 6527SOL    HW120480   5.254   2.136   0.928
 6527SOL    HW220481   5.182   2.279   0.957
 6528SOL     OW20482   4.653   6.355   0.551
 6528SOL    HW120483   4.724   6.420   0.524
 6528SOL    HW220484   4.667   6.327   0.646
 6529SOL     OW20485   4.468   0.138   1.604
 6529SOL    HW120486   4.369   0.147   1.603
 6529SOL    HW220487   4.509   0.221   1.640
 6530SOL     OW20488   0.452   2.254   4.073
 6530SOL    HW120489   0.357   2.272   4.097
 6530SOL    HW220490   0.511   2.277   4.150
 6531SOL     OW20491   3.763   3.481   3.834
 6531SOL    HW120492   3.753   3.384   3.853
 6531SOL    HW220493   3.738   3.534   3.915
 6532SOL     OW20494   1.185   5.625   0.178
 6532SOL    HW120495   1.251   5.599   0.248
 6532SOL    HW220496   1.228   5.690   0.115
 6533SOL     OW20497   5.014   5.263   1.386
 6533SOL    HW120498   4.943   5.199   1.414
 6533SOL    HW220499   4.972   5.349   1.358
 6534SOL     OW20500   6.624   2.648   4.091
 6534SOL    HW120501   6.637   2.593   4.174
 6534SOL    HW220502   6.562   2.600   4.029
 6535SOL     OW20503   5.382   3.493   6.242
 6535SOL    HW120504   5.287   3.510   6.214
 6535SOL    HW220505   5.443   3.546   6.183
 6536SOL     OW20506   0.122   5.018   5.863
 6536SOL    HW120507   0.081   5.048   5.777
 6536SOL    HW220508   0.163   5.096   5.910
 6537SOL     OW20509   6.457   5.680   4.481
 6537SOL    HW120510   6.397   5.744   4.432
 6537SOL    HW220511   6.552   5.709   4.470
 6538SOL     OW20512   1.549   3.513   3.642
 6538SOL    HW120513   1.577   3.502   3.546
 6538SOL    HW220514   1.520   3.424   3.678
 6539SOL     OW20515   5.360   0.195   5.971
 6539SOL    HW120516   5.417   0.170   6.049
 6539SOL    HW220517   5.364   0.123   5.902
 6540SOL     OW20518   1.044   2.357   4.921
 6540SOL    HW120519   0.961   2.335   4.870
 6540SOL    HW220520   1.020   2.416   4.998
 6541SOL     OW20521   3.831   1.442   5.830
 6541SOL    HW120522   3.762   1.371   5.818
 6541SOL    HW220523   3.903   1.409   5.892
 6542SOL     OW20524   1.906   4.415   2.136
 6542SOL    HW120525   1.839   4.477   2.095
 6542SOL    HW220526   1.989   4.413   2.080
 6543SOL     OW20527   3.773   1.644   3.792
 6543SOL    HW120528   3.833   1.711   3.747
 6543SOL    HW220529   3.740   1.578   3.725
 6544SOL     OW20530   0.855   0.569   1.060
 6544SOL    HW120531   0.849   0.538   1.155
 6544SOL    HW220532   0.899   0.658   1.056
 6545SOL     OW20533   5.696   5.694   0.600
 6545SOL    HW120534   5.776   5.673   0.544
 6545SOL    HW220535   5.723   5.754   0.675
 6546SOL     OW20536   4.352   5.330   5.182
 6546SOL    HW120537   4.376   5.248   5.130
 6546SOL    HW220538   4.260   5.360   5.157
 6547SOL     OW20539   1.251   6.271   5.566
 6547SOL    HW120540   1.347   6.299   5.556
 6547SOL    HW220541   1.245   6.172   5.557
 6548SOL     OW20542   1.090   2.053   5.687
 6548SOL    HW120543   1.030   2.130   5.664
 6548SOL    HW220544   1.035   1.976   5.718
 6549SOL     OW20545   4.000   0.934   2.938
 6549SOL    HW120546   4.073   0.979   2.990
 6549SOL    HW220547   3.944   0.879   3.000
 6550SOL     OW20548   5.938   0.145   1.872
 6550SOL    HW120549   5.959   0.136   1.970
 6550SOL    HW220550   5.917   0.056   1.834
 6551SOL     OW20551   2.565   4.987   1.515
 6551SOL    HW120552   2.623   4.907   1.501
 6551SOL    HW220553   2.537   4.991   1.611
 6552SOL     OW20554   2.160   3.594   6.921
 6552SOL    HW120555   2.137   3.678   6.971
 6552SOL    HW220556   2.170   3.614   6.824
 6553SOL     OW20557   0.375   1.533   3.264
 6553SOL    HW120558   0.302   1.474   3.230
 6553SOL    HW220559   0.459   1.516   3.211
 6554SOL     OW20560   1.238   1.627   3.876
 6554SOL    HW120561   1.173   1.652   3.805
 6554SOL    HW220562   1.206   1.662   3.964
 6555SOL     OW20563   1.299   3.732   2.377
 6555SOL    HW120564   1.305   3.672   2.457
 6555SOL    HW220565   1.209   3.777   2.376
 6556SOL     OW20566   4.945   3.461   3.412
 6556SOL    HW120567   5.020   3.527   3.408
 6556SOL    HW220568   4.890   3.468   3.329
 6557SOL     OW20569   2.279   6.852   2.749
 6557SOL    HW120570   2.320   6.914   2.815
 6557SOL    HW220571   2.304   6.881   2.656
 6558SOL     OW20572   5.307   5.553   1.015
 6558SOL    HW120573   5.271   5.465   1.044
 6558SOL    HW220574   5.248   5.626   1.049
 6559SOL     OW20575   0.453   1.570   6.108
 6559SOL    HW120576   0.362   1.570   6.067
 6559SOL    HW220577   0.446   1.582   6.207
 6560SOL     OW20578   6.901   4.674   6.190
 6560SOL    HW120579   6.985   4.632   6.223
 6560SOL    HW220580   6.923   4.750   6.129
 6561SOL     OW20581   2.803   5.755   0.554
 6561SOL    HW120582   2.829   5.670   0.510
 6561SOL    HW220583   2.715   5.786   0.517
 6562SOL     OW20584   4.808   2.277   1.648
 6562SOL    HW120585   4.855   2.296   1.734
 6562SOL    HW220586   4.807   2.178   1.632
 6563SOL     OW20587   6.195   5.357   5.201
 6563SOL    HW120588   6.183   5.343   5.103
 6563SOL    HW220589   6.262   5.291   5.236
 6564SOL     OW20590   5.262   3.575   2.237
 6564SOL    HW120591   5.259   3.517   2.155
 6564SOL    HW220592   5.173   3.573   2.282
 6565SOL     OW20593   5.112   6.126   2.185
 6565SOL    HW120594   5.113   6.109   2.283
 6565SOL    HW220595   5.056   6.057   2.139
 6566SOL     OW20596   5.066   5.506   3.798
 6566SOL    HW120597   5.047   5.416   3.838
 6566SOL    HW220598   5.102   5.494   3.706
 6567SOL     OW20599   3.013   1.040   2.721
 6567SOL    HW120600   2.987   0.943   2.718
 6567SOL    HW220601   3.107   1.049   2.754
 6568SOL     OW20602   5.260   1.794   0.801
 6568SOL    HW120603   5.302   1.737   0.872
 6568SOL    HW220604   5.162   1.776   0.797
 6569SOL     OW20605   1.824   4.468   3.543
 6569SOL    HW120606   1.757   4.394   3.548
 6569SOL    HW220607   1.865   4.469   3.452
 6570SOL     OW20608   4.438   6.901   3.106
 6570SOL    HW120609   4.523   6.855   3.081
 6570SOL    HW220610   4.448   6.946   3.195
 6571SOL     OW20611   2.976   6.422   2.848
 6571SOL    HW120612   2.928   6.484   2.785
 6571SOL    HW220613   2.951   6.445   2.942
 6572SOL     OW20614   1.424   6.560   3.783
 6572SOL    HW120615   1.380   6.619   3.716
 6572SOL    HW220616   1.354   6.514   3.838
 6573SOL     OW20617   1.387   2.082   3.167
 6573SOL    HW120618   1.375   2.027   3.085
 6573SOL    HW220619   1.424   2.171   3.142
 6574SOL     OW20620   0.608   5.240   1.619
 6574SOL    HW120621   0.622   5.317   1.556
 6574SOL    HW220622   0.654   5.259   1.705
 6575SOL     OW20623   0.105   1.140   3.455
 6575SOL    HW120624   0.105   1.233   3.490
 6575SOL    HW220625   0.182   1.089   3.495
 6576SOL     OW20626   4.112   0.016   2.126
 6576SOL    HW120627   4.021   7.009   2.155
 6576SOL    HW220628   4.132   7.002   2.036
 6577SOL     OW20629   3.773   1.018   5.073
 6577SOL    HW120630   3.728   1.106   5.088
 6577SOL    HW220631   3.844   1.004   5.142
 6578SOL     OW20632   1.327   5.743   6.959
 6578SOL    HW120633   1.414   5.779   6.924
 6578SOL    HW220634   1.252   5.797   6.920
 6579SOL     OW20635   1.669   1.397   3.524
 6579SOL    HW120636   1.756   1.447   3.522
 6579SOL    HW220637   1.599   1.452   3.569
 6580SOL     OW20638   3.285   2.993   6.888
 6580SOL    HW120639   3.250   2.924   6.952
 6580SOL    HW220640   3.375   2.965   6.854
 6581SOL     OW20641   0.259   2.680   2.235
 6581SOL    HW120642   0.263   2.769   2.281
 6581SOL    HW220643   0.253   2.607   2.303
 6582SOL     OW20644   3.968   0.405   3.299
 6582SOL    HW120645   3.942   0.429   3.206
 6582SOL    HW220646   3.889   0.415   3.359
 6583SOL     OW20647   2.597   4.177   1.370
 6583SOL    HW120648   2.518   4.188   1.309
 6583SOL    HW220649   2.581   4.100   1.432
 6584SOL     OW20650   4.417   3.304   6.049
 6584SOL    HW120651   4.388   3.357   6.129
 6584SOL    HW220652   4.449   3.366   5.977
 6585SOL     OW20653   5.822   0.444   1.821
 6585SOL    HW120654   5.887   0.520   1.811
 6585SOL    HW220655   5.873   0.360   1.842
 6586SOL     OW20656   6.902   1.593   0.464
 6586SOL    HW120657   6.805   1.599   0.438
 6586SOL    HW220658   6.937   1.685   0.481
 6587SOL     OW20659   2.986   4.869   5.537
 6587SOL    HW120660   3.051   4.944   5.523
 6587SOL    HW220661   2.992   4.805   5.461
 6588SOL     OW20662   1.233   1.498   0.654
 6588SOL    HW120663   1.190   1.555   0.585
 6588SOL    HW220664   1.167   1.432   0.689
 6589SOL     OW20665   5.877   6.945   0.719
 6589SOL    HW120666   5.944   6.919   0.649
 6589SOL    HW220667   5.785   6.925   0.685
 6590SOL     OW20668   1.657   6.079   4.768
 6590SOL    HW120669   1.578   6.136   4.789
 6590SOL    HW220670   1.659   6.060   4.669
 6591SOL     OW20671   6.015   3.338   3.796
 6591SOL    HW120672   5.948   3.286   3.848
 6591SOL    HW220673   6.017   3.305   3.702
 6592SOL     OW20674   0.239   0.988   3.947
 6592SOL    HW120675   0.239   1.077   3.901
 6592SOL    HW220676   0.146   0.966   3.977
 6593SOL     OW20677   1.385   0.245   3.043
 6593SOL    HW120678   1.342   0.191   2.971
 6593SOL    HW220679   1.356   0.211   3.132
 6594SOL     OW20680   5.428   0.197   6.432
 6594SOL    HW120681   5.493   0.170   6.503
 6594SOL    HW220682   5.358   0.257   6.471
 6595SOL     OW20683   1.476   1.410   4.917
 6595SOL    HW120684   1.553   1.411   4.854
 6595SOL    HW220685   1.457   1.316   4.946
 6596SOL     OW20686   5.278   0.789   3.113
 6596SOL    HW120687   5.287   0.879   3.156
 6596SOL    HW220688   5.182   0.774   3.087
 6597SOL     OW20689   1.081   5.070   1.374
 6597SOL    HW120690   1.066   5.118   1.461
 6597SOL    HW220691   1.038   5.120   1.300
 6598SOL     OW20692   1.192   5.151   1.902
 6598SOL    HW120693   1.147   5.158   1.814
 6598SOL    HW220694   1.288   5.124   1.889
 6599SOL     OW20695   0.872   5.627   6.241
 6599SOL    HW120696   0.827   5.712   6.213
 6599SOL    HW220697   0.933   5.596   6.169
 6600SOL     OW20698   4.586   6.476   4.673
 6600SOL    HW120699   4.617   6.480   4.578
 6600SOL    HW220700   4.647   6.416   4.725
 6601SOL     OW20701   0.872   2.945   2.368
 6601SOL    HW120702   0.862   2.967   2.465
 6601SOL    HW220703   0.857   2.848   2.353
 6602SOL     OW20704   6.149   6.042   0.040
 6602SOL    HW120705   6.234   5.990   0.042
 6602SOL    HW220706   6.075   5.984   0.005
 6603SOL     OW20707   0.148   4.712   2.533
 6603SOL    HW120708   0.076   4.676   2.474
 6603SOL    HW220709   0.140   4.672   2.624
 6604SOL     OW20710   1.523   5.334   2.344
 6604SOL    HW120711   1.489   5.248   2.382
 6604SOL    HW220712   1.623   5.329   2.336
 6605SOL     OW20713   6.894   5.139   1.470
 6605SOL    HW120714   6.923   5.136   1.566
 6605SOL    HW220715   6.806   5.093   1.460
 6606SOL     OW20716   1.554   4.593   3.145
 6606SOL    HW120717   1.608   4.532   3.087
 6606SOL    HW220718   1.611   4.626   3.220
 6607SOL     OW20719   6.547   3.344   4.036
 6607SOL    HW120720   6.458   3.384   4.059
 6607SOL    HW220721   6.538   3.244   4.031
 6608SOL     OW20722   1.459   0.486   5.421
 6608SOL    HW120723   1.547   0.441   5.406
 6608SOL    HW220724   1.386   0.419   5.418
 6609SOL     OW20725   2.757   2.276   0.131
 6609SOL    HW120726   2.852   2.268   0.101
 6609SOL    HW220727   2.729   2.191   0.175
 6610SOL     OW20728   3.361   6.318   1.369
 6610SOL    HW120729   3.457   6.296   1.354
 6610SOL    HW220730   3.312   6.235   1.397
 6611SOL     OW20731   3.202   1.640   4.438
 6611SOL    HW120732   3.240   1.610   4.351
 6611SOL    HW220733   3.120   1.694   4.422
 6612SOL     OW20734   0.158   0.414   0.066
 6612SOL    HW120735   0.172   0.384   0.160
 6612SOL    HW220736   0.166   0.514   0.061
 6613SOL     OW20737   4.198   6.844   1.460
 6613SOL    HW120738   4.295   6.843   1.486
 6613SOL    HW220739   4.190   6.824   1.363
 6614SOL     OW20740   3.864   4.251   0.793
 6614SOL    HW120741   3.847   4.172   0.735
 6614SOL    HW220742   3.785   4.312   0.790
 6615SOL     OW20743   3.169   6.169   5.824
 6615SOL    HW120744   3.165   6.091   5.886
 6615SOL    HW220745   3.077   6.189   5.790
 6616SOL     OW20746   3.884   2.037   6.399
 6616SOL    HW120747   3.980   2.009   6.406
 6616SOL    HW220748   3.875   2.109   6.331
 6617SOL     OW20749   3.410   1.794   4.169
 6617SOL    HW120750   3.473   1.756   4.235
 6617SOL    HW220751   3.395   1.729   4.095
 6618SOL     OW20752   5.989   3.287   3.483
 6618SOL    HW120753   6.022   3.269   3.391
 6618SOL    HW220754   5.890   3.294   3.483
 6619SOL     OW20755   4.559   5.110   4.087
 6619SOL    HW120756   4.626   5.112   4.013
 6619SOL    HW220757   4.497   5.188   4.079
 6620SOL     OW20758   1.374   3.050   3.468
 6620SOL    HW120759   1.377   2.973   3.531
 6620SOL    HW220760   1.294   3.107   3.487
 6621SOL     OW20761   3.310   3.670   3.711
 6621SOL    HW120762   3.336   3.588   3.761
 6621SOL    HW220763   3.231   3.650   3.653
 6622SOL     OW20764   0.173   5.019   1.812
 6622SOL    HW120765   0.209   5.041   1.903
 6622SOL    HW220766   0.197   5.092   1.748
 6623SOL     OW20767   3.322   3.401   3.791
 6623SOL    HW120768   3.377   3.397   3.874
 6623SOL    HW220769   3.226   3.388   3.814
 6624SOL     OW20770   2.586   2.462   2.783
 6624SOL    HW120771   2.560   2.538   2.724
 6624SOL    HW220772   2.676   2.428   2.757
 6625SOL     OW20773   0.275   4.343   5.609
 6625SOL    HW120774   0.321   4.320   5.523
 6625SOL    HW220775   0.265   4.260   5.664
 6626SOL     OW20776   3.300   5.889   5.528
 6626SOL    HW120777   3.280   5.822   5.600
 6626SOL    HW220778   3.244   5.868   5.448
 6627SOL     OW20779   2.528   6.625   4.612
 6627SOL    HW120780   2.510   6.560   4.686
 6627SOL    HW220781   2.451   6.626   4.548
 6628SOL     OW20782   3.683   0.381   3.449
 6628SOL    HW120783   3.752   0.321   3.489
 6628SOL    HW220784   3.703   0.476   3.473
 6629SOL     OW20785   4.540   5.896   4.577
 6629SOL    HW120786   4.509   5.925   4.668
 6629SOL    HW220787   4.461   5.872   4.521
 6630SOL     OW20788   2.163   7.011   0.418
 6630SOL    HW120789   2.199   6.948   0.349
 6630SOL    HW220790   2.071   0.017   0.393
 6631SOL     OW20791   1.361   1.992   5.652
 6631SOL    HW120792   1.263   2.011   5.650
 6631SOL    HW220793   1.376   1.893   5.648
 6632SOL     OW20794   1.286   0.133   6.367
 6632SOL    HW120795   1.197   0.098   6.395
 6632SOL    HW220796   1.313   0.208   6.427
 6633SOL     OW20797   4.756   6.607   6.325
 6633SOL    HW120798   4.769   6.653   6.237
 6633SOL    HW220799   4.660   6.577   6.332
 6634SOL     OW20800   2.696   2.406   4.366
 6634SOL    HW120801   2.700   2.420   4.267
 6634SOL    HW220802   2.619   2.458   4.404
 6635SOL     OW20803   5.320   5.514   6.034
 6635SOL    HW120804   5.286   5.525   6.127
 6635SOL    HW220805   5.420   5.507   6.036
 6636SOL     OW20806   3.986   1.292   1.067
 6636SOL    HW120807   3.946   1.216   1.015
 6636SOL    HW220808   4.032   1.256   1.148
 6637SOL     OW20809   0.464   2.438   0.051
 6637SOL    HW120810   0.388   2.415   7.012
 6637SOL    HW220811   0.523   2.358   0.061
 6638SOL     OW20812   2.904   3.728   3.737
 6638SOL    HW120813   2.980   3.668   3.711
 6638SOL    HW220814   2.901   3.807   3.676
 6639SOL     OW20815   4.614   2.927   1.283
 6639SOL    HW120816   4.632   2.886   1.372
 6639SOL    HW220817   4.694   2.915   1.224
 6640SOL     OW20818   0.963   3.461   4.462
 6640SOL    HW120819   0.985   3.553   4.495
 6640SOL    HW220820   0.919   3.467   4.372
 6641SOL     OW20821   5.493   2.697   6.963
 6641SOL    HW120822   5.582   2.656   6.944
 6641SOL    HW220823   5.467   2.757   6.887
 6642SOL     OW20824   1.390   4.720   6.119
 6642SOL    HW120825   1.300   4.760   6.108
 6642SOL    HW220826   1.450   4.786   6.165
 6643SOL     OW20827   4.334   5.773   5.834
 6643SOL    HW120828   4.318   5.679   5.861
 6643SOL    HW220829   4.361   5.827   5.913
 6644SOL     OW20830   2.134   6.949   3.773
 6644SOL    HW120831   2.047   6.911   3.804
 6644SOL    HW220832   2.140   6.941   3.673
 6645SOL     OW20833   5.224   2.395   5.348
 6645SOL    HW120834   5.186   2.443   5.427
 6645SOL    HW220835   5.150   2.371   5.285
 6646SOL     OW20836   5.115   0.516   6.439
 6646SOL    HW120837   5.053   0.594   6.437
 6646SOL    HW220838   5.152   0.500   6.348
 6647SOL     OW20839   3.788   4.911   0.905
 6647SOL    HW120840   3.774   4.842   0.835
 6647SOL    HW220841   3.849   4.982   0.871
 6648SOL     OW20842   3.172   5.446   5.235
 6648SOL    HW120843   3.116   5.455   5.153
 6648SOL    HW220844   3.114   5.450   5.316
 6649SOL     OW20845   5.434   2.468   5.833
 6649SOL    HW120846   5.339   2.498   5.820
 6649SOL    HW220847   5.438   2.369   5.836
 6650SOL     OW20848   2.788   1.150   4.766
 6650SOL    HW120849   2.863   1.110   4.818
 6650SOL    HW220850   2.804   1.137   4.669
 6651SOL     OW20851   0.003   1.049   3.740
 6651SOL    HW120852   6.977   1.033   3.654
 6651SOL    HW220853   0.094   1.086   3.720
 6652SOL     OW20854   6.954   4.918   6.773
 6652SOL    HW120855   0.003   4.982   6.745
 6652SOL    HW220856   6.989   4.825   6.770
 6653SOL     OW20857   5.332   4.114   6.721
 6653SOL    HW120858   5.242   4.125   6.763
 6653SOL    HW220859   5.321   4.076   6.629
 6654SOL     OW20860   6.888   2.048   3.066
 6654SOL    HW120861   6.842   1.989   3.132
 6654SOL    HW220862   6.921   2.130   3.113
 6655SOL     OW20863   6.840   5.964   1.310
 6655SOL    HW120864   6.865   6.061   1.315
 6655SOL    HW220865   6.913   5.909   1.350
 6656SOL     OW20866   4.658   0.954   2.373
 6656SOL    HW120867   4.559   0.954   2.387
 6656SOL    HW220868   4.699   1.029   2.425
 6657SOL     OW20869   4.660   2.068   4.755
 6657SOL    HW120870   4.690   2.161   4.776
 6657SOL    HW220871   4.739   2.015   4.723
 6658SOL     OW20872   6.721   5.856   4.793
 6658SOL    HW120873   6.739   5.818   4.884
 6658SOL    HW220874   6.739   5.954   4.794
 6659SOL     OW20875   0.558   5.972   0.803
 6659SOL    HW120876   0.621   6.032   0.851
 6659SOL    HW220877   0.465   5.985   0.839
 6660SOL     OW20878   0.968   0.263   4.248
 6660SOL    HW120879   0.893   0.203   4.276
 6660SOL    HW220880   0.993   0.242   4.153
 6661SOL     OW20881   4.351   6.788   3.476
 6661SOL    HW120882   4.276   6.777   3.542
 6661SOL    HW220883   4.314   6.826   3.391
 6662SOL     OW20884   3.535   6.928   2.304
 6662SOL    HW120885   3.448   6.880   2.294
 6662SOL    HW220886   3.587   6.920   2.219
 6663SOL     OW20887   1.301   4.102   5.660
 6663SOL    HW120888   1.339   4.182   5.613
 6663SOL    HW220889   1.220   4.070   5.612
 6664SOL     OW20890   2.956   0.198   2.015
 6664SOL    HW120891   3.040   0.242   2.049
 6664SOL    HW220892   2.887   0.198   2.087
 6665SOL     OW20893   2.818   0.673   0.013
 6665SOL    HW120894   2.868   0.708   0.092
 6665SOL    HW220895   2.873   0.603   6.990
 6666SOL     OW20896   2.891   5.832   5.776
 6666SOL    HW120897   2.941   5.762   5.725
 6666SOL    HW220898   2.806   5.853   5.729
 6667SOL     OW20899   2.142   5.824   0.373
 6667SOL    HW120900   2.047   5.852   0.387
 6667SOL    HW220901   2.178   5.785   0.457
 6668SOL     OW20902   0.216   3.350   5.862
 6668SOL    HW120903   0.164   3.429   5.896
 6668SOL    HW220904   0.280   3.381   5.792
 6669SOL     OW20905   0.603   3.347   3.218
 6669SOL    HW120906   0.618   3.389   3.308
 6669SOL    HW220907   0.659   3.264   3.211
 6670SOL     OW20908   2.743   4.057   0.453
 6670SOL    HW120909   2.709   4.061   0.547
 6670SOL    HW220910   2.666   4.066   0.389
 6671SOL     OW20911   4.420   5.034   0.631
 6671SOL    HW120912   4.495   5.098   0.650
 6671SOL    HW220913   4.452   4.941   0.647
 6672SOL     OW20914   2.030   2.630   1.478
 6672SOL    HW120915   2.002   2.638   1.383
 6672SOL    HW220916   2.050   2.534   1.500
 6673SOL     OW20917   5.933   3.755   4.072
 6673SOL    HW120918   6.020   3.758   4.122
 6673SOL    HW220919   5.871   3.693   4.120
 6674SOL     OW20920   6.975   0.674   0.476
 6674SOL    HW120921   0.022   0.672   0.404
 6674SOL    HW220922   7.015   0.712   0.559
 6675SOL     OW20923   4.833   1.228   0.591
 6675SOL    HW120924   4.855   1.138   0.629
 6675SOL    HW220925   4.750   1.221   0.536
 6676SOL     OW20926   0.927   4.209   5.251
 6676SOL    HW120927   0.862   4.141   5.284
 6676SOL    HW220928   0.911   4.296   5.299
 6677SOL     OW20929   0.488   2.063   6.866
 6677SOL    HW120930   0.475   2.158   6.840
 6677SOL    HW220931   0.400   2.022   6.891
 6678SOL     OW20932   2.511   4.260   6.754
 6678SOL    HW120933   2.578   4.225   6.689
 6678SOL    HW220934   2.474   4.347   6.722
 6679SOL     OW20935   1.359   0.296   4.305
 6679SOL    HW120936   1.331   0.309   4.209
 6679SOL    HW220937   1.458   0.291   4.310
 6680SOL     OW20938   6.118   5.337   1.952
 6680SOL    HW120939   6.117   5.237   1.947
 6680SOL    HW220940   6.088   5.375   1.864
 6681SOL     OW20941   3.367   5.604   0.916
 6681SOL    HW120942   3.277   5.573   0.884
 6681SOL    HW220943   3.412   5.655   0.844
 6682SOL     OW20944   2.520   5.052   6.384
 6682SOL    HW120945   2.527   4.968   6.437
 6682SOL    HW220946   2.424   5.079   6.376
 6683SOL     OW20947   6.463   6.143   6.193
 6683SOL    HW120948   6.373   6.170   6.156
 6683SOL    HW220949   6.454   6.121   6.290
 6684SOL     OW20950   2.690   6.368   5.886
 6684SOL    HW120951   2.652   6.458   5.906
 6684SOL    HW220952   2.616   6.306   5.859
 6685SOL     OW20953   3.735   2.553   0.440
 6685SOL    HW120954   3.761   2.501   0.359
 6685SOL    HW220955   3.655   2.510   0.482
 6686SOL     OW20956   4.345   4.812   5.393
 6686SOL    HW120957   4.272   4.783   5.331
 6686SOL    HW220958   4.394   4.890   5.354
 6687SOL     OW20959   0.601   2.184   1.271
 6687SOL    HW120960   0.517   2.231   1.296
 6687SOL    HW220961   0.679   2.231   1.312
 6688SOL     OW20962   5.192   5.363   0.731
 6688SOL    HW120963   5.118   5.421   0.766
 6688SOL    HW220964   5.235   5.409   0.653
 6689SOL     OW20965   3.392   5.306   6.380
 6689SOL    HW120966   3.362   5.399   6.360
 6689SOL    HW220967   3.477   5.287   6.331
 6690SOL     OW20968   1.181   0.328   0.591
 6690SOL    HW120969   1.150   0.312   0.497
 6690SOL    HW220970   1.110   0.379   0.641
 6691SOL     OW20971   2.950   1.868   2.176
 6691SOL    HW120972   2.950   1.955   2.128
 6691SOL    HW220973   2.856   1.835   2.185
 6692SOL     OW20974   4.346   6.541   1.965
 6692SOL    HW120975   4.321   6.547   2.062
 6692SOL    HW220976   4.424   6.479   1.955
 6693SOL     OW20977   3.231   1.182   5.842
 6693SOL    HW120978   3.301   1.118   5.809
 6693SOL    HW220979   3.198   1.238   5.765
 6694SOL     OW20980   4.418   4.028   1.446
 6694SOL    HW120981   4.418   3.952   1.511
 6694SOL    HW220982   4.416   4.115   1.497
 6695SOL     OW20983   2.878   2.564   0.304
 6695SOL    HW120984   2.928   2.599   0.383
 6695SOL    HW220985   2.865   2.466   0.313
 6696SOL     OW20986   3.863   3.076   5.338
 6696SOL    HW120987   3.875   3.077   5.437
 6696SOL    HW220988   3.804   2.999   5.312
 6697SOL     OW20989   4.683   2.298   2.637
 6697SOL    HW120990   4.713   2.298   2.733
 6697SOL    HW220991   4.599   2.245   2.629
 6698SOL     OW20992   2.698   3.737   1.592
 6698SOL    HW120993   2.774   3.722   1.655
 6698SOL    HW220994   2.612   3.719   1.640
 6699SOL     OW20995   1.693   3.157   6.442
 6699SOL    HW120996   1.690   3.241   6.497
 6699SOL    HW220997   1.740   3.175   6.356
 6700SOL     OW20998   5.134   0.907   1.134
 6700SOL    HW120999   5.195   0.928   1.058
 6700SOL    HW221000   5.137   0.982   1.201
 6701SOL     OW21001   5.850   0.443   1.414
 6701SOL    HW121002   5.804   0.399   1.336
 6701SOL    HW221003   5.845   0.543   1.403
 6702SOL     OW21004   4.037   2.801   1.083
 6702SOL    HW121005   4.043   2.807   1.182
 6702SOL    HW221006   4.015   2.707   1.057
 6703SOL     OW21007   0.723   1.336   0.390
 6703SOL    HW121008   0.804   1.291   0.352
 6703SOL    HW221009   0.735   1.435   0.385
 6704SOL     OW21010   3.148   0.111   5.632
 6704SOL    HW121011   3.211   0.176   5.675
 6704SOL    HW221012   3.152   0.024   5.681
 6705SOL     OW21013   0.354   4.795   2.195
 6705SOL    HW121014   0.398   4.868   2.143
 6705SOL    HW221015   0.294   4.742   2.134
 6706SOL     OW21016   0.007   5.780   0.163
 6706SOL    HW121017   0.085   5.779   0.226
 6706SOL    HW221018   6.975   5.863   0.179
 6707SOL     OW21019   4.391   1.294   2.752
 6707SOL    HW121020   4.302   1.320   2.715
 6707SOL    HW221021   4.390   1.198   2.779
 6708SOL     OW21022   0.568   2.983   0.494
 6708SOL    HW121023   0.471   2.969   0.477
 6708SOL    HW221024   0.598   3.067   0.448
 6709SOL     OW21025   2.134   4.375   1.966
 6709SOL    HW121026   2.184   4.307   2.019
 6709SOL    HW221027   2.195   4.450   1.941
 6710SOL     OW21028   4.596   1.902   1.250
 6710SOL    HW121029   4.598   1.922   1.348
 6710SOL    HW221030   4.609   1.986   1.198
 6711SOL     OW21031   4.170   5.599   6.362
 6711SOL    HW121032   4.083   5.647   6.362
 6711SOL    HW221033   4.231   5.641   6.294
 6712SOL     OW21034   5.279   3.783   1.250
 6712SOL    HW121035   5.371   3.817   1.232
 6712SOL    HW221036   5.224   3.854   1.294
 6713SOL     OW21037   1.707   4.349   4.307
 6713SOL    HW121038   1.719   4.298   4.392
 6713SOL    HW221039   1.641   4.302   4.249
 6714SOL     OW21040   5.880   1.323   1.929
 6714SOL    HW121041   5.944   1.261   1.975
 6714SOL    HW221042   5.790   1.279   1.924
 6715SOL     OW21043   1.001   0.296   5.939
 6715SOL    HW121044   1.082   0.344   5.904
 6715SOL    HW221045   0.920   0.329   5.890
 6716SOL     OW21046   1.090   4.900   1.713
 6716SOL    HW121047   1.034   4.853   1.645
 6716SOL    HW221048   1.097   4.997   1.689
 6717SOL     OW21049   6.419   2.353   5.631
 6717SOL    HW121050   6.320   2.342   5.637
 6717SOL    HW221051   6.462   2.263   5.620
 6718SOL     OW21052   4.769   2.261   0.896
 6718SOL    HW121053   4.847   2.207   0.928
 6718SOL    HW221054   4.765   2.257   0.797
 6719SOL     OW21055   1.568   1.115   0.742
 6719SOL    HW121056   1.627   1.041   0.708
 6719SOL    HW221057   1.535   1.169   0.664
 6720SOL     OW21058   1.530   1.729   5.147
 6720SOL    HW121059   1.490   1.700   5.060
 6720SOL    HW221060   1.595   1.660   5.178
 6721SOL     OW21061   6.784   6.470   0.410
 6721SOL    HW121062   6.871   6.462   0.362
 6721SOL    HW221063   6.767   6.566   0.433
 6722SOL     OW21064   5.944   4.912   0.901
 6722SOL    HW121065   5.881   4.866   0.964
 6722SOL    HW221066   6.009   4.845   0.865
 6723SOL     OW21067   1.610   3.120   4.465
 6723SOL    HW121068   1.606   3.155   4.371
 6723SOL    HW221069   1.579   3.191   4.528
 6724SOL     OW21070   1.862   3.641   5.025
 6724SOL    HW121071   1.935   3.582   5.058
 6724SOL    HW221072   1.805   3.591   4.960
 6725SOL     OW21073   4.907   3.009   4.225
 6725SOL    HW121074   4.856   3.031   4.141
 6725SOL    HW221075   4.976   3.079   4.241
 6726SOL     OW21076   6.777   1.473   6.858
 6726SOL    HW121077   6.779   1.535   6.936
 6726SOL    HW221078   6.840   1.506   6.787
 6727SOL     OW21079   0.416   5.180   5.390
 6727SOL    HW121080   0.429   5.271   5.350
 6727SOL    HW221081   0.505   5.137   5.406
 6728SOL     OW21082   3.629   1.137   4.400
 6728SOL    HW121083   3.605   1.053   4.448
 6728SOL    HW221084   3.552   1.166   4.343
 6729SOL     OW21085   4.379   1.040   2.392
 6729SOL    HW121086   4.280   1.056   2.398
 6729SOL    HW221087   4.427   1.127   2.408
 6730SOL     OW21088   0.639   1.783   1.037
 6730SOL    HW121089   0.652   1.732   0.952
 6730SOL    HW221090   0.556   1.751   1.082
 6731SOL     OW21091   4.015   0.414   6.313
 6731SOL    HW121092   3.951   0.428   6.238
 6731SOL    HW221093   4.109   0.412   6.277
 6732SOL     OW21094   6.105   5.129   5.528
 6732SOL    HW121095   6.093   5.036   5.564
 6732SOL    HW221096   6.198   5.139   5.493
 6733SOL     OW21097   4.988   5.355   5.476
 6733SOL    HW121098   4.944   5.379   5.389
 6733SOL    HW221099   4.918   5.335   5.544
 6734SOL     OW21100   5.931   2.405   5.226
 6734SOL    HW121101   5.934   2.396   5.126
 6734SOL    HW221102   5.837   2.394   5.258
 6735SOL     OW21103   5.379   3.003   4.561
 6735SOL    HW121104   5.363   3.013   4.463
 6735SOL    HW221105   5.475   2.980   4.576
 6736SOL     OW21106   3.488   4.032   0.604
 6736SOL    HW121107   3.534   3.994   0.524
 6736SOL    HW221108   3.490   3.965   0.679
 6737SOL     OW21109   5.948   3.619   0.609
 6737SOL    HW121110   5.894   3.703   0.616
 6737SOL    HW221111   6.033   3.629   0.659
 6738SOL     OW21112   2.302   6.597   4.453
 6738SOL    HW121113   2.273   6.650   4.373
 6738SOL    HW221114   2.230   6.599   4.522
 6739SOL     OW21115   6.967   6.928   6.014
 6739SOL    HW121116   6.966   6.850   5.950
 6739SOL    HW221117   6.987   7.012   5.963
 6740SOL     OW21118   0.515   6.799   2.129
 6740SOL    HW121119   0.588   6.742   2.091
 6740SOL    HW221120   0.444   6.740   2.169
 6741SOL     OW21121   3.346   1.945   0.519
 6741SOL    HW121122   3.268   1.971   0.576
 6741SOL    HW221123   3.323   1.864   0.466
 6742SOL     OW21124   6.614   4.566   2.623
 6742SOL    HW121125   6.581   4.660   2.631
 6742SOL    HW221126   6.592   4.530   2.533
 6743SOL     OW21127   3.701   3.851   6.969
 6743SOL    HW121128   3.706   3.943   7.008
 6743SOL    HW221129   3.744   3.851   6.878
 6744SOL     OW21130   6.598   6.646   6.008
 6744SOL    HW121131   6.541   6.578   5.962
 6744SOL    HW221132   6.692   6.610   6.017
 6745SOL     OW21133   5.862   3.711   5.588
 6745SOL    HW121134   5.857   3.793   5.532
 6745SOL    HW221135   5.805   3.640   5.548
 6746SOL     OW21136   0.819   2.264   2.992
 6746SOL    HW121137   0.862   2.199   2.929
 6746SOL    HW221138   0.869   2.350   2.990
 6747SOL     OW21139   1.436   6.191   4.859
 6747SOL    HW121140   1.462   6.179   4.955
 6747SOL    HW221141   1.337   6.187   4.850
 6748SOL     OW21142   1.714   1.616   4.369
 6748SOL    HW121143   1.748   1.707   4.349
 6748SOL    HW221144   1.714   1.601   4.468
 6749SOL     OW21145   3.896   4.891   2.258
 6749SOL    HW121146   3.804   4.855   2.247
 6749SOL    HW221147   3.905   4.936   2.347
 6750SOL     OW21148   3.897   1.063   5.899
 6750SOL    HW121149   3.804   1.037   5.924
 6750SOL    HW221150   3.907   1.162   5.906
 6751SOL     OW21151   4.451   1.013   4.457
 6751SOL    HW121152   4.397   1.061   4.388
 6751SOL    HW221153   4.402   1.014   4.544
 6752SOL     OW21154   2.056   4.807   2.814
 6752SOL    HW121155   2.081   4.815   2.910
 6752SOL    HW221156   1.957   4.797   2.807
 6753SOL     OW21157   3.198   4.076   0.546
 6753SOL    HW121158   3.163   4.068   0.639
 6753SOL    HW221159   3.287   4.031   0.540
 6754SOL     OW21160   6.133   1.327   0.531
 6754SOL    HW121161   6.198   1.351   0.459
 6754SOL    HW221162   6.048   1.295   0.489
 6755SOL     OW21163   3.672   5.975   5.571
 6755SOL    HW121164   3.646   6.003   5.664
 6755SOL    HW221165   3.620   6.029   5.505
 6756SOL     OW21166   4.111   3.115   6.004
 6756SOL    HW121167   4.077   3.071   6.087
 6756SOL    HW221168   4.099   3.214   6.011
 6757SOL     OW21169   4.552   6.977   1.783
 6757SOL    HW121170   4.473   6.929   1.822
 6757SOL    HW221171   4.524   0.003   1.700
 6758SOL     OW21172   5.179   3.510   3.250
 6758SOL    HW121173   5.186   3.411   3.255
 6758SOL    HW221174   5.149   3.536   3.158
 6759SOL     OW21175   1.618   1.628   2.444
 6759SOL    HW121176   1.578   1.619   2.353
 6759SOL    HW221177   1.559   1.685   2.501
 6760SOL     OW21178   5.726   2.270   5.591
 6760SOL    HW121179   5.651   2.231   5.536
 6760SOL    HW221180   5.767   2.199   5.648
 6761SOL     OW21181   2.942   0.685   5.029
 6761SOL    HW121182   3.006   0.719   4.959
 6761SOL    HW221183   2.906   0.762   5.081
 6762SOL     OW21184   5.917   4.948   4.202
 6762SOL    HW121185   5.921   4.862   4.150
 6762SOL    HW221186   6.010   4.976   4.227
 6763SOL     OW21187   5.805   6.796   4.240
 6763SOL    HW121188   5.841   6.704   4.220
 6763SOL    HW221189   5.855   6.863   4.185
 6764SOL     OW21190   0.524   4.964   1.537
 6764SOL    HW121191   0.550   5.044   1.590
 6764SOL    HW221192   0.479   4.897   1.596
 6765SOL     OW21193   0.211   4.229   2.392
 6765SOL    HW121194   0.143   4.240   2.320
 6765SOL    HW221195   0.228   4.318   2.436
 6766SOL     OW21196   5.960   0.474   0.922
 6766SOL    HW121197   5.879   0.415   0.931
 6766SOL    HW221198   5.964   0.537   1.000
 6767SOL     OW21199   3.282   0.680   1.357
 6767SOL    HW121200   3.193   0.726   1.358
 6767SOL    HW221201   3.269   0.581   1.362
 6768SOL     OW21202   2.015   6.829   6.883
 6768SOL    HW121203   1.972   6.784   6.962
 6768SOL    HW221204   2.059   6.914   6.913
 6769SOL     OW21205   5.085   3.170   1.172
 6769SOL    HW121206   5.018   3.153   1.101
 6769SOL    HW221207   5.038   3.191   1.258
 6770SOL     OW21208   0.166   1.369   1.853
 6770SOL    HW121209   0.241   1.353   1.917
 6770SOL    HW221210   0.079   1.350   1.899
 6771SOL     OW21211   5.110   1.849   3.350
 6771SOL    HW121212   5.135   1.931   3.298
 6771SOL    HW221213   5.071   1.876   3.439
 6772SOL     OW21214   3.324   1.830   4.603
 6772SOL    HW121215   3.289   1.756   4.546
 6772SOL    HW221216   3.270   1.836   4.687
 6773SOL     OW21217   0.471   3.951   1.422
 6773SOL    HW121218   0.446   4.048   1.417
 6773SOL    HW221219   0.567   3.941   1.396
 6774SOL     OW21220   1.028   2.125   6.448
 6774SOL    HW121221   0.943   2.105   6.399
 6774SOL    HW221222   1.018   2.098   6.544
 6775SOL     OW21223   0.723   3.739   6.836
 6775SOL    HW121224   0.702   3.770   6.928
 6775SOL    HW221225   0.818   3.706   6.832
 6776SOL     OW21226   5.911   6.001   6.679
 6776SOL    HW121227   5.893   5.958   6.768
 6776SOL    HW221228   5.911   6.100   6.689
 6777SOL     OW21229   4.762   4.984   6.669
 6777SOL    HW121230   4.848   4.983   6.618
 6777SOL    HW221231   4.778   5.019   6.761
 6778SOL     OW21232   6.350   5.803   3.525
 6778SOL    HW121233   6.372   5.820   3.429
 6778SOL    HW221234   6.284   5.728   3.532
 6779SOL     OW21235   5.922   3.745   6.216
 6779SOL    HW121236   5.930   3.656   6.170
 6779SOL    HW221237   5.894   3.730   6.311
 6780SOL     OW21238   0.538   3.383   1.392
 6780SOL    HW121239   0.551   3.306   1.455
 6780SOL    HW221240   0.626   3.408   1.352
 6781SOL     OW21241   5.674   5.117   5.512
 6781SOL    HW121242   5.589   5.165   5.488
 6781SOL    HW221243   5.751   5.181   5.505
 6782SOL     OW21244   5.260   1.035   3.288
 6782SOL    HW121245   5.230   0.954   3.339
 6782SOL    HW221246   5.276   1.110   3.352
 6783SOL     OW21247   1.271   5.845   6.593
 6783SOL    HW121248   1.206   5.847   6.669
 6783SOL    HW221249   1.223   5.865   6.507
 6784SOL     OW21250   3.999   3.336   6.996
 6784SOL    HW121251   3.932   3.301   0.039
 6784SOL    HW221252   3.979   3.299   6.905
 6785SOL     OW21253   6.029   5.308   2.256
 6785SOL    HW121254   6.097   5.317   2.328
 6785SOL    HW221255   6.056   5.362   2.176
 6786SOL     OW21256   1.580   3.467   5.643
 6786SOL    HW121257   1.539   3.558   5.635
 6786SOL    HW221258   1.679   3.475   5.630
 6787SOL     OW21259   1.188   4.028   1.225
 6787SOL    HW121260   1.274   3.994   1.188
 6787SOL    HW221261   1.114   4.004   1.162
 6788SOL     OW21262   2.476   3.897   1.054
 6788SOL    HW121263   2.458   3.990   1.022
 6788SOL    HW221264   2.570   3.872   1.032
 6789SOL     OW21265   1.189   5.190   3.463
 6789SOL    HW121266   1.250   5.243   3.522
 6789SOL    HW221267   1.137   5.125   3.518
 6790SOL     OW21268   1.274   2.418   1.026
 6790SOL    HW121269   1.320   2.486   0.969
 6790SOL    HW221270   1.332   2.338   1.036
 6791SOL     OW21271   3.365   4.060   6.242
 6791SOL    HW121272   3.346   4.088   6.337
 6791SOL    HW221273   3.435   3.989   6.241
 6792SOL     OW21274   0.505   4.961   0.307
 6792SOL    HW121275   0.474   4.912   0.389
 6792SOL    HW221276   0.433   5.023   0.276
 6793SOL     OW21277   5.948   1.353   1.397
 6793SOL    HW121278   5.888   1.329   1.473
 6793SOL    HW221279   5.901   1.334   1.311
 6794SOL     OW21280   4.079   1.319   4.348
 6794SOL    HW121281   4.024   1.248   4.305
 6794SOL    HW221282   4.038   1.344   4.436
 6795SOL     OW21283   3.455   6.294   0.111
 6795SOL    HW121284   3.543   6.257   0.140
 6795SOL    HW221285   3.465   6.338   0.021
 6796SOL     OW21286   4.103   1.853   2.695
 6796SOL    HW121287   4.195   1.867   2.733
 6796SOL    HW221288   4.069   1.939   2.658
 6797SOL     OW21289   6.807   2.050   2.115
 6797SOL    HW121290   6.814   1.962   2.067
 6797SOL    HW221291   6.739   2.107   2.069
 6798SOL     OW21292   6.864   0.217   2.344
 6798SOL    HW121293   6.833   0.296   2.397
 6798SOL    HW221294   6.963   0.211   2.346
 6799SOL     OW21295   5.285   6.033   1.733
 6799SOL    HW121296   5.255   6.005   1.824
 6799SOL    HW221297   5.251   6.125   1.713
 6800SOL     OW21298   3.552   3.972   6.656
 6800SOL    HW121299   3.508   3.978   6.746
 6800SOL    HW221300   3.648   4.000   6.665
 6801SOL     OW21301   0.921   2.944   2.719
 6801SOL    HW121302   0.932   2.970   2.815
 6801SOL    HW221303   1.011   2.933   2.677
 6802SOL     OW21304   2.708   4.664   2.481
 6802SOL    HW121305   2.709   4.674   2.382
 6802SOL    HW221306   2.651   4.586   2.507
 6803SOL     OW21307   3.420   2.565   0.805
 6803SOL    HW121308   3.376   2.652   0.828
 6803SOL    HW221309   3.434   2.559   0.706
 6804SOL     OW21310   1.257   6.752   3.681
 6804SOL    HW121311   1.216   6.729   3.769
 6804SOL    HW221312   1.202   6.821   3.635
 6805SOL     OW21313   5.929   1.208   5.481
 6805SOL    HW121314   5.891   1.293   5.516
 6805SOL    HW221315   5.858   1.156   5.433
 6806SOL     OW21316   5.527   6.866   5.065
 6806SOL    HW121317   5.455   6.895   5.129
 6806SOL    HW221318   5.587   6.800   5.109
 6807SOL     OW21319   3.060   3.617   6.718
 6807SOL    HW121320   3.090   3.710   6.696
 6807SOL    HW221321   2.961   3.611   6.706
 6808SOL     OW21322   2.140   3.528   3.948
 6808SOL    HW121323   2.164   3.559   4.040
 6808SOL    HW221324   2.151   3.429   3.943
 6809SOL     OW21325   1.465   3.712   0.149
 6809SOL    HW121326   1.487   3.726   0.052
 6809SOL    HW221327   1.392   3.774   0.176
 6810SOL     OW21328   5.595   1.425   3.440
 6810SOL    HW121329   5.575   1.509   3.390
 6810SOL    HW221330   5.690   1.427   3.471
 6811SOL     OW21331   4.930   6.012   1.734
 6811SOL    HW121332   4.978   6.078   1.675
 6811SOL    HW221333   4.833   6.034   1.737
 6812SOL     OW21334   3.667   3.231   2.562
 6812SOL    HW121335   3.715   3.160   2.614
 6812SOL    HW221336   3.580   3.195   2.529
 6813SOL     OW21337   5.194   3.439   1.148
 6813SOL    HW121338   5.281   3.447   1.099
 6813SOL    HW221339   5.169   3.343   1.157
 6814SOL     OW21340   2.600   3.203   0.548
 6814SOL    HW121341   2.667   3.251   0.491
 6814SOL    HW221342   2.631   3.203   0.643
 6815SOL     OW21343   1.425   0.308   1.149
 6815SOL    HW121344   1.468   0.398   1.159
 6815SOL    HW221345   1.326   0.317   1.166
 6816SOL     OW21346   6.330   4.352   1.138
 6816SOL    HW121347   6.345   4.390   1.047
 6816SOL    HW221348   6.331   4.252   1.133
 6817SOL     OW21349   0.593   2.486   6.293
 6817SOL    HW121350   0.493   2.487   6.286
 6817SOL    HW221351   0.631   2.440   6.213
 6818SOL     OW21352   4.044   5.196   1.088
 6818SOL    HW121353   3.975   5.128   1.063
 6818SOL    HW221354   4.006   5.288   1.073
 6819SOL     OW21355   2.966   1.659   3.996
 6819SOL    HW121356   2.896   1.617   3.939
 6819SOL    HW221357   2.981   1.754   3.966
 6820SOL     OW21358   1.935   5.344   4.503
 6820SOL    HW121359   1.952   5.330   4.600
 6820SOL    HW221360   1.975   5.269   4.450
 6821SOL     OW21361   2.300   2.806   4.249
 6821SOL    HW121362   2.313   2.822   4.347
 6821SOL    HW221363   2.382   2.763   4.211
 6822SOL     OW21364   4.778   1.897   6.248
 6822SOL    HW121365   4.717   1.832   6.203
 6822SOL    HW221366   4.809   1.965   6.182
 6823SOL     OW21367   3.939   3.412   2.076
 6823SOL    HW121368   3.986   3.497   2.100
 6823SOL    HW221369   3.844   3.417   2.107
 6824SOL     OW21370   1.060   5.074   5.543
 6824SOL    HW121371   1.090   5.100   5.451
 6824SOL    HW221372   1.086   4.980   5.562
 6825SOL     OW21373   5.768   0.233   3.650
 6825SOL    HW121374   5.766   0.252   3.552
 6825SOL    HW221375   5.679   0.195   3.678
 6826SOL     OW21376   1.040   3.098   2.925
 6826SOL    HW121377   1.039   3.103   3.025
 6826SOL    HW221378   1.125   3.054   2.895
 6827SOL     OW21379   5.561   5.773   5.145
 6827SOL    HW121380   5.629   5.715   5.190
 6827SOL    HW221381   5.473   5.763   5.190
 6828SOL     OW21382   2.156   1.778   1.370
 6828SOL    HW121383   2.061   1.809   1.372
 6828SOL    HW221384   2.179   1.736   1.457
 6829SOL     OW21385   5.794   4.884   3.859
 6829SOL    HW121386   5.852   4.827   3.918
 6829SOL    HW221387   5.793   4.846   3.767
 6830SOL     OW21388   4.858   2.062   4.045
 6830SOL    HW121389   4.818   2.116   4.119
 6830SOL    HW221390   4.856   1.965   4.069
 6831SOL     OW21391   0.011   1.380   6.079
 6831SOL    HW121392   7.002   1.365   5.986
 6831SOL    HW221393   6.962   1.353   6.144
 6832SOL     OW21394   3.212   5.202   1.583
 6832SOL    HW121395   3.151   5.154   1.646
 6832SOL    HW221396   3.158   5.243   1.509
 6833SOL     OW21397   4.415   5.727   6.806
 6833SOL    HW121398   4.361   5.690   6.731
 6833SOL    HW221399   4.371   5.703   6.893
 6834SOL     OW21400   3.472   5.484   2.362
 6834SOL    HW121401   3.421   5.569   2.356
 6834SOL    HW221402   3.537   5.478   2.286
 6835SOL     OW21403   4.255   0.006   4.634
 6835SOL    HW121404   4.326   6.959   4.632
 6835SOL    HW221405   4.296   0.094   4.660
 6836SOL     OW21406   3.879   5.745   6.951
 6836SOL    HW121407   3.825   5.711   6.874
 6836SOL    HW221408   3.848   5.703   0.013
 6837SOL     OW21409   0.232   3.166   3.001
 6837SOL    HW121410   0.203   3.256   2.968
 6837SOL    HW221411   0.174   3.096   2.960
 6838SOL     OW21412   2.529   1.417   1.299
 6838SOL    HW121413   2.467   1.496   1.289
 6838SOL    HW221414   2.590   1.412   1.220
 6839SOL     OW21415   4.509   0.748   1.887
 6839SOL    HW121416   4.509   0.763   1.986
 6839SOL    HW221417   4.463   0.662   1.866
 6840SOL     OW21418   1.024   1.079   6.729
 6840SOL    HW121419   0.987   1.028   6.650
 6840SOL    HW221420   1.094   1.142   6.697
 6841SOL     OW21421   0.336   2.923   5.443
 6841SOL    HW121422   0.245   2.930   5.404
 6841SOL    HW221423   0.330   2.897   5.539
 6842SOL     OW21424   2.512   4.477   2.521
 6842SOL    HW121425   2.509   4.393   2.576
 6842SOL    HW221426   2.477   4.458   2.429
 6843SOL     OW21427   4.617   0.078   0.871
 6843SOL    HW121428   4.520   0.086   0.851
 6843SOL    HW221429   4.630   0.049   0.966
 6844SOL     OW21430   5.541   0.545   5.630
 6844SOL    HW121431   5.483   0.516   5.707
 6844SOL    HW221432   5.528   0.483   5.553
 6845SOL     OW21433   5.276   2.098   2.619
 6845SOL    HW121434   5.339   2.161   2.575
 6845SOL    HW221435   5.231   2.042   2.549
 6846SOL     OW21436   2.026   3.442   0.340
 6846SOL    HW121437   2.098   3.423   0.274
 6846SOL    HW221438   2.060   3.421   0.432
 6847SOL     OW21439   6.661   2.326   4.658
 6847SOL    HW121440   6.646   2.350   4.754
 6847SOL    HW221441   6.580   2.278   4.623
 6848SOL     OW21442   0.076   4.974   3.574
 6848SOL    HW121443   0.056   4.903   3.641
 6848SOL    HW221444   0.045   5.062   3.609
 6849SOL     OW21445   2.702   4.589   5.992
 6849SOL    HW121446   2.671   4.568   5.900
 6849SOL    HW221447   2.778   4.654   5.988
 6850SOL     OW21448   4.940   0.188   4.063
 6850SOL    HW121449   5.027   0.174   4.014
 6850SOL    HW221450   4.948   0.268   4.121
 6851SOL     OW21451   1.842   3.981   2.957
 6851SOL    HW121452   1.895   4.066   2.948
 6851SOL    HW221453   1.761   3.987   2.899
 6852SOL     OW21454   4.404   3.798   0.367
 6852SOL    HW121455   4.403   3.864   0.292
 6852SOL    HW221456   4.314   3.798   0.413
 6853SOL     OW21457   3.751   4.795   6.288
 6853SOL    HW121458   3.742   4.810   6.190
 6853SOL    HW221459   3.661   4.773   6.326
 6854SOL     OW21460   4.993   5.952   5.755
 6854SOL    HW121461   5.084   5.989   5.772
 6854SOL    HW221462   5.000   5.870   5.699
 6855SOL     OW21463   4.094   5.018   2.853
 6855SOL    HW121464   4.141   5.050   2.935
 6855SOL    HW221465   4.155   4.960   2.799
 6856SOL     OW21466   6.710   2.943   0.303
 6856SOL    HW121467   6.804   2.921   0.279
 6856SOL    HW221468   6.648   2.890   0.244
 6857SOL     OW21469   1.192   4.309   5.831
 6857SOL    HW121470   1.238   4.349   5.910
 6857SOL    HW221471   1.245   4.232   5.797
 6858SOL     OW21472   1.477   3.613   1.632
 6858SOL    HW121473   1.380   3.586   1.628
 6858SOL    HW221474   1.514   3.588   1.722
 6859SOL     OW21475   2.042   1.975   1.059
 6859SOL    HW121476   1.989   1.933   1.133
 6859SOL    HW221477   1.982   2.035   1.006
 6860SOL     OW21478   0.260   6.427   0.223
 6860SOL    HW121479   0.265   6.341   0.273
 6860SOL    HW221480   0.235   6.411   0.128
 6861SOL     OW21481   6.198   3.384   6.711
 6861SOL    HW121482   6.141   3.432   6.644
 6861SOL    HW221483   6.191   3.285   6.695
 6862SOL     OW21484   0.585   4.525   3.885
 6862SOL    HW121485   0.620   4.613   3.853
 6862SOL    HW221486   0.638   4.495   3.964
 6863SOL     OW21487   5.070   1.624   4.821
 6863SOL    HW121488   5.003   1.555   4.849
 6863SOL    HW221489   5.155   1.578   4.795
 6864SOL     OW21490   1.894   3.565   6.619
 6864SOL    HW121491   1.973   3.563   6.558
 6864SOL    HW221492   1.911   3.504   6.697
 6865SOL     OW21493   2.146   0.058   4.420
 6865SOL    HW121494   2.060   0.056   4.471
 6865SOL    HW221495   2.148   7.005   4.355
 6866SOL     OW21496   1.983   4.762   0.083
 6866SOL    HW121497   1.961   4.739   0.178
 6866SOL    HW221498   1.911   4.730   0.023
 6867SOL     OW21499   1.908   2.277   6.373
 6867SOL    HW121500   1.909   2.298   6.275
 6867SOL    HW221501   1.878   2.358   6.424
 6868SOL     OW21502   3.479   5.085   3.117
 6868SOL    HW121503   3.532   5.167   3.096
 6868SOL    HW221504   3.466   5.078   3.216
 6869SOL     OW21505   1.424   0.882   5.832
 6869SOL    HW121506   1.486   0.804   5.843
 6869SOL    HW221507   1.464   0.963   5.873
 6870SOL     OW21508   5.860   2.417   6.428
 6870SOL    HW121509   5.792   2.446   6.362
 6870SOL    HW221510   5.859   2.317   6.436
 6871SOL     OW21511   6.622   2.496   2.487
 6871SOL    HW121512   6.535   2.448   2.504
 6871SOL    HW221513   6.660   2.526   2.575
 6872SOL     OW21514   1.416   3.855   1.211
 6872SOL    HW121515   1.425   3.770   1.264
 6872SOL    HW221516   1.496   3.866   1.152
 6873SOL     OW21517   0.479   4.436   2.732
 6873SOL    HW121518   0.576   4.421   2.712
 6873SOL    HW221519   0.470   4.482   2.820
 6874SOL     OW21520   4.619   6.498   2.328
 6874SOL    HW121521   4.535   6.510   2.275
 6874SOL    HW221522   4.610   6.544   2.416
 6875SOL     OW21523   2.593   1.038   0.151
 6875SOL    HW121524   2.542   0.953   0.164
 6875SOL    HW221525   2.553   1.109   0.209
 6876SOL     OW21526   5.506   5.345   3.087
 6876SOL    HW121527   5.574   5.360   3.158
 6876SOL    HW221528   5.447   5.269   3.113
 6877SOL     OW21529   0.688   4.630   1.253
 6877SOL    HW121530   0.780   4.633   1.292
 6877SOL    HW221531   0.620   4.635   1.326
 6878SOL     OW21532   2.316   0.645   4.768
 6878SOL    HW121533   2.358   0.598   4.691
 6878SOL    HW221534   2.221   0.616   4.778
 6879SOL     OW21535   1.355   1.732   1.535
 6879SOL    HW121536   1.378   1.770   1.445
 6879SOL    HW221537   1.328   1.636   1.524
 6880SOL     OW21538   2.141   6.424   0.613
 6880SOL    HW121539   2.070   6.426   0.683
 6880SOL    HW221540   2.103   6.386   0.528
 6881SOL     OW21541   0.067   3.577   0.441
 6881SOL    HW121542   0.016   3.493   0.423
 6881SOL    HW221543   0.151   3.577   0.387
 6882SOL     OW21544   3.030   6.774   0.212
 6882SOL    HW121545   3.042   6.747   0.308
 6882SOL    HW221546   2.964   6.713   0.168
 6883SOL     OW21547   5.182   0.436   1.085
 6883SOL    HW121548   5.194   0.512   1.149
 6883SOL    HW221549   5.095   0.445   1.037
 6884SOL     OW21550   1.988   4.916   3.954
 6884SOL    HW121551   1.900   4.894   3.912
 6884SOL    HW221552   2.049   4.954   3.884
 6885SOL     OW21553   5.609   5.002   4.591
 6885SOL    HW121554   5.665   4.948   4.528
 6885SOL    HW221555   5.523   4.953   4.609
 6886SOL     OW21556   5.309   3.202   0.111
 6886SOL    HW121557   5.274   3.287   0.072
 6886SOL    HW221558   5.275   3.124   0.060
 6887SOL     OW21559   5.562   6.351   5.466
 6887SOL    HW121560   5.658   6.367   5.491
 6887SOL    HW221561   5.508   6.336   5.548
 6888SOL     OW21562   6.644   4.041   6.944
 6888SOL    HW121563   6.593   4.127   6.955
 6888SOL    HW221564   6.621   3.979   7.018
 6889SOL     OW21565   6.949   2.191   5.455
 6889SOL    HW121566   6.914   2.166   5.364
 6889SOL    HW221567   6.932   2.115   5.519
 6890SOL     OW21568   4.840   4.630   4.258
 6890SOL    HW121569   4.762   4.568   4.268
 6890SOL    HW221570   4.823   4.692   4.181
 6891SOL     OW21571   1.800   1.671   0.946
 6891SOL    HW121572   1.831   1.635   1.034
 6891SOL    HW221573   1.862   1.640   0.874
 6892SOL     OW21574   2.471   0.654   5.153
 6892SOL    HW121575   2.529   0.726   5.189
 6892SOL    HW221576   2.380   0.692   5.132
 6893SOL     OW21577   6.343   2.729   0.322
 6893SOL    HW121578   6.353   2.650   0.383
 6893SOL    HW221579   6.319   2.810   0.377
 6894SOL     OW21580   5.627   4.860   0.309
 6894SOL    HW121581   5.617   4.763   0.329
 6894SOL    HW221582   5.537   4.899   0.288
 6895SOL     OW21583   0.840   5.386   2.238
 6895SOL    HW121584   0.755   5.433   2.259
 6895SOL    HW221585   0.913   5.454   2.224
 6896SOL     OW21586   5.532   1.180   6.134
 6896SOL    HW121587   5.597   1.141   6.198
 6896SOL    HW221588   5.558   1.157   6.041
 6897SOL     OW21589   4.287   2.726   5.316
 6897SOL    HW121590   4.243   2.650   5.269
 6897SOL    HW221591   4.221   2.799   5.330
 6898SOL     OW21592   1.742   6.720   1.283
 6898SOL    HW121593   1.719   6.654   1.212
 6898SOL    HW221594   1.822   6.773   1.256
 6899SOL     OW21595   5.145   5.721   2.256
 6899SOL    HW121596   5.121   5.680   2.168
 6899SOL    HW221597   5.064   5.727   2.313
 6900SOL     OW21598   6.728   3.886   4.442
 6900SOL    HW121599   6.632   3.893   4.467
 6900SOL    HW221600   6.759   3.973   4.403
 6901SOL     OW21601   5.052   5.024   5.788
 6901SOL    HW121602   5.145   5.061   5.777
 6901SOL    HW221603   5.001   5.039   5.703
 6902SOL     OW21604   0.268   5.602   5.851
 6902SOL    HW121605   0.185   5.600   5.908
 6902SOL    HW221606   0.277   5.693   5.809
 6903SOL     OW21607   1.899   6.227   5.378
 6903SOL    HW121608   1.969   6.161   5.405
 6903SOL    HW221609   1.817   6.177   5.348
 6904SOL     OW21610   0.491   0.279   5.372
 6904SOL    HW121611   0.498   0.371   5.334
 6904SOL    HW221612   0.580   0.252   5.409
 6905SOL     OW21613   4.682   6.192   5.437
 6905SOL    HW121614   4.781   6.205   5.436
 6905SOL    HW221615   4.647   6.190   5.344
 6906SOL     OW21616   2.919   1.100   3.452
 6906SOL    HW121617   2.956   1.043   3.525
 6906SOL    HW221618   2.832   1.062   3.421
 6907SOL     OW21619   5.854   2.220   0.856
 6907SOL    HW121620   5.790   2.258   0.789
 6907SOL    HW221621   5.946   2.257   0.839
 6908SOL     OW21622   3.766   5.862   0.420
 6908SOL    HW121623   3.853   5.845   0.466
 6908SOL    HW221624   3.781   5.868   0.321
 6909SOL     OW21625   5.832   4.046   1.659
 6909SOL    HW121626   5.796   4.129   1.616
 6909SOL    HW221627   5.857   4.066   1.754
 6910SOL     OW21628   0.627   2.767   2.233
 6910SOL    HW121629   0.703   2.824   2.203
 6910SOL    HW221630   0.557   2.765   2.163
 6911SOL     OW21631   2.779   6.615   5.504
 6911SOL    HW121632   2.836   6.537   5.478
 6911SOL    HW221633   2.825   6.700   5.478
 6912SOL     OW21634   3.300   4.242   0.080
 6912SOL    HW121635   3.335   4.260   7.011
 6912SOL    HW221636   3.329   4.150   0.108
 6913SOL     OW21637   3.930   5.993   5.854
 6913SOL    HW121638   3.950   5.995   5.952
 6913SOL    HW221639   4.013   5.971   5.803
 6914SOL     OW21640   6.659   2.204   3.040
 6914SOL    HW121641   6.739   2.146   3.024
 6914SOL    HW221642   6.689   2.297   3.062
 6915SOL     OW21643   6.929   3.575   3.734
 6915SOL    HW121644   6.849   3.532   3.775
 6915SOL    HW221645   7.007   3.569   3.798
 6916SOL     OW21646   4.489   6.263   5.632
 6916SOL    HW121647   4.573   6.257   5.577
 6916SOL    HW221648   4.425   6.193   5.601
 6917SOL     OW21649   3.816   6.336   1.854
 6917SOL    HW121650   3.882   6.317   1.927
 6917SOL    HW221651   3.753   6.408   1.884
 6918SOL     OW21652   1.617   3.596   0.332
 6918SOL    HW121653   1.563   3.637   0.259
 6918SOL    HW221654   1.713   3.620   0.321
 6919SOL     OW21655   6.446   5.839   3.271
 6919SOL    HW121656   6.536   5.803   3.297
 6919SOL    HW221657   6.440   5.936   3.297
 6920SOL     OW21658   6.939   2.505   5.475
 6920SOL    HW121659   6.905   2.414   5.450
 6920SOL    HW221660   6.864   2.558   5.515
 6921SOL     OW21661   3.180   0.302   4.488
 6921SOL    HW121662   3.192   0.291   4.389
 6921SOL    HW221663   3.132   0.222   4.525
 6922SOL     OW21664   2.842   5.201   6.476
 6922SOL    HW121665   2.804   5.184   6.385
 6922SOL    HW221666   2.779   5.166   6.546
 6923SOL     OW21667   5.088   6.965   3.105
 6923SOL    HW121668   5.141   0.020   3.071
 6923SOL    HW221669   5.060   6.908   3.027
 6924SOL     OW21670   3.435   5.250   1.714
 6924SOL    HW121671   3.354   5.213   1.670
 6924SOL    HW221672   3.480   5.179   1.768
 6925SOL     OW21673   6.093   6.661   4.821
 6925SOL    HW121674   6.114   6.591   4.753
 6925SOL    HW221675   6.082   6.618   4.911
 6926SOL     OW21676   2.905   2.028   0.517
 6926SOL    HW121677   2.827   2.087   0.500
 6926SOL    HW221678   2.932   1.983   0.431
 6927SOL     OW21679   3.521   0.463   6.426
 6927SOL    HW121680   3.578   0.544   6.440
 6927SOL    HW221681   3.462   0.448   6.505
 6928SOL     OW21682   3.371   6.063   0.245
 6928SOL    HW121683   3.367   6.157   0.212
 6928SOL    HW221684   3.366   6.063   0.345
 6929SOL     OW21685   4.738   5.205   2.908
 6929SOL    HW121686   4.749   5.303   2.923
 6929SOL    HW221687   4.685   5.166   2.983
 6930SOL     OW21688   0.977   6.359   1.938
 6930SOL    HW121689   1.057   6.373   1.996
 6930SOL    HW221690   0.967   6.437   1.876
 6931SOL     OW21691   3.196   3.187   0.985
 6931SOL    HW121692   3.285   3.141   0.984
 6931SOL    HW221693   3.126   3.124   1.020
 6932SOL     OW21694   4.380   0.393   6.610
 6932SOL    HW121695   4.360   0.308   6.560
 6932SOL    HW221696   4.312   0.405   6.682
 6933SOL     OW21697   2.917   6.244   5.812
 6933SOL    HW121698   2.852   6.306   5.856
 6933SOL    HW221699   2.918   6.260   5.714
 6934SOL     OW21700   5.287   5.185   0.025
 6934SOL    HW121701   5.335   5.168   6.961
 6934SOL    HW221702   5.348   5.232   0.089
 6935SOL     OW21703   4.195   5.908   1.841
 6935SOL    HW121704   4.166   5.993   1.797
 6935SOL    HW221705   4.184   5.832   1.777
 6936SOL     OW21706   0.706   1.663   6.908
 6936SOL    HW121707   0.775   1.675   6.979
 6936SOL    HW221708   0.683   1.752   6.868
 6937SOL     OW21709   5.831   4.915   0.477
 6937SOL    HW121710   5.742   4.904   0.433
 6937SOL    HW221711   5.818   4.962   0.565
 6938SOL     OW21712   3.666   0.732   4.811
 6938SOL    HW121713   3.661   0.803   4.740
 6938SOL    HW221714   3.750   0.680   4.801
 6939SOL     OW21715   5.559   2.864   3.616
 6939SOL    HW121716   5.538   2.831   3.524
 6939SOL    HW221717   5.501   2.816   3.682
 6940SOL     OW21718   2.460   6.287   1.329
 6940SOL    HW121719   2.435   6.201   1.375
 6940SOL    HW221720   2.556   6.283   1.303
 6941SOL     OW21721   3.741   2.987   2.674
 6941SOL    HW121722   3.682   2.950   2.746
 6941SOL    HW221723   3.727   2.935   2.590
 6942SOL     OW21724   6.599   4.747   3.220
 6942SOL    HW121725   6.655   4.793   3.288
 6942SOL    HW221726   6.641   4.659   3.197
 6943SOL     OW21727   3.780   5.112   5.755
 6943SOL    HW121728   3.802   5.027   5.707
 6943SOL    HW221729   3.838   5.185   5.721
 6944SOL     OW21730   0.312   5.022   4.965
 6944SOL    HW121731   0.361   4.971   4.894
 6944SOL    HW221732   0.358   5.109   4.981
 6945SOL     OW21733   4.514   1.659   0.554
 6945SOL    HW121734   4.535   1.639   0.650
 6945SOL    HW221735   4.597   1.651   0.499
 6946SOL     OW21736   5.696   5.888   2.430
 6946SOL    HW121737   5.612   5.835   2.447
 6946SOL    HW221738   5.682   5.948   2.352
 6947SOL     OW21739   6.086   4.114   5.279
 6947SOL    HW121740   6.182   4.125   5.250
 6947SOL    HW221741   6.073   4.160   5.366
 6948SOL     OW21742   6.983   4.178   6.773
 6948SOL    HW121743   0.053   4.194   6.741
 6948SOL    HW221744   6.985   4.122   6.856
 6949SOL     OW21745   3.137   1.206   2.946
 6949SOL    HW121746   3.062   1.260   2.909
 6949SOL    HW221747   3.211   1.201   2.879
 6950SOL     OW21748   1.877   1.019   3.934
 6950SOL    HW121749   1.785   1.046   3.907
 6950SOL    HW221750   1.940   1.097   3.921
 6951SOL     OW21751   1.255   3.685   6.853
 6951SOL    HW121752   1.262   3.725   6.762
 6951SOL    HW221753   1.262   3.757   6.922
 6952SOL     OW21754   4.123   5.703   3.266
 6952SOL    HW121755   4.135   5.697   3.167
 6952SOL    HW221756   4.028   5.726   3.287
 6953SOL     OW21757   0.249   1.004   1.966
 6953SOL    HW121758   0.345   1.017   1.942
 6953SOL    HW221759   0.206   0.945   1.897
 6954SOL     OW21760   6.474   4.545   5.993
 6954SOL    HW121761   6.525   4.474   5.945
 6954SOL    HW221762   6.533   4.590   6.060
 6955SOL     OW21763   4.371   5.730   2.623
 6955SOL    HW121764   4.299   5.782   2.669
 6955SOL    HW221765   4.346   5.716   2.527
 6956SOL     OW21766   5.429   4.964   1.591
 6956SOL    HW121767   5.403   4.949   1.496
 6956SOL    HW221768   5.528   4.970   1.598
 6957SOL     OW21769   6.030   4.433   5.104
 6957SOL    HW121770   5.997   4.339   5.087
 6957SOL    HW221771   6.092   4.433   5.182
 6958SOL     OW21772   3.405   3.601   2.186
 6958SOL    HW121773   3.503   3.578   2.182
 6958SOL    HW221774   3.386   3.649   2.271
 6959SOL     OW21775   1.200   4.580   2.523
 6959SOL    HW121776   1.271   4.649   2.506
 6959SOL    HW221777   1.221   4.530   2.607
 6960SOL     OW21778   4.952   4.785   1.568
 6960SOL    HW121779   4.958   4.687   1.545
 6960SOL    HW221780   4.937   4.837   1.484
 6961SOL     OW21781   5.388   2.503   4.875
 6961SOL    HW121782   5.340   2.536   4.956
 6961SOL    HW221783   5.434   2.579   4.829
 6962SOL     OW21784   2.539   6.222   0.572
 6962SOL    HW121785   2.575   6.296   0.515
 6962SOL    HW221786   2.606   6.149   0.579
 6963SOL     OW21787   0.890   6.447   6.492
 6963SOL    HW121788   0.822   6.431   6.564
 6963SOL    HW221789   0.967   6.498   6.530
 6964SOL     OW21790   2.211   1.678   4.818
 6964SOL    HW121791   2.226   1.771   4.784
 6964SOL    HW221792   2.242   1.671   4.912
 6965SOL     OW21793   1.831   1.201   0.117
 6965SOL    HW121794   1.731   1.191   0.116
 6965SOL    HW221795   1.855   1.298   0.117
 6966SOL     OW21796   1.641   6.505   1.128
 6966SOL    HW121797   1.544   6.497   1.104
 6966SOL    HW221798   1.669   6.423   1.178
 6967SOL     OW21799   3.842   0.659   6.821
 6967SOL    HW121800   3.866   0.696   6.732
 6967SOL    HW221801   3.773   0.717   6.864
 6968SOL     OW21802   3.200   0.556   2.515
 6968SOL    HW121803   3.212   0.503   2.431
 6968SOL    HW221804   3.290   0.574   2.556
 6969SOL     OW21805   1.775   3.142   2.682
 6969SOL    HW121806   1.802   3.046   2.677
 6969SOL    HW221807   1.707   3.153   2.755
 6970SOL     OW21808   3.145   6.130   5.539
 6970SOL    HW121809   3.195   6.215   5.555
 6970SOL    HW221810   3.186   6.056   5.592
 6971SOL     OW21811   6.039   3.791   6.574
 6971SOL    HW121812   6.091   3.710   6.547
 6971SOL    HW221813   6.094   3.847   6.635
 6972SOL     OW21814   5.564   3.848   1.589
 6972SOL    HW121815   5.660   3.853   1.618
 6972SOL    HW221816   5.529   3.941   1.577
 6973SOL     OW21817   0.998   1.559   2.911
 6973SOL    HW121818   1.039   1.581   3.000
 6973SOL    HW221819   1.044   1.479   2.872
 6974SOL     OW21820   4.111   3.297   2.919
 6974SOL    HW121821   4.018   3.265   2.902
 6974SOL    HW221822   4.174   3.219   2.917
 6975SOL     OW21823   2.658   5.526   4.484
 6975SOL    HW121824   2.699   5.617   4.490
 6975SOL    HW221825   2.619   5.513   4.393
 6976SOL     OW21826   4.321   5.176   6.079
 6976SOL    HW121827   4.296   5.108   6.148
 6976SOL    HW221828   4.320   5.267   6.120
 6977SOL     OW21829   4.925   4.742   2.782
 6977SOL    HW121830   4.872   4.671   2.828
 6977SOL    HW221831   4.867   4.821   2.764
 6978SOL     OW21832   0.827   3.940   0.837
 6978SOL    HW121833   0.803   3.969   0.930
 6978SOL    HW221834   0.814   3.841   0.829
 6979SOL     OW21835   1.349   3.778   2.904
 6979SOL    HW121836   1.271   3.717   2.897
 6979SOL    HW221837   1.362   3.806   2.999
 6980SOL     OW21838   2.134   4.496   2.798
 6980SOL    HW121839   2.224   4.468   2.832
 6980SOL    HW221840   2.074   4.516   2.876
 6981SOL     OW21841   4.144   2.698   6.810
 6981SOL    HW121842   4.134   2.755   6.728
 6981SOL    HW221843   4.115   2.605   6.789
 6982SOL     OW21844   6.441   0.237   1.716
 6982SOL    HW121845   6.384   0.198   1.789
 6982SOL    HW221846   6.531   0.194   1.718
 6983SOL     OW21847   6.793   7.005   4.351
 6983SOL    HW121848   6.703   6.984   4.312
 6983SOL    HW221849   6.847   0.033   4.284
 6984SOL     OW21850   1.920   4.722   3.647
 6984SOL    HW121851   2.020   4.713   3.645
 6984SOL    HW221852   1.879   4.635   3.618
 6985SOL     OW21853   5.344   2.831   0.919
 6985SOL    HW121854   5.275   2.833   0.847
 6985SOL    HW221855   5.427   2.875   0.887
 6986SOL     OW21856   3.530   5.290   5.526
 6986SOL    HW121857   3.530   5.190   5.536
 6986SOL    HW221858   3.568   5.332   5.609
 6987SOL     OW21859   0.024   0.824   6.755
 6987SOL    HW121860   0.076   0.829   6.841
 6987SOL    HW221861   6.951   0.849   6.773
 6988SOL     OW21862   2.404   0.863   6.007
 6988SOL    HW121863   2.357   0.941   6.050
 6988SOL    HW221864   2.399   0.872   5.908
 6989SOL     OW21865   0.638   4.120   2.325
 6989SOL    HW121866   0.671   4.147   2.234
 6989SOL    HW221867   0.666   4.026   2.344
 6990SOL     OW21868   3.751   4.119   7.003
 6990SOL    HW121869   3.738   4.188   0.051
 6990SOL    HW221870   3.756   4.164   6.914
 6991SOL     OW21871   5.821   4.228   3.359
 6991SOL    HW121872   5.824   4.242   3.458
 6991SOL    HW221873   5.730   4.251   3.324
 6992SOL     OW21874   1.966   5.138   6.234
 6992SOL    HW121875   1.950   5.118   6.138
 6992SOL    HW221876   1.882   5.121   6.286
 6993SOL     OW21877   4.123   2.388   1.812
 6993SOL    HW121878   4.161   2.312   1.760
 6993SOL    HW221879   4.030   2.406   1.781
 6994SOL     OW21880   2.695   0.836   2.930
 6994SOL    HW121881   2.731   0.863   2.841
 6994SOL    HW221882   2.705   0.912   2.994
 6995SOL     OW21883   0.257   4.091   0.472
 6995SOL    HW121884   0.262   3.991   0.475
 6995SOL    HW221885   0.345   4.128   0.443
 6996SOL     OW21886   0.886   1.603   6.339
 6996SOL    HW121887   0.902   1.649   6.426
 6996SOL    HW221888   0.958   1.628   6.274
 6997SOL     OW21889   6.198   6.180   6.055
 6997SOL    HW121890   6.129   6.123   6.011
 6997SOL    HW221891   6.154   6.251   6.110
 6998SOL     OW21892   0.549   0.090   0.544
 6998SOL    HW121893   0.635   0.120   0.587
 6998SOL    HW221894   0.476   0.153   0.569
 6999SOL     OW21895   6.973   2.607   0.001
 6999SOL    HW121896   6.890   2.607   6.966
 6999SOL    HW221897   6.977   2.522   0.054
 7000SOL     OW21898   0.571   5.297   3.816
 7000SOL    HW121899   0.486   5.325   3.861
 7000SOL    HW221900   0.562   5.308   3.717
 7001SOL     OW21901   0.580   1.402   3.472
 7001SOL    HW121902   0.497   1.433   3.425
 7001SOL    HW221903   0.620   1.325   3.422
 7002SOL     OW21904   1.338   4.801   2.457
 7002SOL    HW121905   1.419   4.841   2.501
 7002SOL    HW221906   1.256   4.849   2.488
 7003SOL     OW21907   0.454   5.265   6.412
 7003SOL    HW121908   0.501   5.266   6.500
 7003SOL    HW221909   0.485   5.342   6.356
 7004SOL     OW21910   1.881   0.575   6.554
 7004SOL    HW121911   1.970   0.529   6.553
 7004SOL    HW221912   1.812   0.515   6.514
 7005SOL     OW21913   1.967   5.584   0.543
 7005SOL    HW121914   2.008   5.632   0.620
 7005SOL    HW221915   1.990   5.487   0.548
 7006SOL     OW21916   0.716   0.492   3.649
 7006SOL    HW121917   0.716   0.406   3.598
 7006SOL    HW221918   0.650   0.486   3.724
 7007SOL     OW21919   2.033   0.239   6.206
 7007SOL    HW121920   2.055   0.335   6.226
 7007SOL    HW221921   1.939   0.233   6.173
 7008SOL     OW21922   5.145   3.020   2.791
 7008SOL    HW121923   5.075   3.012   2.720
 7008SOL    HW221924   5.235   3.027   2.748
 7009SOL     OW21925   5.378   6.031   2.108
 7009SOL    HW121926   5.290   6.043   2.155
 7009SOL    HW221927   5.448   6.004   2.175
 7010SOL     OW21928   5.286   3.273   2.830
 7010SOL    HW121929   5.215   3.337   2.801
 7010SOL    HW221930   5.243   3.198   2.881
 7011SOL     OW21931   2.505   6.652   6.180
 7011SOL    HW121932   2.575   6.716   6.148
 7011SOL    HW221933   2.456   6.693   6.257
 7012SOL     OW21934   0.307   3.823   0.450
 7012SOL    HW121935   0.258   3.750   0.499
 7012SOL    HW221936   0.267   3.834   0.359
 7013SOL     OW21937   3.372   2.845   0.215
 7013SOL    HW121938   3.332   2.778   0.278
 7013SOL    HW221939   3.380   2.805   0.124
 7014SOL     OW21940   6.441   3.371   0.356
 7014SOL    HW121941   6.491   3.442   0.406
 7014SOL    HW221942   6.382   3.415   0.288
 7015SOL     OW21943   6.228   6.568   0.714
 7015SOL    HW121944   6.250   6.476   0.749
 7015SOL    HW221945   6.235   6.567   0.614
 7016SOL     OW21946   3.258   5.362   1.183
 7016SOL    HW121947   3.185   5.411   1.136
 7016SOL    HW221948   3.242   5.263   1.176
 7017SOL     OW21949   5.990   4.497   6.570
 7017SOL    HW121950   5.923   4.559   6.612
 7017SOL    HW221951   5.961   4.475   6.477
 7018SOL     OW21952   5.805   3.518   5.130
 7018SOL    HW121953   5.731   3.459   5.162
 7018SOL    HW221954   5.789   3.612   5.161
 7019SOL     OW21955   3.994   5.489   2.059
 7019SOL    HW121956   3.981   5.407   2.116
 7019SOL    HW221957   3.964   5.569   2.110
 7020SOL     OW21958   0.528   1.705   0.568
 7020SOL    HW121959   0.590   1.782   0.557
 7020SOL    HW221960   0.439   1.739   0.601
 7021SOL     OW21961   1.071   1.722   4.827
 7021SOL    HW121962   1.104   1.667   4.750
 7021SOL    HW221963   0.973   1.737   4.816
 7022SOL     OW21964   2.037   3.599   1.004
 7022SOL    HW121965   1.952   3.552   0.977
 7022SOL    HW221966   2.052   3.587   1.102
 7023SOL     OW21967   0.357   1.769   1.150
 7023SOL    HW121968   0.343   1.777   1.249
 7023SOL    HW221969   0.268   1.768   1.105
 7024SOL     OW21970   3.695   3.828   5.595
 7024SOL    HW121971   3.773   3.885   5.569
 7024SOL    HW221972   3.716   3.732   5.576
 7025SOL     OW21973   3.171   1.129   1.163
 7025SOL    HW121974   3.225   1.046   1.179
 7025SOL    HW221975   3.075   1.109   1.181
 7026SOL     OW21976   2.795   1.926   1.114
 7026SOL    HW121977   2.811   1.958   1.020
 7026SOL    HW221978   2.872   1.954   1.172
 7027SOL     OW21979   3.096   4.726   1.402
 7027SOL    HW121980   3.168   4.777   1.449
 7027SOL    HW221981   3.097   4.631   1.432
 7028SOL     OW21982   3.372   0.444   3.533
 7028SOL    HW121983   3.465   0.414   3.511
 7028SOL    HW221984   3.368   0.475   3.628
 7029SOL     OW21985   3.504   4.166   3.463
 7029SOL    HW121986   3.571   4.099   3.496
 7029SOL    HW221987   3.473   4.141   3.372
 7030SOL     OW21988   6.386   7.011   5.370
 7030SOL    HW121989   6.329   0.049   5.315
 7030SOL    HW221990   6.447   6.960   5.311
 7031SOL     OW21991   5.001   5.491   0.887
 7031SOL    HW121992   4.903   5.490   0.906
 7031SOL    HW221993   5.044   5.413   0.933
 7032SOL     OW21994   4.146   5.207   4.707
 7032SOL    HW121995   4.141   5.141   4.782
 7032SOL    HW221996   4.082   5.181   4.635
 7033SOL     OW21997   2.278   1.771   5.360
 7033SOL    HW121998   2.180   1.781   5.344
 7033SOL    HW221999   2.328   1.794   5.276
 7034SOL     OW22000   6.753   1.790   2.013
 7034SOL    HW122001   6.691   1.765   2.087
 7034SOL    HW222002   6.847   1.774   2.042
 7035SOL     OW22003   2.500   1.928   1.475
 7035SOL    HW122004   2.472   1.959   1.565
 7035SOL    HW222005   2.526   1.831   1.480
 7036SOL     OW22006   6.110   1.795   1.673
 7036SOL    HW122007   6.109   1.883   1.627
 7036SOL    HW222008   6.027   1.785   1.728
 7037SOL     OW22009   1.673   0.828   6.709
 7037SOL    HW122010   1.635   0.786   6.626
 7037SOL    HW222011   1.744   0.768   6.747
 7038SOL     OW22012   0.693   4.821   0.164
 7038SOL    HW122013   0.694   4.759   0.242
 7038SOL    HW222014   0.600   4.851   0.146
 7039SOL     OW22015   6.510   0.080   1.389
 7039SOL    HW122016   6.413   0.098   1.402
 7039SOL    HW222017   6.525   7.004   1.380
 7040SOL     OW22018   5.162   3.034   5.319
 7040SOL    HW122019   5.122   3.123   5.299
 7040SOL    HW222020   5.257   3.032   5.287
 7041SOL     OW22021   1.032   0.166   4.000
 7041SOL    HW122022   1.087   0.098   3.952
 7041SOL    HW222023   0.964   0.205   3.937
 7042SOL     OW22024   5.755   6.031   4.783
 7042SOL    HW122025   5.737   5.937   4.810
 7042SOL    HW222026   5.761   6.088   4.865
 7043SOL     OW22027   1.940   5.990   0.755
 7043SOL    HW122028   1.873   6.063   0.742
 7043SOL    HW222029   2.030   6.029   0.769
 7044SOL     OW22030   4.505   6.242   5.226
 7044SOL    HW122031   4.448   6.185   5.286
 7044SOL    HW222032   4.524   6.329   5.271
 7045SOL     OW22033   5.931   6.795   1.600
 7045SOL    HW122034   6.011   6.739   1.581
 7045SOL    HW222035   5.911   6.854   1.522
 7046SOL     OW22036   2.910   1.292   2.847
 7046SOL    HW122037   2.926   1.205   2.801
 7046SOL    HW222038   2.848   1.348   2.792
 7047SOL     OW22039   1.327   6.914   1.230
 7047SOL    HW122040   1.365   6.826   1.260
 7047SOL    HW222041   1.399   6.968   1.187
 7048SOL     OW22042   0.195   6.010   3.672
 7048SOL    HW122043   0.157   6.016   3.764
 7048SOL    HW222044   0.253   5.928   3.666
 7049SOL     OW22045   3.543   1.335   4.701
 7049SOL    HW122046   3.516   1.239   4.692
 7049SOL    HW222047   3.463   1.394   4.686
 7050SOL     OW22048   4.098   4.239   1.147
 7050SOL    HW122049   4.086   4.150   1.104
 7050SOL    HW222050   4.015   4.294   1.135
 7051SOL     OW22051   1.814   1.411   2.390
 7051SOL    HW122052   1.745   1.483   2.394
 7051SOL    HW222053   1.795   1.352   2.312
 7052SOL     OW22054   5.318   2.634   3.171
 7052SOL    HW122055   5.271   2.563   3.118
 7052SOL    HW222056   5.353   2.704   3.109
 7053SOL     OW22057   1.181   4.710   3.601
 7053SOL    HW122058   1.179   4.785   3.667
 7053SOL    HW222059   1.275   4.697   3.570
 7054SOL     OW22060   5.289   6.871   0.280
 7054SOL    HW122061   5.365   6.913   0.230
 7054SOL    HW222062   5.204   6.882   0.228
 7055SOL     OW22063   2.213   0.255   0.462
 7055SOL    HW122064   2.198   0.156   0.470
 7055SOL    HW222065   2.160   0.303   0.532
 7056SOL     OW22066   6.808   5.344   0.759
 7056SOL    HW122067   6.845   5.326   0.850
 7056SOL    HW222068   6.731   5.284   0.741
 7057SOL     OW22069   3.034   5.428   4.839
 7057SOL    HW122070   3.112   5.379   4.801
 7057SOL    HW222071   2.952   5.405   4.786
 7058SOL     OW22072   6.171   2.234   6.102
 7058SOL    HW122073   6.151   2.312   6.160
 7058SOL    HW222074   6.218   2.265   6.019
 7059SOL     OW22075   1.814   0.777   5.161
 7059SOL    HW122076   1.885   0.822   5.106
 7059SOL    HW222077   1.855   0.737   5.243
 7060SOL     OW22078   2.983   2.338   1.662
 7060SOL    HW122079   3.077   2.371   1.654
 7060SOL    HW222080   2.938   2.383   1.739
 7061SOL     OW22081   2.106   0.740   1.421
 7061SOL    HW122082   2.084   0.677   1.495
 7061SOL    HW222083   2.171   0.697   1.358
 7062SOL     OW22084   3.985   0.971   4.882
 7062SOL    HW122085   3.922   0.979   4.959
 7062SOL    HW222086   3.986   1.056   4.830
 7063SOL     OW22087   0.271   1.147   1.709
 7063SOL    HW122088   0.234   1.229   1.754
 7063SOL    HW222089   0.357   1.121   1.752
 7064SOL     OW22090   3.178   1.499   5.219
 7064SOL    HW122091   3.241   1.459   5.286
 7064SOL    HW222092   3.172   1.438   5.140
 7065SOL     OW22093   3.565   6.685   4.498
 7065SOL    HW122094   3.615   6.764   4.534
 7065SOL    HW222095   3.516   6.712   4.415
 7066SOL     OW22096   3.857   0.893   1.270
 7066SOL    HW122097   3.829   0.874   1.364
 7066SOL    HW222098   3.955   0.912   1.267
 7067SOL     OW22099   2.085   4.494   6.813
 7067SOL    HW122100   2.066   4.468   6.908
 7067SOL    HW222101   1.999   4.516   6.767
 7068SOL     OW22102   5.219   4.402   3.953
 7068SOL    HW122103   5.202   4.479   4.014
 7068SOL    HW222104   5.318   4.391   3.939
 7069SOL     OW22105   4.501   0.633   5.153
 7069SOL    HW122106   4.599   0.615   5.156
 7069SOL    HW222107   4.456   0.586   5.229
 7070SOL     OW22108   6.922   1.032   5.994
 7070SOL    HW122109   6.968   1.071   5.914
 7070SOL    HW222110   6.869   1.104   6.040
 7071SOL     OW22111   4.238   5.306   6.487
 7071SOL    HW122112   4.258   5.278   6.581
 7071SOL    HW222113   4.225   5.405   6.483
 7072SOL     OW22114   0.626   3.815   6.190
 7072SOL    HW122115   0.617   3.798   6.092
 7072SOL    HW222116   0.720   3.793   6.219
 7073SOL     OW22117   4.549   0.701   3.572
 7073SOL    HW122118   4.529   0.622   3.629
 7073SOL    HW222119   4.495   0.779   3.604
 7074SOL     OW22120   6.408   3.544   1.877
 7074SOL    HW122121   6.312   3.517   1.884
 7074SOL    HW222122   6.415   3.630   1.825
 7075SOL     OW22123   2.343   5.432   2.048
 7075SOL    HW122124   2.315   5.366   2.118
 7075SOL    HW222125   2.302   5.521   2.066
 7076SOL     OW22126   5.793   2.083   1.084
 7076SOL    HW122127   5.882   2.043   1.105
 7076SOL    HW222128   5.802   2.143   1.004
 7077SOL     OW22129   3.844   6.134   1.483
 7077SOL    HW122130   3.906   6.142   1.405
 7077SOL    HW222131   3.856   6.213   1.543
 7078SOL     OW22132   0.058   1.797   6.425
 7078SOL    HW122133   0.131   1.785   6.492
 7078SOL    HW222134   0.024   1.707   6.396
 7079SOL     OW22135   2.332   5.473   5.125
 7079SOL    HW122136   2.324   5.486   5.224
 7079SOL    HW222137   2.347   5.376   5.105
 7080SOL     OW22138   4.061   1.574   6.219
 7080SOL    HW122139   3.988   1.638   6.195
 7080SOL    HW222140   4.148   1.623   6.224
 7081SOL     OW22141   2.313   6.302   0.323
 7081SOL    HW122142   2.217   6.329   0.337
 7081SOL    HW222143   2.324   6.206   0.347
 7082SOL     OW22144   0.908   4.558   2.166
 7082SOL    HW122145   0.820   4.560   2.214
 7082SOL    HW222146   0.896   4.595   2.074
 7083SOL     OW22147   5.508   3.110   2.536
 7083SOL    HW122148   5.445   3.187   2.549
 7083SOL    HW222149   5.488   3.066   2.448
 7084SOL     OW22150   1.168   5.105   0.491
 7084SOL    HW122151   1.085   5.052   0.511
 7084SOL    HW222152   1.143   5.200   0.473
 7085SOL     OW22153   0.528   4.141   2.591
 7085SOL    HW122154   0.555   4.237   2.596
 7085SOL    HW222155   0.537   4.108   2.498
 7086SOL     OW22156   4.672   0.767   3.357
 7086SOL    HW122157   4.704   0.686   3.309
 7086SOL    HW222158   4.630   0.739   3.443
 7087SOL     OW22159   5.194   3.097   3.856
 7087SOL    HW122160   5.285   3.101   3.815
 7087SOL    HW222161   5.161   3.003   3.855
 7088SOL     OW22162   6.024   2.689   4.981
 7088SOL    HW122163   6.002   2.735   5.067
 7088SOL    HW222164   6.118   2.657   4.984
 7089SOL     OW22165   3.306   5.852   1.092
 7089SOL    HW122166   3.340   5.764   1.060
 7089SOL    HW222167   3.207   5.848   1.101
 7090SOL     OW22168   4.631   3.203   1.056
 7090SOL    HW122169   4.641   3.273   1.126
 7090SOL    HW222170   4.564   3.135   1.087
 7091SOL     OW22171   6.442   0.485   6.475
 7091SOL    HW122172   6.428   0.575   6.434
 7091SOL    HW222173   6.537   0.477   6.506
 7092SOL     OW22174   4.064   0.105   6.218
 7092SOL    HW122175   4.071   0.202   6.240
 7092SOL    HW222176   3.972   0.085   6.185
 7093SOL     OW22177   4.005   3.090   0.639
 7093SOL    HW122178   4.038   3.010   0.588
 7093SOL    HW222179   4.069   3.111   0.713
 7094SOL     OW22180   4.552   1.002   4.880
 7094SOL    HW122181   4.492   1.053   4.818
 7094SOL    HW222182   4.506   0.988   4.968
 7095SOL     OW22183   2.588   4.616   3.876
 7095SOL    HW122184   2.681   4.651   3.863
 7095SOL    HW222185   2.541   4.671   3.945
 7096SOL     OW22186   6.815   5.604   0.246
 7096SOL    HW122187   6.887   5.674   0.247
 7096SOL    HW222188   6.726   5.647   0.260
 7097SOL     OW22189   4.349   1.862   2.818
 7097SOL    HW122190   4.415   1.796   2.782
 7097SOL    HW222191   4.396   1.926   2.879
 7098SOL     OW22192   0.889   1.400   2.500
 7098SOL    HW122193   0.822   1.466   2.466
 7098SOL    HW222194   0.938   1.359   2.424
 7099SOL     OW22195   3.524   2.011   4.483
 7099SOL    HW122196   3.610   1.964   4.462
 7099SOL    HW222197   3.473   1.957   4.551
 7100SOL     OW22198   0.338   4.203   1.671
 7100SOL    HW122199   0.263   4.137   1.674
 7100SOL    HW222200   0.356   4.238   1.763
 7101SOL     OW22201   2.299   5.186   3.934
 7101SOL    HW122202   2.226   5.172   4.001
 7101SOL    HW222203   2.359   5.106   3.933
 7102SOL     OW22204   5.110   1.513   2.799
 7102SOL    HW122205   5.019   1.494   2.761
 7102SOL    HW222206   5.180   1.494   2.729
 7103SOL     OW22207   6.020   3.966   3.910
 7103SOL    HW122208   6.016   3.866   3.916
 7103SOL    HW222209   6.063   4.003   3.993
 7104SOL     OW22210   5.111   2.708   4.573
 7104SOL    HW122211   5.106   2.718   4.672
 7104SOL    HW222212   5.061   2.783   4.529
 7105SOL     OW22213   3.325   4.103   2.169
 7105SOL    HW122214   3.234   4.062   2.163
 7105SOL    HW222215   3.329   4.163   2.249
 7106SOL     OW22216   2.895   2.259   2.458
 7106SOL    HW122217   2.883   2.349   2.418
 7106SOL    HW222218   2.848   2.190   2.402
 7107SOL     OW22219   4.077   0.726   0.403
 7107SOL    HW122220   4.162   0.690   0.443
 7107SOL    HW222221   4.014   0.650   0.384
 7108SOL     OW22222   3.514   6.880   1.957
 7108SOL    HW122223   3.476   6.965   1.921
 7108SOL    HW222224   3.575   6.839   1.889
 7109SOL     OW22225   2.981   4.713   5.762
 7109SOL    HW122226   2.984   4.618   5.733
 7109SOL    HW222227   2.978   4.773   5.682
 7110SOL     OW22228   2.589   5.762   5.701
 7110SOL    HW122229   2.519   5.707   5.746
 7110SOL    HW222230   2.643   5.704   5.639
 7111SOL     OW22231   6.820   1.087   4.896
 7111SOL    HW122232   6.820   1.002   4.949
 7111SOL    HW222233   6.770   1.157   4.945
 7112SOL     OW22234   6.580   4.863   5.474
 7112SOL    HW122235   6.651   4.835   5.409
 7112SOL    HW222236   6.503   4.800   5.468
 7113SOL     OW22237   3.435   0.063   5.162
 7113SOL    HW122238   3.393   0.153   5.154
 7113SOL    HW222239   3.505   0.065   5.233
 7114SOL     OW22240   5.280   4.168   0.424
 7114SOL    HW122241   5.354   4.134   0.366
 7114SOL    HW222242   5.192   4.139   0.385
 7115SOL     OW22243   4.925   2.716   5.724
 7115SOL    HW122244   4.873   2.797   5.753
 7115SOL    HW222245   4.974   2.679   5.802
 7116SOL     OW22246   6.345   5.451   4.869
 7116SOL    HW122247   6.372   5.382   4.803
 7116SOL    HW222248   6.395   5.536   4.851
 7117SOL     OW22249   4.320   0.447   3.068
 7117SOL    HW122250   4.389   0.379   3.092
 7117SOL    HW222251   4.360   0.514   3.005
 7118SOL     OW22252   4.768   4.265   5.835
 7118SOL    HW122253   4.826   4.192   5.871
 7118SOL    HW222254   4.738   4.324   5.909
 7119SOL     OW22255   2.862   6.548   4.525
 7119SOL    HW122256   2.893   6.513   4.436
 7119SOL    HW222257   2.780   6.604   4.513
 7120SOL     OW22258   4.496   1.594   1.872
 7120SOL    HW122259   4.499   1.501   1.908
 7120SOL    HW222260   4.401   1.619   1.853
 7121SOL     OW22261   0.974   5.970   2.093
 7121SOL    HW122262   0.996   5.984   2.190
 7121SOL    HW222263   0.915   6.044   2.061
 7122SOL     OW22264   3.028   1.889   6.327
 7122SOL    HW122265   3.041   1.985   6.300
 7122SOL    HW222266   2.935   1.861   6.306
 7123SOL     OW22267   5.044   4.556   6.914
 7123SOL    HW122268   4.947   4.557   6.940
 7123SOL    HW222269   5.063   4.474   6.860
 7124SOL     OW22270   2.796   2.679   6.755
 7124SOL    HW122271   2.698   2.696   6.767
 7124SOL    HW222272   2.840   2.669   6.844
 7125SOL     OW22273   0.944   6.571   1.722
 7125SOL    HW122274   0.858   6.588   1.675
 7125SOL    HW222275   1.020   6.582   1.658
 7126SOL     OW22276   4.241   5.302   0.921
 7126SOL    HW122277   4.197   5.287   1.009
 7126SOL    HW222278   4.203   5.240   0.853
 7127SOL     OW22279   3.197   6.769   5.469
 7127SOL    HW122280   3.234   6.801   5.381
 7127SOL    HW222281   3.105   6.805   5.481
 7128SOL     OW22282   3.299   4.488   0.165
 7128SOL    HW122283   3.302   4.399   0.119
 7128SOL    HW222284   3.387   4.507   0.207
 7129SOL     OW22285   6.678   1.108   0.233
 7129SOL    HW122286   6.714   1.023   0.272
 7129SOL    HW222287   6.753   1.160   0.192
 7130SOL     OW22288   3.478   0.412   4.067
 7130SOL    HW122289   3.574   0.421   4.039
 7130SOL    HW222290   3.469   0.334   4.129
 7131SOL     OW22291   2.163   1.296   2.833
 7131SOL    HW122292   2.121   1.375   2.876
 7131SOL    HW222293   2.181   1.316   2.737
 7132SOL     OW22294   5.531   4.352   1.938
 7132SOL    HW122295   5.460   4.398   1.990
 7132SOL    HW222296   5.562   4.410   1.863
 7133SOL     OW22297   3.583   5.984   2.214
 7133SOL    HW122298   3.515   6.044   2.255
 7133SOL    HW222299   3.610   5.914   2.279
 7134SOL     OW22300   4.794   4.726   0.100
 7134SOL    HW122301   4.785   4.668   0.019
 7134SOL    HW222302   4.891   4.733   0.126
 7135SOL     OW22303   2.260   4.523   1.442
 7135SOL    HW122304   2.339   4.555   1.389
 7135SOL    HW222305   2.292   4.479   1.526
 7136SOL     OW22306   1.267   3.045   2.330
 7136SOL    HW122307   1.242   3.081   2.240
 7136SOL    HW222308   1.269   3.119   2.397
 7137SOL     OW22309   2.136   0.390   1.954
 7137SOL    HW122310   2.180   0.464   2.004
 7137SOL    HW222311   2.038   0.408   1.947
 7138SOL     OW22312   6.616   3.217   6.787
 7138SOL    HW122313   6.602   3.212   6.688
 7138SOL    HW222314   6.713   3.225   6.807
 7139SOL     OW22315   5.936   5.669   1.087
 7139SOL    HW122316   5.846   5.689   1.050
 7139SOL    HW222317   5.928   5.637   1.181
 7140SOL     OW22318   0.121   5.195   0.529
 7140SOL    HW122319   0.172   5.114   0.499
 7140SOL    HW222320   0.149   5.219   0.622
 7141SOL     OW22321   3.346   1.253   0.987
 7141SOL    HW122322   3.275   1.215   1.046
 7141SOL    HW222323   3.317   1.247   0.891
 7142SOL     OW22324   4.675   6.712   5.766
 7142SOL    HW122325   4.682   6.808   5.796
 7142SOL    HW222326   4.579   6.685   5.766
 7143SOL     OW22327   3.407   3.010   5.609
 7143SOL    HW122328   3.407   2.972   5.517
 7143SOL    HW222329   3.458   2.949   5.670
 7144SOL     OW22330   6.348   1.299   5.529
 7144SOL    HW122331   6.367   1.344   5.441
 7144SOL    HW222332   6.265   1.245   5.522
 7145SOL     OW22333   6.744   2.795   5.778
 7145SOL    HW122334   6.721   2.710   5.731
 7145SOL    HW222335   6.718   2.873   5.721
 7146SOL     OW22336   0.101   1.667   4.462
 7146SOL    HW122337   0.187   1.676   4.512
 7146SOL    HW222338   0.035   1.733   4.497
 7147SOL     OW22339   6.969   6.727   1.001
 7147SOL    HW122340   0.023   6.782   1.034
 7147SOL    HW222341   6.991   6.689   0.912
 7148SOL     OW22342   5.435   6.391   0.525
 7148SOL    HW122343   5.339   6.406   0.499
 7148SOL    HW222344   5.478   6.328   0.460
 7149SOL     OW22345   5.863   4.487   6.296
 7149SOL    HW122346   5.940   4.485   6.232
 7149SOL    HW222347   5.796   4.554   6.265
 7150SOL     OW22348   3.022   2.214   0.011
 7150SOL    HW122349   3.019   2.121   0.048
 7150SOL    HW222350   3.092   2.219   6.962
 7151SOL     OW22351   5.580   1.857   0.075
 7151SOL    HW122352   5.548   1.952   0.077
 7151SOL    HW222353   5.655   1.845   0.140
 7152SOL     OW22354   5.098   0.204   5.666
 7152SOL    HW122355   5.028   0.148   5.622
 7152SOL    HW222356   5.185   0.192   5.618
 7153SOL     OW22357   4.760   5.681   1.081
 7153SOL    HW122358   4.682   5.696   1.141
 7153SOL    HW222359   4.729   5.636   0.997
 7154SOL     OW22360   4.871   0.743   1.602
 7154SOL    HW122361   4.814   0.716   1.679
 7154SOL    HW222362   4.959   0.696   1.608
 7155SOL     OW22363   2.361   6.940   1.184
 7155SOL    HW122364   2.403   6.989   1.108
 7155SOL    HW222365   2.376   6.991   1.269
 7156SOL     OW22366   6.374   3.346   4.820
 7156SOL    HW122367   6.447   3.413   4.807
 7156SOL    HW222368   6.399   3.261   4.773
 7157SOL     OW22369   6.976   3.625   5.341
 7157SOL    HW122370   6.958   3.589   5.249
 7157SOL    HW222371   6.958   3.553   5.408
 7158SOL     OW22372   5.016   0.224   3.639
 7158SOL    HW122373   4.952   0.278   3.694
 7158SOL    HW222374   5.060   0.284   3.572
 7159SOL     OW22375   0.212   6.601   3.174
 7159SOL    HW122376   0.204   6.659   3.092
 7159SOL    HW222377   0.276   6.526   3.156
 7160SOL     OW22378   5.707   6.679   2.782
 7160SOL    HW122379   5.771   6.734   2.836
 7160SOL    HW222380   5.750   6.653   2.696
 7161SOL     OW22381   3.741   3.517   2.395
 7161SOL    HW122382   3.725   3.586   2.324
 7161SOL    HW222383   3.682   3.438   2.378
 7162SOL     OW22384   0.584   6.240   0.513
 7162SOL    HW122385   0.503   6.223   0.570
 7162SOL    HW222386   0.662   6.192   0.553
 7163SOL     OW22387   6.983   0.103   0.109
 7163SOL    HW122388   7.000   0.084   0.012
 7163SOL    HW222389   0.045   0.092   0.161
 7164SOL     OW22390   1.933   0.054   0.257
 7164SOL    HW122391   1.948   0.153   0.248
 7164SOL    HW222392   1.836   0.037   0.273
 7165SOL     OW22393   4.356   2.091   6.337
 7165SOL    HW122394   4.364   2.148   6.418
 7165SOL    HW222395   4.424   2.120   6.269
 7166SOL     OW22396   6.400   6.061   5.029
 7166SOL    HW122397   6.446   6.054   5.117
 7166SOL    HW222398   6.316   6.114   5.039
 7167SOL     OW22399   0.562   3.343   5.430
 7167SOL    HW122400   0.604   3.259   5.465
 7167SOL    HW222401   0.467   3.348   5.460
 7168SOL     OW22402   1.356   0.606   2.507
 7168SOL    HW122403   1.389   0.539   2.573
 7168SOL    HW222404   1.257   0.615   2.515
 7169SOL     OW22405   1.977   4.333   5.938
 7169SOL    HW122406   2.015   4.327   6.030
 7169SOL    HW222407   1.922   4.416   5.929
 7170SOL     OW22408   3.777   2.192   1.116
 7170SOL    HW122409   3.780   2.180   1.017
 7170SOL    HW222410   3.850   2.137   1.158
 7171SOL     OW22411   0.401   5.022   1.101
 7171SOL    HW122412   0.496   5.053   1.109
 7171SOL    HW222413   0.383   4.952   1.170
 7172SOL     OW22414   0.978   2.823   3.308
 7172SOL    HW122415   0.991   2.859   3.401
 7172SOL    HW222416   0.899   2.762   3.307
 7173SOL     OW22417   3.452   5.696   4.841
 7173SOL    HW122418   3.442   5.745   4.755
 7173SOL    HW222419   3.381   5.724   4.905
 7174SOL     OW22420   6.656   3.705   1.972
 7174SOL    HW122421   6.560   3.708   1.946
 7174SOL    HW222422   6.679   3.613   2.003
 7175SOL     OW22423   6.639   3.269   5.828
 7175SOL    HW122424   6.691   3.210   5.890
 7175SOL    HW222425   6.558   3.305   5.874
 7176SOL     OW22426   0.104   1.325   6.764
 7176SOL    HW122427   0.137   1.242   6.808
 7176SOL    HW222428   0.147   1.405   6.808
 7177SOL     OW22429   0.974   5.827   3.037
 7177SOL    HW122430   0.957   5.734   3.070
 7177SOL    HW222431   1.057   5.828   2.981
 7178SOL     OW22432   1.277   6.495   5.763
 7178SOL    HW122433   1.268   6.479   5.664
 7178SOL    HW222434   1.186   6.506   5.803
 7179SOL     OW22435   4.890   4.681   5.964
 7179SOL    HW122436   4.940   4.597   5.940
 7179SOL    HW222437   4.878   4.737   5.882
 7180SOL     OW22438   0.323   2.463   1.879
 7180SOL    HW122439   0.361   2.396   1.816
 7180SOL    HW222440   0.359   2.447   1.971
 7181SOL     OW22441   3.151   0.488   0.178
 7181SOL    HW122442   3.209   0.503   0.098
 7181SOL    HW222443   3.145   0.572   0.232
 7182SOL     OW22444   1.952   0.944   3.316
 7182SOL    HW122445   2.003   1.028   3.296
 7182SOL    HW222446   1.923   0.945   3.412
 7183SOL     OW22447   1.531   6.929   1.531
 7183SOL    HW122448   1.616   6.934   1.584
 7183SOL    HW222449   1.456   6.903   1.591
 7184SOL     OW22450   0.331   0.990   3.552
 7184SOL    HW122451   0.403   1.005   3.620
 7184SOL    HW222452   0.335   0.895   3.521
 7185SOL     OW22453   4.297   0.792   3.538
 7185SOL    HW122454   4.346   0.786   3.451
 7185SOL    HW222455   4.268   0.700   3.566
 7186SOL     OW22456   6.889   1.203   6.619
 7186SOL    HW122457   6.824   1.180   6.692
 7186SOL    HW222458   6.967   1.251   6.659
 7187SOL     OW22459   3.473   3.448   4.041
 7187SOL    HW122460   3.407   3.510   4.082
 7187SOL    HW222461   3.565   3.486   4.051
 7188SOL     OW22462   5.235   4.572   0.153
 7188SOL    HW122463   5.307   4.509   0.124
 7188SOL    HW222464   5.145   4.530   0.136
 7189SOL     OW22465   0.027   2.189   6.067
 7189SOL    HW122466   6.967   2.148   6.028
 7189SOL    HW222467   0.042   2.279   6.027
 7190SOL     OW22468   6.208   5.848   0.357
 7190SOL    HW122469   6.122   5.805   0.385
 7190SOL    HW222470   6.195   5.947   0.349
 7191SOL     OW22471   6.966   5.080   2.823
 7191SOL    HW122472   0.013   5.010   2.837
 7191SOL    HW222473   6.986   5.160   2.880
 7192SOL     OW22474   3.001   4.037   5.606
 7192SOL    HW122475   3.049   3.998   5.685
 7192SOL    HW222476   2.933   4.103   5.639
 7193SOL     OW22477   3.586   1.365   3.970
 7193SOL    HW122478   3.648   1.433   4.010
 7193SOL    HW222479   3.627   1.330   3.885
 7194SOL     OW22480   3.501   2.312   5.423
 7194SOL    HW122481   3.586   2.361   5.407
 7194SOL    HW222482   3.517   2.240   5.491
 7195SOL     OW22483   0.540   4.033   5.829
 7195SOL    HW122484   0.594   4.118   5.827
 7195SOL    HW222485   0.602   3.956   5.844
 7196SOL     OW22486   3.317   3.612   1.608
 7196SOL    HW122487   3.280   3.628   1.517
 7196SOL    HW222488   3.283   3.682   1.671
 7197SOL     OW22489   3.301   4.801   6.652
 7197SOL    HW122490   3.310   4.865   6.729
 7197SOL    HW222491   3.388   4.795   6.603
 7198SOL     OW22492   1.051   0.348   1.994
 7198SOL    HW122493   1.042   0.250   1.979
 7198SOL    HW222494   1.087   0.365   2.086
 7199SOL     OW22495   5.784   0.957   3.418
 7199SOL    HW122496   5.871   0.987   3.378
 7199SOL    HW222497   5.802   0.896   3.495
 7200SOL     OW22498   0.928   3.375   6.642
 7200SOL    HW122499   0.852   3.326   6.600
 7200SOL    HW222500   0.922   3.368   6.741
 7201SOL     OW22501   5.696   6.305   4.093
 7201SOL    HW122502   5.634   6.310   4.171
 7201SOL    HW222503   5.754   6.224   4.102
 7202SOL     OW22504   4.699   0.699   5.901
 7202SOL    HW122505   4.644   0.772   5.861
 7202SOL    HW222506   4.795   0.711   5.874
 7203SOL     OW22507   0.868   1.765   1.205
 7203SOL    HW122508   0.851   1.795   1.112
 7203SOL    HW222509   0.967   1.768   1.223
 7204SOL     OW22510   6.115   0.863   2.989
 7204SOL    HW122511   6.088   0.853   2.893
 7204SOL    HW222512   6.178   0.789   3.013
 7205SOL     OW22513   3.189   1.338   4.322
 7205SOL    HW122514   3.234   1.294   4.244
 7205SOL    HW222515   3.149   1.426   4.293
 7206SOL     OW22516   2.084   3.273   6.590
 7206SOL    HW122517   2.086   3.323   6.676
 7206SOL    HW222518   2.033   3.188   6.602
 7207SOL     OW22519   1.420   1.339   2.967
 7207SOL    HW122520   1.452   1.420   3.017
 7207SOL    HW222521   1.321   1.335   2.971
 7208SOL     OW22522   3.363   0.037   3.307
 7208SOL    HW122523   3.462   0.038   3.290
 7208SOL    HW222524   3.317   0.087   3.234
 7209SOL     OW22525   3.945   0.637   2.242
 7209SOL    HW122526   3.985   0.703   2.178
 7209SOL    HW222527   4.013   0.615   2.313
 7210SOL     OW22528   3.517   1.428   4.418
 7210SOL    HW122529   3.449   1.447   4.489
 7210SOL    HW222530   3.601   1.393   4.460
 7211SOL     OW22531   3.959   6.314   5.860
 7211SOL    HW122532   3.862   6.339   5.860
 7211SOL    HW222533   4.014   6.388   5.822
 7212SOL     OW22534   0.540   5.957   5.188
 7212SOL    HW122535   0.571   5.862   5.193
 7212SOL    HW222536   0.521   5.981   5.093
 7213SOL     OW22537   4.517   2.603   0.499
 7213SOL    HW122538   4.432   2.624   0.449
 7213SOL    HW222539   4.593   2.597   0.434
 7214SOL     OW22540   6.646   1.239   5.871
 7214SOL    HW122541   6.659   1.241   5.971
 7214SOL    HW222542   6.723   1.193   5.828
 7215SOL     OW22543   6.220   1.684   2.817
 7215SOL    HW122544   6.196   1.780   2.806
 7215SOL    HW222545   6.137   1.628   2.814
 7216SOL     OW22546   5.417   6.760   3.817
 7216SOL    HW122547   5.477   6.840   3.822
 7216SOL    HW222548   5.451   6.690   3.879
 7217SOL     OW22549   1.056   3.334   3.415
 7217SOL    HW122550   1.007   3.340   3.328
 7217SOL    HW222551   1.051   3.422   3.462
 7218SOL     OW22552   6.609   2.375   5.227
 7218SOL    HW122553   6.527   2.328   5.195
 7218SOL    HW222554   6.664   2.313   5.282
 7219SOL     OW22555   2.948   6.202   1.908
 7219SOL    HW122556   3.041   6.184   1.877
 7219SOL    HW222557   2.887   6.130   1.875
 7220SOL     OW22558   6.669   3.796   3.569
 7220SOL    HW122559   6.769   3.791   3.567
 7220SOL    HW222560   6.633   3.773   3.478
 7221SOL     OW22561   4.319   4.850   3.586
 7221SOL    HW122562   4.294   4.768   3.638
 7221SOL    HW222563   4.260   4.858   3.505
 7222SOL     OW22564   6.687   6.004   4.389
 7222SOL    HW122565   6.671   6.075   4.457
 7222SOL    HW222566   6.617   6.010   4.317
 7223SOL     OW22567   6.616   5.896   1.851
 7223SOL    HW122568   6.670   5.881   1.768
 7223SOL    HW222569   6.669   5.868   1.931
 7224SOL     OW22570   4.847   2.515   2.917
 7224SOL    HW122571   4.911   2.592   2.914
 7224SOL    HW222572   4.753   2.550   2.905
 7225SOL     OW22573   0.692   5.651   0.211
 7225SOL    HW122574   0.654   5.677   0.122
 7225SOL    HW222575   0.662   5.559   0.234
 7226SOL     OW22576   5.776   6.301   6.987
 7226SOL    HW122577   5.844   6.309   0.038
 7226SOL    HW222578   5.693   6.349   7.015
 7227SOL     OW22579   1.848   0.898   2.129
 7227SOL    HW122580   1.932   0.894   2.183
 7227SOL    HW222581   1.779   0.949   2.179
 7228SOL     OW22582   5.904   3.282   2.723
 7228SOL    HW122583   5.856   3.212   2.670
 7228SOL    HW222584   5.878   3.274   2.819
 7229SOL     OW22585   6.254   6.902   5.120
 7229SOL    HW122586   6.298   6.973   5.064
 7229SOL    HW222587   6.300   6.815   5.104
 7230SOL     OW22588   2.085   4.927   4.942
 7230SOL    HW122589   2.180   4.952   4.920
 7230SOL    HW222590   2.066   4.952   5.037
 7231SOL     OW22591   3.791   3.574   6.123
 7231SOL    HW122592   3.843   3.585   6.208
 7231SOL    HW222593   3.806   3.653   6.065
 7232SOL     OW22594   4.022   6.123   3.282
 7232SOL    HW122595   3.957   6.111   3.357
 7232SOL    HW222596   4.108   6.078   3.305
 7233SOL     OW22597   0.361   1.581   6.385
 7233SOL    HW122598   0.361   1.603   6.483
 7233SOL    HW222599   0.282   1.525   6.364
 7234SOL     OW22600   5.369   5.109   3.248
 7234SOL    HW122601   5.367   5.019   3.203
 7234SOL    HW222602   5.394   5.097   3.344
 7235SOL     OW22603   6.195   0.855   2.117
 7235SOL    HW122604   6.178   0.757   2.124
 7235SOL    HW222605   6.126   0.904   2.171
 7236SOL     OW22606   0.986   3.884   3.082
 7236SOL    HW122607   0.928   3.873   3.002
 7236SOL    HW222608   1.017   3.795   3.115
 7237SOL     OW22609   5.387   1.657   0.112
 7237SOL    HW122610   5.460   1.723   0.095
 7237SOL    HW222611   5.421   1.564   0.095
 7238SOL     OW22612   4.084   3.576   6.974
 7238SOL    HW122613   4.114   3.587   6.880
 7238SOL    HW222614   4.040   3.487   6.986
 7239SOL     OW22615   5.557   2.541   1.846
 7239SOL    HW122616   5.541   2.613   1.778
 7239SOL    HW222617   5.654   2.534   1.866
 7240SOL     OW22618   0.226   1.509   0.180
 7240SOL    HW122619   0.258   1.417   0.204
 7240SOL    HW222620   0.301   1.574   0.193
 7241SOL     OW22621   1.671   6.978   2.586
 7241SOL    HW122622   1.592   7.015   2.538
 7241SOL    HW222623   1.666   6.879   2.588
 7242SOL     OW22624   6.501   4.340   5.289
 7242SOL    HW122625   6.569   4.363   5.220
 7242SOL    HW222626   6.493   4.416   5.354
 7243SOL     OW22627   5.656   4.622   6.180
 7243SOL    HW122628   5.689   4.675   6.102
 7243SOL    HW222629   5.589   4.554   6.148
 7244SOL     OW22630   6.554   5.834   6.640
 7244SOL    HW122631   6.609   5.765   6.689
 7244SOL    HW222632   6.474   5.790   6.599
 7245SOL     OW22633   1.531   2.607   6.955
 7245SOL    HW122634   1.444   2.559   6.966
 7245SOL    HW222635   1.604   2.555   6.999
 7246SOL     OW22636   3.998   0.016   3.532
 7246SOL    HW122637   4.039   0.063   3.454
 7246SOL    HW222638   4.052   6.957   3.554
 7247SOL     OW22639   3.142   3.817   4.428
 7247SOL    HW122640   3.135   3.892   4.362
 7247SOL    HW222641   3.237   3.786   4.433
 7248SOL     OW22642   2.859   1.869   5.439
 7248SOL    HW122643   2.933   1.927   5.475
 7248SOL    HW222644   2.863   1.779   5.484
 7249SOL     OW22645   3.156   5.762   2.937
 7249SOL    HW122646   3.076   5.784   2.880
 7249SOL    HW222647   3.190   5.846   2.979
 7250SOL     OW22648   5.523   5.498   5.506
 7250SOL    HW122649   5.488   5.483   5.598
 7250SOL    HW222650   5.481   5.433   5.443
 7251SOL     OW22651   0.917   5.732   4.106
 7251SOL    HW122652   0.899   5.774   4.016
 7251SOL    HW222653   0.976   5.652   4.094
 7252SOL     OW22654   4.093   3.625   2.152
 7252SOL    HW122655   4.123   3.607   2.058
 7252SOL    HW222656   4.054   3.717   2.158
 7253SOL     OW22657   2.052   5.184   4.744
 7253SOL    HW122658   2.115   5.259   4.765
 7253SOL    HW222659   2.050   5.120   4.821
 7254SOL     OW22660   6.502   3.824   3.898
 7254SOL    HW122661   6.460   3.765   3.829
 7254SOL    HW222662   6.548   3.901   3.853
 7255SOL     OW22663   4.692   3.881   7.020
 7255SOL    HW122664   4.649   3.792   0.005
 7255SOL    HW222665   4.694   3.925   0.087
 7256SOL     OW22666   3.336   6.992   4.294
 7256SOL    HW122667   3.359   6.895   4.287
 7256SOL    HW222668   3.237   7.003   4.286
 7257SOL     OW22669   0.774   1.276   5.052
 7257SOL    HW122670   0.677   1.253   5.051
 7257SOL    HW222671   0.784   1.376   5.049
 7258SOL     OW22672   6.376   2.417   1.875
 7258SOL    HW122673   6.471   2.421   1.844
 7258SOL    HW222674   6.364   2.479   1.953
 7259SOL     OW22675   1.419   3.927   2.681
 7259SOL    HW122676   1.372   4.015   2.693
 7259SOL    HW222677   1.392   3.865   2.754
 7260SOL     OW22678   6.065   3.204   1.101
 7260SOL    HW122679   6.015   3.121   1.077
 7260SOL    HW222680   6.158   3.180   1.128
 7261SOL     OW22681   6.938   3.995   6.970
 7261SOL    HW122682   6.838   4.008   6.974
 7261SOL    HW222683   6.959   3.897   6.978
 7262SOL     OW22684   4.649   1.251   5.031
 7262SOL    HW122685   4.637   1.302   4.945
 7262SOL    HW222686   4.570   1.192   5.046
 7263SOL     OW22687   6.214   5.382   5.685
 7263SOL    HW122688   6.214   5.471   5.639
 7263SOL    HW222689   6.180   5.312   5.622
 7264SOL     OW22690   5.781   1.388   1.635
 7264SOL    HW122691   5.793   1.370   1.733
 7264SOL    HW222692   5.727   1.471   1.623
 7265SOL     OW22693   4.015   0.819   5.481
 7265SOL    HW122694   4.013   0.847   5.577
 7265SOL    HW222695   4.017   0.720   5.475
 7266SOL     OW22696   0.188   0.616   3.038
 7266SOL    HW122697   0.189   0.693   2.975
 7266SOL    HW222698   0.159   0.647   3.128
 7267SOL     OW22699   6.628   4.288   4.423
 7267SOL    HW122700   6.659   4.222   4.355
 7267SOL    HW222701   6.706   4.322   4.475
 7268SOL     OW22702   5.856   6.535   4.169
 7268SOL    HW122703   5.810   6.446   4.167
 7268SOL    HW222704   5.950   6.525   4.137
 7269SOL     OW22705   2.654   4.980   4.369
 7269SOL    HW122706   2.719   4.927   4.424
 7269SOL    HW222707   2.641   5.070   4.412
 7270SOL     OW22708   0.694   0.093   4.647
 7270SOL    HW122709   0.638   0.150   4.586
 7270SOL    HW222710   0.668   0.110   4.742
 7271SOL     OW22711   0.645   4.903   3.263
 7271SOL    HW122712   0.714   4.836   3.236
 7271SOL    HW222713   0.559   4.883   3.217
 7272SOL     OW22714   6.245   4.015   1.900
 7272SOL    HW122715   6.316   3.986   1.963
 7272SOL    HW222716   6.278   4.091   1.843
 7273SOL     OW22717   0.646   1.529   5.328
 7273SOL    HW122718   0.645   1.601   5.397
 7273SOL    HW222719   0.741   1.512   5.299
 7274SOL     OW22720   0.138   5.214   6.063
 7274SOL    HW122721   0.200   5.283   6.026
 7274SOL    HW222722   0.054   5.258   6.095
 7275SOL     OW22723   0.836   5.741   3.668
 7275SOL    HW122724   0.820   5.690   3.752
 7275SOL    HW222725   0.750   5.776   3.633
 7276SOL     OW22726   4.572   6.130   3.522
 7276SOL    HW122727   4.579   6.049   3.580
 7276SOL    HW222728   4.606   6.210   3.571
 7277SOL     OW22729   4.927   0.779   0.532
 7277SOL    HW122730   4.907   0.838   0.610
 7277SOL    HW222731   4.893   0.822   0.449
 7278SOL     OW22732   3.690   2.860   2.432
 7278SOL    HW122733   3.761   2.914   2.387
 7278SOL    HW222734   3.621   2.833   2.364
 7279SOL     OW22735   3.492   0.076   6.218
 7279SOL    HW122736   3.513   0.174   6.208
 7279SOL    HW222737   3.416   0.052   6.158
 7280SOL     OW22738   4.922   1.506   6.178
 7280SOL    HW122739   4.874   1.585   6.140
 7280SOL    HW222740   4.860   1.455   6.238
 7281SOL     OW22741   5.895   1.465   6.015
 7281SOL    HW122742   5.936   1.393   5.959
 7281SOL    HW222743   5.796   1.451   6.021
 7282SOL     OW22744   5.652   6.045   2.201
 7282SOL    HW122745   5.726   6.017   2.141
 7282SOL    HW222746   5.660   6.143   2.219
 7283SOL     OW22747   2.362   0.977   4.032
 7283SOL    HW122748   2.406   0.910   4.092
 7283SOL    HW222749   2.418   0.988   3.950
 7284SOL     OW22750   1.084   1.709   5.271
 7284SOL    HW122751   1.067   1.776   5.198
 7284SOL    HW222752   1.104   1.757   5.356
 7285SOL     OW22753   6.180   5.048   1.659
 7285SOL    HW122754   6.190   5.049   1.758
 7285SOL    HW222755   6.144   5.136   1.628
 7286SOL     OW22756   2.170   4.286   0.836
 7286SOL    HW122757   2.108   4.208   0.844
 7286SOL    HW222758   2.129   4.366   0.880
 7287SOL     OW22759   5.955   1.497   5.535
 7287SOL    HW122760   5.924   1.544   5.617
 7287SOL    HW222761   6.038   1.542   5.500
 7288SOL     OW22762   2.602   6.966   0.194
 7288SOL    HW122763   2.560   0.006   0.259
 7288SOL    HW222764   2.692   7.002   0.167
 7289SOL     OW22765   4.789   2.354   4.410
 7289SOL    HW122766   4.706   2.352   4.466
 7289SOL    HW222767   4.793   2.440   4.359
 7290SOL     OW22768   2.828   5.738   4.493
 7290SOL    HW122769   2.862   5.748   4.399
 7290SOL    HW222770   2.905   5.731   4.556
 7291SOL     OW22771   3.526   4.756   1.425
 7291SOL    HW122772   3.497   4.732   1.517
 7291SOL    HW222773   3.491   4.847   1.401
 7292SOL     OW22774   3.295   0.055   4.893
 7292SOL    HW122775   3.338   0.029   4.806
 7292SOL    HW222776   3.353   0.028   4.969
 7293SOL     OW22777   1.614   1.534   6.732
 7293SOL    HW122778   1.623   1.610   6.798
 7293SOL    HW222779   1.705   1.506   6.702
 7294SOL     OW22780   5.026   5.527   0.240
 7294SOL    HW122781   5.100   5.568   0.187
 7294SOL    HW222782   4.983   5.454   0.188
 7295SOL     OW22783   5.174   0.151   1.266
 7295SOL    HW122784   5.183   0.240   1.221
 7295SOL    HW222785   5.135   0.164   1.357
 7296SOL     OW22786   4.245   5.142   1.520
 7296SOL    HW122787   4.163   5.183   1.559
 7296SOL    HW222788   4.220   5.060   1.469
 7297SOL     OW22789   4.946   6.735   2.168
 7297SOL    HW122790   4.903   6.746   2.078
 7297SOL    HW222791   4.924   6.814   2.225
 7298SOL     OW22792   6.691   3.438   4.267
 7298SOL    HW122793   6.632   3.416   4.190
 7298SOL    HW222794   6.787   3.429   4.241
 7299SOL     OW22795   5.557   3.564   6.454
 7299SOL    HW122796   5.641   3.616   6.438
 7299SOL    HW222797   5.483   3.603   6.399
 7300SOL     OW22798   4.783   5.618   1.559
 7300SOL    HW122799   4.812   5.606   1.465
 7300SOL    HW222800   4.861   5.649   1.614
 7301SOL     OW22801   6.735   1.217   6.148
 7301SOL    HW122802   6.652   1.193   6.198
 7301SOL    HW222803   6.813   1.215   6.209
 7302SOL     OW22804   5.879   0.759   6.391
 7302SOL    HW122805   5.965   0.708   6.394
 7302SOL    HW222806   5.842   0.756   6.298
 7303SOL     OW22807   3.661   0.483   0.777
 7303SOL    HW122808   3.731   0.486   0.706
 7303SOL    HW222809   3.673   0.559   0.839
 7304SOL     OW22810   3.988   3.592   5.260
 7304SOL    HW122811   3.900   3.604   5.215
 7304SOL    HW222812   3.976   3.532   5.339
 7305SOL     OW22813   5.405   1.858   0.352
 7305SOL    HW122814   5.397   1.834   0.255
 7305SOL    HW222815   5.382   1.779   0.408
 7306SOL     OW22816   5.131   5.112   2.264
 7306SOL    HW122817   5.217   5.077   2.302
 7306SOL    HW222818   5.139   5.210   2.245
 7307SOL     OW22819   4.187   6.283   2.259
 7307SOL    HW122820   4.262   6.273   2.194
 7307SOL    HW222821   4.172   6.196   2.306
 7308SOL     OW22822   6.200   0.628   4.039
 7308SOL    HW122823   6.199   0.726   4.056
 7308SOL    HW222824   6.288   0.602   4.000
 7309SOL     OW22825   4.311   5.188   2.004
 7309SOL    HW122826   4.356   5.194   2.093
 7309SOL    HW222827   4.377   5.211   1.932
 7310SOL     OW22828   2.149   5.575   1.723
 7310SOL    HW122829   2.116   5.670   1.727
 7310SOL    HW222830   2.249   5.574   1.725
 7311SOL     OW22831   2.727   2.059   2.352
 7311SOL    HW122832   2.735   2.058   2.252
 7311SOL    HW222833   2.713   1.965   2.385
 7312SOL     OW22834   6.945   2.330   6.277
 7312SOL    HW122835   6.849   2.303   6.275
 7312SOL    HW222836   6.998   2.270   6.217
 7313SOL     OW22837   3.553   2.469   6.126
 7313SOL    HW122838   3.518   2.456   6.034
 7313SOL    HW222839   3.638   2.521   6.123
 7314SOL     OW22840   1.199   2.833   4.440
 7314SOL    HW122841   1.167   2.752   4.489
 7314SOL    HW222842   1.252   2.891   4.502
 7315SOL     OW22843   6.996   0.666   5.803
 7315SOL    HW122844   6.940   0.615   5.738
 7315SOL    HW222845   6.949   0.671   5.891
 7316SOL     OW22846   4.122   3.414   4.983
 7316SOL    HW122847   4.089   3.485   4.921
 7316SOL    HW222848   4.115   3.325   4.939
 7317SOL     OW22849   2.871   1.176   3.781
 7317SOL    HW122850   2.900   1.157   3.875
 7317SOL    HW222851   2.876   1.092   3.727
 7318SOL     OW22852   1.676   1.759   1.342
 7318SOL    HW122853   1.586   1.801   1.331
 7318SOL    HW222854   1.665   1.668   1.383
 7319SOL     OW22855   0.151   3.995   6.140
 7319SOL    HW122856   0.209   3.934   6.086
 7319SOL    HW222857   0.208   4.059   6.192
 7320SOL     OW22858   6.901   2.260   2.454
 7320SOL    HW122859   6.825   2.196   2.453
 7320SOL    HW222860   6.973   2.227   2.394
 7321SOL     OW22861   2.821   1.688   4.226
 7321SOL    HW122862   2.877   1.667   4.146
 7321SOL    HW222863   2.876   1.680   4.309
 7322SOL     OW22864   0.295   3.757   1.730
 7322SOL    HW122865   0.257   3.745   1.638
 7322SOL    HW222866   0.229   3.724   1.798
 7323SOL     OW22867   2.228   4.179   3.329
 7323SOL    HW122868   2.234   4.114   3.254
 7323SOL    HW222869   2.174   4.139   3.403
 7324SOL     OW22870   5.159   5.458   2.873
 7324SOL    HW122871   5.114   5.421   2.792
 7324SOL    HW222872   5.130   5.553   2.886
 7325SOL     OW22873   3.191   6.265   0.694
 7325SOL    HW122874   3.268   6.244   0.754
 7325SOL    HW222875   3.142   6.345   0.728
 7326SOL     OW22876   2.345   0.917   4.688
 7326SOL    HW122877   2.301   0.990   4.741
 7326SOL    HW222878   2.346   0.833   4.742
 7327SOL     OW22879   1.441   2.826   5.377
 7327SOL    HW122880   1.487   2.741   5.405
 7327SOL    HW222881   1.500   2.904   5.398
 7328SOL     OW22882   2.276   0.093   6.593
 7328SOL    HW122883   2.294   0.100   6.495
 7328SOL    HW222884   2.334   0.023   6.634
 7329SOL     OW22885   4.430   3.475   1.563
 7329SOL    HW122886   4.503   3.433   1.616
 7329SOL    HW222887   4.352   3.494   1.623
 7330SOL     OW22888   4.428   2.467   0.857
 7330SOL    HW122889   4.526   2.483   0.846
 7330SOL    HW222890   4.403   2.478   0.953
 7331SOL     OW22891   5.025   1.359   2.010
 7331SOL    HW122892   5.021   1.314   2.099
 7331SOL    HW222893   5.120   1.359   1.977
 7332SOL     OW22894   3.553   5.405   0.748
 7332SOL    HW122895   3.627   5.340   0.764
 7332SOL    HW222896   3.506   5.424   0.834
 7333SOL     OW22897   0.528   4.911   2.610
 7333SOL    HW122898   0.494   4.822   2.579
 7333SOL    HW222899   0.506   4.923   2.707
 7334SOL     OW22900   3.690   6.902   4.595
 7334SOL    HW122901   3.737   6.906   4.683
 7334SOL    HW222902   3.737   6.961   4.529
 7335SOL     OW22903   2.131   3.249   2.754
 7335SOL    HW122904   2.118   3.294   2.666
 7335SOL    HW222905   2.081   3.299   2.825
 7336SOL     OW22906   1.805   6.172   4.117
 7336SOL    HW122907   1.857   6.257   4.105
 7336SOL    HW222908   1.868   6.094   4.119
 7337SOL     OW22909   4.899   2.390   1.910
 7337SOL    HW122910   4.973   2.433   1.859
 7337SOL    HW222911   4.856   2.457   1.971
 7338SOL     OW22912   6.627   2.955   6.871
 7338SOL    HW122913   6.625   3.054   6.856
 7338SOL    HW222914   6.713   2.918   6.834
 7339SOL     OW22915   1.272   5.843   4.772
 7339SOL    HW122916   1.185   5.867   4.816
 7339SOL    HW222917   1.346   5.846   4.839
 7340SOL     OW22918   2.408   6.888   6.703
 7340SOL    HW122919   2.319   6.843   6.699
 7340SOL    HW222920   2.433   6.904   6.799
 7341SOL     OW22921   6.563   1.553   0.784
 7341SOL    HW122922   6.501   1.629   0.765
 7341SOL    HW222923   6.533   1.472   0.734
 7342SOL     OW22924   0.520   6.387   2.208
 7342SOL    HW122925   0.491   6.417   2.299
 7342SOL    HW222926   0.604   6.435   2.182
 7343SOL     OW22927   5.860   2.875   0.665
 7343SOL    HW122928   5.774   2.923   0.646
 7343SOL    HW222929   5.846   2.777   0.655
 7344SOL     OW22930   2.098   6.104   5.963
 7344SOL    HW122931   2.162   6.046   6.012
 7344SOL    HW222932   2.124   6.200   5.975
 7345SOL     OW22933   3.298   5.699   5.704
 7345SOL    HW122934   3.351   5.741   5.778
 7345SOL    HW222935   3.339   5.611   5.679
 7346SOL     OW22936   3.913   5.273   2.201
 7346SOL    HW122937   3.851   5.219   2.258
 7346SOL    HW222938   3.943   5.218   2.123
 7347SOL     OW22939   5.952   1.396   0.177
 7347SOL    HW122940   6.036   1.447   0.158
 7347SOL    HW222941   5.969   1.298   0.164
 7348SOL     OW22942   6.556   4.683   0.188
 7348SOL    HW122943   6.606   4.724   0.112
 7348SOL    HW222944   6.475   4.739   0.208
 7349SOL     OW22945   3.911   1.786   1.536
 7349SOL    HW122946   4.003   1.796   1.498
 7349SOL    HW222947   3.846   1.837   1.480
 7350SOL     OW22948   3.919   0.732   4.443
 7350SOL    HW122949   3.921   0.820   4.489
 7350SOL    HW222950   4.002   0.720   4.389
 7351SOL     OW22951   2.163   4.586   4.515
 7351SOL    HW122952   2.232   4.524   4.552
 7351SOL    HW222953   2.146   4.563   4.419
 7352SOL     OW22954   6.176   3.782   4.180
 7352SOL    HW122955   6.203   3.705   4.236
 7352SOL    HW222956   6.202   3.868   4.224
 7353SOL     OW22957   6.370   0.902   5.319
 7353SOL    HW122958   6.277   0.886   5.352
 7353SOL    HW222959   6.436   0.877   5.390
 7354SOL     OW22960   0.813   1.725   2.785
 7354SOL    HW122961   0.725   1.682   2.766
 7354SOL    HW222962   0.871   1.661   2.836
 7355SOL     OW22963   3.556   1.620   0.231
 7355SOL    HW122964   3.592   1.609   0.324
 7355SOL    HW222965   3.463   1.585   0.228
 7356SOL     OW22966   3.904   3.793   6.003
 7356SOL    HW122967   3.944   3.763   5.916
 7356SOL    HW222968   3.894   3.892   6.002
 7357SOL     OW22969   5.184   6.706   2.046
 7357SOL    HW122970   5.105   6.714   2.107
 7357SOL    HW222971   5.259   6.663   2.095
 7358SOL     OW22972   5.523   0.695   3.475
 7358SOL    HW122973   5.487   0.705   3.382
 7358SOL    HW222974   5.447   0.697   3.540
 7359SOL     OW22975   4.349   6.818   1.867
 7359SOL    HW122976   4.328   6.722   1.849
 7359SOL    HW222977   4.265   6.872   1.860
 7360SOL     OW22978   2.794   3.360   5.288
 7360SOL    HW122979   2.861   3.381   5.217
 7360SOL    HW222980   2.777   3.261   5.290
 7361SOL     OW22981   6.970   0.380   3.284
 7361SOL    HW122982   6.982   0.300   3.343
 7361SOL    HW222983   6.986   0.463   3.336
 7362SOL     OW22984   3.175   5.846   0.219
 7362SOL    HW122985   3.184   5.747   0.227
 7362SOL    HW222986   3.265   5.887   0.205
 7363SOL     OW22987   4.133   0.916   1.244
 7363SOL    HW122988   4.162   0.944   1.335
 7363SOL    HW222989   4.214   0.910   1.184
 7364SOL     OW22990   6.062   6.420   1.885
 7364SOL    HW122991   6.056   6.326   1.852
 7364SOL    HW222992   5.982   6.442   1.940
 7365SOL     OW22993   4.802   3.971   2.306
 7365SOL    HW122994   4.727   4.026   2.342
 7365SOL    HW222995   4.879   3.976   2.370
 7366SOL     OW22996   2.411   6.998   3.336
 7366SOL    HW122997   2.372   0.037   3.404
 7366SOL    HW222998   2.507   7.022   3.320
 7367SOL     OW22999   4.490   0.939   6.255
 7367SOL    HW123000   4.579   0.907   6.221
 7367SOL    HW223001   4.474   0.900   6.346
 7368SOL     OW23002   3.474   3.147   3.377
 7368SOL    HW123003   3.454   3.215   3.448
 7368SOL    HW223004   3.491   3.058   3.420
 7369SOL     OW23005   5.873   3.453   0.237
 7369SOL    HW123006   5.809   3.376   0.238
 7369SOL    HW223007   5.936   3.445   0.315
 7370SOL     OW23008   1.720   1.390   4.758
 7370SOL    HW123009   1.754   1.312   4.810
 7370SOL    HW223010   1.706   1.364   4.662
 7371SOL     OW23011   3.658   1.155   3.744
 7371SOL    HW123012   3.632   1.058   3.743
 7371SOL    HW223013   3.750   1.166   3.707
 7372SOL     OW23014   5.035   1.512   5.275
 7372SOL    HW123015   5.126   1.530   5.313
 7372SOL    HW223016   5.044   1.480   5.180
 7373SOL     OW23017   6.090   3.019   4.413
 7373SOL    HW123018   6.054   3.027   4.320
 7373SOL    HW223019   6.189   3.002   4.408
 7374SOL     OW23020   0.361   2.033   6.518
 7374SOL    HW123021   0.453   2.040   6.555
 7374SOL    HW223022   0.333   2.122   6.481
 7375SOL     OW23023   1.940   3.619   0.680
 7375SOL    HW123024   2.026   3.590   0.722
 7375SOL    HW223025   1.959   3.689   0.612
 7376SOL     OW23026   6.893   4.321   0.712
 7376SOL    HW123027   6.910   4.319   0.614
 7376SOL    HW223028   6.916   4.232   0.752
 7377SOL     OW23029   2.658   5.842   1.229
 7377SOL    HW123030   2.679   5.883   1.317
 7377SOL    HW223031   2.708   5.756   1.219
 7378SOL     OW23032   1.994   4.922   5.189
 7378SOL    HW123033   1.900   4.888   5.202
 7378SOL    HW223034   2.057   4.866   5.244
 7379SOL     OW23035   4.411   1.895   2.503
 7379SOL    HW123036   4.416   1.941   2.414
 7379SOL    HW223037   4.360   1.810   2.494
 7380SOL     OW23038   5.332   3.236   1.653
 7380SOL    HW123039   5.428   3.262   1.660
 7380SOL    HW223040   5.314   3.157   1.712
 7381SOL     OW23041   3.709   6.777   1.822
 7381SOL    HW123042   3.766   6.857   1.837
 7381SOL    HW223043   3.725   6.741   1.730
 7382SOL     OW23044   0.046   1.520   6.342
 7382SOL    HW123045   0.032   1.472   6.255
 7382SOL    HW223046   0.043   1.455   6.417
 7383SOL     OW23047   2.037   6.682   0.721
 7383SOL    HW123048   1.985   6.606   0.760
 7383SOL    HW223049   2.130   6.683   0.758
 7384SOL     OW23050   6.891   6.401   0.774
 7384SOL    HW123051   6.931   6.403   0.866
 7384SOL    HW223052   6.957   6.361   0.710
 7385SOL     OW23053   6.132   4.845   3.170
 7385SOL    HW123054   6.075   4.925   3.151
 7385SOL    HW223055   6.217   4.851   3.117
 7386SOL     OW23056   5.344   3.709   6.629
 7386SOL    HW123057   5.347   3.611   6.610
 7386SOL    HW223058   5.254   3.744   6.605
 7387SOL     OW23059   6.463   6.010   4.264
 7387SOL    HW123060   6.425   6.051   4.180
 7387SOL    HW223061   6.404   5.934   4.293
 7388SOL     OW23062   2.315   4.263   2.512
 7388SOL    HW123063   2.280   4.356   2.521
 7388SOL    HW223064   2.239   4.199   2.505
 7389SOL     OW23065   6.671   3.222   0.389
 7389SOL    HW123066   6.668   3.137   0.336
 7389SOL    HW223067   6.595   3.281   0.362
 7390SOL     OW23068   2.797   2.348   3.801
 7390SOL    HW123069   2.721   2.284   3.794
 7390SOL    HW223070   2.877   2.311   3.754
 7391SOL     OW23071   3.585   3.910   3.113
 7391SOL    HW123072   3.647   3.974   3.159
 7391SOL    HW223073   3.619   3.817   3.123
 7392SOL     OW23074   3.161   0.033   0.425
 7392SOL    HW123075   3.086   7.008   0.380
 7392SOL    HW223076   3.125   0.088   0.501
 7393SOL     OW23077   4.703   5.722   3.326
 7393SOL    HW123078   4.757   5.650   3.369
 7393SOL    HW223079   4.606   5.698   3.328
 7394SOL     OW23080   2.234   2.071   5.932
 7394SOL    HW123081   2.179   2.067   5.848
 7394SOL    HW223082   2.316   2.125   5.916
 7395SOL     OW23083   2.930   5.891   0.884
 7395SOL    HW123084   2.883   5.809   0.851
 7395SOL    HW223085   2.974   5.938   0.808
 7396SOL     OW23086   1.376   5.035   2.190
 7396SOL    HW123087   1.321   4.961   2.151
 7396SOL    HW223088   1.450   5.058   2.126
 7397SOL     OW23089   5.883   4.696   4.116
 7397SOL    HW123090   5.806   4.637   4.093
 7397SOL    HW223091   5.969   4.648   4.096
 7398SOL     OW23092   3.113   4.866   2.266
 7398SOL    HW123093   3.196   4.883   2.213
 7398SOL    HW223094   3.045   4.820   2.209
 7399SOL     OW23095   5.717   1.287   5.867
 7399SOL    HW123096   5.752   1.202   5.906
 7399SOL    HW223097   5.644   1.266   5.801
 7400SOL     OW23098   4.656   3.781   5.884
 7400SOL    HW123099   4.695   3.761   5.795
 7400SOL    HW223100   4.589   3.856   5.876
 7401SOL     OW23101   1.468   2.522   3.737
 7401SOL    HW123102   1.529   2.600   3.724
 7401SOL    HW223103   1.481   2.485   3.829
 7402SOL     OW23104   3.592   5.447   4.227
 7402SOL    HW123105   3.620   5.438   4.323
 7402SOL    HW223106   3.623   5.536   4.192
 7403SOL     OW23107   1.957   4.229   4.256
 7403SOL    HW123108   1.861   4.253   4.266
 7403SOL    HW223109   2.013   4.293   4.309
 7404SOL     OW23110   2.828   3.771   0.619
 7404SOL    HW123111   2.803   3.827   0.540
 7404SOL    HW223112   2.917   3.800   0.654
 7405SOL     OW23113   3.844   6.746   5.657
 7405SOL    HW123114   3.836   6.846   5.662
 7405SOL    HW223115   3.762   6.708   5.615
 7406SOL     OW23116   1.064   2.175   4.427
 7406SOL    HW123117   1.000   2.184   4.351
 7406SOL    HW223118   1.018   2.200   4.512
 7407SOL     OW23119   1.466   6.027   5.632
 7407SOL    HW123120   1.377   6.016   5.588
 7407SOL    HW223121   1.533   5.968   5.586
 7408SOL     OW23122   4.305   5.588   4.901
 7408SOL    HW123123   4.350   5.660   4.954
 7408SOL    HW223124   4.241   5.538   4.959
 7409SOL     OW23125   6.753   4.426   1.466
 7409SOL    HW123126   6.772   4.508   1.520
 7409SOL    HW223127   6.712   4.356   1.525
 7410SOL     OW23128   6.589   0.829   1.421
 7410SOL    HW123129   6.604   0.791   1.512
 7410SOL    HW223130   6.544   0.761   1.363
 7411SOL     OW23131   3.374   1.718   5.260
 7411SOL    HW123132   3.423   1.657   5.198
 7411SOL    HW223133   3.281   1.685   5.274
 7412SOL     OW23134   4.110   6.896   0.530
 7412SOL    HW123135   4.094   6.992   0.508
 7412SOL    HW223136   4.176   6.858   0.465
 7413SOL     OW23137   4.756   1.084   3.672
 7413SOL    HW123138   4.715   1.163   3.626
 7413SOL    HW223139   4.818   1.116   3.743
 7414SOL     OW23140   2.722   0.875   4.043
 7414SOL    HW123141   2.646   0.846   4.101
 7414SOL    HW223142   2.716   0.830   3.954
 7415SOL     OW23143   3.816   0.094   6.122
 7415SOL    HW123144   3.745   0.160   6.099
 7415SOL    HW223145   3.776   0.019   6.175
 7416SOL     OW23146   1.807   0.614   1.668
 7416SOL    HW123147   1.729   0.614   1.730
 7416SOL    HW223148   1.818   0.522   1.629
 7417SOL     OW23149   0.732   0.707   2.274
 7417SOL    HW123150   0.781   0.623   2.298
 7417SOL    HW223151   0.738   0.721   2.175
 7418SOL     OW23152   1.406   4.233   6.244
 7418SOL    HW123153   1.378   4.287   6.323
 7418SOL    HW223154   1.495   4.190   6.263
 7419SOL     OW23155   6.939   3.163   4.045
 7419SOL    HW123156   6.959   3.163   3.947
 7419SOL    HW223157   6.876   3.088   4.066
 7420SOL     OW23158   6.578   6.312   1.097
 7420SOL    HW123159   6.607   6.383   1.033
 7420SOL    HW223160   6.625   6.325   1.184
 7421SOL     OW23161   5.694   4.010   0.983
 7421SOL    HW123162   5.704   3.936   0.916
 7421SOL    HW223163   5.766   4.003   1.052
 7422SOL     OW23164   5.581   3.303   1.764
 7422SOL    HW123165   5.606   3.381   1.707
 7422SOL    HW223166   5.664   3.260   1.800
 7423SOL     OW23167   4.639   2.505   6.413
 7423SOL    HW123168   4.548   2.468   6.396
 7423SOL    HW223169   4.645   2.535   6.509
 7424SOL     OW23170   0.844   2.515   3.781
 7424SOL    HW123171   0.817   2.431   3.736
 7424SOL    HW223172   0.924   2.498   3.839
 7425SOL     OW23173   5.684   0.827   0.934
 7425SOL    HW123174   5.753   0.854   1.001
 7425SOL    HW223175   5.596   0.815   0.980
 7426SOL     OW23176   2.793   2.916   5.741
 7426SOL    HW123177   2.744   2.938   5.657
 7426SOL    HW223178   2.864   2.984   5.757
 7427SOL     OW23179   2.702   0.035   3.247
 7427SOL    HW123180   2.702   6.983   3.181
 7427SOL    HW223181   2.796   0.059   3.270
 7428SOL     OW23182   3.400   0.356   5.164
 7428SOL    HW123183   3.498   0.372   5.174
 7428SOL    HW223184   3.369   0.391   5.075
 7429SOL     OW23185   0.876   0.426   2.314
 7429SOL    HW123186   0.861   0.431   2.216
 7429SOL    HW223187   0.895   0.331   2.341
 7430SOL     OW23188   0.038   4.682   2.892
 7430SOL    HW123189   7.020   4.667   2.803
 7430SOL    HW223190   7.003   4.641   2.963
 7431SOL     OW23191   0.859   1.844   3.785
 7431SOL    HW123192   0.811   1.931   3.792
 7431SOL    HW223193   0.797   1.774   3.749
 7432SOL     OW23194   1.745   0.899   3.132
 7432SOL    HW123195   1.808   0.917   3.207
 7432SOL    HW223196   1.725   0.985   3.084
 7433SOL     OW23197   3.116   6.846   6.618
 7433SOL    HW123198   3.140   6.834   6.522
 7433SOL    HW223199   3.198   6.843   6.674
 7434SOL     OW23200   4.315   0.245   3.671
 7434SOL    HW123201   4.217   0.228   3.669
 7434SOL    HW223202   4.351   0.223   3.761
 7435SOL     OW23203   4.859   4.731   3.120
 7435SOL    HW123204   4.942   4.784   3.107
 7435SOL    HW223205   4.792   4.786   3.170
 7436SOL     OW23206   5.342   3.033   6.169
 7436SOL    HW123207   5.357   3.127   6.138
 7436SOL    HW223208   5.247   3.007   6.153
 7437SOL     OW23209   3.559   0.728   1.447
 7437SOL    HW123210   3.614   0.735   1.363
 7437SOL    HW223211   3.463   0.720   1.423
 7438SOL     OW23212   2.100   0.407   6.516
 7438SOL    HW123213   2.184   0.418   6.463
 7438SOL    HW223214   2.097   0.314   6.554
 7439SOL     OW23215   0.953   4.780   6.201
 7439SOL    HW123216   0.928   4.739   6.114
 7439SOL    HW223217   1.047   4.816   6.195
 7440SOL     OW23218   5.657   3.808   4.272
 7440SOL    HW123219   5.668   3.904   4.298
 7440SOL    HW223220   5.723   3.752   4.322
 7441SOL     OW23221   4.689   5.962   1.055
 7441SOL    HW123222   4.684   5.862   1.056
 7441SOL    HW223223   4.654   5.996   0.967
 7442SOL     OW23224   5.722   1.058   6.307
 7442SOL    HW123225   5.662   1.042   6.385
 7442SOL    HW223226   5.744   0.971   6.263
 7443SOL     OW23227   0.120   0.455   1.560
 7443SOL    HW123228   0.089   0.367   1.522
 7443SOL    HW223229   0.161   0.509   1.487
 7444SOL     OW23230   1.478   6.336   7.004
 7444SOL    HW123231   1.462   6.363   0.076
 7444SOL    HW223232   1.549   6.395   6.965
 7445SOL     OW23233   3.609   5.775   2.417
 7445SOL    HW123234   3.658   5.745   2.499
 7445SOL    HW223235   3.512   5.754   2.426
 7446SOL     OW23236   5.788   4.712   6.972
 7446SOL    HW123237   5.762   4.616   6.984
 7446SOL    HW223238   5.888   4.718   6.966
 7447SOL     OW23239   0.936   5.227   1.187
 7447SOL    HW123240   0.948   5.248   1.090
 7447SOL    HW223241   0.863   5.284   1.225
 7448SOL     OW23242   4.458   5.035   6.765
 7448SOL    HW123243   4.534   4.981   6.728
 7448SOL    HW223244   4.384   4.974   6.791
 7449SOL     OW23245   6.055   4.499   6.104
 7449SOL    HW123246   6.138   4.527   6.153
 7449SOL    HW223247   6.080   4.455   6.018
 7450SOL     OW23248   6.024   2.168   6.540
 7450SOL    HW123249   6.039   2.069   6.548
 7450SOL    HW223250   6.002   2.191   6.445
 7451SOL     OW23251   4.562   4.483   3.095
 7451SOL    HW123252   4.602   4.411   3.151
 7451SOL    HW223253   4.466   4.497   3.122
 7452SOL     OW23254   6.384   5.547   6.275
 7452SOL    HW123255   6.385   5.527   6.178
 7452SOL    HW223256   6.292   5.528   6.312
 7453SOL     OW23257   4.002   5.946   6.119
 7453SOL    HW123258   3.991   5.875   6.189
 7453SOL    HW223259   3.956   6.030   6.150
 7454SOL     OW23260   3.498   2.204   1.128
 7454SOL    HW123261   3.445   2.158   1.200
 7454SOL    HW223262   3.593   2.215   1.158
 7455SOL     OW23263   6.680   0.638   3.175
 7455SOL    HW123264   6.712   0.720   3.221
 7455SOL    HW223265   6.744   0.613   3.102
 7456SOL     OW23266   2.985   2.229   6.076
 7456SOL    HW123267   2.927   2.150   6.096
 7456SOL    HW223268   2.928   2.311   6.065
 7457SOL     OW23269   1.136   1.099   2.710
 7457SOL    HW123270   1.229   1.135   2.699
 7457SOL    HW223271   1.141   1.004   2.742
 7458SOL     OW23272   0.809   5.232   5.256
 7458SOL    HW123273   0.769   5.147   5.224
 7458SOL    HW223274   0.743   5.306   5.247
 7459SOL     OW23275   5.941   0.095   3.371
 7459SOL    HW123276   5.968   0.127   3.281
 7459SOL    HW223277   6.012   0.117   3.437
 7460SOL     OW23278   1.075   0.638   1.295
 7460SOL    HW123279   1.092   0.577   1.372
 7460SOL    HW223280   1.032   0.722   1.327
 7461SOL     OW23281   1.904   4.618   4.640
 7461SOL    HW123282   1.989   4.627   4.588
 7461SOL    HW223283   1.927   4.601   4.736
 7462SOL     OW23284   1.929   4.456   0.273
 7462SOL    HW123285   1.941   4.545   0.317
 7462SOL    HW223286   1.978   4.455   0.186
 7463SOL     OW23287   4.792   5.228   2.014
 7463SOL    HW123288   4.761   5.133   2.009
 7463SOL    HW223289   4.807   5.263   1.921
 7464SOL     OW23290   6.122   5.619   5.095
 7464SOL    HW123291   6.198   5.670   5.057
 7464SOL    HW223292   6.155   5.533   5.134
 7465SOL     OW23293   1.315   4.424   6.566
 7465SOL    HW123294   1.324   4.497   6.499
 7465SOL    HW223295   1.404   4.382   6.581
 7466SOL     OW23296   0.340   0.328   5.077
 7466SOL    HW123297   0.331   0.425   5.057
 7466SOL    HW223298   0.435   0.307   5.101
 7467SOL     OW23299   0.443   3.513   4.779
 7467SOL    HW123300   0.469   3.483   4.687
 7467SOL    HW223301   0.438   3.434   4.840
 7468SOL     OW23302   5.417   2.169   5.863
 7468SOL    HW123303   5.328   2.152   5.821
 7468SOL    HW223304   5.485   2.106   5.825
 7469SOL     OW23305   0.243   1.396   0.627
 7469SOL    HW123306   0.180   1.324   0.600
 7469SOL    HW223307   0.201   1.453   0.698
 7470SOL     OW23308   5.248   3.411   4.136
 7470SOL    HW123309   5.226   3.448   4.046
 7470SOL    HW223310   5.258   3.486   4.201
 7471SOL     OW23311   3.707   6.958   6.647
 7471SOL    HW123312   3.646   0.007   6.616
 7471SOL    HW223313   3.802   6.990   6.642
 7472SOL     OW23314   0.515   0.172   5.776
 7472SOL    HW123315   0.471   0.231   5.844
 7472SOL    HW223316   0.444   0.126   5.722
 7473SOL     OW23317   3.874   5.775   3.246
 7473SOL    HW123318   3.857   5.787   3.148
 7473SOL    HW223319   3.796   5.728   3.287
 7474SOL     OW23320   6.131   2.242   0.417
 7474SOL    HW123321   6.121   2.238   0.318
 7474SOL    HW223322   6.114   2.151   0.456
 7475SOL     OW23323   4.864   2.981   0.773
 7475SOL    HW123324   4.898   3.035   0.850
 7475SOL    HW223325   4.885   2.884   0.788
 7476SOL     OW23326   2.429   1.008   2.777
 7476SOL    HW123327   2.407   1.021   2.873
 7476SOL    HW223328   2.499   0.938   2.768
 7477SOL     OW23329   2.283   3.540   6.212
 7477SOL    HW123330   2.329   3.507   6.130
 7477SOL    HW223331   2.208   3.600   6.186
 7478SOL     OW23332   0.179   1.888   5.750
 7478SOL    HW123333   0.103   1.923   5.695
 7478SOL    HW223334   0.205   1.958   5.817
 7479SOL     OW23335   4.672   2.555   1.279
 7479SOL    HW123336   4.714   2.479   1.229
 7479SOL    HW223337   4.626   2.519   1.360
 7480SOL     OW23338   3.703   6.018   2.608
 7480SOL    HW123339   3.738   5.967   2.530
 7480SOL    HW223340   3.706   6.116   2.588
 7481SOL     OW23341   0.063   3.559   5.961
 7481SOL    HW123342   0.081   3.638   5.903
 7481SOL    HW223343   0.010   3.588   6.041
 7482SOL     OW23344   5.217   2.252   4.231
 7482SOL    HW123345   5.163   2.238   4.148
 7482SOL    HW223346   5.157   2.251   4.310
 7483SOL     OW23347   4.583   1.626   6.411
 7483SOL    HW123348   4.581   1.697   6.482
 7483SOL    HW223349   4.578   1.668   6.321
 7484SOL     OW23350   2.875   0.577   4.376
 7484SOL    HW123351   2.917   0.650   4.321
 7484SOL    HW223352   2.860   0.497   4.318
 7485SOL     OW23353   3.965   0.434   6.578
 7485SOL    HW123354   3.993   0.422   6.483
 7485SOL    HW223355   3.886   0.377   6.597
 7486SOL     OW23356   4.658   6.823   0.788
 7486SOL    HW123357   4.628   6.798   0.696
 7486SOL    HW223358   4.629   6.917   0.808
 7487SOL     OW23359   3.370   6.557   4.064
 7487SOL    HW123360   3.279   6.524   4.040
 7487SOL    HW223361   3.439   6.494   4.028
 7488SOL     OW23362   1.312   5.781   4.264
 7488SOL    HW123363   1.266   5.837   4.196
 7488SOL    HW223364   1.314   5.829   4.351
 7489SOL     OW23365   5.434   2.872   6.768
 7489SOL    HW123366   5.340   2.839   6.778
 7489SOL    HW223367   5.435   2.971   6.778
 7490SOL     OW23368   2.073   2.792   2.244
 7490SOL    HW123369   2.051   2.699   2.275
 7490SOL    HW223370   2.043   2.804   2.150
 7491SOL     OW23371   4.335   3.746   0.008
 7491SOL    HW123372   4.338   3.824   0.070
 7491SOL    HW223373   4.252   3.693   0.024
 7492SOL     OW23374   1.674   0.336   4.063
 7492SOL    HW123375   1.640   0.322   4.156
 7492SOL    HW223376   1.683   0.434   4.044
 7493SOL     OW23377   6.407   4.952   4.567
 7493SOL    HW123378   6.315   4.966   4.603
 7493SOL    HW223379   6.474   4.967   4.640
 7494SOL     OW23380   6.293   1.405   2.752
 7494SOL    HW123381   6.256   1.492   2.784
 7494SOL    HW223382   6.288   1.402   2.652
 7495SOL     OW23383   1.550   3.018   5.024
 7495SOL    HW123384   1.638   2.992   5.064
 7495SOL    HW223385   1.560   3.028   4.925
 7496SOL     OW23386   6.443   4.089   2.282
 7496SOL    HW123387   6.365   4.116   2.339
 7496SOL    HW223388   6.514   4.050   2.339
 7497SOL     OW23389   6.235   0.147   1.437
 7497SOL    HW123390   6.242   0.047   1.440
 7497SOL    HW223391   6.150   0.176   1.481
 7498SOL     OW23392   2.962   6.754   3.746
 7498SOL    HW123393   2.880   6.798   3.710
 7498SOL    HW223394   3.023   6.730   3.670
 7499SOL     OW23395   3.291   1.142   3.384
 7499SOL    HW123396   3.250   1.170   3.471
 7499SOL    HW223397   3.254   1.198   3.310
 7500SOL     OW23398   4.398   0.864   3.954
 7500SOL    HW123399   4.400   0.764   3.954
 7500SOL    HW223400   4.338   0.897   4.027
 7501SOL     OW23401   6.556   2.071   4.543
 7501SOL    HW123402   6.654   2.080   4.523
 7501SOL    HW223403   6.534   1.974   4.552
 7502SOL     OW23404   4.429   1.054   3.761
 7502SOL    HW123405   4.517   1.066   3.715
 7502SOL    HW223406   4.434   0.979   3.826
 7503SOL     OW23407   1.530   5.891   1.631
 7503SOL    HW123408   1.530   5.875   1.730
 7503SOL    HW223409   1.618   5.931   1.604
 7504SOL     OW23410   5.588   6.467   4.522
 7504SOL    HW123411   5.652   6.544   4.520
 7504SOL    HW223412   5.621   6.396   4.459
 7505SOL     OW23413   0.844   6.489   5.832
 7505SOL    HW123414   0.925   6.439   5.802
 7505SOL    HW223415   0.867   6.586   5.846
 7506SOL     OW23416   3.237   2.045   3.880
 7506SOL    HW123417   3.290   2.064   3.797
 7506SOL    HW223418   3.294   2.063   3.960
 7507SOL     OW23419   6.590   4.255   6.412
 7507SOL    HW123420   6.669   4.257   6.472
 7507SOL    HW223421   6.555   4.161   6.406
 7508SOL     OW23422   2.906   6.476   0.617
 7508SOL    HW123423   2.847   6.406   0.657
 7508SOL    HW223424   2.963   6.516   0.689
 7509SOL     OW23425   6.155   4.358   2.066
 7509SOL    HW123426   6.122   4.430   2.128
 7509SOL    HW223427   6.197   4.400   1.986
 7510SOL     OW23428   3.456   4.141   1.945
 7510SOL    HW123429   3.555   4.149   1.955
 7510SOL    HW223430   3.414   4.136   2.036
 7511SOL     OW23431   4.489   5.952   3.897
 7511SOL    HW123432   4.503   5.926   3.802
 7511SOL    HW223433   4.571   5.930   3.951
 7512SOL     OW23434   4.286   0.563   1.078
 7512SOL    HW123435   4.373   0.549   1.126
 7512SOL    HW223436   4.212   0.572   1.145
 7513SOL     OW23437   1.221   0.825   1.859
 7513SOL    HW123438   1.223   0.858   1.953
 7513SOL    HW223439   1.284   0.879   1.803
 7514SOL     OW23440   0.316   6.631   1.238
 7514SOL    HW123441   0.415   6.621   1.226
 7514SOL    HW223442   0.295   6.638   1.335
 7515SOL     OW23443   0.253   4.364   5.183
 7515SOL    HW123444   0.161   4.341   5.150
 7515SOL    HW223445   0.291   4.288   5.235
 7516SOL     OW23446   1.781   6.458   5.273
 7516SOL    HW123447   1.751   6.430   5.182
 7516SOL    HW223448   1.816   6.378   5.322
 7517SOL     OW23449   0.594   1.904   6.247
 7517SOL    HW123450   0.584   1.834   6.318
 7517SOL    HW223451   0.619   1.861   6.160
 7518SOL     OW23452   4.134   1.920   4.279
 7518SOL    HW123453   4.062   1.962   4.334
 7518SOL    HW223454   4.218   1.974   4.286
 7519SOL     OW23455   3.855   0.020   4.432
 7519SOL    HW123456   3.883   0.008   4.337
 7519SOL    HW223457   3.928   0.064   4.483
 7520SOL     OW23458   1.929   1.315   0.624
 7520SOL    HW123459   1.973   1.279   0.706
 7520SOL    HW223460   1.931   1.246   0.552
 7521SOL     OW23461   4.094   1.480   5.241
 7521SOL    HW123462   4.049   1.392   5.225
 7521SOL    HW223463   4.036   1.537   5.299
 7522SOL     OW23464   2.182   6.620   4.162
 7522SOL    HW123465   2.103   6.623   4.101
 7522SOL    HW223466   2.266   6.632   4.109
 7523SOL     OW23467   5.680   1.541   0.343
 7523SOL    HW123468   5.701   1.452   0.302
 7523SOL    HW223469   5.624   1.528   0.425
 7524SOL     OW23470   0.101   3.282   4.841
 7524SOL    HW123471   0.076   3.379   4.836
 7524SOL    HW223472   0.136   3.261   4.932
 7525SOL     OW23473   2.788   4.886   5.866
 7525SOL    HW123474   2.862   4.822   5.843
 7525SOL    HW223475   2.826   4.965   5.913
 7526SOL     OW23476   1.918   4.109   0.820
 7526SOL    HW123477   1.874   4.173   0.883
 7526SOL    HW223478   1.963   4.037   0.873
 7527SOL     OW23479   2.807   5.160   2.706
 7527SOL    HW123480   2.814   5.166   2.607
 7527SOL    HW223481   2.897   5.166   2.747
 7528SOL     OW23482   6.230   2.614   5.867
 7528SOL    HW123483   6.190   2.604   5.776
 7528SOL    HW223484   6.321   2.655   5.859
 7529SOL     OW23485   6.183   3.515   4.321
 7529SOL    HW123486   6.203   3.493   4.417
 7529SOL    HW223487   6.087   3.493   4.301
 7530SOL     OW23488   1.066   3.065   3.185
 7530SOL    HW123489   1.165   3.073   3.177
 7530SOL    HW223490   1.043   2.985   3.241
 7531SOL     OW23491   3.935   1.837   3.685
 7531SOL    HW123492   3.943   1.892   3.768
 7531SOL    HW223493   4.017   1.850   3.629
 7532SOL     OW23494   4.887   5.630   6.564
 7532SOL    HW123495   4.886   5.719   6.518
 7532SOL    HW223496   4.799   5.616   6.610
 7533SOL     OW23497   4.491   4.510   1.770
 7533SOL    HW123498   4.525   4.491   1.678
 7533SOL    HW223499   4.490   4.425   1.823
 7534SOL     OW23500   4.478   5.965   4.836
 7534SOL    HW123501   4.430   5.891   4.883
 7534SOL    HW223502   4.530   6.018   4.903
 7535SOL     OW23503   0.374   6.773   4.272
 7535SOL    HW123504   0.317   6.800   4.195
 7535SOL    HW223505   0.327   6.795   4.358
 7536SOL     OW23506   6.444   6.260   3.667
 7536SOL    HW123507   6.366   6.250   3.604
 7536SOL    HW223508   6.410   6.270   3.760
 7537SOL     OW23509   1.885   6.623   2.574
 7537SOL    HW123510   1.892   6.700   2.510
 7537SOL    HW223511   1.974   6.606   2.616
 7538SOL     OW23512   0.168   4.778   7.003
 7538SOL    HW123513   0.113   4.776   6.921
 7538SOL    HW223514   0.263   4.802   6.980
 7539SOL     OW23515   6.786   0.346   4.359
 7539SOL    HW123516   6.693   0.344   4.395
 7539SOL    HW223517   6.847   0.390   4.424
 7540SOL     OW23518   5.453   4.850   3.173
 7540SOL    HW123519   5.536   4.799   3.194
 7540SOL    HW223520   5.378   4.787   3.155
 7541SOL     OW23521   2.330   3.891   6.129
 7541SOL    HW123522   2.339   3.979   6.174
 7541SOL    HW223523   2.374   3.895   6.039
 7542SOL     OW23524   5.883   5.815   4.611
 7542SOL    HW123525   5.953   5.748   4.585
 7542SOL    HW223526   5.813   5.770   4.666
 7543SOL     OW23527   2.241   1.373   0.533
 7543SOL    HW123528   2.291   1.316   0.598
 7543SOL    HW223529   2.144   1.373   0.555
 7544SOL     OW23530   6.337   1.290   4.335
 7544SOL    HW123531   6.382   1.223   4.276
 7544SOL    HW223532   6.266   1.338   4.283
 7545SOL     OW23533   1.461   5.419   5.473
 7545SOL    HW123534   1.477   5.436   5.377
 7545SOL    HW223535   1.543   5.380   5.515
 7546SOL     OW23536   2.365   2.706   1.658
 7546SOL    HW123537   2.323   2.770   1.593
 7546SOL    HW223538   2.434   2.753   1.712
 7547SOL     OW23539   4.109   6.986   1.848
 7547SOL    HW123540   4.009   6.989   1.846
 7547SOL    HW223541   4.145   7.015   1.760
 7548SOL     OW23542   2.601   2.341   6.409
 7548SOL    HW123543   2.567   2.265   6.353
 7548SOL    HW223544   2.534   2.415   6.408
 7549SOL     OW23545   5.040   0.841   4.589
 7549SOL    HW123546   4.981   0.916   4.562
 7549SOL    HW223547   5.080   0.799   4.507
 7550SOL     OW23548   2.927   6.137   4.541
 7550SOL    HW123549   2.876   6.074   4.600
 7550SOL    HW223550   2.864   6.205   4.503
 7551SOL     OW23551   6.367   3.055   6.378
 7551SOL    HW123552   6.446   3.104   6.342
 7551SOL    HW223553   6.334   2.989   6.311
 7552SOL     OW23554   2.460   6.392   4.783
 7552SOL    HW123555   2.532   6.324   4.764
 7552SOL    HW223556   2.371   6.346   4.785
 7553SOL     OW23557   6.402   6.229   5.836
 7553SOL    HW123558   6.331   6.242   5.905
 7553SOL    HW223559   6.421   6.317   5.791
 7554SOL     OW23560   5.089   1.363   0.818
 7554SOL    HW123561   5.008   1.337   0.871
 7554SOL    HW223562   5.078   1.332   0.724
 7555SOL     OW23563   4.228   5.071   4.089
 7555SOL    HW123564   4.261   5.011   4.016
 7555SOL    HW223565   4.221   5.019   4.174
 7556SOL     OW23566   1.385   6.068   1.461
 7556SOL    HW123567   1.327   6.132   1.511
 7556SOL    HW223568   1.439   6.014   1.525
 7557SOL     OW23569   4.656   6.647   1.339
 7557SOL    HW123570   4.722   6.642   1.414
 7557SOL    HW223571   4.649   6.557   1.295
 7558SOL     OW23572   0.789   1.886   3.443
 7558SOL    HW123573   0.733   1.969   3.439
 7558SOL    HW223574   0.744   1.818   3.501
 7559SOL     OW23575   3.031   1.022   4.864
 7559SOL    HW123576   3.039   1.065   4.953
 7559SOL    HW223577   3.055   0.925   4.871
 7560SOL     OW23578   1.135   1.175   5.893
 7560SOL    HW123579   1.227   1.212   5.907
 7560SOL    HW223580   1.067   1.245   5.914
 7561SOL     OW23581   5.338   1.128   5.440
 7561SOL    HW123582   5.291   1.116   5.352
 7561SOL    HW223583   5.278   1.175   5.504
 7562SOL     OW23584   2.246   5.618   3.546
 7562SOL    HW123585   2.278   5.544   3.488
 7562SOL    HW223586   2.204   5.689   3.489
 7563SOL     OW23587   3.050   6.171   2.930
 7563SOL    HW123588   3.028   6.257   2.883
 7563SOL    HW223589   3.070   6.100   2.863
 7564SOL     OW23590   5.012   2.105   5.448
 7564SOL    HW123591   4.996   2.063   5.359
 7564SOL    HW223592   5.110   2.119   5.462
 7565SOL     OW23593   6.662   3.003   5.635
 7565SOL    HW123594   6.601   2.986   5.557
 7565SOL    HW223595   6.665   3.101   5.654
 7566SOL     OW23596   5.024   4.924   2.067
 7566SOL    HW123597   5.047   4.976   2.148
 7566SOL    HW223598   4.927   4.939   2.044
 7567SOL     OW23599   1.128   0.070   4.657
 7567SOL    HW123600   1.179   0.048   4.574
 7567SOL    HW223601   1.058   0.001   4.673
 7568SOL     OW23602   6.337   4.309   1.419
 7568SOL    HW123603   6.323   4.331   1.322
 7568SOL    HW223604   6.361   4.212   1.428
 7569SOL     OW23605   4.577   3.606   0.347
 7569SOL    HW123606   4.508   3.676   0.369
 7569SOL    HW223607   4.664   3.631   0.390
 7570SOL     OW23608   0.579   3.212   1.845
 7570SOL    HW123609   0.624   3.142   1.790
 7570SOL    HW223610   0.497   3.243   1.798
 7571SOL     OW23611   4.483   1.616   2.720
 7571SOL    HW123612   4.415   1.614   2.647
 7571SOL    HW223613   4.481   1.530   2.770
 7572SOL     OW23614   4.900   6.490   3.840
 7572SOL    HW123615   4.893   6.566   3.777
 7572SOL    HW223616   4.813   6.441   3.844
 7573SOL     OW23617   4.464   6.558   6.314
 7573SOL    HW123618   4.472   6.530   6.410
 7573SOL    HW223619   4.466   6.477   6.255
 7574SOL     OW23620   0.745   2.720   4.221
 7574SOL    HW123621   0.748   2.731   4.121
 7574SOL    HW223622   0.725   2.808   4.263
 7575SOL     OW23623   6.784   6.679   1.193
 7575SOL    HW123624   6.704   6.674   1.134
 7575SOL    HW223625   6.867   6.690   1.138
 7576SOL     OW23626   4.872   2.533   6.747
 7576SOL    HW123627   4.831   2.442   6.755
 7576SOL    HW223628   4.801   2.602   6.738
 7577SOL     OW23629   0.662   0.136   6.742
 7577SOL    HW123630   0.751   0.174   6.718
 7577SOL    HW223631   0.590   0.197   6.709
 7578SOL     OW23632   6.330   6.336   3.107
 7578SOL    HW123633   6.297   6.258   3.054
 7578SOL    HW223634   6.260   6.363   3.174
 7579SOL     OW23635   0.444   1.674   0.116
 7579SOL    HW123636   0.462   1.576   0.119
 7579SOL    HW223637   0.417   1.701   0.023
 7580SOL     OW23638   2.224   5.339   3.042
 7580SOL    HW123639   2.224   5.386   2.954
 7580SOL    HW223640   2.273   5.395   3.109
 7581SOL     OW23641   6.826   6.859   1.402
 7581SOL    HW123642   6.897   6.920   1.366
 7581SOL    HW223643   6.809   6.786   1.336
 7582SOL     OW23644   1.895   1.457   6.386
 7582SOL    HW123645   1.808   1.470   6.339
 7582SOL    HW223646   1.963   1.519   6.348
 7583SOL     OW23647   5.539   3.564   2.321
 7583SOL    HW123648   5.559   3.661   2.311
 7583SOL    HW223649   5.442   3.547   2.299
 7584SOL     OW23650   0.392   1.067   3.295
 7584SOL    HW123651   0.376   1.031   3.386
 7584SOL    HW223652   0.357   1.004   3.226
 7585SOL     OW23653   0.868   1.479   5.821
 7585SOL    HW123654   0.826   1.406   5.767
 7585SOL    HW223655   0.800   1.548   5.843
 7586SOL     OW23656   1.987   6.577   3.979
 7586SOL    HW123657   1.900   6.606   4.017
 7586SOL    HW223658   1.981   6.572   3.879
 7587SOL     OW23659   4.872   0.233   1.672
 7587SOL    HW123660   4.928   0.199   1.747
 7587SOL    HW223661   4.806   0.299   1.707
 7588SOL     OW23662   2.247   3.163   4.556
 7588SOL    HW123663   2.338   3.201   4.574
 7588SOL    HW223664   2.181   3.238   4.545
 7589SOL     OW23665   6.924   0.378   2.786
 7589SOL    HW123666   6.996   0.394   2.719
 7589SOL    HW223667   6.965   0.359   2.875
 7590SOL     OW23668   6.026   1.315   0.779
 7590SOL    HW123669   6.077   1.346   0.699
 7590SOL    HW223670   5.992   1.222   0.763
 7591SOL     OW23671   2.987   3.867   4.669
 7591SOL    HW123672   2.935   3.952   4.659
 7591SOL    HW223673   3.026   3.841   4.581
 7592SOL     OW23674   0.481   6.543   3.749
 7592SOL    HW123675   0.383   6.522   3.754
 7592SOL    HW223676   0.529   6.488   3.817
 7593SOL     OW23677   6.815   0.807   6.261
 7593SOL    HW123678   6.751   0.867   6.212
 7593SOL    HW223679   6.839   0.849   6.348
 7594SOL     OW23680   6.628   3.675   5.904
 7594SOL    HW123681   6.689   3.664   5.825
 7594SOL    HW223682   6.534   3.653   5.877
 7595SOL     OW23683   0.226   3.398   6.590
 7595SOL    HW123684   0.263   3.408   6.498
 7595SOL    HW223685   0.237   3.484   6.640
 7596SOL     OW23686   2.492   1.495   0.709
 7596SOL    HW123687   2.436   1.560   0.657
 7596SOL    HW223688   2.442   1.408   0.718
 7597SOL     OW23689   2.405   4.743   1.012
 7597SOL    HW123690   2.379   4.837   1.032
 7597SOL    HW223691   2.376   4.684   1.087
 7598SOL     OW23692   5.830   0.889   2.070
 7598SOL    HW123693   5.730   0.894   2.075
 7598SOL    HW223694   5.862   0.940   1.990
 7599SOL     OW23695   3.193   3.293   0.578
 7599SOL    HW123696   3.156   3.382   0.603
 7599SOL    HW223697   3.287   3.285   0.611
 7600SOL     OW23698   0.874   7.006   4.159
 7600SOL    HW123699   0.939   0.031   4.099
 7600SOL    HW223700   0.893   6.908   4.156
 7601SOL     OW23701   3.181   6.766   1.461
 7601SOL    HW123702   3.130   6.843   1.499
 7601SOL    HW223703   3.145   6.744   1.371
 7602SOL     OW23704   0.927   1.779   0.896
 7602SOL    HW123705   1.009   1.808   0.945
 7602SOL    HW223706   0.943   1.788   0.797
 7603SOL     OW23707   4.640   1.127   5.988
 7603SOL    HW123708   4.700   1.207   5.999
 7603SOL    HW223709   4.648   1.069   6.069
 7604SOL     OW23710   2.205   2.540   4.946
 7604SOL    HW123711   2.209   2.633   4.908
 7604SOL    HW223712   2.109   2.510   4.950
 7605SOL     OW23713   2.832   6.008   6.872
 7605SOL    HW123714   2.863   6.101   6.852
 7605SOL    HW223715   2.892   5.967   6.941
 7606SOL     OW23716   0.075   0.749   3.250
 7606SOL    HW123717   0.008   0.824   3.245
 7606SOL    HW223718   0.040   0.677   3.310
 7607SOL     OW23719   1.904   5.870   5.515
 7607SOL    HW123720   1.807   5.894   5.519
 7607SOL    HW223721   1.952   5.910   5.593
 7608SOL     OW23722   0.062   2.086   6.556
 7608SOL    HW123723   0.134   2.134   6.505
 7608SOL    HW223724   0.053   1.993   6.521
 7609SOL     OW23725   3.475   1.254   4.988
 7609SOL    HW123726   3.504   1.290   4.899
 7609SOL    HW223727   3.379   1.278   5.004
 7610SOL     OW23728   3.932   4.934   4.704
 7610SOL    HW123729   3.992   4.973   4.774
 7610SOL    HW223730   3.971   4.849   4.670
 7611SOL     OW23731   4.565   2.316   0.385
 7611SOL    HW123732   4.588   2.278   0.295
 7611SOL    HW223733   4.473   2.356   0.382
 7612SOL     OW23734   4.035   2.156   2.944
 7612SOL    HW123735   4.054   2.171   3.041
 7612SOL    HW223736   3.956   2.096   2.934
 7613SOL     OW23737   0.801   0.409   0.072
 7613SOL    HW123738   0.858   0.400   7.013
 7613SOL    HW223739   0.803   0.323   0.123
 7614SOL     OW23740   5.430   4.385   0.708
 7614SOL    HW123741   5.471   4.324   0.776
 7614SOL    HW223742   5.342   4.348   0.678
 7615SOL     OW23743   6.110   3.334   5.855
 7615SOL    HW123744   6.085   3.389   5.776
 7615SOL    HW223745   6.188   3.376   5.902
 7616SOL     OW23746   7.007   6.679   2.218
 7616SOL    HW123747   7.016   6.594   2.269
 7616SOL    HW223748   6.916   6.684   2.176
 7617SOL     OW23749   6.558   3.659   2.754
 7617SOL    HW123750   6.513   3.569   2.750
 7617SOL    HW223751   6.519   3.718   2.683
 7618SOL     OW23752   2.565   2.458   0.083
 7618SOL    HW123753   2.640   2.392   0.091
 7618SOL    HW223754   2.478   2.410   0.096
 7619SOL     OW23755   1.289   0.953   4.771
 7619SOL    HW123756   1.243   0.910   4.693
 7619SOL    HW223757   1.229   0.953   4.851
 7620SOL     OW23758   3.464   3.285   0.593
 7620SOL    HW123759   3.524   3.284   0.673
 7620SOL    HW223760   3.519   3.295   0.510
 7621SOL     OW23761   5.803   4.712   6.627
 7621SOL    HW123762   5.774   4.716   6.722
 7621SOL    HW223763   5.883   4.770   6.613
 7622SOL     OW23764   3.530   3.487   1.703
 7622SOL    HW123765   3.609   3.486   1.641
 7622SOL    HW223766   3.454   3.534   1.659
 7623SOL     OW23767   5.280   4.479   2.001
 7623SOL    HW123768   5.238   4.558   1.956
 7623SOL    HW223769   5.224   4.397   1.983
 7624SOL     OW23770   0.545   3.494   2.303
 7624SOL    HW123771   0.574   3.437   2.380
 7624SOL    HW223772   0.517   3.584   2.337
 7625SOL     OW23773   5.384   0.298   1.493
 7625SOL    HW123774   5.478   0.329   1.508
 7625SOL    HW223775   5.384   0.226   1.424
 7626SOL     OW23776   4.263   0.240   0.102
 7626SOL    HW123777   4.204   0.212   0.027
 7626SOL    HW223778   4.349   0.275   0.065
 7627SOL     OW23779   4.324   2.400   6.057
 7627SOL    HW123780   4.409   2.439   6.093
 7627SOL    HW223781   4.341   2.361   5.967
 7628SOL     OW23782   2.999   3.099   0.554
 7628SOL    HW123783   3.055   3.180   0.575
 7628SOL    HW223784   2.955   3.112   0.465
 7629SOL     OW23785   6.032   2.594   3.468
 7629SOL    HW123786   6.120   2.631   3.498
 7629SOL    HW223787   5.981   2.560   3.546
 7630SOL     OW23788   1.368   6.188   4.145
 7630SOL    HW123789   1.310   6.210   4.223
 7630SOL    HW223790   1.345   6.248   4.068
 7631SOL     OW23791   0.985   0.599   5.807
 7631SOL    HW123792   0.917   0.638   5.744
 7631SOL    HW223793   1.019   0.671   5.867
 7632SOL     OW23794   4.375   5.655   1.389
 7632SOL    HW123795   4.280   5.660   1.357
 7632SOL    HW223796   4.376   5.621   1.483
 7633SOL     OW23797   5.584   0.895   1.446
 7633SOL    HW123798   5.552   0.886   1.352
 7633SOL    HW223799   5.582   0.992   1.473
 7634SOL     OW23800   0.259   1.947   6.872
 7634SOL    HW123801   0.200   1.922   6.948
 7634SOL    HW223802   0.238   1.888   6.793
 7635SOL     OW23803   1.262   3.160   5.605
 7635SOL    HW123804   1.312   3.203   5.530
 7635SOL    HW223805   1.264   3.060   5.594
 7636SOL     OW23806   6.953   3.805   3.542
 7636SOL    HW123807   6.994   3.729   3.592
 7636SOL    HW223808   6.998   3.890   3.569
 7637SOL     OW23809   0.602   4.151   5.061
 7637SOL    HW123810   0.556   4.068   5.033
 7637SOL    HW223811   0.630   4.143   5.157
 7638SOL     OW23812   0.406   6.164   1.208
 7638SOL    HW123813   0.377   6.068   1.209
 7638SOL    HW223814   0.422   6.194   1.302
 7639SOL     OW23815   1.850   6.646   0.504
 7639SOL    HW123816   1.774   6.672   0.564
 7639SOL    HW223817   1.935   6.647   0.555
 7640SOL     OW23818   3.218   0.617   0.654
 7640SOL    HW123819   3.313   0.614   0.685
 7640SOL    HW223820   3.167   0.683   0.709
 7641SOL     OW23821   6.891   5.136   5.045
 7641SOL    HW123822   6.929   5.141   5.137
 7641SOL    HW223823   6.958   5.096   4.983
 7642SOL     OW23824   5.355   1.014   3.684
 7642SOL    HW123825   5.336   0.974   3.773
 7642SOL    HW223826   5.269   1.042   3.641
 7643SOL     OW23827   5.472   3.214   4.856
 7643SOL    HW123828   5.549   3.252   4.806
 7643SOL    HW223829   5.395   3.201   4.794
 7644SOL     OW23830   5.158   4.079   0.753
 7644SOL    HW123831   5.256   4.067   0.768
 7644SOL    HW223832   5.142   4.106   0.658
 7645SOL     OW23833   4.636   4.934   0.008
 7645SOL    HW123834   4.690   4.993   6.971
 7645SOL    HW223835   4.692   4.860   0.043
 7646SOL     OW23836   0.083   2.055   1.227
 7646SOL    HW123837   7.007   2.042   1.232
 7646SOL    HW223838   0.106   2.150   1.248
 7647SOL     OW23839   6.900   2.054   3.961
 7647SOL    HW123840   6.858   2.089   3.877
 7647SOL    HW223841   6.845   2.083   4.040
 7648SOL     OW23842   1.595   2.571   1.457
 7648SOL    HW123843   1.630   2.527   1.540
 7648SOL    HW223844   1.609   2.510   1.379
 7649SOL     OW23845   4.095   0.477   0.057
 7649SOL    HW123846   4.134   0.404   0.112
 7649SOL    HW223847   4.002   0.452   0.030
 7650SOL     OW23848   3.847   2.639   0.091
 7650SOL    HW123849   3.886   2.714   0.145
 7650SOL    HW223850   3.754   2.663   0.063
 7651SOL     OW23851   3.593   5.647   6.490
 7651SOL    HW123852   3.631   5.735   6.460
 7651SOL    HW223853   3.494   5.647   6.477
 7652SOL     OW23854   0.650   0.937   5.094
 7652SOL    HW123855   0.655   0.940   5.194
 7652SOL    HW223856   0.728   0.985   5.055
 7653SOL     OW23857   1.715   6.694   0.095
 7653SOL    HW123858   1.794   6.755   0.106
 7653SOL    HW223859   1.736   6.624   0.027
 7654SOL     OW23860   0.215   2.207   5.606
 7654SOL    HW123861   0.214   2.152   5.523
 7654SOL    HW223862   0.126   2.250   5.620
 7655SOL     OW23863   3.706   1.908   4.976
 7655SOL    HW123864   3.670   1.882   4.886
 7655SOL    HW223865   3.654   1.986   5.011
 7656SOL     OW23866   5.661   3.963   6.790
 7656SOL    HW123867   5.742   3.932   6.841
 7656SOL    HW223868   5.589   3.989   6.854
 7657SOL     OW23869   1.002   3.890   4.741
 7657SOL    HW123870   0.978   3.882   4.838
 7657SOL    HW223871   0.966   3.976   4.704
 7658SOL     OW23872   2.631   0.702   1.697
 7658SOL    HW123873   2.686   0.782   1.675
 7658SOL    HW223874   2.554   0.730   1.756
 7659SOL     OW23875   5.304   5.158   5.855
 7659SOL    HW123876   5.285   5.169   5.952
 7659SOL    HW223877   5.370   5.084   5.842
 7660SOL     OW23878   6.486   6.484   5.777
 7660SOL    HW123879   6.415   6.546   5.743
 7660SOL    HW223880   6.570   6.499   5.725
 7661SOL     OW23881   3.128   1.156   5.330
 7661SOL    HW123882   3.224   1.141   5.305
 7661SOL    HW223883   3.123   1.195   5.421
 7662SOL     OW23884   0.132   5.788   0.957
 7662SOL    HW123885   0.057   5.853   0.947
 7662SOL    HW223886   0.094   5.696   0.970
 7663SOL     OW23887   1.038   5.992   4.393
 7663SOL    HW123888   1.029   6.045   4.309
 7663SOL    HW223889   1.132   5.959   4.402
 7664SOL     OW23890   4.906   2.334   2.277
 7664SOL    HW123891   4.898   2.234   2.267
 7664SOL    HW223892   4.914   2.357   2.373
 7665SOL     OW23893   3.242   0.946   5.505
 7665SOL    HW123894   3.218   0.900   5.419
 7665SOL    HW223895   3.160   0.983   5.547
 7666SOL     OW23896   5.463   5.344   3.971
 7666SOL    HW123897   5.485   5.257   4.017
 7666SOL    HW223898   5.548   5.387   3.940
 7667SOL     OW23899   4.069   6.021   2.071
 7667SOL    HW123900   4.110   5.999   1.983
 7667SOL    HW223901   4.141   6.026   2.141
 7668SOL     OW23902   1.803   5.705   0.152
 7668SOL    HW123903   1.723   5.764   0.153
 7668SOL    HW223904   1.853   5.719   0.066
 7669SOL     OW23905   2.297   1.803   6.923
 7669SOL    HW123906   2.301   1.712   6.965
 7669SOL    HW223907   2.243   1.865   6.980
 7670SOL     OW23908   0.889   0.781   0.793
 7670SOL    HW123909   0.882   0.795   0.892
 7670SOL    HW223910   0.947   0.853   0.754
 7671SOL     OW23911   3.031   0.178   1.559
 7671SOL    HW123912   3.009   0.199   1.464
 7671SOL    HW223913   3.117   0.223   1.584
 7672SOL     OW23914   5.782   3.828   2.194
 7672SOL    HW123915   5.809   3.888   2.270
 7672SOL    HW223916   5.684   3.811   2.199
 7673SOL     OW23917   2.133   6.668   4.830
 7673SOL    HW123918   2.133   6.714   4.741
 7673SOL    HW223919   2.050   6.613   4.840
 7674SOL     OW23920   3.762   5.686   4.171
 7674SOL    HW123921   3.853   5.697   4.211
 7674SOL    HW223922   3.721   5.777   4.158
 7675SOL     OW23923   4.359   6.459   3.081
 7675SOL    HW123924   4.393   6.503   3.164
 7675SOL    HW223925   4.266   6.427   3.096
 7676SOL     OW23926   3.405   3.145   4.750
 7676SOL    HW123927   3.316   3.110   4.781
 7676SOL    HW223928   3.468   3.068   4.738
 7677SOL     OW23929   6.868   5.329   6.675
 7677SOL    HW123930   6.955   5.378   6.675
 7677SOL    HW223931   6.850   5.293   6.766
 7678SOL     OW23932   3.986   1.371   6.050
 7678SOL    HW123933   4.012   1.453   6.102
 7678SOL    HW223934   4.066   1.337   6.001
 7679SOL     OW23935   3.033   5.032   4.089
 7679SOL    HW123936   3.034   4.952   4.149
 7679SOL    HW223937   3.083   5.107   4.132
 7680SOL     OW23938   2.110   6.829   4.300
 7680SOL    HW123939   2.053   6.888   4.243
 7680SOL    HW223940   2.139   6.749   4.248
 7681SOL     OW23941   2.034   2.281   5.261
 7681SOL    HW123942   1.953   2.223   5.265
 7681SOL    HW223943   2.086   2.272   5.346
 7682SOL     OW23944   3.257   0.750   2.197
 7682SOL    HW123945   3.249   0.667   2.141
 7682SOL    HW223946   3.347   0.791   2.183
 7683SOL     OW23947   0.377   4.689   4.631
 7683SOL    HW123948   0.448   4.628   4.595
 7683SOL    HW223949   0.421   4.766   4.678
 7684SOL     OW23950   5.065   3.152   1.763
 7684SOL    HW123951   5.134   3.093   1.721
 7684SOL    HW223952   5.002   3.096   1.817
 7685SOL     OW23953   2.608   0.353   0.436
 7685SOL    HW123954   2.583   0.257   0.425
 7685SOL    HW223955   2.658   0.384   0.355
 7686SOL     OW23956   6.958   0.524   4.490
 7686SOL    HW123957   7.014   0.480   4.420
 7686SOL    HW223958   6.991   0.617   4.506
 7687SOL     OW23959   5.089   3.496   6.208
 7687SOL    HW123960   5.124   3.408   6.237
 7687SOL    HW223961   4.990   3.500   6.224
 7688SOL     OW23962   6.078   3.008   0.136
 7688SOL    HW123963   6.098   2.982   0.042
 7688SOL    HW223964   5.980   2.997   0.154
 7689SOL     OW23965   5.632   0.428   2.684
 7689SOL    HW123966   5.582   0.509   2.655
 7689SOL    HW223967   5.710   0.454   2.740
 7690SOL     OW23968   5.390   4.898   2.275
 7690SOL    HW123969   5.407   4.898   2.373
 7690SOL    HW223970   5.384   4.804   2.242
 7691SOL     OW23971   5.047   2.858   3.828
 7691SOL    HW123972   4.982   2.825   3.896
 7691SOL    HW223973   5.052   2.794   3.752
 7692SOL     OW23974   2.506   6.858   2.033
 7692SOL    HW123975   2.603   6.834   2.035
 7692SOL    HW223976   2.472   6.851   1.939
 7693SOL     OW23977   2.651   1.681   1.902
 7693SOL    HW123978   2.725   1.727   1.853
 7693SOL    HW223979   2.602   1.621   1.839
 7694SOL     OW23980   3.841   2.403   0.212
 7694SOL    HW123981   3.931   2.439   0.232
 7694SOL    HW223982   3.795   2.462   0.144
 7695SOL     OW23983   5.234   6.637   3.641
 7695SOL    HW123984   5.282   6.557   3.604
 7695SOL    HW223985   5.290   6.681   3.710
 7696SOL     OW23986   3.034   2.364   5.589
 7696SOL    HW123987   3.129   2.385   5.611
 7696SOL    HW223988   3.012   2.400   5.498
 7697SOL     OW23989   5.739   6.205   2.787
 7697SOL    HW123990   5.771   6.136   2.722
 7697SOL    HW223991   5.795   6.288   2.778
 7698SOL     OW23992   6.582   2.596   0.994
 7698SOL    HW123993   6.581   2.597   1.094
 7698SOL    HW223994   6.644   2.667   0.961
 7699SOL     OW23995   3.647   6.993   5.881
 7699SOL    HW123996   3.704   0.036   5.931
 7699SOL    HW223997   3.671   6.900   5.909
 7700SOL     OW23998   6.418   5.454   1.588
 7700SOL    HW123999   6.436   5.372   1.534
 7700SOL    HW224000   6.360   5.517   1.535
 7701SOL     OW24001   2.275   1.593   6.534
 7701SOL    HW124002   2.300   1.507   6.580
 7701SOL    HW224003   2.359   1.640   6.505
 7702SOL     OW24004   5.869   6.627   5.399
 7702SOL    HW124005   5.929   6.678   5.337
 7702SOL    HW224006   5.812   6.564   5.346
 7703SOL     OW24007   0.048   6.226   5.803
 7703SOL    HW124008   0.004   6.137   5.806
 7703SOL    HW224009   0.133   6.220   5.750
 7704SOL     OW24010   1.684   1.898   4.752
 7704SOL    HW124011   1.697   1.909   4.851
 7704SOL    HW224012   1.720   1.979   4.705
 7705SOL     OW24013   0.478   4.539   0.039
 7705SOL    HW124014   0.381   4.521   0.057
 7705SOL    HW224015   0.496   4.637   0.046
 7706SOL     OW24016   3.136   3.684   2.435
 7706SOL    HW124017   3.037   3.686   2.449
 7706SOL    HW224018   3.180   3.640   2.513
 7707SOL     OW24019   0.073   4.229   6.347
 7707SOL    HW124020   0.029   4.310   6.387
 7707SOL    HW224021   0.155   4.207   6.399
 7708SOL     OW24022   0.825   6.684   4.621
 7708SOL    HW124023   0.836   6.644   4.712
 7708SOL    HW224024   0.893   6.646   4.559
 7709SOL     OW24025   6.398   4.486   0.895
 7709SOL    HW124026   6.366   4.578   0.919
 7709SOL    HW224027   6.490   4.492   0.857
 7710SOL     OW24028   6.300   2.885   2.207
 7710SOL    HW124029   6.346   2.952   2.149
 7710SOL    HW224030   6.310   2.794   2.167
 7711SOL     OW24031   0.735   4.215   3.873
 7711SOL    HW124032   0.747   4.126   3.830
 7711SOL    HW224033   0.811   4.234   3.934
 7712SOL     OW24034   0.899   4.623   4.474
 7712SOL    HW124035   0.821   4.662   4.425
 7712SOL    HW224036   0.869   4.544   4.527
 7713SOL     OW24037   0.871   5.315   0.674
 7713SOL    HW124038   0.805   5.384   0.703
 7713SOL    HW224039   0.951   5.360   0.635
 7714SOL     OW24040   6.134   1.806   5.380
 7714SOL    HW124041   6.158   1.724   5.327
 7714SOL    HW224042   6.110   1.879   5.317
 7715SOL     OW24043   3.755   3.384   6.487
 7715SOL    HW124044   3.664   3.411   6.519
 7715SOL    HW224045   3.745   3.325   6.407
 7716SOL     OW24046   1.170   0.452   6.333
 7716SOL    HW124047   1.124   0.483   6.250
 7716SOL    HW224048   1.104   0.407   6.394
 7717SOL     OW24049   0.636   1.733   6.037
 7717SOL    HW124050   0.567   1.662   6.050
 7717SOL    HW224051   0.718   1.709   6.089
 7718SOL     OW24052   0.319   3.406   2.714
 7718SOL    HW124053   0.318   3.311   2.684
 7718SOL    HW224054   0.260   3.416   2.795
 7719SOL     OW24055   1.961   5.980   5.038
 7719SOL    HW124056   2.009   5.970   4.951
 7719SOL    HW224057   1.957   5.891   5.084
 7720SOL     OW24058   4.769   1.550   6.933
 7720SOL    HW124059   4.742   1.522   0.003
 7720SOL    HW224060   4.732   1.641   6.914
 7721SOL     OW24061   5.940   5.727   2.205
 7721SOL    HW124062   5.998   5.660   2.159
 7721SOL    HW224063   5.938   5.812   2.152
 7722SOL     OW24064   0.759   5.872   4.500
 7722SOL    HW124065   0.694   5.893   4.573
 7722SOL    HW224066   0.847   5.914   4.521
 7723SOL     OW24067   4.072   4.172   6.864
 7723SOL    HW124068   3.981   4.212   6.850
 7723SOL    HW224069   4.074   4.080   6.824
 7724SOL     OW24070   1.125   3.710   0.331
 7724SOL    HW124071   1.173   3.623   0.328
 7724SOL    HW224072   1.080   3.727   0.243
 7725SOL     OW24073   5.878   3.745   4.411
 7725SOL    HW124074   5.876   3.843   4.431
 7725SOL    HW224075   5.876   3.693   4.496
 7726SOL     OW24076   2.192   3.226   0.278
 7726SOL    HW124077   2.248   3.208   0.359
 7726SOL    HW224078   2.106   3.174   0.285
 7727SOL     OW24079   5.500   0.681   2.670
 7727SOL    HW124080   5.432   0.625   2.717
 7727SOL    HW224081   5.557   0.729   2.737
 7728SOL     OW24082   2.146   3.583   4.699
 7728SOL    HW124083   2.122   3.529   4.780
 7728SOL    HW224084   2.246   3.590   4.692
 7729SOL     OW24085   6.962   1.151   2.823
 7729SOL    HW124086   7.010   1.076   2.866
 7729SOL    HW224087   6.870   1.160   2.862
 7730SOL     OW24088   5.604   4.630   5.802
 7730SOL    HW124089   5.642   4.564   5.738
 7730SOL    HW224090   5.504   4.625   5.799
 7731SOL     OW24091   6.884   0.407   5.925
 7731SOL    HW124092   6.945   0.433   5.999
 7731SOL    HW224093   6.881   0.307   5.917
 7732SOL     OW24094   4.858   0.862   0.277
 7732SOL    HW124095   4.823   0.953   0.256
 7732SOL    HW224096   4.862   0.807   0.193
 7733SOL     OW24097   6.774   5.735   0.974
 7733SOL    HW124098   6.750   5.698   1.064
 7733SOL    HW224099   6.793   5.833   0.982
 7734SOL     OW24100   4.044   3.617   3.404
 7734SOL    HW124101   4.075   3.573   3.320
 7734SOL    HW224102   3.944   3.619   3.407
 7735SOL     OW24103   1.261   5.801   0.960
 7735SOL    HW124104   1.222   5.802   1.052
 7735SOL    HW224105   1.255   5.893   0.920
 7736SOL     OW24106   1.687   1.891   0.803
 7736SOL    HW124107   1.716   1.821   0.868
 7736SOL    HW224108   1.729   1.874   0.714
 7737SOL     OW24109   4.312   4.196   6.782
 7737SOL    HW124110   4.225   4.194   6.832
 7737SOL    HW224111   4.386   4.170   6.843
 7738SOL     OW24112   1.518   1.502   5.456
 7738SOL    HW124113   1.430   1.535   5.420
 7738SOL    HW224114   1.506   1.412   5.496
 7739SOL     OW24115   1.701   2.654   0.587
 7739SOL    HW124116   1.755   2.570   0.584
 7739SOL    HW224117   1.756   2.727   0.628
 7740SOL     OW24118   2.516   0.796   4.201
 7740SOL    HW124119   2.540   0.703   4.228
 7740SOL    HW224120   2.482   0.846   4.280
 7741SOL     OW24121   6.670   4.127   5.925
 7741SOL    HW124122   6.763   4.095   5.943
 7741SOL    HW224123   6.674   4.223   5.895
 7742SOL     OW24124   4.007   2.024   3.866
 7742SOL    HW124125   4.039   1.973   3.946
 7742SOL    HW224126   4.065   2.103   3.851
 7743SOL     OW24127   3.421   1.378   6.495
 7743SOL    HW124128   3.403   1.457   6.436
 7743SOL    HW224129   3.334   1.336   6.522
 7744SOL     OW24130   0.708   6.713   4.970
 7744SOL    HW124131   0.677   6.785   4.908
 7744SOL    HW224132   0.630   6.660   5.001
 7745SOL     OW24133   3.160   0.030   0.748
 7745SOL    HW124134   3.125   0.106   0.803
 7745SOL    HW224135   3.082   7.002   0.710
 7746SOL     OW24136   0.108   6.208   1.165
 7746SOL    HW124137   0.110   6.300   1.125
 7746SOL    HW224138   0.202   6.176   1.180
 7747SOL     OW24139   0.348   5.595   1.433
 7747SOL    HW124140   0.248   5.601   1.435
 7747SOL    HW224141   0.387   5.686   1.446
 7748SOL     OW24142   4.573   0.905   5.808
 7748SOL    HW124143   4.585   0.928   5.711
 7748SOL    HW224144   4.588   0.987   5.864
 7749SOL     OW24145   3.240   3.353   2.934
 7749SOL    HW124146   3.161   3.368   2.993
 7749SOL    HW224147   3.219   3.284   2.866
 7750SOL     OW24148   4.957   5.113   6.262
 7750SOL    HW124149   5.041   5.087   6.309
 7750SOL    HW224150   4.884   5.125   6.329
 7751SOL     OW24151   0.027   1.047   4.765
 7751SOL    HW124152   0.022   1.079   4.671
 7751SOL    HW224153   6.970   1.081   4.816
 7752SOL     OW24154   6.657   4.660   5.137
 7752SOL    HW124155   6.734   4.710   5.176
 7752SOL    HW224156   6.585   4.725   5.110
 7753SOL     OW24157   3.113   0.747   4.815
 7753SOL    HW124158   3.212   0.759   4.812
 7753SOL    HW224159   3.086   0.671   4.756
 7754SOL     OW24160   5.863   0.904   1.125
 7754SOL    HW124161   5.897   0.907   1.219
 7754SOL    HW224162   5.827   0.994   1.100
 7755SOL     OW24163   1.613   6.160   5.344
 7755SOL    HW124164   1.583   6.210   5.425
 7755SOL    HW224165   1.557   6.188   5.265
 7756SOL     OW24166   4.137   5.698   2.982
 7756SOL    HW124167   4.231   5.717   2.953
 7756SOL    HW224168   4.109   5.609   2.945
 7757SOL     OW24169   3.511   0.646   5.912
 7757SOL    HW124170   3.413   0.646   5.891
 7757SOL    HW224171   3.525   0.671   6.007
 7758SOL     OW24172   2.427   2.544   6.384
 7758SOL    HW124173   2.431   2.560   6.285
 7758SOL    HW224174   2.360   2.472   6.403
 7759SOL     OW24175   1.778   0.695   4.795
 7759SOL    HW124176   1.705   0.696   4.863
 7759SOL    HW224177   1.740   0.709   4.704
 7760SOL     OW24178   5.136   2.082   3.157
 7760SOL    HW124179   5.078   2.162   3.166
 7760SOL    HW224180   5.155   2.065   3.061
 7761SOL     OW24181   4.632   0.944   6.964
 7761SOL    HW124182   4.533   0.956   6.973
 7761SOL    HW224183   4.651   0.857   6.919
 7762SOL     OW24184   1.462   2.508   0.256
 7762SOL    HW124185   1.487   2.585   0.315
 7762SOL    HW224186   1.379   2.531   0.205
 7763SOL     OW24187   2.383   2.464   1.476
 7763SOL    HW124188   2.385   2.492   1.572
 7763SOL    HW224189   2.389   2.365   1.470
 7764SOL     OW24190   3.629   3.448   2.145
 7764SOL    HW124191   3.645   3.369   2.205
 7764SOL    HW224192   3.588   3.418   2.060
 7765SOL     OW24193   6.740   1.522   1.827
 7765SOL    HW124194   6.645   1.552   1.825
 7765SOL    HW224195   6.754   1.452   1.757
 7766SOL     OW24196   6.857   2.860   6.793
 7766SOL    HW124197   6.831   2.763   6.791
 7766SOL    HW224198   6.839   2.901   6.704
 7767SOL     OW24199   5.647   4.048   5.247
 7767SOL    HW124200   5.552   4.063   5.217
 7767SOL    HW224201   5.676   4.122   5.306
 7768SOL     OW24202   3.818   5.244   1.424
 7768SOL    HW124203   3.829   5.269   1.328
 7768SOL    HW224204   3.775   5.320   1.473
 7769SOL     OW24205   5.558   2.248   2.815
 7769SOL    HW124206   5.632   2.224   2.879
 7769SOL    HW224207   5.505   2.167   2.793
 7770SOL     OW24208   3.574   6.103   1.378
 7770SOL    HW124209   3.497   6.098   1.442
 7770SOL    HW224210   3.657   6.127   1.428
 7771SOL     OW24211   1.644   1.250   4.143
 7771SOL    HW124212   1.610   1.340   4.169
 7771SOL    HW224213   1.681   1.255   4.050
 7772SOL     OW24214   5.908   0.576   5.222
 7772SOL    HW124215   5.827   0.517   5.218
 7772SOL    HW224216   5.906   0.641   5.145
 7773SOL     OW24217   3.958   4.470   6.107
 7773SOL    HW124218   3.977   4.465   6.205
 7773SOL    HW224219   3.860   4.464   6.091
 7774SOL     OW24220   5.188   2.033   6.659
 7774SOL    HW124221   5.183   1.975   6.577
 7774SOL    HW224222   5.238   1.985   6.731
 7775SOL     OW24223   1.555   6.821   2.262
 7775SOL    HW124224   1.521   6.744   2.315
 7775SOL    HW224225   1.515   6.906   2.297
 7776SOL     OW24226   3.422   3.835   1.032
 7776SOL    HW124227   3.428   3.739   1.060
 7776SOL    HW224228   3.506   3.861   0.985
 7777SOL     OW24229   1.027   0.061   6.376
 7777SOL    HW124230   1.003   6.988   6.394
 7777SOL    HW224231   0.972   0.096   6.300
 7778SOL     OW24232   5.143   1.655   1.727
 7778SOL    HW124233   5.110   1.676   1.819
 7778SOL    HW224234   5.149   1.739   1.673
 7779SOL     OW24235   4.032   2.811   0.228
 7779SOL    HW124236   4.068   2.857   0.310
 7779SOL    HW224237   4.055   2.865   0.147
 7780SOL     OW24238   1.150   0.220   4.878
 7780SOL    HW124239   1.151   0.163   4.796
 7780SOL    HW224240   1.170   0.315   4.854
 7781SOL     OW24241   1.897   4.621   5.404
 7781SOL    HW124242   1.851   4.710   5.407
 7781SOL    HW224243   1.962   4.619   5.328
 7782SOL     OW24244   4.647   4.348   0.262
 7782SOL    HW124245   4.709   4.417   0.300
 7782SOL    HW224246   4.571   4.334   0.325
 7783SOL     OW24247   2.301   6.143   0.004
 7783SOL    HW124248   2.383   6.122   6.973
 7783SOL    HW224249   2.306   6.095   0.091
 7784SOL     OW24250   6.583   3.551   0.501
 7784SOL    HW124251   6.639   3.528   0.582
 7784SOL    HW224252   6.556   3.647   0.507
 7785SOL     OW24253   1.450   5.555   6.503
 7785SOL    HW124254   1.518   5.489   6.469
 7785SOL    HW224255   1.414   5.523   6.590
 7786SOL     OW24256   3.448   4.225   5.167
 7786SOL    HW124257   3.460   4.174   5.081
 7786SOL    HW224258   3.427   4.161   5.241
 7787SOL     OW24259   2.945   2.437   5.336
 7787SOL    HW124260   3.028   2.418   5.283
 7787SOL    HW224261   2.872   2.374   5.306
 7788SOL     OW24262   0.275   2.137   1.034
 7788SOL    HW124263   0.325   2.051   1.022
 7788SOL    HW224264   0.207   2.127   1.107
 7789SOL     OW24265   2.006   0.067   1.636
 7789SOL    HW124266   2.032   0.137   1.570
 7789SOL    HW224267   2.046   0.090   1.725
 7790SOL     OW24268   6.803   3.395   2.499
 7790SOL    HW124269   6.823   3.417   2.404
 7790SOL    HW224270   6.873   3.437   2.558
 7791SOL     OW24271   6.983   5.096   5.626
 7791SOL    HW124272   6.887   5.124   5.620
 7791SOL    HW224273   7.001   5.022   5.562
 7792SOL     OW24274   1.993   5.668   6.536
 7792SOL    HW124275   1.908   5.617   6.543
 7792SOL    HW224276   2.071   5.606   6.540
 7793SOL     OW24277   2.067   0.891   6.182
 7793SOL    HW124278   2.162   0.896   6.211
 7793SOL    HW224279   2.017   0.829   6.242
 7794SOL     OW24280   5.421   5.434   2.818
 7794SOL    HW124281   5.324   5.440   2.841
 7794SOL    HW224282   5.475   5.418   2.901
 7795SOL     OW24283   1.329   4.060   6.827
 7795SOL    HW124284   1.416   4.020   6.796
 7795SOL    HW224285   1.324   4.155   6.798
 7796SOL     OW24286   3.873   4.026   4.942
 7796SOL    HW124287   3.898   4.086   5.017
 7796SOL    HW224288   3.944   3.956   4.930
 7797SOL     OW24289   1.000   0.014   3.065
 7797SOL    HW124290   0.918   0.069   3.050
 7797SOL    HW224291   1.042   0.038   3.152
 7798SOL     OW24292   3.930   6.245   6.134
 7798SOL    HW124293   3.986   6.306   6.191
 7798SOL    HW224294   3.933   6.278   6.039
 7799SOL     OW24295   6.139   5.535   1.483
 7799SOL    HW124296   6.075   5.611   1.466
 7799SOL    HW224297   6.192   5.517   1.400
 7800SOL     OW24298   0.815   6.195   2.084
 7800SOL    HW124299   0.870   6.258   2.028
 7800SOL    HW224300   0.719   6.201   2.057
 7801SOL     OW24301   4.214   2.115   5.353
 7801SOL    HW124302   4.194   2.043   5.419
 7801SOL    HW224303   4.164   2.099   5.268
 7802SOL     OW24304   5.540   2.262   0.291
 7802SOL    HW124305   5.589   2.245   0.377
 7802SOL    HW224306   5.564   2.352   0.256
 7803SOL     OW24307   3.355   3.600   5.630
 7803SOL    HW124308   3.432   3.600   5.566
 7803SOL    HW224309   3.270   3.621   5.581
 7804SOL     OW24310   5.117   0.859   6.382
 7804SOL    HW124311   5.132   0.956   6.397
 7804SOL    HW224312   5.165   0.829   6.299
 7805SOL     OW24313   4.895   2.642   1.426
 7805SOL    HW124314   4.834   2.625   1.350
 7805SOL    HW224315   4.842   2.650   1.511
 7806SOL     OW24316   4.866   3.233   6.906
 7806SOL    HW124317   4.801   3.224   6.981
 7806SOL    HW224318   4.843   3.168   6.834
 7807SOL     OW24319   0.521   3.235   0.185
 7807SOL    HW124320   0.523   3.142   0.148
 7807SOL    HW224321   0.600   3.248   0.245
 7808SOL     OW24322   0.626   0.508   5.203
 7808SOL    HW124323   0.712   0.522   5.252
 7808SOL    HW224324   0.616   0.579   5.133
 7809SOL     OW24325   1.249   5.543   5.800
 7809SOL    HW124326   1.333   5.489   5.799
 7809SOL    HW224327   1.196   5.522   5.882
 7810SOL     OW24328   2.474   1.163   6.955
 7810SOL    HW124329   2.537   1.128   0.002
 7810SOL    HW224330   2.495   1.260   6.937
 7811SOL     OW24331   0.236   4.662   4.914
 7811SOL    HW124332   0.155   4.648   4.972
 7811SOL    HW224333   0.307   4.708   4.968
 7812SOL     OW24334   0.575   2.048   3.374
 7812SOL    HW124335   0.554   1.982   3.302
 7812SOL    HW224336   0.514   2.033   3.452
 7813SOL     OW24337   6.285   2.544   0.898
 7813SOL    HW124338   6.272   2.569   0.802
 7813SOL    HW224339   6.374   2.578   0.929
 7814SOL     OW24340   1.970   3.095   4.931
 7814SOL    HW124341   1.911   3.054   4.861
 7814SOL    HW224342   2.059   3.116   4.891
 7815SOL     OW24343   0.078   1.712   5.362
 7815SOL    HW124344   0.131   1.734   5.280
 7815SOL    HW224345   0.112   1.628   5.403
 7816SOL     OW24346   0.645   4.855   5.004
 7816SOL    HW124347   0.744   4.848   4.999
 7816SOL    HW224348   0.607   4.770   5.039
 7817SOL     OW24349   5.359   3.268   6.026
 7817SOL    HW124350   5.406   3.317   6.099
 7817SOL    HW224351   5.413   3.273   5.942
 7818SOL     OW24352   5.049   4.079   3.165
 7818SOL    HW124353   5.110   4.153   3.137
 7818SOL    HW224354   4.956   4.097   3.131
 7819SOL     OW24355   1.065   1.365   0.853
 7819SOL    HW124356   1.048   1.304   0.930
 7819SOL    HW224357   0.997   1.439   0.853
 7820SOL     OW24358   2.710   0.094   6.474
 7820SOL    HW124359   2.677   0.080   6.568
 7820SOL    HW224360   2.804   0.061   6.467
 7821SOL     OW24361   3.098   5.153   0.899
 7821SOL    HW124362   3.060   5.074   0.851
 7821SOL    HW224363   3.154   5.207   0.836
 7822SOL     OW24364   1.893   6.497   5.892
 7822SOL    HW124365   1.930   6.433   5.959
 7822SOL    HW224366   1.969   6.545   5.847
 7823SOL     OW24367   1.840   3.835   5.219
 7823SOL    HW124368   1.940   3.838   5.224
 7823SOL    HW224369   1.812   3.777   5.142
 7824SOL     OW24370   0.634   3.442   5.182
 7824SOL    HW124371   0.611   3.417   5.275
 7824SOL    HW224372   0.686   3.368   5.139
 7825SOL     OW24373   2.982   0.842   0.151
 7825SOL    HW124374   2.985   0.933   0.109
 7825SOL    HW224375   3.074   0.815   0.177
 7826SOL     OW24376   0.680   3.751   5.579
 7826SOL    HW124377   0.738   3.670   5.586
 7826SOL    HW224378   0.585   3.725   5.596
 7827SOL     OW24379   6.242   5.263   4.448
 7827SOL    HW124380   6.186   5.198   4.396
 7827SOL    HW224381   6.326   5.283   4.398
 7828SOL     OW24382   1.097   4.884   6.570
 7828SOL    HW124383   1.063   4.797   6.535
 7828SOL    HW224384   1.042   4.959   6.533
 7829SOL     OW24385   4.198   4.709   0.678
 7829SOL    HW124386   4.231   4.789   0.628
 7829SOL    HW224387   4.204   4.725   0.776
 7830SOL     OW24388   2.311   5.184   3.637
 7830SOL    HW124389   2.276   5.258   3.581
 7830SOL    HW224390   2.329   5.218   3.729
 7831SOL     OW24391   1.720   0.373   5.727
 7831SOL    HW124392   1.762   0.383   5.637
 7831SOL    HW224393   1.775   0.311   5.783
 7832SOL     OW24394   6.582   1.153   5.463
 7832SOL    HW124395   6.547   1.241   5.496
 7832SOL    HW224396   6.514   1.082   5.482
 7833SOL     OW24397   0.524   0.434   2.802
 7833SOL    HW124398   0.616   0.395   2.804
 7833SOL    HW224399   0.526   0.520   2.751
 7834SOL     OW24400   6.747   3.410   4.727
 7834SOL    HW124401   6.708   3.390   4.637
 7834SOL    HW224402   6.728   3.505   4.751
 7835SOL     OW24403   4.016   2.187   5.598
 7835SOL    HW124404   3.973   2.192   5.688
 7835SOL    HW224405   4.105   2.141   5.606
 7836SOL     OW24406   3.093   3.807   4.927
 7836SOL    HW124407   3.086   3.898   4.968
 7836SOL    HW224408   3.054   3.809   4.835
 7837SOL     OW24409   0.805   5.475   6.498
 7837SOL    HW124410   0.828   5.531   6.419
 7837SOL    HW224411   0.753   5.530   6.563
 7838SOL     OW24412   4.036   5.134   1.992
 7838SOL    HW124413   4.135   5.126   2.007
 7838SOL    HW224414   4.010   5.081   1.912
 7839SOL     OW24415   6.216   4.662   4.349
 7839SOL    HW124416   6.125   4.668   4.388
 7839SOL    HW224417   6.280   4.626   4.418
 7840SOL     OW24418   2.004   2.766   3.716
 7840SOL    HW124419   2.009   2.861   3.683
 7840SOL    HW224420   2.068   2.710   3.664
 7841SOL     OW24421   4.175   1.903   6.110
 7841SOL    HW124422   4.093   1.848   6.126
 7841SOL    HW224423   4.212   1.933   6.198
 7842SOL     OW24424   1.453   0.510   0.893
 7842SOL    HW124425   1.402   0.521   0.808
 7842SOL    HW224426   1.391   0.519   0.971
 7843SOL     OW24427   0.075   6.859   1.973
 7843SOL    HW124428   0.050   6.821   2.062
 7843SOL    HW224429   0.045   6.954   1.968
 7844SOL     OW24430   4.028   0.157   2.385
 7844SOL    HW124431   4.087   0.219   2.333
 7844SOL    HW224432   3.932   0.183   2.371
 7845SOL     OW24433   5.945   2.987   1.397
 7845SOL    HW124434   5.892   3.041   1.331
 7845SOL    HW224435   5.931   3.023   1.489
 7846SOL     OW24436   0.960   1.276   0.562
 7846SOL    HW124437   1.039   1.221   0.535
 7846SOL    HW224438   0.962   1.288   0.662
 7847SOL     OW24439   5.435   4.404   6.079
 7847SOL    HW124440   5.386   4.320   6.103
 7847SOL    HW224441   5.487   4.389   5.995
 7848SOL     OW24442   4.106   4.589   0.159
 7848SOL    HW124443   4.055   4.520   0.211
 7848SOL    HW224444   4.204   4.574   0.172
 7849SOL     OW24445   4.297   5.253   6.758
 7849SOL    HW124446   4.364   5.185   6.786
 7849SOL    HW224447   4.233   5.271   6.833
 7850SOL     OW24448   0.225   0.462   3.612
 7850SOL    HW124449   0.307   0.505   3.577
 7850SOL    HW224450   0.246   0.415   3.698
 7851SOL     OW24451   0.384   5.345   1.349
 7851SOL    HW124452   0.465   5.287   1.356
 7851SOL    HW224453   0.381   5.407   1.428
 7852SOL     OW24454   0.976   3.182   5.937
 7852SOL    HW124455   1.013   3.099   5.895
 7852SOL    HW224456   1.031   3.206   6.017
 7853SOL     OW24457   4.106   3.041   1.741
 7853SOL    HW124458   4.126   2.956   1.691
 7853SOL    HW224459   4.058   3.104   1.681
 7854SOL     OW24460   4.371   1.242   1.422
 7854SOL    HW124461   4.336   1.306   1.491
 7854SOL    HW224462   4.453   1.197   1.457
 7855SOL     OW24463   5.296   6.278   4.001
 7855SOL    HW124464   5.234   6.356   3.997
 7855SOL    HW224465   5.335   6.271   4.093
 7856SOL     OW24466   1.832   6.217   5.935
 7856SOL    HW124467   1.930   6.198   5.941
 7856SOL    HW224468   1.817   6.299   5.880
 7857SOL     OW24469   6.680   4.882   0.620
 7857SOL    HW124470   6.609   4.852   0.556
 7857SOL    HW224471   6.769   4.877   0.575
 7858SOL     OW24472   0.337   3.830   5.991
 7858SOL    HW124473   0.411   3.895   5.975
 7858SOL    HW224474   0.375   3.741   6.015
 7859SOL     OW24475   4.963   1.920   0.780
 7859SOL    HW124476   4.937   1.980   0.857
 7859SOL    HW224477   4.974   1.827   0.813
 7860SOL     OW24478   2.177   1.528   3.492
 7860SOL    HW124479   2.222   1.548   3.579
 7860SOL    HW224480   2.246   1.514   3.421
 7861SOL     OW24481   1.758   5.850   1.072
 7861SOL    HW124482   1.768   5.857   1.171
 7861SOL    HW224483   1.818   5.916   1.027
 7862SOL     OW24484   1.676   6.961   0.268
 7862SOL    HW124485   1.577   6.965   0.279
 7862SOL    HW224486   1.701   6.873   0.227
 7863SOL     OW24487   1.464   4.093   4.324
 7863SOL    HW124488   1.366   4.089   4.302
 7863SOL    HW224489   1.476   4.078   4.423
 7864SOL     OW24490   2.777   5.919   5.187
 7864SOL    HW124491   2.703   5.986   5.186
 7864SOL    HW224492   2.837   5.937   5.264
 7865SOL     OW24493   6.065   4.741   3.830
 7865SOL    HW124494   6.165   4.744   3.828
 7865SOL    HW224495   6.033   4.675   3.762
 7866SOL     OW24496   1.278   0.982   5.627
 7866SOL    HW124497   1.324   1.068   5.605
 7866SOL    HW224498   1.324   0.939   5.704
 7867SOL     OW24499   3.869   4.861   3.765
 7867SOL    HW124500   3.770   4.858   3.781
 7867SOL    HW224501   3.911   4.926   3.829
 7868SOL     OW24502   3.512   6.339   1.617
 7868SOL    HW124503   3.583   6.394   1.574
 7868SOL    HW224504   3.422   6.366   1.581
 7869SOL     OW24505   5.501   4.620   0.326
 7869SOL    HW124506   5.536   4.536   0.368
 7869SOL    HW224507   5.412   4.603   0.285
 7870SOL     OW24508   6.295   0.099   3.725
 7870SOL    HW124509   6.384   0.055   3.713
 7870SOL    HW224510   6.226   0.030   3.745
 7871SOL     OW24511   4.632   1.422   0.710
 7871SOL    HW124512   4.679   1.371   0.782
 7871SOL    HW224513   4.601   1.510   0.746
 7872SOL     OW24514   0.186   5.056   3.209
 7872SOL    HW124515   0.235   5.124   3.154
 7872SOL    HW224516   0.122   5.006   3.151
 7873SOL     OW24517   4.322   2.274   6.539
 7873SOL    HW124518   4.369   2.362   6.546
 7873SOL    HW224519   4.336   2.222   6.623
 7874SOL     OW24520   6.240   2.860   6.795
 7874SOL    HW124521   6.251   2.763   6.815
 7874SOL    HW224522   6.283   2.914   6.867
 7875SOL     OW24523   6.532   4.663   6.673
 7875SOL    HW124524   6.438   4.638   6.649
 7875SOL    HW224525   6.533   4.755   6.714
 7876SOL     OW24526   1.516   6.272   3.091
 7876SOL    HW124527   1.510   6.321   3.178
 7876SOL    HW224528   1.602   6.296   3.045
 7877SOL     OW24529   0.268   3.186   2.567
 7877SOL    HW124530   0.169   3.176   2.570
 7877SOL    HW224531   0.301   3.170   2.474
 7878SOL     OW24532   3.909   6.865   2.696
 7878SOL    HW124533   3.856   6.835   2.617
 7878SOL    HW224534   4.004   6.877   2.670
 7879SOL     OW24535   2.891   5.912   2.796
 7879SOL    HW124536   2.828   5.949   2.727
 7879SOL    HW224537   2.842   5.896   2.881
 7880SOL     OW24538   0.790   4.849   2.392
 7880SOL    HW124539   0.737   4.903   2.326
 7880SOL    HW224540   0.870   4.902   2.420
 7881SOL     OW24541   4.799   3.068   3.991
 7881SOL    HW124542   4.833   3.090   3.899
 7881SOL    HW224543   4.717   3.011   3.983
 7882SOL     OW24544   0.009   2.462   6.734
 7882SOL    HW124545   6.966   2.494   6.802
 7882SOL    HW224546   0.020   2.531   6.663
 7883SOL     OW24547   0.609   6.738   4.444
 7883SOL    HW124548   0.566   6.677   4.378
 7883SOL    HW224549   0.685   6.690   4.489
 7884SOL     OW24550   1.309   2.731   4.216
 7884SOL    HW124551   1.298   2.760   4.312
 7884SOL    HW224552   1.386   2.668   4.209
 7885SOL     OW24553   6.944   6.064   6.793
 7885SOL    HW124554   6.883   6.067   6.714
 7885SOL    HW224555   6.959   5.969   6.820
 7886SOL     OW24556   4.977   3.692   0.726
 7886SOL    HW124557   4.971   3.661   0.821
 7886SOL    HW224558   4.993   3.614   0.666
 7887SOL     OW24559   4.574   2.467   6.141
 7887SOL    HW124560   4.646   2.450   6.208
 7887SOL    HW224561   4.614   2.464   6.049
 7888SOL     OW24562   4.394   5.839   4.331
 7888SOL    HW124563   4.326   5.909   4.310
 7888SOL    HW224564   4.448   5.820   4.249
 7889SOL     OW24565   6.571   5.020   3.200
 7889SOL    HW124566   6.561   4.923   3.177
 7889SOL    HW224567   6.643   5.060   3.144
 7890SOL     OW24568   1.668   3.563   2.761
 7890SOL    HW124569   1.729   3.507   2.705
 7890SOL    HW224570   1.674   3.532   2.856
 7891SOL     OW24571   1.006   4.467   3.168
 7891SOL    HW124572   1.008   4.407   3.089
 7891SOL    HW224573   1.099   4.478   3.204
 7892SOL     OW24574   2.250   1.926   4.754
 7892SOL    HW124575   2.235   1.994   4.825
 7892SOL    HW224576   2.343   1.934   4.719
 7893SOL     OW24577   5.437   6.728   0.958
 7893SOL    HW124578   5.504   6.765   1.022
 7893SOL    HW224579   5.430   6.629   0.972
 7894SOL     OW24580   2.621   0.267   1.991
 7894SOL    HW124581   2.689   0.265   1.918
 7894SOL    HW224582   2.608   0.175   2.028
 7895SOL     OW24583   0.304   1.184   2.970
 7895SOL    HW124584   0.278   1.218   2.880
 7895SOL    HW224585   0.319   1.261   3.032
 7896SOL     OW24586   3.546   1.658   6.393
 7896SOL    HW124587   3.570   1.650   6.296
 7896SOL    HW224588   3.527   1.754   6.414
 7897SOL     OW24589   3.003   3.297   6.530
 7897SOL    HW124590   2.921   3.255   6.570
 7897SOL    HW224591   2.977   3.383   6.485
 7898SOL     OW24592   5.373   1.402   4.151
 7898SOL    HW124593   5.407   1.316   4.186
 7898SOL    HW224594   5.320   1.449   4.221
 7899SOL     OW24595   4.607   0.854   2.128
 7899SOL    HW124596   4.636   0.884   2.220
 7899SOL    HW224597   4.679   0.877   2.062
 7900SOL     OW24598   1.052   5.771   1.490
 7900SOL    HW124599   1.144   5.786   1.527
 7900SOL    HW224600   1.025   5.676   1.506
 7901SOL     OW24601   5.716   5.007   1.087
 7901SOL    HW124602   5.690   5.041   0.997
 7901SOL    HW224603   5.694   4.910   1.095
 7902SOL     OW24604   5.086   4.740   5.632
 7902SOL    HW124605   5.063   4.798   5.709
 7902SOL    HW224606   5.058   4.785   5.547
 7903SOL     OW24607   0.125   3.357   1.225
 7903SOL    HW124608   0.068   3.276   1.218
 7903SOL    HW224609   0.168   3.376   1.137
 7904SOL     OW24610   5.724   2.460   2.723
 7904SOL    HW124611   5.662   2.382   2.720
 7904SOL    HW224612   5.704   2.517   2.802
 7905SOL     OW24613   1.716   1.555   2.099
 7905SOL    HW124614   1.624   1.550   2.140
 7905SOL    HW224615   1.719   1.499   2.017
 7906SOL     OW24616   0.894   4.609   6.705
 7906SOL    HW124617   0.940   4.638   6.621
 7906SOL    HW224618   0.848   4.521   6.688
 7907SOL     OW24619   0.108   2.919   2.880
 7907SOL    HW124620   0.015   2.919   2.917
 7907SOL    HW224621   0.111   2.868   2.794
 7908SOL     OW24622   0.435   1.792   2.834
 7908SOL    HW124623   0.376   1.724   2.876
 7908SOL    HW224624   0.426   1.879   2.883
 7909SOL     OW24625   4.238   6.439   4.778
 7909SOL    HW124626   4.311   6.370   4.780
 7909SOL    HW224627   4.206   6.457   4.871
 7910SOL     OW24628   6.719   2.536   5.658
 7910SOL    HW124629   6.728   2.446   5.702
 7910SOL    HW224630   6.622   2.555   5.642
 7911SOL     OW24631   0.116   5.434   6.629
 7911SOL    HW124632   0.135   5.495   6.552
 7911SOL    HW224633   0.181   5.453   6.703
 7912SOL     OW24634   6.845   5.313   5.444
 7912SOL    HW124635   6.938   5.287   5.418
 7912SOL    HW224636   6.808   5.245   5.507
 7913SOL     OW24637   1.375   6.310   6.431
 7913SOL    HW124638   1.341   6.247   6.361
 7913SOL    HW224639   1.348   6.278   6.521
 7914SOL     OW24640   6.096   4.430   0.592
 7914SOL    HW124641   6.016   4.460   0.643
 7914SOL    HW224642   6.156   4.377   0.651
 7915SOL     OW24643   2.680   0.874   2.618
 7915SOL    HW124644   2.692   0.779   2.592
 7915SOL    HW224645   2.638   0.925   2.543
 7916SOL     OW24646   4.420   3.944   5.392
 7916SOL    HW124647   4.432   4.042   5.406
 7916SOL    HW224648   4.339   3.928   5.336
 7917SOL     OW24649   4.174   3.620   3.657
 7917SOL    HW124650   4.135   3.616   3.565
 7917SOL    HW224651   4.270   3.647   3.651
 7918SOL     OW24652   5.924   1.779   2.614
 7918SOL    HW124653   5.959   1.716   2.684
 7918SOL    HW224654   5.876   1.854   2.658
 7919SOL     OW24655   5.495   3.825   2.228
 7919SOL    HW124656   5.396   3.836   2.239
 7919SOL    HW224657   5.533   3.906   2.185
 7920SOL     OW24658   0.379   6.464   1.681
 7920SOL    HW124659   0.320   6.517   1.741
 7920SOL    HW224660   0.455   6.426   1.733
 7921SOL     OW24661   2.762   5.646   1.885
 7921SOL    HW124662   2.862   5.645   1.887
 7921SOL    HW224663   2.730   5.578   1.818
 7922SOL     OW24664   0.793   4.560   5.411
 7922SOL    HW124665   0.694   4.575   5.413
 7922SOL    HW224666   0.812   4.465   5.435
 7923SOL     OW24667   1.141   1.889   2.917
 7923SOL    HW124668   1.123   1.843   2.830
 7923SOL    HW224669   1.054   1.905   2.964
 7924SOL     OW24670   2.246   0.960   3.578
 7924SOL    HW124671   2.263   0.923   3.669
 7924SOL    HW224672   2.312   0.921   3.513
 7925SOL     OW24673   0.801   1.192   6.838
 7925SOL    HW124674   0.875   1.139   6.797
 7925SOL    HW224675   0.792   1.279   6.790
 7926SOL     OW24676   3.176   0.338   2.053
 7926SOL    HW124677   3.206   0.423   2.011
 7926SOL    HW224678   3.256   0.284   2.081
 7927SOL     OW24679   4.448   4.675   4.607
 7927SOL    HW124680   4.453   4.580   4.640
 7927SOL    HW224681   4.510   4.732   4.660
 7928SOL     OW24682   0.571   4.301   6.954
 7928SOL    HW124683   0.558   4.228   7.020
 7928SOL    HW224684   0.535   4.387   6.991
 7929SOL     OW24685   3.488   4.042   4.929
 7929SOL    HW124686   3.410   4.014   4.874
 7929SOL    HW224687   3.548   4.100   4.875
 7930SOL     OW24688   4.225   6.928   2.925
 7930SOL    HW124689   4.214   6.833   2.894
 7930SOL    HW224690   4.306   6.935   2.983
 7931SOL     OW24691   2.911   3.308   5.919
 7931SOL    HW124692   2.847   3.312   5.842
 7931SOL    HW224693   2.863   3.327   6.004
 7932SOL     OW24694   3.124   0.369   0.559
 7932SOL    HW124695   3.154   0.460   0.588
 7932SOL    HW224696   3.099   0.371   0.463
 7933SOL     OW24697   1.893   1.477   6.677
 7933SOL    HW124698   1.917   1.559   6.728
 7933SOL    HW224699   1.908   1.493   6.579
 7934SOL     OW24700   4.328   2.280   5.801
 7934SOL    HW124701   4.262   2.318   5.737
 7934SOL    HW224702   4.305   2.185   5.821
 7935SOL     OW24703   4.949   5.953   2.061
 7935SOL    HW124704   4.908   5.862   2.052
 7935SOL    HW224705   4.983   5.983   1.973
 7936SOL     OW24706   4.326   6.263   1.952
 7936SOL    HW124707   4.368   6.190   2.006
 7936SOL    HW224708   4.336   6.243   1.855
 7937SOL     OW24709   6.280   1.734   6.083
 7937SOL    HW124710   6.302   1.831   6.091
 7937SOL    HW224711   6.343   1.680   6.140
 7938SOL     OW24712   6.469   5.231   4.237
 7938SOL    HW124713   6.493   5.137   4.260
 7938SOL    HW224714   6.553   5.286   4.227
 7939SOL     OW24715   0.588   6.239   3.943
 7939SOL    HW124716   0.590   6.183   3.860
 7939SOL    HW224717   0.621   6.331   3.922
 7940SOL     OW24718   1.586   6.157   0.898
 7940SOL    HW124719   1.486   6.159   0.895
 7940SOL    HW224720   1.616   6.201   0.983
 7941SOL     OW24721   0.610   0.535   0.989
 7941SOL    HW124722   0.702   0.549   1.025
 7941SOL    HW224723   0.586   0.438   0.994
 7942SOL     OW24724   1.119   0.576   1.801
 7942SOL    HW124725   1.095   0.530   1.887
 7942SOL    HW224726   1.155   0.667   1.822
 7943SOL     OW24727   6.223   1.918   0.245
 7943SOL    HW124728   6.139   1.963   0.274
 7943SOL    HW224729   6.222   1.823   0.275
 7944SOL     OW24730   6.589   4.094   1.898
 7944SOL    HW124731   6.687   4.107   1.912
 7944SOL    HW224732   6.551   4.039   1.972
 7945SOL     OW24733   5.686   0.484   0.466
 7945SOL    HW124734   5.770   0.469   0.518
 7945SOL    HW224735   5.648   0.573   0.489
 7946SOL     OW24736   2.356   1.658   5.579
 7946SOL    HW124737   2.329   1.703   5.494
 7946SOL    HW224738   2.276   1.610   5.618
 7947SOL     OW24739   4.377   5.430   6.239
 7947SOL    HW124740   4.340   5.393   6.324
 7947SOL    HW224741   4.376   5.530   6.242
 7948SOL     OW24742   0.853   5.266   6.102
 7948SOL    HW124743   0.821   5.335   6.036
 7948SOL    HW224744   0.931   5.217   6.063
 7949SOL     OW24745   6.922   3.904   3.899
 7949SOL    HW124746   6.963   3.817   3.927
 7949SOL    HW224747   6.890   3.953   3.981
 7950SOL     OW24748   3.582   5.057   4.251
 7950SOL    HW124749   3.646   5.125   4.287
 7950SOL    HW224750   3.543   5.005   4.326
 7951SOL     OW24751   2.233   3.557   0.829
 7951SOL    HW124752   2.170   3.558   0.907
 7951SOL    HW224753   2.327   3.550   0.862
 7952SOL     OW24754   5.472   4.647   0.700
 7952SOL    HW124755   5.428   4.709   0.765
 7952SOL    HW224756   5.456   4.552   0.730
 7953SOL     OW24757   1.990   3.692   2.490
 7953SOL    HW124758   1.910   3.654   2.444
 7953SOL    HW224759   1.962   3.733   2.577
 7954SOL     OW24760   5.301   4.803   4.375
 7954SOL    HW124761   5.254   4.813   4.463
 7954SOL    HW224762   5.253   4.857   4.306
 7955SOL     OW24763   2.216   6.329   6.249
 7955SOL    HW124764   2.189   6.392   6.322
 7955SOL    HW224765   2.174   6.240   6.265
 7956SOL     OW24766   5.969   6.384   2.775
 7956SOL    HW124767   6.054   6.361   2.728
 7956SOL    HW224768   5.968   6.482   2.795
 7957SOL     OW24769   1.665   2.466   1.227
 7957SOL    HW124770   1.717   2.392   1.185
 7957SOL    HW224771   1.653   2.540   1.161
 7958SOL     OW24772   2.756   5.873   3.413
 7958SOL    HW124773   2.855   5.870   3.404
 7958SOL    HW224774   2.729   5.956   3.462
 7959SOL     OW24775   5.305   5.328   1.745
 7959SOL    HW124776   5.315   5.234   1.778
 7959SOL    HW224777   5.280   5.387   1.822
 7960SOL     OW24778   1.285   2.846   1.654
 7960SOL    HW124779   1.291   2.935   1.610
 7960SOL    HW224780   1.373   2.824   1.697
 7961SOL     OW24781   0.530   5.804   0.358
 7961SOL    HW124782   0.584   5.752   0.292
 7961SOL    HW224783   0.448   5.839   0.314
 7962SOL     OW24784   1.619   6.649   2.669
 7962SOL    HW124785   1.709   6.613   2.648
 7962SOL    HW224786   1.563   6.649   2.587
 7963SOL     OW24787   0.960   6.539   5.240
 7963SOL    HW124788   0.979   6.566   5.335
 7963SOL    HW224789   0.883   6.474   5.239
 7964SOL     OW24790   6.153   5.621   3.548
 7964SOL    HW124791   6.096   5.701   3.527
 7964SOL    HW224792   6.124   5.580   3.634
 7965SOL     OW24793   4.147   1.788   0.683
 7965SOL    HW124794   4.064   1.748   0.723
 7965SOL    HW224795   4.177   1.731   0.607
 7966SOL     OW24796   7.008   0.299   3.579
 7966SOL    HW124797   0.069   0.352   3.565
 7966SOL    HW224798   6.964   0.328   3.664
 7967SOL     OW24799   3.157   0.287   3.524
 7967SOL    HW124800   3.244   0.335   3.528
 7967SOL    HW224801   3.170   0.192   3.552
 7968SOL     OW24802   2.705   0.919   1.429
 7968SOL    HW124803   2.611   0.951   1.427
 7968SOL    HW224804   2.718   0.848   1.360
 7969SOL     OW24805   3.491   1.332   3.544
 7969SOL    HW124806   3.400   1.301   3.573
 7969SOL    HW224807   3.557   1.314   3.617
 7970SOL     OW24808   0.685   5.080   3.497
 7970SOL    HW124809   0.742   5.014   3.546
 7970SOL    HW224810   0.634   5.033   3.425
 7971SOL     OW24811   3.396   1.780   2.211
 7971SOL    HW124812   3.313   1.805   2.262
 7971SOL    HW224813   3.376   1.781   2.113
 7972SOL     OW24814   5.929   5.680   1.386
 7972SOL    HW124815   5.970   5.761   1.345
 7972SOL    HW224816   5.858   5.708   1.451
 7973SOL     OW24817   4.990   1.818   2.947
 7973SOL    HW124818   4.934   1.804   2.865
 7973SOL    HW224819   4.937   1.793   3.028
 7974SOL     OW24820   5.375   6.135   4.454
 7974SOL    HW124821   5.279   6.116   4.474
 7974SOL    HW224822   5.423   6.157   4.539
 7975SOL     OW24823   1.792   1.526   2.636
 7975SOL    HW124824   1.704   1.574   2.631
 7975SOL    HW224825   1.803   1.468   2.554
 7976SOL     OW24826   1.528   7.021   6.333
 7976SOL    HW124827   1.443   0.050   6.339
 7976SOL    HW224828   1.588   0.024   6.408
 7977SOL     OW24829   5.555   6.407   1.193
 7977SOL    HW124830   5.576   6.406   1.096
 7977SOL    HW224831   5.496   6.329   1.215
 7978SOL     OW24832   3.457   1.383   5.788
 7978SOL    HW124833   3.364   1.347   5.790
 7978SOL    HW224834   3.454   1.482   5.782
 7979SOL     OW24835   4.765   6.224   3.915
 7979SOL    HW124836   4.788   6.131   3.888
 7979SOL    HW224837   4.705   6.265   3.847
 7980SOL     OW24838   2.810   0.603   2.517
 7980SOL    HW124839   2.854   0.580   2.430
 7980SOL    HW224840   2.880   0.615   2.587
 7981SOL     OW24841   1.029   5.963   2.401
 7981SOL    HW124842   1.034   5.989   2.497
 7981SOL    HW224843   1.106   6.003   2.351
 7982SOL     OW24844   0.092   2.675   0.407
 7982SOL    HW124845   0.083   2.657   0.505
 7982SOL    HW224846   0.180   2.639   0.375
 7983SOL     OW24847   5.067   2.440   1.495
 7983SOL    HW124848   5.024   2.516   1.447
 7983SOL    HW224849   5.155   2.419   1.453
 7984SOL     OW24850   6.772   0.785   0.798
 7984SOL    HW124851   6.732   0.869   0.760
 7984SOL    HW224852   6.872   0.794   0.801
 7985SOL     OW24853   1.016   1.157   1.074
 7985SOL    HW124854   0.929   1.108   1.073
 7985SOL    HW224855   1.016   1.224   1.148
 7986SOL     OW24856   4.834   3.694   0.386
 7986SOL    HW124857   4.868   3.718   0.295
 7986SOL    HW224858   4.905   3.646   0.436
 7987SOL     OW24859   0.812   2.936   4.847
 7987SOL    HW124860   0.810   2.838   4.864
 7987SOL    HW224861   0.888   2.958   4.786
 7988SOL     OW24862   2.965   1.374   5.456
 7988SOL    HW124863   2.970   1.356   5.358
 7988SOL    HW224864   2.920   1.463   5.472
 7989SOL     OW24865   3.370   3.627   6.482
 7989SOL    HW124866   3.315   3.576   6.416
 7989SOL    HW224867   3.355   3.590   6.574
 7990SOL     OW24868   2.053   2.876   4.734
 7990SOL    HW124869   1.980   2.821   4.775
 7990SOL    HW224870   2.139   2.858   4.781
 7991SOL     OW24871   2.419   2.587   6.102
 7991SOL    HW124872   2.478   2.543   6.035
 7991SOL    HW224873   2.382   2.672   6.064
 7992SOL     OW24874   3.017   1.403   1.108
 7992SOL    HW124875   3.051   1.496   1.122
 7992SOL    HW224876   3.093   1.339   1.110
 7993SOL     OW24877   3.009   5.690   6.166
 7993SOL    HW124878   3.104   5.718   6.158
 7993SOL    HW224879   2.999   5.626   6.243
 7994SOL     OW24880   6.028   0.763   4.415
 7994SOL    HW124881   5.969   0.745   4.494
 7994SOL    HW224882   6.013   0.691   4.346
 7995SOL     OW24883   4.201   5.292   2.796
 7995SOL    HW124884   4.164   5.352   2.725
 7995SOL    HW224885   4.147   5.208   2.801
 7996SOL     OW24886   4.395   1.406   5.424
 7996SOL    HW124887   4.430   1.484   5.373
 7996SOL    HW224888   4.472   1.349   5.455
 7997SOL     OW24889   5.451   2.521   1.109
 7997SOL    HW124890   5.488   2.571   1.030
 7997SOL    HW224891   5.524   2.466   1.150
 7998SOL     OW24892   6.594   4.533   6.434
 7998SOL    HW124893   6.572   4.435   6.428
 7998SOL    HW224894   6.613   4.557   6.529
 7999SOL     OW24895   2.317   2.007   5.579
 7999SOL    HW124896   2.311   1.926   5.520
 7999SOL    HW224897   2.373   1.986   5.659
 8000SOL     OW24898   4.941   0.741   5.732
 8000SOL    HW124899   4.866   0.735   5.665
 8000SOL    HW224900   5.028   0.723   5.686
 8001SOL     OW24901   2.223   5.075   0.813
 8001SOL    HW124902   2.302   5.019   0.788
 8001SOL    HW224903   2.248   5.172   0.808
 8002SOL     OW24904   4.891   2.248   5.644
 8002SOL    HW124905   4.850   2.336   5.618
 8002SOL    HW224906   4.917   2.198   5.562
 8003SOL     OW24907   4.419   5.297   3.211
 8003SOL    HW124908   4.438   5.359   3.134
 8003SOL    HW224909   4.373   5.348   3.284
 8004SOL     OW24910   1.533   4.224   3.687
 8004SOL    HW124911   1.586   4.147   3.722
 8004SOL    HW224912   1.463   4.190   3.624
 8005SOL     OW24913   2.248   0.501   2.664
 8005SOL    HW124914   2.159   0.511   2.619
 8005SOL    HW224915   2.313   0.564   2.622
 8006SOL     OW24916   3.946   6.369   1.651
 8006SOL    HW124917   3.886   6.343   1.727
 8006SOL    HW224918   3.999   6.449   1.677
 8007SOL     OW24919   0.222   1.240   3.851
 8007SOL    HW124920   0.297   1.300   3.824
 8007SOL    HW224921   0.162   1.288   3.915
 8008SOL     OW24922   6.018   5.422   0.785
 8008SOL    HW124923   6.022   5.330   0.824
 8008SOL    HW224924   6.108   5.465   0.796
 8009SOL     OW24925   0.146   6.622   3.558
 8009SOL    HW124926   0.236   6.633   3.516
 8009SOL    HW224927   0.099   6.711   3.560
 8010SOL     OW24928   1.973   2.317   6.986
 8010SOL    HW124929   1.881   2.281   6.969
 8010SOL    HW224930   2.014   2.345   6.899
 8011SOL     OW24931   2.388   2.923   0.229
 8011SOL    HW124932   2.360   2.958   0.139
 8011SOL    HW224933   2.441   2.839   0.216
 8012SOL     OW24934   2.611   6.479   2.900
 8012SOL    HW124935   2.670   6.496   2.979
 8012SOL    HW224936   2.655   6.513   2.817
 8013SOL     OW24937   6.111   5.333   4.891
 8013SOL    HW124938   6.210   5.342   4.881
 8013SOL    HW224939   6.068   5.350   4.802
 8014SOL     OW24940   2.544   6.652   6.552
 8014SOL    HW124941   2.480   6.579   6.576
 8014SOL    HW224942   2.542   6.723   6.621
 8015SOL     OW24943   1.499   2.278   6.996
 8015SOL    HW124944   1.597   2.299   6.994
 8015SOL    HW224945   1.487   2.182   7.020
 8016SOL     OW24946   4.515   6.085   2.070
 8016SOL    HW124947   4.548   6.119   1.981
 8016SOL    HW224948   4.589   6.091   2.137
 8017SOL     OW24949   6.717   3.368   5.595
 8017SOL    HW124950   6.812   3.364   5.628
 8017SOL    HW224951   6.655   3.333   5.665
 8018SOL     OW24952   5.440   3.198   4.104
 8018SOL    HW124953   5.418   3.124   4.168
 8018SOL    HW224954   5.391   3.281   4.129
 8019SOL     OW24955   2.846   5.158   1.094
 8019SOL    HW124956   2.825   5.104   1.013
 8019SOL    HW224957   2.782   5.134   1.167
 8020SOL     OW24958   5.564   6.821   6.616
 8020SOL    HW124959   5.562   6.907   6.667
 8020SOL    HW224960   5.484   6.816   6.556
 8021SOL     OW24961   6.606   1.040   0.786
 8021SOL    HW124962   6.527   1.093   0.755
 8021SOL    HW224963   6.641   1.078   0.871
 8022SOL     OW24964   4.525   5.035   3.576
 8022SOL    HW124965   4.597   5.018   3.642
 8022SOL    HW224966   4.454   4.965   3.583
 8023SOL     OW24967   6.940   5.810   3.152
 8023SOL    HW124968   7.010   5.826   3.083
 8023SOL    HW224969   6.968   5.852   3.238
 8024SOL     OW24970   4.549   5.490   4.806
 8024SOL    HW124971   4.462   5.536   4.825
 8024SOL    HW224972   4.534   5.392   4.798
 8025SOL     OW24973   3.397   6.095   0.517
 8025SOL    HW124974   3.331   6.157   0.559
 8025SOL    HW224975   3.395   6.007   0.566
 8026SOL     OW24976   2.232   2.068   6.329
 8026SOL    HW124977   2.168   2.145   6.324
 8026SOL    HW224978   2.180   1.982   6.330
 8027SOL     OW24979   4.657   3.392   5.647
 8027SOL    HW124980   4.575   3.442   5.675
 8027SOL    HW224981   4.684   3.422   5.555
 8028SOL     OW24982   5.806   5.131   0.195
 8028SOL    HW124983   5.742   5.144   0.270
 8028SOL    HW224984   5.792   5.040   0.155
 8029SOL     OW24985   2.848   4.694   6.659
 8029SOL    HW124986   2.838   4.673   6.756
 8029SOL    HW224987   2.945   4.706   6.638
 8030SOL     OW24988   6.188   3.358   0.885
 8030SOL    HW124989   6.173   3.283   0.820
 8030SOL    HW224990   6.138   3.339   0.969
 8031SOL     OW24991   3.762   6.482   0.992
 8031SOL    HW124992   3.817   6.445   1.067
 8031SOL    HW224993   3.776   6.581   0.986
 8032SOL     OW24994   4.652   3.848   5.610
 8032SOL    HW124995   4.619   3.940   5.630
 8032SOL    HW224996   4.667   3.838   5.512
 8033SOL     OW24997   5.946   2.164   1.466
 8033SOL    HW124998   5.988   2.189   1.379
 8033SOL    HW224999   6.017   2.136   1.531
 8034SOL     OW25000   6.696   1.938   5.699
 8034SOL    HW125001   6.695   1.867   5.770
 8034SOL    HW225002   6.704   1.895   5.609
 8035SOL     OW25003   5.569   6.048   6.152
 8035SOL    HW125004   5.660   6.086   6.133
 8035SOL    HW225005   5.561   6.028   6.250
 8036SOL     OW25006   1.178   4.548   2.130
 8036SOL    HW125007   1.088   4.559   2.172
 8036SOL    HW225008   1.170   4.566   2.032
 8037SOL     OW25009   2.036   3.220   1.945
 8037SOL    HW125010   2.070   3.312   1.964
 8037SOL    HW225011   2.100   3.171   1.886
 8038SOL     OW25012   5.773   1.466   4.146
 8038SOL    HW125013   5.749   1.556   4.181
 8038SOL    HW225014   5.843   1.475   4.075
 8039SOL     OW25015   2.358   6.020   3.944
 8039SOL    HW125016   2.429   5.978   3.888
 8039SOL    HW225017   2.400   6.078   4.014
 8040SOL     OW25018   5.534   5.942   0.326
 8040SOL    HW125019   5.495   5.968   0.238
 8040SOL    HW225020   5.465   5.954   0.397
 8041SOL     OW25021   3.262   1.780   1.570
 8041SOL    HW125022   3.212   1.866   1.579
 8041SOL    HW225023   3.203   1.712   1.524
 8042SOL     OW25024   2.615   5.179   0.278
 8042SOL    HW125025   2.618   5.208   0.183
 8042SOL    HW225026   2.558   5.097   0.287
 8043SOL     OW25027   2.834   0.547   1.636
 8043SOL    HW125028   2.754   0.592   1.676
 8043SOL    HW225029   2.872   0.605   1.564
 8044SOL     OW25030   3.026   3.384   2.323
 8044SOL    HW125031   3.099   3.452   2.332
 8044SOL    HW225032   3.015   3.360   2.226
 8045SOL     OW25033   6.456   2.774   3.803
 8045SOL    HW125034   6.511   2.821   3.733
 8045SOL    HW225035   6.494   2.794   3.893
 8046SOL     OW25036   0.030   5.263   5.267
 8046SOL    HW125037   0.102   5.194   5.280
 8046SOL    HW225038   0.069   5.344   5.223
 8047SOL     OW25039   2.578   0.284   4.774
 8047SOL    HW125040   2.488   0.314   4.804
 8047SOL    HW225041   2.630   0.252   4.853
 8048SOL     OW25042   5.806   0.828   5.700
 8048SOL    HW125043   5.844   0.805   5.610
 8048SOL    HW225044   5.707   0.826   5.695
 8049SOL     OW25045   1.636   0.090   0.589
 8049SOL    HW125046   1.623   0.116   0.493
 8049SOL    HW225047   1.548   0.092   0.637
 8050SOL     OW25048   0.130   3.298   1.505
 8050SOL    HW125049   0.083   3.377   1.544
 8050SOL    HW225050   0.138   3.310   1.406
 8051SOL     OW25051   2.816   1.408   3.653
 8051SOL    HW125052   2.769   1.468   3.718
 8051SOL    HW225053   2.882   1.351   3.702
 8052SOL     OW25054   3.484   1.857   3.093
 8052SOL    HW125055   3.561   1.864   3.157
 8052SOL    HW225056   3.447   1.948   3.075
 8053SOL     OW25057   4.209   3.526   1.752
 8053SOL    HW125058   4.124   3.575   1.771
 8053SOL    HW225059   4.201   3.432   1.786
 8054SOL     OW25060   4.659   6.448   4.402
 8054SOL    HW125061   4.736   6.440   4.339
 8054SOL    HW225062   4.574   6.456   4.350
 8055SOL     OW25063   0.744   0.213   5.474
 8055SOL    HW125064   0.822   0.197   5.534
 8055SOL    HW225065   0.767   0.184   5.381
 8056SOL     OW25066   4.506   1.297   2.502
 8056SOL    HW125067   4.583   1.234   2.489
 8056SOL    HW225068   4.489   1.308   2.600
 8057SOL     OW25069   3.499   0.290   3.765
 8057SOL    HW125070   3.439   0.361   3.801
 8057SOL    HW225071   3.468   0.200   3.797
 8058SOL     OW25072   2.188   6.678   3.318
 8058SOL    HW125073   2.112   6.640   3.266
 8058SOL    HW225074   2.273   6.631   3.292
 8059SOL     OW25075   2.086   1.224   3.990
 8059SOL    HW125076   2.037   1.275   4.062
 8059SOL    HW225077   2.184   1.230   4.006
 8060SOL     OW25078   0.769   2.645   5.238
 8060SOL    HW125079   0.816   2.607   5.317
 8060SOL    HW225080   0.833   2.698   5.183
 8061SOL     OW25081   6.438   6.480   2.883
 8061SOL    HW125082   6.415   6.433   2.968
 8061SOL    HW225083   6.445   6.412   2.809
 8062SOL     OW25084   1.366   3.389   1.927
 8062SOL    HW125085   1.450   3.436   1.897
 8062SOL    HW225086   1.390   3.299   1.964
 8063SOL     OW25087   2.383   3.004   6.168
 8063SOL    HW125088   2.359   3.099   6.188
 8063SOL    HW225089   2.470   2.982   6.213
 8064SOL     OW25090   6.960   2.016   5.664
 8064SOL    HW125091   6.865   1.992   5.681
 8064SOL    HW225092   6.992   2.078   5.736
 8065SOL     OW25093   4.597   6.926   6.445
 8065SOL    HW125094   4.527   6.931   6.373
 8065SOL    HW225095   4.562   6.969   6.528
 8066SOL     OW25096   2.165   6.866   1.504
 8066SOL    HW125097   2.079   6.905   1.536
 8066SOL    HW225098   2.212   6.821   1.580
 8067SOL     OW25099   4.638   2.389   2.229
 8067SOL    HW125100   4.738   2.385   2.232
 8067SOL    HW225101   4.608   2.481   2.254
 8068SOL     OW25102   6.665   5.045   4.394
 8068SOL    HW125103   6.764   5.042   4.407
 8068SOL    HW225104   6.624   5.100   4.466
 8069SOL     OW25105   1.188   6.461   2.100
 8069SOL    HW125106   1.155   6.555   2.109
 8069SOL    HW225107   1.195   6.420   2.191
 8070SOL     OW25108   3.762   0.321   2.587
 8070SOL    HW125109   3.762   0.228   2.624
 8070SOL    HW225110   3.854   0.360   2.596
 8071SOL     OW25111   5.002   5.353   7.010
 8071SOL    HW125112   5.031   5.413   6.936
 8071SOL    HW225113   5.062   5.273   7.013
 8072SOL     OW25114   4.138   0.663   3.172
 8072SOL    HW125115   4.134   0.576   3.222
 8072SOL    HW225116   4.162   0.645   3.076
 8073SOL     OW25117   5.168   0.577   6.183
 8073SOL    HW125118   5.152   0.652   6.118
 8073SOL    HW225119   5.261   0.543   6.173
 8074SOL     OW25120   2.902   4.111   6.674
 8074SOL    HW125121   2.918   4.083   6.579
 8074SOL    HW225122   2.990   4.120   6.721
 8075SOL     OW25123   5.928   2.464   3.702
 8075SOL    HW125124   5.977   2.514   3.774
 8075SOL    HW225125   5.831   2.488   3.704
 8076SOL     OW25126   4.883   3.304   6.459
 8076SOL    HW125127   4.951   3.274   6.392
 8076SOL    HW225128   4.794   3.263   6.438
 8077SOL     OW25129   0.895   0.102   0.372
 8077SOL    HW125130   0.970   0.163   0.346
 8077SOL    HW225131   0.847   0.140   0.452
 8078SOL     OW25132   5.829   2.849   1.121
 8078SOL    HW125133   5.805   2.935   1.168
 8078SOL    HW225134   5.825   2.774   1.187
 8079SOL     OW25135   1.362   2.343   1.471
 8079SOL    HW125136   1.390   2.391   1.554
 8079SOL    HW225137   1.436   2.285   1.438
 8080SOL     OW25138   4.035   5.098   0.279
 8080SOL    HW125139   4.077   5.009   0.262
 8080SOL    HW225140   4.104   5.170   0.272
 8081SOL     OW25141   5.892   2.406   4.971
 8081SOL    HW125142   5.970   2.441   4.919
 8081SOL    HW225143   5.831   2.356   4.910
 8082SOL     OW25144   5.881   3.611   4.652
 8082SOL    HW125145   5.891   3.527   4.704
 8082SOL    HW225146   5.893   3.690   4.712
 8083SOL     OW25147   6.068   1.960   5.157
 8083SOL    HW125148   6.006   2.003   5.223
 8083SOL    HW225149   6.034   1.972   5.064
 8084SOL     OW25150   6.399   0.039   0.455
 8084SOL    HW125151   6.465   6.989   0.439
 8084SOL    HW225152   6.340   0.014   0.532
 8085SOL     OW25153   5.235   2.462   0.923
 8085SOL    HW125154   5.171   2.538   0.933
 8085SOL    HW225155   5.319   2.482   0.972
 8086SOL     OW25156   2.389   5.604   5.801
 8086SOL    HW125157   2.301   5.645   5.779
 8086SOL    HW225158   2.382   5.504   5.793
 8087SOL     OW25159   2.668   4.034   0.702
 8087SOL    HW125160   2.764   4.054   0.723
 8087SOL    HW225161   2.612   4.049   0.784
 8088SOL     OW25162   4.542   0.944   3.146
 8088SOL    HW125163   4.629   0.902   3.169
 8088SOL    HW225164   4.536   0.957   3.047
 8089SOL     OW25165   6.452   2.801   0.662
 8089SOL    HW125166   6.474   2.879   0.605
 8089SOL    HW225167   6.439   2.720   0.605
 8090SOL     OW25168   4.426   2.123   5.028
 8090SOL    HW125169   4.394   2.045   5.082
 8090SOL    HW225170   4.375   2.128   4.942
 8091SOL     OW25171   1.687   4.163   5.613
 8091SOL    HW125172   1.685   4.254   5.570
 8091SOL    HW225173   1.677   4.093   5.542
 8092SOL     OW25174   6.406   1.745   4.285
 8092SOL    HW125175   6.418   1.675   4.355
 8092SOL    HW225176   6.483   1.809   4.290
 8093SOL     OW25177   5.674   5.245   0.464
 8093SOL    HW125178   5.704   5.337   0.437
 8093SOL    HW225179   5.648   5.246   0.560
 8094SOL     OW25180   0.588   3.776   4.044
 8094SOL    HW125181   0.548   3.820   3.963
 8094SOL    HW225182   0.545   3.687   4.059
 8095SOL     OW25183   6.402   3.186   4.590
 8095SOL    HW125184   6.487   3.141   4.618
 8095SOL    HW225185   6.347   3.122   4.536
 8096SOL     OW25186   4.725   0.060   0.593
 8096SOL    HW125187   4.636   0.097   0.564
 8096SOL    HW225188   4.726   0.051   0.692
 8097SOL     OW25189   4.644   1.693   4.488
 8097SOL    HW125190   4.558   1.689   4.538
 8097SOL    HW225191   4.697   1.610   4.507
 8098SOL     OW25192   2.285   1.374   4.217
 8098SOL    HW125193   2.330   1.387   4.305
 8098SOL    HW225194   2.240   1.459   4.189
 8099SOL     OW25195   3.674   6.497   4.774
 8099SOL    HW125196   3.641   6.561   4.843
 8099SOL    HW225197   3.750   6.538   4.723
 8100SOL     OW25198   6.433   5.886   1.156
 8100SOL    HW125199   6.437   5.946   1.077
 8100SOL    HW225200   6.486   5.926   1.231
 8101SOL     OW25201   6.910   4.928   2.029
 8101SOL    HW125202   6.972   4.906   2.104
 8101SOL    HW225203   6.918   4.859   1.957
 8102SOL     OW25204   6.590   0.258   5.731
 8102SOL    HW125205   6.629   0.202   5.804
 8102SOL    HW225206   6.517   0.208   5.686
 8103SOL     OW25207   2.596   2.455   2.449
 8103SOL    HW125208   2.532   2.530   2.463
 8103SOL    HW225209   2.563   2.374   2.498
 8104SOL     OW25210   2.861   0.167   6.147
 8104SOL    HW125211   2.766   0.168   6.116
 8104SOL    HW225212   2.891   0.260   6.165
 8105SOL     OW25213   1.893   3.066   3.346
 8105SOL    HW125214   1.949   2.984   3.337
 8105SOL    HW225215   1.807   3.043   3.391
 8106SOL     OW25216   0.269   3.622   5.307
 8106SOL    HW125217   0.298   3.669   5.223
 8106SOL    HW225218   0.169   3.625   5.314
 8107SOL     OW25219   1.318   5.486   6.785
 8107SOL    HW125220   1.380   5.445   6.852
 8107SOL    HW225221   1.249   5.540   6.833
 8108SOL     OW25222   2.221   3.254   5.707
 8108SOL    HW125223   2.130   3.224   5.680
 8108SOL    HW225224   2.284   3.177   5.706
 8109SOL     OW25225   0.612   5.193   5.840
 8109SOL    HW125226   0.695   5.200   5.895
 8109SOL    HW225227   0.620   5.254   5.761
 8110SOL     OW25228   1.383   4.920   0.525
 8110SOL    HW125229   1.338   5.000   0.485
 8110SOL    HW225230   1.455   4.949   0.587
 8111SOL     OW25231   3.256   6.250   4.169
 8111SOL    HW125232   3.198   6.184   4.217
 8111SOL    HW225233   3.200   6.302   4.104
 8112SOL     OW25234   4.168   0.936   4.120
 8112SOL    HW125235   4.211   0.991   4.192
 8112SOL    HW225236   4.113   0.996   4.061
 8113SOL     OW25237   3.099   2.812   5.611
 8113SOL    HW125238   3.008   2.829   5.651
 8113SOL    HW225239   3.160   2.888   5.633
 8114SOL     OW25240   3.158   3.415   1.757
 8114SOL    HW125241   3.080   3.452   1.707
 8114SOL    HW225242   3.242   3.460   1.725
 8115SOL     OW25243   3.348   2.886   0.745
 8115SOL    HW125244   3.405   2.901   0.664
 8115SOL    HW225245   3.377   2.949   0.818
 8116SOL     OW25246   5.404   1.441   5.629
 8116SOL    HW125247   5.440   1.348   5.641
 8116SOL    HW225248   5.342   1.462   5.705
 8117SOL     OW25249   3.174   2.613   5.919
 8117SOL    HW125250   3.247   2.590   5.855
 8117SOL    HW225251   3.098   2.654   5.869
 8118SOL     OW25252   1.332   2.162   3.435
 8118SOL    HW125253   1.341   2.129   3.341
 8118SOL    HW225254   1.276   2.098   3.488
 8119SOL     OW25255   1.484   6.614   2.446
 8119SOL    HW125256   1.386   6.621   2.426
 8119SOL    HW225257   1.514   6.520   2.434
 8120SOL     OW25258   4.641   4.436   2.329
 8120SOL    HW125259   4.624   4.477   2.419
 8120SOL    HW225260   4.562   4.449   2.270
 8121SOL     OW25261   6.780   5.574   3.026
 8121SOL    HW125262   6.820   5.634   3.096
 8121SOL    HW225263   6.685   5.599   3.012
 8122SOL     OW25264   6.800   5.806   1.649
 8122SOL    HW125265   6.819   5.737   1.579
 8122SOL    HW225266   6.887   5.839   1.687
 8123SOL     OW25267   1.438   5.302   6.972
 8123SOL    HW125268   1.355   5.248   6.979
 8123SOL    HW225269   1.491   5.294   0.034
 8124SOL     OW25270   1.742   6.315   2.954
 8124SOL    HW125271   1.764   6.309   2.856
 8124SOL    HW225272   1.813   6.367   3.001
 8125SOL     OW25273   5.323   5.008   2.661
 8125SOL    HW125274   5.235   4.982   2.702
 8125SOL    HW225275   5.393   5.012   2.732
 8126SOL     OW25276   6.916   4.692   2.367
 8126SOL    HW125277   6.905   4.655   2.275
 8126SOL    HW225278   6.838   4.752   2.388
 8127SOL     OW25279   4.391   5.417   1.175
 8127SOL    HW125280   4.358   5.323   1.183
 8127SOL    HW225281   4.324   5.479   1.217
 8128SOL     OW25282   3.746   1.707   5.892
 8128SOL    HW125283   3.781   1.616   5.870
 8128SOL    HW225284   3.661   1.724   5.842
 8129SOL     OW25285   4.725   6.171   6.402
 8129SOL    HW125286   4.746   6.214   6.315
 8129SOL    HW225287   4.729   6.240   6.475
 8130SOL     OW25288   0.738   6.989   6.525
 8130SOL    HW125289   0.726   0.033   6.598
 8130SOL    HW225290   0.756   6.899   6.564
 8131SOL     OW25291   2.372   1.663   1.265
 8131SOL    HW125292   2.327   1.716   1.337
 8131SOL    HW225293   2.310   1.653   1.187
 8132SOL     OW25294   5.696   4.727   3.209
 8132SOL    HW125295   5.746   4.640   3.214
 8132SOL    HW225296   5.739   4.794   3.269
 8133SOL     OW25297   0.302   5.629   1.860
 8133SOL    HW125298   0.288   5.715   1.810
 8133SOL    HW225299   0.269   5.640   1.954
 8134SOL     OW25300   1.985   2.608   1.792
 8134SOL    HW125301   2.081   2.586   1.775
 8134SOL    HW225302   1.967   2.701   1.761
 8135SOL     OW25303   3.987   6.530   2.366
 8135SOL    HW125304   4.070   6.546   2.419
 8135SOL    HW225305   3.987   6.589   2.285
 8136SOL     OW25306   2.232   6.019   1.850
 8136SOL    HW125307   2.247   5.952   1.923
 8136SOL    HW225308   2.266   6.108   1.880
 8137SOL     OW25309   3.030   3.371   5.150
 8137SOL    HW125310   3.015   3.286   5.099
 8137SOL    HW225311   3.110   3.361   5.208
 8138SOL     OW25312   4.646   1.269   3.485
 8138SOL    HW125313   4.626   1.351   3.432
 8138SOL    HW225314   4.579   1.198   3.463
 8139SOL     OW25315   1.623   3.184   6.113
 8139SOL    HW125316   1.610   3.173   6.014
 8139SOL    HW225317   1.720   3.182   6.134
 8140SOL     OW25318   4.522   1.651   0.841
 8140SOL    HW125319   4.423   1.656   0.855
 8140SOL    HW225320   4.561   1.743   0.851
 8141SOL     OW25321   6.000   0.891   5.244
 8141SOL    HW125322   6.068   0.831   5.203
 8141SOL    HW225323   5.916   0.839   5.261
 8142SOL     OW25324   3.487   5.633   0.644
 8142SOL    HW125325   3.519   5.539   0.661
 8142SOL    HW225326   3.557   5.697   0.674
 8143SOL     OW25327   6.037   4.775   6.961
 8143SOL    HW125328   6.038   4.872   6.985
 8143SOL    HW225329   6.105   4.726   7.015
 8144SOL     OW25330   1.841   5.389   6.905
 8144SOL    HW125331   1.811   5.407   6.811
 8144SOL    HW225332   1.936   5.419   6.916
 8145SOL     OW25333   5.464   5.807   6.069
 8145SOL    HW125334   5.500   5.894   6.104
 8145SOL    HW225335   5.406   5.765   6.139
 8146SOL     OW25336   6.794   6.383   4.940
 8146SOL    HW125337   6.706   6.421   4.911
 8146SOL    HW225338   6.867   6.426   4.888
 8147SOL     OW25339   2.476   0.177   5.335
 8147SOL    HW125340   2.558   0.175   5.392
 8147SOL    HW225341   2.502   0.201   5.241
 8148SOL     OW25342   5.186   4.799   6.890
 8148SOL    HW125343   5.286   4.793   6.889
 8148SOL    HW225344   5.147   4.707   6.893
 8149SOL     OW25345   1.515   6.906   5.781
 8149SOL    HW125346   1.537   6.956   5.865
 8149SOL    HW225347   1.565   6.946   5.704
 8150SOL     OW25348   0.477   4.222   0.354
 8150SOL    HW125349   0.544   4.208   0.427
 8150SOL    HW225350   0.508   4.175   0.271
 8151SOL     OW25351   5.850   4.634   2.436
 8151SOL    HW125352   5.771   4.572   2.440
 8151SOL    HW225353   5.933   4.580   2.419
 8152SOL     OW25354   5.483   2.121   3.919
 8152SOL    HW125355   5.434   2.172   3.848
 8152SOL    HW225356   5.522   2.038   3.880
 8153SOL     OW25357   0.337   1.726   1.594
 8153SOL    HW125358   0.289   1.798   1.544
 8153SOL    HW225359   0.342   1.644   1.537
 8154SOL     OW25360   0.965   0.545   3.337
 8154SOL    HW125361   0.917   0.630   3.361
 8154SOL    HW225362   1.045   0.534   3.396
 8155SOL     OW25363   1.414   4.836   4.755
 8155SOL    HW125364   1.411   4.917   4.696
 8155SOL    HW225365   1.329   4.829   4.807
 8156SOL     OW25366   1.317   4.069   0.648
 8156SOL    HW125367   1.265   4.148   0.617
 8156SOL    HW225368   1.257   3.990   0.656
 8157SOL     OW25369   6.126   4.753   4.780
 8157SOL    HW125370   6.144   4.841   4.736
 8157SOL    HW225371   6.048   4.762   4.843
 8158SOL     OW25372   6.356   5.229   6.218
 8158SOL    HW125373   6.318   5.262   6.305
 8158SOL    HW225374   6.283   5.186   6.165
 8159SOL     OW25375   2.864   7.010   5.024
 8159SOL    HW125376   2.804   6.932   5.011
 8159SOL    HW225377   2.810   0.071   5.032
 8160SOL     OW25378   5.442   2.850   3.004
 8160SOL    HW125379   5.535   2.846   3.039
 8160SOL    HW225380   5.436   2.919   2.931
 8161SOL     OW25381   6.920   2.479   1.972
 8161SOL    HW125382   6.828   2.467   1.933
 8161SOL    HW225383   6.955   2.390   2.001
 8162SOL     OW25384   0.893   6.141   5.583
 8162SOL    HW125385   0.813   6.147   5.523
 8162SOL    HW225386   0.903   6.047   5.616
 8163SOL     OW25387   3.813   4.863   5.604
 8163SOL    HW125388   3.801   4.765   5.612
 8163SOL    HW225389   3.840   4.886   5.510
 8164SOL     OW25390   5.018   1.672   0.313
 8164SOL    HW125391   5.040   1.762   0.352
 8164SOL    HW225392   5.038   1.673   0.215
 8165SOL     OW25393   0.645   2.288   6.465
 8165SOL    HW125394   0.740   2.299   6.496
 8165SOL    HW225395   0.627   2.350   6.389
 8166SOL     OW25396   2.345   2.102   4.511
 8166SOL    HW125397   2.271   2.037   4.494
 8166SOL    HW225398   2.320   2.162   4.588
 8167SOL     OW25399   1.593   2.311   3.088
 8167SOL    HW125400   1.672   2.361   3.051
 8167SOL    HW225401   1.605   2.300   3.187
 8168SOL     OW25402   1.806   6.248   2.696
 8168SOL    HW125403   1.823   6.279   2.603
 8168SOL    HW225404   1.859   6.164   2.714
 8169SOL     OW25405   4.609   4.078   0.260
 8169SOL    HW125406   4.679   4.037   0.319
 8169SOL    HW225407   4.602   4.176   0.280
 8170SOL     OW25408   6.940   4.522   3.090
 8170SOL    HW125409   6.969   4.434   3.055
 8170SOL    HW225410   6.842   4.535   3.071
 8171SOL     OW25411   2.192   1.722   1.630
 8171SOL    HW125412   2.265   1.708   1.698
 8171SOL    HW225413   2.119   1.775   1.671
 8172SOL     OW25414   1.228   4.354   0.626
 8172SOL    HW125415   1.198   4.407   0.706
 8172SOL    HW225416   1.156   4.354   0.557
 8173SOL     OW25417   5.905   0.051   1.397
 8173SOL    HW125418   5.936   0.073   1.305
 8173SOL    HW225419   5.945   0.115   1.462
 8174SOL     OW25420   2.648   6.541   4.000
 8174SOL    HW125421   2.602   6.478   3.937
 8174SOL    HW225422   2.678   6.623   3.950
 8175SOL     OW25423   0.770   2.236   5.652
 8175SOL    HW125424   0.693   2.296   5.673
 8175SOL    HW225425   0.806   2.197   5.737
 8176SOL     OW25426   2.826   5.034   0.191
 8176SOL    HW125427   2.751   5.096   0.215
 8176SOL    HW225428   2.803   4.942   0.223
 8177SOL     OW25429   3.316   1.002   2.660
 8177SOL    HW125430   3.326   1.093   2.699
 8177SOL    HW225431   3.313   1.008   2.560
 8178SOL     OW25432   2.320   6.301   1.070
 8178SOL    HW125433   2.341   6.210   1.106
 8178SOL    HW225434   2.354   6.371   1.134
 8179SOL     OW25435   6.203   0.137   3.462
 8179SOL    HW125436   6.217   0.120   3.559
 8179SOL    HW225437   6.257   0.216   3.433
 8180SOL     OW25438   4.650   5.154   0.695
 8180SOL    HW125439   4.620   5.183   0.786
 8180SOL    HW225440   4.748   5.172   0.685
 8181SOL     OW25441   6.187   0.731   6.387
 8181SOL    HW125442   6.286   0.720   6.386
 8181SOL    HW225443   6.149   0.703   6.298
 8182SOL     OW25444   3.458   3.507   3.238
 8182SOL    HW125445   3.524   3.570   3.279
 8182SOL    HW225446   3.400   3.469   3.310
 8183SOL     OW25447   6.963   0.136   5.833
 8183SOL    HW125448   0.033   0.173   5.840
 8183SOL    HW225449   6.930   0.146   5.740
 8184SOL     OW25450   0.396   6.364   5.193
 8184SOL    HW125451   0.333   6.297   5.234
 8184SOL    HW225452   0.405   6.442   5.255
 8185SOL     OW25453   0.544   6.278   5.000
 8185SOL    HW125454   0.474   6.280   5.071
 8185SOL    HW225455   0.525   6.204   4.936
 8186SOL     OW25456   1.598   5.734   0.461
 8186SOL    HW125457   1.546   5.648   0.462
 8186SOL    HW225458   1.540   5.808   0.493
 8187SOL     OW25459   1.525   6.462   4.793
 8187SOL    HW125460   1.547   6.467   4.696
 8187SOL    HW225461   1.460   6.388   4.808
 8188SOL     OW25462   1.840   2.864   2.644
 8188SOL    HW125463   1.921   2.915   2.615
 8188SOL    HW225464   1.840   2.774   2.600
 8189SOL     OW25465   6.289   5.385   4.104
 8189SOL    HW125466   6.361   5.344   4.160
 8189SOL    HW225467   6.328   5.414   4.016
 8190SOL     OW25468   6.218   3.782   2.938
 8190SOL    HW125469   6.200   3.734   2.852
 8190SOL    HW225470   6.203   3.880   2.927
 8191SOL     OW25471   4.267   5.607   0.961
 8191SOL    HW125472   4.245   5.560   0.875
 8191SOL    HW225473   4.326   5.548   1.017
 8192SOL     OW25474   0.433   5.961   3.342
 8192SOL    HW125475   0.348   5.973   3.292
 8192SOL    HW225476   0.509   5.951   3.277
 8193SOL     OW25477   0.301   4.481   4.015
 8193SOL    HW125478   0.395   4.488   3.982
 8193SOL    HW225479   0.241   4.456   3.939
 8194SOL     OW25480   5.314   0.280   1.764
 8194SOL    HW125481   5.351   0.303   1.674
 8194SOL    HW225482   5.294   0.182   1.768
 8195SOL     OW25483   6.747   6.762   3.643
 8195SOL    HW125484   6.743   6.662   3.637
 8195SOL    HW225485   6.658   6.798   3.670
 8196SOL     OW25486   4.912   0.025   2.540
 8196SOL    HW125487   4.896   0.124   2.540
 8196SOL    HW225488   4.990   0.004   2.598
 8197SOL     OW25489   4.407   1.716   3.452
 8197SOL    HW125490   4.492   1.667   3.432
 8197SOL    HW225491   4.361   1.739   3.367
 8198SOL     OW25492   2.039   5.610   1.025
 8198SOL    HW125493   2.020   5.664   1.107
 8198SOL    HW225494   2.007   5.516   1.039
 8199SOL     OW25495   5.746   2.247   0.483
 8199SOL    HW125496   5.841   2.220   0.470
 8199SOL    HW225497   5.739   2.309   0.561
 8200SOL     OW25498   5.485   4.110   0.604
 8200SOL    HW125499   5.406   4.119   0.543
 8200SOL    HW225500   5.568   4.108   0.549
 8201SOL     OW25501   5.675   0.432   5.174
 8201SOL    HW125502   5.652   0.452   5.079
 8201SOL    HW225503   5.609   0.366   5.211
 8202SOL     OW25504   1.138   5.915   1.894
 8202SOL    HW125505   1.192   5.836   1.921
 8202SOL    HW225506   1.077   5.942   1.969
 8203SOL     OW25507   1.966   3.233   0.598
 8203SOL    HW125508   1.941   3.202   0.506
 8203SOL    HW225509   2.054   3.279   0.595
 8204SOL     OW25510   1.681   3.239   0.584
 8204SOL    HW125511   1.660   3.329   0.621
 8204SOL    HW225512   1.774   3.213   0.610
 8205SOL     OW25513   0.062   3.629   6.246
 8205SOL    HW125514   0.152   3.662   6.274
 8205SOL    HW225515   7.016   3.698   6.267
 8206SOL     OW25516   3.601   1.212   1.645
 8206SOL    HW125517   3.582   1.303   1.684
 8206SOL    HW225518   3.547   1.199   1.562
 8207SOL     OW25519   3.899   3.589   4.167
 8207SOL    HW125520   3.819   3.531   4.181
 8207SOL    HW225521   3.977   3.533   4.140
 8208SOL     OW25522   2.512   0.190   6.996
 8208SOL    HW125523   2.430   0.152   0.016
 8208SOL    HW225524   2.509   0.176   6.897
 8209SOL     OW25525   5.851   2.364   4.513
 8209SOL    HW125526   5.868   2.433   4.584
 8209SOL    HW225527   5.758   2.329   4.522
 8210SOL     OW25528   2.318   2.809   5.956
 8210SOL    HW125529   2.396   2.819   5.894
 8210SOL    HW225530   2.325   2.875   6.030
 8211SOL     OW25531   4.236   4.464   1.159
 8211SOL    HW125532   4.205   4.371   1.138
 8211SOL    HW225533   4.191   4.496   1.242
 8212SOL     OW25534   1.842   2.471   2.985
 8212SOL    HW125535   1.818   2.534   3.059
 8212SOL    HW225536   1.877   2.522   2.907
 8213SOL     OW25537   6.700   4.595   0.471
 8213SOL    HW125538   6.686   4.577   0.374
 8213SOL    HW225539   6.797   4.607   0.489
 8214SOL     OW25540   5.071   3.581   2.967
 8214SOL    HW125541   5.015   3.542   2.894
 8214SOL    HW225542   5.012   3.627   3.034
 8215SOL     OW25543   3.409   5.167   2.134
 8215SOL    HW125544   3.364   5.226   2.066
 8215SOL    HW225545   3.495   5.209   2.163
 8216SOL     OW25546   5.577   3.657   3.394
 8216SOL    HW125547   5.480   3.681   3.399
 8216SOL    HW225548   5.628   3.732   3.352
 8217SOL     OW25549   2.271   5.768   0.618
 8217SOL    HW125550   2.296   5.864   0.606
 8217SOL    HW225551   2.202   5.761   0.690
 8218SOL     OW25552   4.832   1.999   0.131
 8218SOL    HW125553   4.808   1.918   0.185
 8218SOL    HW225554   4.858   2.073   0.193
 8219SOL     OW25555   5.289   2.342   0.337
 8219SOL    HW125556   5.385   2.333   0.311
 8219SOL    HW225557   5.264   2.264   0.395
 8220SOL     OW25558   4.209   3.806   1.607
 8220SOL    HW125559   4.156   3.748   1.670
 8220SOL    HW225560   4.201   3.901   1.635
 8221SOL     OW25561   5.421   4.380   3.077
 8221SOL    HW125562   5.445   4.424   2.991
 8221SOL    HW225563   5.357   4.305   3.059
 8222SOL     OW25564   6.481   1.053   3.178
 8222SOL    HW125565   6.489   1.130   3.241
 8222SOL    HW225566   6.467   0.969   3.229
 8223SOL     OW25567   0.144   5.054   6.680
 8223SOL    HW125568   0.189   4.977   6.635
 8223SOL    HW225569   0.154   5.136   6.624
 8224SOL     OW25570   0.870   4.161   2.603
 8224SOL    HW125571   0.816   4.162   2.519
 8224SOL    HW225572   0.870   4.069   2.642
 8225SOL     OW25573   4.587   1.467   1.053
 8225SOL    HW125574   4.585   1.537   0.982
 8225SOL    HW225575   4.661   1.402   1.035
 8226SOL     OW25576   3.906   0.405   6.919
 8226SOL    HW125577   3.906   0.498   6.882
 8226SOL    HW225578   3.835   0.352   6.873
 8227SOL     OW25579   6.057   4.108   3.350
 8227SOL    HW125580   5.968   4.150   3.371
 8227SOL    HW225581   6.062   4.087   3.252
 8228SOL     OW25582   0.196   1.537   4.104
 8228SOL    HW125583   0.159   1.627   4.128
 8228SOL    HW225584   0.274   1.549   4.042
 8229SOL     OW25585   4.932   5.469   0.498
 8229SOL    HW125586   4.983   5.511   0.423
 8229SOL    HW225587   4.959   5.373   0.507
 8230SOL     OW25588   5.327   6.990   3.481
 8230SOL    HW125589   5.351   0.023   3.561
 8230SOL    HW225590   5.294   0.027   3.408
 8231SOL     OW25591   3.925   5.777   1.377
 8231SOL    HW125592   3.859   5.822   1.437
 8231SOL    HW225593   3.926   5.823   1.288
 8232SOL     OW25594   2.544   1.725   0.171
 8232SOL    HW125595   2.491   1.642   0.155
 8232SOL    HW225596   2.592   1.717   0.259
 8233SOL     OW25597   0.312   5.511   6.171
 8233SOL    HW125598   0.326   5.472   6.080
 8233SOL    HW225599   0.275   5.604   6.161
 8234SOL     OW25600   2.605   3.099   6.905
 8234SOL    HW125601   2.601   3.035   6.828
 8234SOL    HW225602   2.679   3.165   6.889
 8235SOL     OW25603   4.577   2.353   6.654
 8235SOL    HW125604   4.673   2.324   6.650
 8235SOL    HW225605   4.572   2.448   6.682
 8236SOL     OW25606   6.135   2.779   1.350
 8236SOL    HW125607   6.159   2.769   1.253
 8236SOL    HW225608   6.075   2.859   1.360
 8237SOL     OW25609   3.620   6.619   5.559
 8237SOL    HW125610   3.614   6.519   5.564
 8237SOL    HW225611   3.534   6.659   5.590
 8238SOL     OW25612   1.747   0.623   0.056
 8238SOL    HW125613   1.829   0.637   0.112
 8238SOL    HW225614   1.774   0.593   6.987
 8239SOL     OW25615   5.641   1.284   0.190
 8239SOL    HW125616   5.698   1.207   0.161
 8239SOL    HW225617   5.631   1.349   0.115
 8240SOL     OW25618   3.966   3.033   3.228
 8240SOL    HW125619   4.053   2.987   3.245
 8240SOL    HW225620   3.943   3.025   3.131
 8241SOL     OW25621   4.805   6.259   1.492
 8241SOL    HW125622   4.734   6.245   1.424
 8241SOL    HW225623   4.784   6.339   1.548
 8242SOL     OW25624   0.888   4.055   5.568
 8242SOL    HW125625   0.814   4.032   5.505
 8242SOL    HW225626   0.924   3.972   5.610
 8243SOL     OW25627   0.495   3.224   4.847
 8243SOL    HW125628   0.474   3.140   4.797
 8243SOL    HW225629   0.498   3.206   4.945
 8244SOL     OW25630   2.591   5.278   4.826
 8244SOL    HW125631   2.563   5.370   4.799
 8244SOL    HW225632   2.541   5.251   4.908
 8245SOL     OW25633   4.440   3.744   0.671
 8245SOL    HW125634   4.489   3.736   0.584
 8245SOL    HW225635   4.409   3.654   0.701
 8246SOL     OW25636   5.088   3.938   5.318
 8246SOL    HW125637   5.149   3.997   5.264
 8246SOL    HW225638   5.020   3.896   5.258
 8247SOL     OW25639   1.105   6.400   0.288
 8247SOL    HW125640   1.036   6.329   0.274
 8247SOL    HW225641   1.070   6.468   0.352
 8248SOL     OW25642   0.249   4.595   3.138
 8248SOL    HW125643   0.240   4.608   3.237
 8248SOL    HW225644   0.160   4.609   3.095
 8249SOL     OW25645   1.000   5.530   2.988
 8249SOL    HW125646   0.909   5.501   3.020
 8249SOL    HW225647   1.015   5.495   2.895
 8250SOL     OW25648   3.750   3.785   2.098
 8250SOL    HW125649   3.667   3.835   2.125
 8250SOL    HW225650   3.829   3.824   2.145
 8251SOL     OW25651   6.425   1.251   4.608
 8251SOL    HW125652   6.404   1.239   4.511
 8251SOL    HW225653   6.512   1.205   4.629
 8252SOL     OW25654   1.616   3.688   4.124
 8252SOL    HW125655   1.615   3.762   4.191
 8252SOL    HW225656   1.537   3.697   4.064
 8253SOL     OW25657   2.400   3.045   5.687
 8253SOL    HW125658   2.472   2.977   5.697
 8253SOL    HW225659   2.412   3.095   5.601
 8254SOL     OW25660   4.424   5.988   3.116
 8254SOL    HW125661   4.504   6.047   3.114
 8254SOL    HW225662   4.380   5.994   3.205
 8255SOL     OW25663   3.907   4.812   3.507
 8255SOL    HW125664   3.904   4.826   3.606
 8255SOL    HW225665   3.820   4.842   3.467
 8256SOL     OW25666   5.580   2.834   3.989
 8256SOL    HW125667   5.494   2.834   4.039
 8256SOL    HW225668   5.602   2.927   3.960
 8257SOL     OW25669   6.142   5.088   4.264
 8257SOL    HW125670   6.236   5.055   4.250
 8257SOL    HW225671   6.120   5.155   4.194
 8258SOL     OW25672   5.129   1.653   0.039
 8258SOL    HW125673   5.224   1.639   0.067
 8258SOL    HW225674   5.113   1.605   6.975
 8259SOL     OW25675   4.347   1.258   1.132
 8259SOL    HW125676   4.432   1.311   1.132
 8259SOL    HW225677   4.292   1.282   1.212
 8260SOL     OW25678   3.111   5.630   6.584
 8260SOL    HW125679   3.197   5.666   6.619
 8260SOL    HW225680   3.045   5.704   6.573
 8261SOL     OW25681   5.363   1.093   1.696
 8261SOL    HW125682   5.367   1.156   1.618
 8261SOL    HW225683   5.275   1.046   1.696
 8262SOL     OW25684   0.182   2.371   1.219
 8262SOL    HW125685   0.238   2.335   1.294
 8262SOL    HW225686   0.239   2.427   1.159
 8263SOL     OW25687   5.320   1.556   0.962
 8263SOL    HW125688   5.248   1.486   0.965
 8263SOL    HW225689   5.338   1.590   1.055
 8264SOL     OW25690   1.671   4.109   2.036
 8264SOL    HW125691   1.583   4.150   2.013
 8264SOL    HW225692   1.740   4.180   2.048
 8265SOL     OW25693   1.713   0.693   2.656
 8265SOL    HW125694   1.810   0.719   2.647
 8265SOL    HW225695   1.678   0.727   2.743
 8266SOL     OW25696   3.214   0.364   2.953
 8266SOL    HW125697   3.156   0.440   2.925
 8266SOL    HW225698   3.221   0.363   3.053
 8267SOL     OW25699   0.018   3.812   0.586
 8267SOL    HW125700   0.012   3.717   0.556
 8267SOL    HW225701   7.005   3.820   0.679
 8268SOL     OW25702   3.360   5.719   6.684
 8268SOL    HW125703   3.378   5.734   6.781
 8268SOL    HW225704   3.435   5.758   6.630
 8269SOL     OW25705   6.077   2.299   0.732
 8269SOL    HW125706   6.080   2.395   0.703
 8269SOL    HW225707   6.131   2.287   0.815
 8270SOL     OW25708   3.007   6.439   4.302
 8270SOL    HW125709   2.996   6.373   4.228
 8270SOL    HW225710   3.101   6.437   4.336
 8271SOL     OW25711   6.465   2.383   3.110
 8271SOL    HW125712   6.523   2.307   3.084
 8271SOL    HW225713   6.485   2.462   3.051
 8272SOL     OW25714   3.903   1.128   4.269
 8272SOL    HW125715   3.859   1.083   4.191
 8272SOL    HW225716   3.835   1.144   4.341
 8273SOL     OW25717   2.126   6.529   1.911
 8273SOL    HW125718   2.159   6.582   1.989
 8273SOL    HW225719   2.137   6.431   1.930
 8274SOL     OW25720   5.107   4.223   3.409
 8274SOL    HW125721   5.071   4.156   3.344
 8274SOL    HW225722   5.031   4.266   3.458
 8275SOL     OW25723   5.492   2.112   0.063
 8275SOL    HW125724   5.466   2.169   7.008
 8275SOL    HW225725   5.490   2.166   0.147
 8276SOL     OW25726   0.378   2.014   2.964
 8276SOL    HW125727   0.438   2.094   2.966
 8276SOL    HW225728   0.283   2.044   2.958
 8277SOL     OW25729   6.895   1.230   0.066
 8277SOL    HW125730   6.871   1.318   0.025
 8277SOL    HW225731   6.991   1.231   0.093
 8278SOL     OW25732   1.395   2.187   0.601
 8278SOL    HW125733   1.311   2.238   0.581
 8278SOL    HW225734   1.467   2.216   0.537
 8279SOL     OW25735   0.074   6.329   3.689
 8279SOL    HW125736   0.108   6.383   3.611
 8279SOL    HW225737   0.142   6.329   3.762
 8280SOL     OW25738   3.266   2.035   5.717
 8280SOL    HW125739   3.255   1.964   5.787
 8280SOL    HW225740   3.238   2.123   5.755
 8281SOL     OW25741   4.711   5.488   2.575
 8281SOL    HW125742   4.748   5.578   2.597
 8281SOL    HW225743   4.613   5.488   2.593
 8282SOL     OW25744   5.575   2.493   6.291
 8282SOL    HW125745   5.480   2.518   6.308
 8282SOL    HW225746   5.617   2.559   6.230
 8283SOL     OW25747   1.962   2.551   5.840
 8283SOL    HW125748   1.880   2.597   5.807
 8283SOL    HW225749   2.024   2.532   5.764
 8284SOL     OW25750   6.693   4.267   1.721
 8284SOL    HW125751   6.786   4.240   1.748
 8284SOL    HW225752   6.627   4.227   1.784
 8285SOL     OW25753   3.995   3.144   3.998
 8285SOL    HW125754   3.971   3.071   4.062
 8285SOL    HW225755   3.992   3.109   3.904
 8286SOL     OW25756   0.277   2.269   6.415
 8286SOL    HW125757   0.230   2.356   6.424
 8286SOL    HW225758   0.321   2.263   6.325
 8287SOL     OW25759   1.801   6.573   4.330
 8287SOL    HW125760   1.873   6.504   4.321
 8287SOL    HW225761   1.782   6.612   4.240
 8288SOL     OW25762   3.330   1.748   3.317
 8288SOL    HW125763   3.353   1.809   3.241
 8288SOL    HW225764   3.272   1.674   3.285
 8289SOL     OW25765   6.940   5.718   6.660
 8289SOL    HW125766   6.924   5.763   6.572
 8289SOL    HW225767   7.020   5.659   6.653
 8290SOL     OW25768   6.506   2.219   0.956
 8290SOL    HW125769   6.534   2.136   0.908
 8290SOL    HW225770   6.569   2.293   0.935
 8291SOL     OW25771   4.078   0.497   0.724
 8291SOL    HW125772   4.166   0.454   0.702
 8291SOL    HW225773   4.045   0.461   0.811
 8292SOL     OW25774   3.256   0.613   6.487
 8292SOL    HW125775   3.267   0.654   6.396
 8292SOL    HW225776   3.177   0.552   6.487
 8293SOL     OW25777   5.984   5.356   4.673
 8293SOL    HW125778   5.887   5.336   4.684
 8293SOL    HW225779   6.010   5.344   4.577
 8294SOL     OW25780   6.177   3.250   0.130
 8294SOL    HW125781   6.240   3.262   0.054
 8294SOL    HW225782   6.152   3.154   0.138
 8295SOL     OW25783   4.504   3.341   6.750
 8295SOL    HW125784   4.439   3.370   6.821
 8295SOL    HW225785   4.577   3.409   6.742
 8296SOL     OW25786   1.190   4.919   6.196
 8296SOL    HW125787   1.165   4.989   6.130
 8296SOL    HW225788   1.209   4.961   6.285
 8297SOL     OW25789   1.206   2.841   3.997
 8297SOL    HW125790   1.249   2.797   4.076
 8297SOL    HW225791   1.161   2.773   3.940
 8298SOL     OW25792   4.977   1.637   1.952
 8298SOL    HW125793   4.899   1.650   1.890
 8298SOL    HW225794   4.973   1.545   1.990
 8299SOL     OW25795   6.306   2.298   1.368
 8299SOL    HW125796   6.395   2.257   1.385
 8299SOL    HW225797   6.278   2.351   1.448
 8300SOL     OW25798   0.830   5.174   3.179
 8300SOL    HW125799   0.780   5.260   3.168
 8300SOL    HW225800   0.771   5.105   3.220
 8301SOL     OW25801   2.564   2.248   6.712
 8301SOL    HW125802   2.630   2.195   6.765
 8301SOL    HW225803   2.610   2.291   6.634
 8302SOL     OW25804   5.931   5.839   5.450
 8302SOL    HW125805   5.841   5.803   5.475
 8302SOL    HW225806   5.927   5.880   5.359
 8303SOL     OW25807   0.253   0.396   6.152
 8303SOL    HW125808   0.280   0.302   6.132
 8303SOL    HW225809   0.154   0.400   6.164
 8304SOL     OW25810   0.287   3.237   0.608
 8304SOL    HW125811   0.295   3.234   0.509
 8304SOL    HW225812   0.192   3.249   0.635
 8305SOL     OW25813   3.623   5.385   3.183
 8305SOL    HW125814   3.643   5.459   3.248
 8305SOL    HW225815   3.525   5.377   3.171
 8306SOL     OW25816   1.316   3.142   4.333
 8306SOL    HW125817   1.291   3.211   4.402
 8306SOL    HW225818   1.237   3.083   4.316
 8307SOL     OW25819   3.911   5.710   0.724
 8307SOL    HW125820   3.818   5.744   0.733
 8307SOL    HW225821   3.913   5.613   0.748
 8308SOL     OW25822   3.491   0.312   2.644
 8308SOL    HW125823   3.484   0.400   2.690
 8308SOL    HW225824   3.564   0.314   2.576
 8309SOL     OW25825   5.615   6.827   2.458
 8309SOL    HW125826   5.563   6.842   2.543
 8309SOL    HW225827   5.601   6.905   2.397
 8310SOL     OW25828   6.305   4.376   6.816
 8310SOL    HW125829   6.251   4.297   6.787
 8310SOL    HW225830   6.390   4.345   6.857
 8311SOL     OW25831   6.687   0.299   6.686
 8311SOL    HW125832   6.617   0.343   6.743
 8311SOL    HW225833   6.650   0.215   6.648
 8312SOL     OW25834   5.328   6.651   1.312
 8312SOL    HW125835   5.354   6.555   1.315
 8312SOL    HW225836   5.228   6.659   1.320
 8313SOL     OW25837   4.119   1.201   2.347
 8313SOL    HW125838   4.169   1.248   2.420
 8313SOL    HW225839   4.034   1.164   2.383
 8314SOL     OW25840   0.217   6.058   3.229
 8314SOL    HW125841   0.130   6.031   3.271
 8314SOL    HW225842   0.227   6.157   3.233
 8315SOL     OW25843   4.931   4.649   6.464
 8315SOL    HW125844   4.929   4.699   6.377
 8315SOL    HW225845   4.932   4.713   6.540
 8316SOL     OW25846   2.971   5.856   6.530
 8316SOL    HW125847   2.964   5.894   6.438
 8316SOL    HW225848   2.894   5.888   6.586
 8317SOL     OW25849   2.293   4.257   2.182
 8317SOL    HW125850   2.289   4.166   2.142
 8317SOL    HW225851   2.241   4.258   2.268
 8318SOL     OW25852   3.607   1.159   6.119
 8318SOL    HW125853   3.605   1.188   6.215
 8318SOL    HW225854   3.540   1.086   6.105
 8319SOL     OW25855   3.610   0.814   5.185
 8319SOL    HW125856   3.620   0.892   5.124
 8319SOL    HW225857   3.697   0.765   5.193
 8320SOL     OW25858   4.176   4.935   1.327
 8320SOL    HW125859   4.177   4.839   1.358
 8320SOL    HW225860   4.107   4.946   1.256
 8321SOL     OW25861   0.071   1.150   1.433
 8321SOL    HW125862   7.020   1.092   1.468
 8321SOL    HW225863   0.128   1.096   1.371
 8322SOL     OW25864   5.759   0.038   6.942
 8322SOL    HW125865   5.745   0.128   6.983
 8322SOL    HW225866   5.682   0.018   6.881
 8323SOL     OW25867   1.824   1.023   1.855
 8323SOL    HW125868   1.824   1.044   1.952
 8323SOL    HW225869   1.865   0.933   1.840
 8324SOL     OW25870   6.866   1.252   2.555
 8324SOL    HW125871   6.769   1.269   2.574
 8324SOL    HW225872   6.906   1.203   2.632
 8325SOL     OW25873   3.564   4.152   4.560
 8325SOL    HW125874   3.607   4.173   4.648
 8325SOL    HW225875   3.625   4.178   4.486
 8326SOL     OW25876   4.001   2.792   6.522
 8326SOL    HW125877   3.950   2.714   6.485
 8326SOL    HW225878   4.086   2.803   6.469
 8327SOL     OW25879   5.503   2.189   6.427
 8327SOL    HW125880   5.573   2.118   6.421
 8327SOL    HW225881   5.490   2.230   6.336
 8328SOL     OW25882   2.480   2.645   4.127
 8328SOL    HW125883   2.562   2.587   4.119
 8328SOL    HW225884   2.434   2.651   4.039
 8329SOL     OW25885   0.718   2.271   4.397
 8329SOL    HW125886   0.647   2.337   4.371
 8329SOL    HW225887   0.799   2.286   4.341
 8330SOL     OW25888   2.245   6.656   0.537
 8330SOL    HW125889   2.195   6.572   0.561
 8330SOL    HW225890   2.196   6.735   0.573
 8331SOL     OW25891   3.216   6.805   0.894
 8331SOL    HW125892   3.191   6.886   0.841
 8331SOL    HW225893   3.197   6.821   0.991
 8332SOL     OW25894   4.817   5.974   3.436
 8332SOL    HW125895   4.767   6.060   3.441
 8332SOL    HW225896   4.769   5.911   3.375
 8333SOL     OW25897   1.405   4.991   5.926
 8333SOL    HW125898   1.321   4.938   5.933
 8333SOL    HW225899   1.387   5.078   5.882
 8334SOL     OW25900   6.587   0.036   3.965
 8334SOL    HW125901   6.576   0.115   4.025
 8334SOL    HW225902   6.684   0.013   3.958
 8335SOL     OW25903   6.156   6.426   5.424
 8335SOL    HW125904   6.127   6.522   5.426
 8335SOL    HW225905   6.187   6.399   5.516
 8336SOL     OW25906   0.628   2.095   2.296
 8336SOL    HW125907   0.533   2.087   2.325
 8336SOL    HW225908   0.652   2.016   2.238
 8337SOL     OW25909   0.220   6.253   1.845
 8337SOL    HW125910   0.152   6.315   1.804
 8337SOL    HW225911   0.252   6.291   1.931
 8338SOL     OW25912   1.974   4.592   0.843
 8338SOL    HW125913   1.920   4.639   0.913
 8338SOL    HW225914   1.919   4.518   0.804
 8339SOL     OW25915   5.800   0.676   3.226
 8339SOL    HW125916   5.728   0.743   3.206
 8339SOL    HW225917   5.826   0.683   3.322
 8340SOL     OW25918   4.665   3.376   1.273
 8340SOL    HW125919   4.610   3.317   1.332
 8340SOL    HW225920   4.664   3.469   1.309
 8341SOL     OW25921   2.661   0.021   0.812
 8341SOL    HW125922   2.562   0.028   0.820
 8341SOL    HW225923   2.704   0.101   0.854
 8342SOL     OW25924   4.951   0.035   1.178
 8342SOL    HW125925   5.047   0.054   1.199
 8342SOL    HW225926   4.940   0.019   1.080
 8343SOL     OW25927   0.875   5.438   5.685
 8343SOL    HW125928   0.776   5.443   5.678
 8343SOL    HW225929   0.910   5.523   5.726
 8344SOL     OW25930   3.861   0.130   5.150
 8344SOL    HW125931   3.802   0.076   5.210
 8344SOL    HW225932   3.953   0.135   5.189
 8345SOL     OW25933   5.858   1.493   3.135
 8345SOL    HW125934   5.767   1.453   3.140
 8345SOL    HW225935   5.923   1.424   3.104
 8346SOL     OW25936   3.643   5.416   1.554
 8346SOL    HW125937   3.605   5.338   1.604
 8346SOL    HW225938   3.577   5.449   1.487
 8347SOL     OW25939   3.688   5.086   3.993
 8347SOL    HW125940   3.624   5.075   4.069
 8347SOL    HW225941   3.664   5.022   3.920
 8348SOL     OW25942   1.608   0.558   0.668
 8348SOL    HW125943   1.643   0.604   0.749
 8348SOL    HW225944   1.509   0.571   0.662
 8349SOL     OW25945   6.067   5.258   1.520
 8349SOL    HW125946   5.972   5.286   1.535
 8349SOL    HW225947   6.125   5.339   1.520
 8350SOL     OW25948   6.518   0.376   4.924
 8350SOL    HW125949   6.533   0.304   4.857
 8350SOL    HW225950   6.572   0.456   4.900
 8351SOL     OW25951   2.755   6.564   2.162
 8351SOL    HW125952   2.746   6.484   2.102
 8351SOL    HW225953   2.804   6.538   2.246
 8352SOL     OW25954   6.215   5.788   1.639
 8352SOL    HW125955   6.295   5.845   1.618
 8352SOL    HW225956   6.225   5.699   1.596
 8353SOL     OW25957   0.897   3.923   2.219
 8353SOL    HW125958   0.851   3.896   2.134
 8353SOL    HW225959   0.835   3.911   2.296
 8354SOL     OW25960   2.715   0.486   0.643
 8354SOL    HW125961   2.754   0.566   0.598
 8354SOL    HW225962   2.651   0.441   0.581
 8355SOL     OW25963   3.005   1.135   0.563
 8355SOL    HW125964   3.030   1.221   0.519
 8355SOL    HW225965   2.918   1.103   0.526
 8356SOL     OW25966   2.572   5.381   0.646
 8356SOL    HW125967   2.606   5.412   0.735
 8356SOL    HW225968   2.497   5.439   0.616
 8357SOL     OW25969   4.638   6.214   3.273
 8357SOL    HW125970   4.716   6.276   3.265
 8357SOL    HW225971   4.611   6.206   3.369
 8358SOL     OW25972   2.941   2.183   5.018
 8358SOL    HW125973   2.870   2.253   5.027
 8358SOL    HW225974   3.031   2.225   5.026
 8359SOL     OW25975   4.100   4.784   4.004
 8359SOL    HW125976   4.077   4.717   3.934
 8359SOL    HW225977   4.058   4.872   3.981
 8360SOL     OW25978   4.544   0.580   2.905
 8360SOL    HW125979   4.622   0.572   2.966
 8360SOL    HW225980   4.575   0.576   2.810
 8361SOL     OW25981   1.592   0.272   2.735
 8361SOL    HW125982   1.533   0.200   2.698
 8361SOL    HW225983   1.647   0.236   2.810
 8362SOL     OW25984   2.387   3.093   0.437
 8362SOL    HW125985   2.392   3.026   0.363
 8362SOL    HW225986   2.480   3.117   0.466
 8363SOL     OW25987   6.976   3.839   1.085
 8363SOL    HW125988   7.003   3.867   1.177
 8363SOL    HW225989   6.970   3.740   1.081
 8364SOL     OW25990   6.848   4.797   4.844
 8364SOL    HW125991   6.929   4.775   4.790
 8364SOL    HW225992   6.817   4.890   4.821
 8365SOL     OW25993   0.899   3.711   6.150
 8365SOL    HW125994   0.963   3.781   6.183
 8365SOL    HW225995   0.950   3.630   6.122
 8366SOL     OW25996   2.645   6.923   2.827
 8366SOL    HW125997   2.729   6.922   2.773
 8366SOL    HW225998   2.664   6.892   2.920
 8367SOL     OW25999   4.926   5.738   3.807
 8367SOL    HW126000   4.917   5.741   3.906
 8367SOL    HW226001   4.976   5.655   3.780
 8368SOL     OW26002   3.265   5.785   6.160
 8368SOL    HW126003   3.326   5.716   6.121
 8368SOL    HW226004   3.235   5.847   6.088
 8369SOL     OW26005   2.805   1.219   1.401
 8369SOL    HW126006   2.738   1.159   1.446
 8369SOL    HW226007   2.849   1.169   1.327
 8370SOL     OW26008   1.665   1.661   0.450
 8370SOL    HW126009   1.665   1.569   0.489
 8370SOL    HW226010   1.571   1.691   0.434
 8371SOL     OW26011   2.054   2.663   0.010
 8371SOL    HW126012   2.084   2.604   0.085
 8371SOL    HW226013   2.117   2.652   6.955
 8372SOL     OW26014   6.469   0.677   1.182
 8372SOL    HW126015   6.399   0.707   1.118
 8372SOL    HW226016   6.549   0.644   1.132
 8373SOL     OW26017   1.622   6.397   4.537
 8373SOL    HW126018   1.649   6.404   4.441
 8373SOL    HW226019   1.563   6.317   4.549
 8374SOL     OW26020   6.482   0.298   6.207
 8374SOL    HW126021   6.546   0.350   6.151
 8374SOL    HW226022   6.412   0.256   6.149
 8375SOL     OW26023   4.169   0.818   6.093
 8375SOL    HW126024   4.167   0.918   6.091
 8375SOL    HW226025   4.162   0.786   6.187
 8376SOL     OW26026   4.709   0.323   4.358
 8376SOL    HW126027   4.654   0.280   4.429
 8376SOL    HW226028   4.806   0.310   4.378
 8377SOL     OW26029   5.798   5.025   1.353
 8377SOL    HW126030   5.891   4.996   1.375
 8377SOL    HW226031   5.782   5.017   1.255
 8378SOL     OW26032   5.118   3.350   3.878
 8378SOL    HW126033   5.164   3.410   3.813
 8378SOL    HW226034   5.161   3.260   3.877
 8379SOL     OW26035   4.878   2.633   2.085
 8379SOL    HW126036   4.801   2.667   2.032
 8379SOL    HW226037   4.943   2.708   2.101
 8380SOL     OW26038   5.792   1.735   3.688
 8380SOL    HW126039   5.811   1.649   3.736
 8380SOL    HW226040   5.869   1.797   3.699
 8381SOL     OW26041   2.120   5.583   4.420
 8381SOL    HW126042   2.087   5.494   4.451
 8381SOL    HW226043   2.085   5.602   4.329
 8382SOL     OW26044   1.104   4.375   2.697
 8382SOL    HW126045   1.051   4.358   2.780
 8382SOL    HW226046   1.042   4.381   2.619
 8383SOL     OW26047   3.199   1.337   5.612
 8383SOL    HW126048   3.109   1.319   5.572
 8383SOL    HW226049   3.251   1.397   5.550
 8384SOL     OW26050   0.873   6.786   2.129
 8384SOL    HW126051   0.881   6.877   2.089
 8384SOL    HW226052   0.963   6.742   2.128
 8385SOL     OW26053   4.945   2.035   1.023
 8385SOL    HW126054   5.043   2.043   1.038
 8385SOL    HW226055   4.898   2.023   1.110
 8386SOL     OW26056   0.753   4.381   2.687
 8386SOL    HW126057   0.819   4.311   2.661
 8386SOL    HW226058   0.759   4.459   2.625
 8387SOL     OW26059   1.059   2.105   1.122
 8387SOL    HW126060   1.104   2.172   1.182
 8387SOL    HW226061   1.011   2.154   1.049
 8388SOL     OW26062   0.986   6.835   2.841
 8388SOL    HW126063   0.972   6.889   2.758
 8388SOL    HW226064   0.972   6.892   2.922
 8389SOL     OW26065   5.871   2.893   3.469
 8389SOL    HW126066   5.851   2.805   3.427
 8389SOL    HW226067   5.859   2.966   3.402
 8390SOL     OW26068   6.174   1.305   6.237
 8390SOL    HW126069   6.092   1.353   6.269
 8390SOL    HW226070   6.164   1.284   6.140
 8391SOL     OW26071   6.494   6.998   1.086
 8391SOL    HW126072   6.525   0.065   1.118
 8391SOL    HW226073   6.499   6.932   1.161
 8392SOL     OW26074   3.861   3.047   5.606
 8392SOL    HW126075   3.948   3.041   5.654
 8392SOL    HW226076   3.817   2.957   5.605
 8393SOL     OW26077   5.495   0.195   1.206
 8393SOL    HW126078   5.496   0.097   1.187
 8393SOL    HW226079   5.439   0.242   1.138
 8394SOL     OW26080   5.779   2.433   2.213
 8394SOL    HW126081   5.700   2.493   2.222
 8394SOL    HW226082   5.825   2.425   2.301
 8395SOL     OW26083   2.536   1.419   5.518
 8395SOL    HW126084   2.460   1.406   5.581
 8395SOL    HW226085   2.526   1.508   5.473
 8396SOL     OW26086   5.046   5.489   4.633
 8396SOL    HW126087   5.132   5.513   4.587
 8396SOL    HW226088   5.052   5.396   4.669
 8397SOL     OW26089   6.602   6.954   2.888
 8397SOL    HW126090   6.568   6.934   2.980
 8397SOL    HW226091   6.624   6.869   2.841
 8398SOL     OW26092   6.002   1.731   6.081
 8398SOL    HW126093   5.943   1.651   6.089
 8398SOL    HW226094   6.097   1.705   6.095
 8399SOL     OW26095   0.300   4.608   1.612
 8399SOL    HW126096   0.338   4.552   1.686
 8399SOL    HW226097   0.221   4.562   1.571
 8400SOL     OW26098   1.398   1.430   4.639
 8400SOL    HW126099   1.421   1.410   4.734
 8400SOL    HW226100   1.453   1.373   4.578
 8401SOL     OW26101   2.033   0.474   5.491
 8401SOL    HW126102   1.988   0.549   5.442
 8401SOL    HW226103   2.119   0.506   5.530
 8402SOL     OW26104   3.631   0.734   6.442
 8402SOL    HW126105   3.710   0.737   6.503
 8402SOL    HW226106   3.563   0.800   6.473
 8403SOL     OW26107   5.251   4.681   5.075
 8403SOL    HW126108   5.303   4.656   4.993
 8403SOL    HW226109   5.314   4.697   5.151
 8404SOL     OW26110   1.066   1.534   6.755
 8404SOL    HW126111   1.115   1.458   6.713
 8404SOL    HW226112   1.072   1.527   6.854
 8405SOL     OW26113   3.982   6.988   5.412
 8405SOL    HW126114   3.890   6.995   5.373
 8405SOL    HW226115   4.038   6.927   5.355
 8406SOL     OW26116   5.806   0.227   5.932
 8406SOL    HW126117   5.769   0.136   5.950
 8406SOL    HW226118   5.866   0.223   5.852
 8407SOL     OW26119   4.252   0.468   4.449
 8407SOL    HW126120   4.163   0.450   4.407
 8407SOL    HW226121   4.239   0.495   4.545
 8408SOL     OW26122   3.804   1.683   1.185
 8408SOL    HW126123   3.878   1.645   1.241
 8408SOL    HW226124   3.773   1.614   1.121
 8409SOL     OW26125   4.071   2.205   2.201
 8409SOL    HW126126   4.088   2.303   2.197
 8409SOL    HW226127   3.973   2.188   2.207
 8410SOL     OW26128   0.332   1.673   1.864
 8410SOL    HW126129   0.234   1.695   1.866
 8410SOL    HW226130   0.365   1.678   1.769
 8411SOL     OW26131   0.993   6.454   1.127
 8411SOL    HW126132   1.056   6.411   1.192
 8411SOL    HW226133   0.911   6.484   1.176
 8412SOL     OW26134   2.858   2.499   7.008
 8412SOL    HW126135   2.845   2.575   0.049
 8412SOL    HW226136   2.787   2.430   0.002
 8413SOL     OW26137   3.679   5.446   4.511
 8413SOL    HW126138   3.628   5.395   4.580
 8413SOL    HW226139   3.755   5.494   4.555
 8414SOL     OW26140   1.520   0.057   1.101
 8414SOL    HW126141   1.506   0.153   1.123
 8414SOL    HW226142   1.618   0.035   1.108
 8415SOL     OW26143   3.119   1.622   6.043
 8415SOL    HW126144   3.030   1.624   6.087
 8415SOL    HW226145   3.190   1.607   6.111
 8416SOL     OW26146   0.334   2.177   5.111
 8416SOL    HW126147   0.352   2.114   5.187
 8416SOL    HW226148   0.308   2.266   5.147
 8417SOL     OW26149   1.678   3.755   6.085
 8417SOL    HW126150   1.672   3.700   6.002
 8417SOL    HW226151   1.708   3.848   6.060
 8418SOL     OW26152   0.323   6.038   1.974
 8418SOL    HW126153   0.385   6.078   2.041
 8418SOL    HW226154   0.288   6.109   1.914
 8419SOL     OW26155   3.769   1.849   4.478
 8419SOL    HW126156   3.751   1.784   4.404
 8419SOL    HW226157   3.817   1.929   4.442
 8420SOL     OW26158   3.809   0.928   1.931
 8420SOL    HW126159   3.829   0.991   2.006
 8420SOL    HW226160   3.851   0.962   1.846
 8421SOL     OW26161   4.856   6.833   6.515
 8421SOL    HW126162   4.759   6.851   6.499
 8421SOL    HW226163   4.886   6.759   6.454
 8422SOL     OW26164   5.416   2.984   4.262
 8422SOL    HW126165   5.345   2.934   4.211
 8422SOL    HW226166   5.481   2.920   4.301
 8423SOL     OW26167   6.379   5.463   0.060
 8423SOL    HW126168   6.364   5.367   0.084
 8423SOL    HW226169   6.345   5.521   0.133
 8424SOL     OW26170   3.464   0.709   4.978
 8424SOL    HW126171   3.483   0.745   5.070
 8424SOL    HW226172   3.548   0.710   4.924
 8425SOL     OW26173   3.696   4.077   2.543
 8425SOL    HW126174   3.735   4.068   2.635
 8425SOL    HW226175   3.599   4.054   2.546
 8426SOL     OW26176   3.975   3.029   2.007
 8426SOL    HW126177   4.003   3.004   1.914
 8426SOL    HW226178   4.043   3.090   2.047
 8427SOL     OW26179   4.112   3.450   3.196
 8427SOL    HW126180   4.092   3.375   3.258
 8427SOL    HW226181   4.112   3.416   3.102
 8428SOL     OW26182   6.009   0.299   2.409
 8428SOL    HW126183   6.071   0.341   2.476
 8428SOL    HW226184   6.052   0.301   2.318
 8429SOL     OW26185   2.711   5.562   5.566
 8429SOL    HW126186   2.807   5.536   5.573
 8429SOL    HW226187   2.675   5.532   5.477
 8430SOL     OW26188   5.106   6.905   5.441
 8430SOL    HW126189   5.152   6.881   5.355
 8430SOL    HW226190   5.008   6.909   5.426
 8431SOL     OW26191   1.668   3.262   5.821
 8431SOL    HW126192   1.755   3.289   5.861
 8431SOL    HW226193   1.631   3.336   5.766
 8432SOL     OW26194   6.454   4.995   5.800
 8432SOL    HW126195   6.534   4.952   5.842
 8432SOL    HW226196   6.384   4.926   5.784
 8433SOL     OW26197   5.520   2.082   1.073
 8433SOL    HW126198   5.493   2.094   0.977
 8433SOL    HW226199   5.615   2.112   1.084
 8434SOL     OW26200   2.413   6.077   4.869
 8434SOL    HW126201   2.387   6.132   4.789
 8434SOL    HW226202   2.356   6.102   4.947
 8435SOL     OW26203   5.746   1.818   3.441
 8435SOL    HW126204   5.755   1.767   3.526
 8435SOL    HW226205   5.697   1.763   3.373
 8436SOL     OW26206   2.376   5.892   2.282
 8436SOL    HW126207   2.407   5.798   2.293
 8436SOL    HW226208   2.371   5.915   2.185
 8437SOL     OW26209   0.956   5.628   1.054
 8437SOL    HW126210   0.953   5.668   0.963
 8437SOL    HW226211   1.036   5.568   1.062
 8438SOL     OW26212   0.975   4.006   1.817
 8438SOL    HW126213   0.942   3.926   1.867
 8438SOL    HW226214   1.030   4.064   1.878
 8439SOL     OW26215   6.397   4.545   2.936
 8439SOL    HW126216   6.299   4.542   2.957
 8439SOL    HW226217   6.411   4.532   2.838
 8440SOL     OW26218   1.770   1.912   2.554
 8440SOL    HW126219   1.806   2.004   2.562
 8440SOL    HW226220   1.839   1.846   2.586
 8441SOL     OW26221   7.016   2.346   5.699
 8441SOL    HW126222   6.932   2.293   5.709
 8441SOL    HW226223   7.009   2.405   5.619
 8442SOL     OW26224   3.539   2.061   6.590
 8442SOL    HW126225   3.495   2.049   6.679
 8442SOL    HW226226   3.572   2.155   6.582
 8443SOL     OW26227   1.999   4.193   2.941
 8443SOL    HW126228   2.008   4.226   2.847
 8443SOL    HW226229   2.088   4.193   2.985
 8444SOL     OW26230   5.712   5.264   4.659
 8444SOL    HW126231   5.616   5.292   4.660
 8444SOL    HW226232   5.719   5.168   4.686
 8445SOL     OW26233   4.782   6.720   6.756
 8445SOL    HW126234   4.686   6.709   6.732
 8445SOL    HW226235   4.834   6.749   6.675
 8446SOL     OW26236   0.110   5.636   5.088
 8446SOL    HW126237   0.174   5.679   5.025
 8446SOL    HW226238   0.056   5.568   5.039
 8447SOL     OW26239   3.782   1.080   4.024
 8447SOL    HW126240   3.727   1.151   3.980
 8447SOL    HW226241   3.857   1.053   3.963
 8448SOL     OW26242   3.505   5.960   3.073
 8448SOL    HW126243   3.411   5.984   3.097
 8448SOL    HW226244   3.509   5.935   2.976
 8449SOL     OW26245   1.727   2.047   3.580
 8449SOL    HW126246   1.738   2.140   3.615
 8449SOL    HW226247   1.635   2.014   3.600
 8450SOL     OW26248   6.768   0.495   0.426
 8450SOL    HW126249   6.729   0.528   0.340
 8450SOL    HW226250   6.860   0.533   0.437
 8451SOL     OW26251   4.018   2.550   1.378
 8451SOL    HW126252   4.032   2.496   1.295
 8451SOL    HW226253   3.935   2.519   1.425
 8452SOL     OW26254   5.388   1.402   6.048
 8452SOL    HW126255   5.459   1.472   6.061
 8452SOL    HW226256   5.426   1.312   6.068
 8453SOL     OW26257   6.923   0.347   6.786
 8453SOL    HW126258   6.827   0.331   6.765
 8453SOL    HW226259   6.931   0.387   6.877
 8454SOL     OW26260   6.283   5.034   6.627
 8454SOL    HW126261   6.346   4.971   6.672
 8454SOL    HW226262   6.298   5.127   6.662
 8455SOL     OW26263   6.348   0.906   2.799
 8455SOL    HW126264   6.346   0.863   2.709
 8455SOL    HW226265   6.400   0.850   2.862
 8456SOL     OW26266   0.061   0.315   2.592
 8456SOL    HW126267   0.156   0.301   2.620
 8456SOL    HW226268   0.056   0.327   2.493
 8457SOL     OW26269   6.709   0.075   5.244
 8457SOL    HW126270   6.727   0.018   5.324
 8457SOL    HW226271   6.703   0.017   5.163
 8458SOL     OW26272   1.201   6.763   6.871
 8458SOL    HW126273   1.240   6.828   6.805
 8458SOL    HW226274   1.259   6.682   6.875
 8459SOL     OW26275   0.994   5.996   3.275
 8459SOL    HW126276   0.969   6.089   3.250
 8459SOL    HW226277   1.021   5.945   3.193
 8460SOL     OW26278   3.984   3.670   3.001
 8460SOL    HW126279   4.009   3.628   2.914
 8460SOL    HW226280   4.028   3.621   3.076
 8461SOL     OW26281   6.120   3.512   3.578
 8461SOL    HW126282   6.095   3.429   3.529
 8461SOL    HW226283   6.114   3.496   3.677
 8462SOL     OW26284   2.686   2.714   1.678
 8462SOL    HW126285   2.655   2.659   1.600
 8462SOL    HW226286   2.739   2.656   1.740
 8463SOL     OW26287   5.992   0.637   2.067
 8463SOL    HW126288   5.904   0.684   2.071
 8463SOL    HW226289   6.028   0.641   1.973
 8464SOL     OW26290   6.581   1.533   4.678
 8464SOL    HW126291   6.516   1.472   4.724
 8464SOL    HW226292   6.651   1.561   4.743
 8465SOL     OW26293   1.553   1.938   0.453
 8465SOL    HW126294   1.473   1.961   0.397
 8465SOL    HW226295   1.544   1.982   0.543
 8466SOL     OW26296   0.625   7.000   4.264
 8466SOL    HW126297   0.622   6.923   4.327
 8466SOL    HW226298   0.720   7.018   4.237
 8467SOL     OW26299   3.958   5.444   0.707
 8467SOL    HW126300   4.056   5.467   0.702
 8467SOL    HW226301   3.942   5.387   0.788
 8468SOL     OW26302   3.637   2.186   6.846
 8468SOL    HW126303   3.710   2.254   6.839
 8468SOL    HW226304   3.643   2.140   6.934
 8469SOL     OW26305   3.933   2.272   6.083
 8469SOL    HW126306   4.020   2.264   6.132
 8469SOL    HW226307   3.935   2.212   6.003
 8470SOL     OW26308   1.534   3.138   6.877
 8470SOL    HW126309   1.528   3.173   6.784
 8470SOL    HW226310   1.539   3.038   6.875
 8471SOL     OW26311   4.053   1.804   4.047
 8471SOL    HW126312   4.085   1.834   4.137
 8471SOL    HW226313   3.963   1.761   4.056
 8472SOL     OW26314   1.312   6.608   3.107
 8472SOL    HW126315   1.263   6.544   3.166
 8472SOL    HW226316   1.313   6.572   3.013
 8473SOL     OW26317   6.378   5.709   6.489
 8473SOL    HW126318   6.290   5.675   6.522
 8473SOL    HW226319   6.394   5.676   6.396
 8474SOL     OW26320   3.853   5.374   0.472
 8474SOL    HW126321   3.837   5.275   0.470
 8474SOL    HW226322   3.865   5.404   0.566
 8475SOL     OW26323   4.652   2.283   3.146
 8475SOL    HW126324   4.623   2.334   3.227
 8475SOL    HW226325   4.615   2.326   3.064
 8476SOL     OW26326   4.493   0.421   2.281
 8476SOL    HW126327   4.459   0.338   2.325
 8476SOL    HW226328   4.420   0.460   2.225
 8477SOL     OW26329   2.662   0.288   2.770
 8477SOL    HW126330   2.641   0.385   2.757
 8477SOL    HW226331   2.615   0.234   2.700
 8478SOL     OW26332   1.571   0.543   5.903
 8478SOL    HW126333   1.639   0.609   5.935
 8478SOL    HW226334   1.613   0.485   5.833
 8479SOL     OW26335   5.160   0.968   2.641
 8479SOL    HW126336   5.110   0.933   2.721
 8479SOL    HW226337   5.154   0.902   2.566
 8480SOL     OW26338   2.016   1.473   1.538
 8480SOL    HW126339   2.103   1.469   1.488
 8480SOL    HW226340   2.003   1.566   1.573
 8481SOL     OW26341   4.493   0.217   5.910
 8481SOL    HW126342   4.568   0.201   5.845
 8481SOL    HW226343   4.480   0.315   5.922
 8482SOL     OW26344   0.422   0.530   1.636
 8482SOL    HW126345   0.513   0.551   1.672
 8482SOL    HW226346   0.403   0.433   1.647
 8483SOL     OW26347   5.683   6.564   1.706
 8483SOL    HW126348   5.631   6.598   1.785
 8483SOL    HW226349   5.635   6.485   1.666
 8484SOL     OW26350   0.011   4.275   5.108
 8484SOL    HW126351   7.016   4.187   5.153
 8484SOL    HW226352   6.976   4.283   5.026
 8485SOL     OW26353   1.886   3.354   5.954
 8485SOL    HW126354   1.907   3.406   6.037
 8485SOL    HW226355   1.956   3.284   5.941
 8486SOL     OW26356   4.259   0.638   2.862
 8486SOL    HW126357   4.235   0.659   2.767
 8486SOL    HW226358   4.354   0.666   2.880
 8487SOL     OW26359   4.279   1.256   0.835
 8487SOL    HW126360   4.339   1.292   0.906
 8487SOL    HW226361   4.268   1.157   0.848
 8488SOL     OW26362   5.940   3.816   4.812
 8488SOL    HW126363   5.946   3.907   4.853
 8488SOL    HW226364   6.017   3.760   4.842
 8489SOL     OW26365   3.515   6.397   2.855
 8489SOL    HW126366   3.418   6.410   2.838
 8489SOL    HW226367   3.565   6.479   2.827
 8490SOL     OW26368   3.678   5.347   2.512
 8490SOL    HW126369   3.610   5.395   2.457
 8490SOL    HW226370   3.635   5.270   2.559
 8491SOL     OW26371   1.249   1.156   1.820
 8491SOL    HW126372   1.284   1.082   1.762
 8491SOL    HW226373   1.293   1.151   1.910
 8492SOL     OW26374   5.625   4.134   4.383
 8492SOL    HW126375   5.719   4.155   4.411
 8492SOL    HW226376   5.582   4.217   4.349
 8493SOL     OW26377   3.549   2.457   1.531
 8493SOL    HW126378   3.528   2.520   1.605
 8493SOL    HW226379   3.520   2.364   1.556
 8494SOL     OW26380   3.837   5.998   6.678
 8494SOL    HW126381   3.915   5.949   6.638
 8494SOL    HW226382   3.865   6.041   6.764
 8495SOL     OW26383   0.813   2.304   0.134
 8495SOL    HW126384   0.812   2.372   0.060
 8495SOL    HW226385   0.735   2.243   0.124
 8496SOL     OW26386   0.408   2.269   3.323
 8496SOL    HW126387   0.467   2.188   3.322
 8496SOL    HW226388   0.313   2.240   3.332
 8497SOL     OW26389   5.871   4.505   3.236
 8497SOL    HW126390   5.966   4.505   3.264
 8497SOL    HW226391   5.818   4.444   3.294
 8498SOL     OW26392   6.162   0.692   1.590
 8498SOL    HW126393   6.236   0.625   1.600
 8498SOL    HW226394   6.200   0.779   1.559
 8499SOL     OW26395   0.953   3.920   6.521
 8499SOL    HW126396   0.948   3.820   6.516
 8499SOL    HW226397   1.005   3.946   6.603
 8500SOL     OW26398   3.027   0.516   5.659
 8500SOL    HW126399   2.965   0.467   5.599
 8500SOL    HW226400   2.982   0.597   5.696
 8501SOL     OW26401   2.889   4.294   5.874
 8501SOL    HW126402   2.938   4.206   5.869
 8501SOL    HW226403   2.883   4.323   5.969
 8502SOL     OW26404   1.050   6.832   1.736
 8502SOL    HW126405   1.148   6.815   1.749
 8502SOL    HW226406   0.999   6.748   1.757
 8503SOL     OW26407   3.324   5.583   3.572
 8503SOL    HW126408   3.224   5.583   3.569
 8503SOL    HW226409   3.354   5.590   3.667
 8504SOL     OW26410   1.392   5.371   3.248
 8504SOL    HW126411   1.388   5.440   3.320
 8504SOL    HW226412   1.326   5.395   3.176
 8505SOL     OW26413   4.566   2.440   3.927
 8505SOL    HW126414   4.589   2.520   3.871
 8505SOL    HW226415   4.541   2.470   4.019
 8506SOL     OW26416   0.998   6.377   6.935
 8506SOL    HW126417   1.087   6.342   6.961
 8506SOL    HW226418   1.009   6.463   6.886
 8507SOL     OW26419   1.824   0.079   5.029
 8507SOL    HW126420   1.842   0.020   4.951
 8507SOL    HW226421   1.738   0.128   5.014
 8508SOL     OW26422   0.582   3.019   5.330
 8508SOL    HW126423   0.488   3.002   5.360
 8508SOL    HW226424   0.637   3.050   5.407
 8509SOL     OW26425   6.164   1.731   4.551
 8509SOL    HW126426   6.141   1.746   4.455
 8509SOL    HW226427   6.164   1.632   4.570
 8510SOL     OW26428   5.336   0.017   2.404
 8510SOL    HW126429   5.422   0.033   2.356
 8510SOL    HW226430   5.284   0.103   2.408
 8511SOL     OW26431   6.672   5.498   1.665
 8511SOL    HW126432   6.696   5.590   1.696
 8511SOL    HW226433   6.578   5.498   1.632
 8512SOL     OW26434   3.502   2.827   0.520
 8512SOL    HW126435   3.460   2.901   0.468
 8512SOL    HW226436   3.597   2.817   0.493
 8513SOL     OW26437   1.168   3.170   0.657
 8513SOL    HW126438   1.079   3.160   0.700
 8513SOL    HW226439   1.179   3.265   0.626
 8514SOL     OW26440   2.389   2.717   5.148
 8514SOL    HW126441   2.418   2.813   5.154
 8514SOL    HW226442   2.334   2.704   5.065
 8515SOL     OW26443   2.904   0.251   0.661
 8515SOL    HW126444   2.995   0.285   0.639
 8515SOL    HW226445   2.840   0.328   0.668
 8516SOL     OW26446   5.701   3.194   4.416
 8516SOL    HW126447   5.674   3.098   4.421
 8516SOL    HW226448   5.754   3.209   4.332
 8517SOL     OW26449   1.653   1.950   5.917
 8517SOL    HW126450   1.557   1.967   5.894
 8517SOL    HW226451   1.676   1.998   6.002
 8518SOL     OW26452   5.228   5.033   6.703
 8518SOL    HW126453   5.230   4.959   6.770
 8518SOL    HW226454   5.291   5.014   6.629
 8519SOL     OW26455   0.522   3.361   0.555
 8519SOL    HW126456   0.438   3.312   0.578
 8519SOL    HW226457   0.509   3.459   0.570
 8520SOL     OW26458   3.307   3.936   5.799
 8520SOL    HW126459   3.229   3.872   5.799
 8520SOL    HW226460   3.381   3.898   5.853
 8521SOL     OW26461   1.732   6.736   4.999
 8521SOL    HW126462   1.791   6.716   5.077
 8521SOL    HW226463   1.777   6.805   4.941
 8522SOL     OW26464   1.210   6.759   0.233
 8522SOL    HW126465   1.144   6.686   0.221
 8522SOL    HW226466   1.302   6.726   0.211
 8523SOL     OW26467   3.594   1.941   0.974
 8523SOL    HW126468   3.609   2.004   1.051
 8523SOL    HW226469   3.505   1.961   0.933
 8524SOL     OW26470   2.464   5.816   5.368
 8524SOL    HW126471   2.377   5.780   5.400
 8524SOL    HW226472   2.528   5.741   5.354
 8525SOL     OW26473   6.444   3.217   2.331
 8525SOL    HW126474   6.473   3.180   2.243
 8525SOL    HW226475   6.503   3.181   2.404
 8526SOL     OW26476   0.210   4.446   6.809
 8526SOL    HW126477   0.309   4.436   6.800
 8526SOL    HW226478   0.185   4.444   6.906
 8527SOL     OW26479   2.646   1.081   6.176
 8527SOL    HW126480   2.622   0.987   6.198
 8527SOL    HW226481   2.564   1.137   6.174
 8528SOL     OW26482   5.666   1.043   0.763
 8528SOL    HW126483   5.765   1.057   0.773
 8528SOL    HW226484   5.646   0.945   0.760
 8529SOL     OW26485   0.867   6.160   6.715
 8529SOL    HW126486   0.859   6.223   6.792
 8529SOL    HW226487   0.902   6.208   6.635
 8530SOL     OW26488   3.743   3.915   2.760
 8530SOL    HW126489   3.838   3.883   2.759
 8530SOL    HW226490   3.686   3.854   2.704
 8531SOL     OW26491   6.246   5.250   3.412
 8531SOL    HW126492   6.171   5.314   3.396
 8531SOL    HW226493   6.315   5.293   3.470
 8532SOL     OW26494   3.399   5.526   0.052
 8532SOL    HW126495   3.416   5.533   0.150
 8532SOL    HW226496   3.317   5.470   0.037
 8533SOL     OW26497   2.188   6.340   4.833
 8533SOL    HW126498   2.104   6.389   4.853
 8533SOL    HW226499   2.218   6.290   4.914
 8534SOL     OW26500   1.812   2.267   2.817
 8534SOL    HW126501   1.874   2.319   2.876
 8534SOL    HW226502   1.718   2.294   2.836
 8535SOL     OW26503   5.452   0.561   2.229
 8535SOL    HW126504   5.540   0.516   2.242
 8535SOL    HW226505   5.434   0.623   2.305
 8536SOL     OW26506   1.546   0.836   3.720
 8536SOL    HW126507   1.488   0.856   3.799
 8536SOL    HW226508   1.629   0.891   3.724
 8537SOL     OW26509   6.153   1.357   3.307
 8537SOL    HW126510   6.104   1.364   3.220
 8537SOL    HW226511   6.122   1.429   3.369
 8538SOL     OW26512   0.988   2.329   0.340
 8538SOL    HW126513   0.935   2.317   0.256
 8538SOL    HW226514   0.934   2.381   0.406
 8539SOL     OW26515   5.298   3.010   1.796
 8539SOL    HW126516   5.341   3.020   1.885
 8539SOL    HW226517   5.280   2.913   1.779
 8540SOL     OW26518   4.327   0.425   1.471
 8540SOL    HW126519   4.359   0.374   1.551
 8540SOL    HW226520   4.383   0.401   1.391
 8541SOL     OW26521   1.811   3.150   3.615
 8541SOL    HW126522   1.771   3.235   3.649
 8541SOL    HW226523   1.764   3.123   3.531
 8542SOL     OW26524   3.567   4.680   0.047
 8542SOL    HW126525   3.566   4.683   0.147
 8542SOL    HW226526   3.474   4.694   0.013
 8543SOL     OW26527   3.426   1.770   6.658
 8543SOL    HW126528   3.518   1.739   6.685
 8543SOL    HW226529   3.379   1.696   6.610
 8544SOL     OW26530   6.265   1.864   4.760
 8544SOL    HW126531   6.256   1.955   4.719
 8544SOL    HW226532   6.228   1.795   4.698
 8545SOL     OW26533   4.407   6.626   5.176
 8545SOL    HW126534   4.459   6.579   5.247
 8545SOL    HW226535   4.470   6.666   5.109
 8546SOL     OW26536   4.143   2.391   6.794
 8546SOL    HW126537   4.179   2.348   6.711
 8546SOL    HW226538   4.099   2.322   6.850
 8547SOL     OW26539   1.451   4.682   1.917
 8547SOL    HW126540   1.457   4.585   1.894
 8547SOL    HW226541   1.463   4.694   2.016
 8548SOL     OW26542   6.522   2.123   5.686
 8548SOL    HW126543   6.609   2.078   5.701
 8548SOL    HW226544   6.447   2.057   5.699
 8549SOL     OW26545   5.072   3.288   5.249
 8549SOL    HW126546   5.084   3.363   5.185
 8549SOL    HW226547   5.045   3.324   5.339
 8550SOL     OW26548   0.971   4.444   5.773
 8550SOL    HW126549   0.902   4.376   5.749
 8550SOL    HW226550   1.053   4.399   5.808
 8551SOL     OW26551   2.434   4.351   1.021
 8551SOL    HW126552   2.496   4.429   1.021
 8551SOL    HW226553   2.343   4.380   0.994
 8552SOL     OW26554   3.146   6.664   4.691
 8552SOL    HW126555   3.245   6.669   4.677
 8552SOL    HW226556   3.118   6.732   4.759
 8553SOL     OW26557   5.985   5.378   7.001
 8553SOL    HW126558   5.975   5.328   0.064
 8553SOL    HW226559   5.986   5.476   7.019
 8554SOL     OW26560   5.717   3.683   6.931
 8554SOL    HW126561   5.813   3.658   6.923
 8554SOL    HW226562   5.662   3.624   6.872
 8555SOL     OW26563   2.060   6.680   4.552
 8555SOL    HW126564   1.983   6.617   4.553
 8555SOL    HW226565   2.054   6.740   4.472
 8556SOL     OW26566   5.996   6.929   4.113
 8556SOL    HW126567   6.043   6.887   4.191
 8556SOL    HW226568   6.022   6.881   4.029
 8557SOL     OW26569   0.118   1.166   0.611
 8557SOL    HW126570   0.063   1.221   0.548
 8557SOL    HW226571   0.072   1.161   0.700
 8558SOL     OW26572   1.388   4.737   2.168
 8558SOL    HW126573   1.368   4.769   2.261
 8558SOL    HW226574   1.335   4.655   2.149
 8559SOL     OW26575   0.662   1.717   5.544
 8559SOL    HW126576   0.590   1.760   5.598
 8559SOL    HW226577   0.740   1.779   5.535
 8560SOL     OW26578   6.527   2.305   6.567
 8560SOL    HW126579   6.525   2.234   6.497
 8560SOL    HW226580   6.434   2.328   6.595
 8561SOL     OW26581   4.435   6.294   5.886
 8561SOL    HW126582   4.452   6.278   5.789
 8561SOL    HW226583   4.348   6.252   5.912
 8562SOL     OW26584   4.040   0.155   4.555
 8562SOL    HW126585   4.112   0.091   4.582
 8562SOL    HW226586   4.072   0.211   4.479
 8563SOL     OW26587   2.822   2.463   6.534
 8563SOL    HW126588   2.737   2.428   6.494
 8563SOL    HW226589   2.799   2.527   6.608
 8564SOL     OW26590   0.541   6.460   2.656
 8564SOL    HW126591   0.520   6.397   2.730
 8564SOL    HW226592   0.466   6.525   2.644
 8565SOL     OW26593   3.866   0.526   1.250
 8565SOL    HW126594   3.778   0.559   1.216
 8565SOL    HW226595   3.910   0.469   1.180
 8566SOL     OW26596   1.658   3.999   3.841
 8566SOL    HW126597   1.661   3.908   3.801
 8566SOL    HW226598   1.750   4.038   3.845
 8567SOL     OW26599   5.234   6.046   6.281
 8567SOL    HW126600   5.204   6.053   6.186
 8567SOL    HW226601   5.283   6.130   6.307
 8568SOL     OW26602   5.501   0.248   0.150
 8568SOL    HW126603   5.578   0.281   0.094
 8568SOL    HW226604   5.446   0.326   0.179
 8569SOL     OW26605   4.037   1.158   5.548
 8569SOL    HW126606   3.941   1.142   5.569
 8569SOL    HW226607   4.088   1.073   5.560
 8570SOL     OW26608   0.040   3.103   6.337
 8570SOL    HW126609   0.042   3.202   6.319
 8570SOL    HW226610   0.003   3.086   6.428
 8571SOL     OW26611   0.300   4.600   5.293
 8571SOL    HW126612   0.219   4.623   5.347
 8571SOL    HW226613   0.299   4.502   5.273
 8572SOL     OW26614   2.736   5.012   5.479
 8572SOL    HW126615   2.675   4.977   5.550
 8572SOL    HW226616   2.819   4.957   5.476
 8573SOL     OW26617   3.426   5.965   4.290
 8573SOL    HW126618   3.449   5.876   4.330
 8573SOL    HW226619   3.447   6.038   4.355
 8574SOL     OW26620   0.581   3.961   4.279
 8574SOL    HW126621   0.587   3.877   4.225
 8574SOL    HW226622   0.492   4.003   4.266
 8575SOL     OW26623   2.915   3.554   6.395
 8575SOL    HW126624   2.955   3.646   6.386
 8575SOL    HW226625   2.819   3.557   6.367
 8576SOL     OW26626   2.015   0.235   0.641
 8576SOL    HW126627   1.952   0.309   0.615
 8576SOL    HW226628   1.970   0.147   0.626
 8577SOL     OW26629   6.233   5.773   4.338
 8577SOL    HW126630   6.195   5.854   4.293
 8577SOL    HW226631   6.172   5.743   4.411
 8578SOL     OW26632   4.820   0.546   3.032
 8578SOL    HW126633   4.809   0.485   3.111
 8578SOL    HW226634   4.863   0.631   3.061
 8579SOL     OW26635   0.432   5.054   2.382
 8579SOL    HW126636   0.461   5.022   2.472
 8579SOL    HW226637   0.506   5.041   2.316
 8580SOL     OW26638   2.597   4.949   6.063
 8580SOL    HW126639   2.653   4.905   5.993
 8580SOL    HW226640   2.656   5.004   6.122
 8581SOL     OW26641   3.233   3.094   0.235
 8581SOL    HW126642   3.225   3.145   0.149
 8581SOL    HW226643   3.274   3.004   0.217
 8582SOL     OW26644   3.959   4.871   0.550
 8582SOL    HW126645   3.984   4.798   0.613
 8582SOL    HW226646   3.979   4.843   0.456
 8583SOL     OW26647   5.797   6.778   5.107
 8583SOL    HW126648   5.798   6.809   5.012
 8583SOL    HW226649   5.890   6.779   5.144
 8584SOL     OW26650   0.447   5.647   6.688
 8584SOL    HW126651   0.546   5.633   6.694
 8584SOL    HW226652   0.427   5.709   6.611
 8585SOL     OW26653   1.387   1.895   1.314
 8585SOL    HW126654   1.369   1.911   1.217
 8585SOL    HW226655   1.343   1.967   1.368
 8586SOL     OW26656   3.926   4.917   4.420
 8586SOL    HW126657   3.943   4.996   4.361
 8586SOL    HW226658   3.901   4.949   4.511
 8587SOL     OW26659   6.550   1.862   1.411
 8587SOL    HW126660   6.547   1.861   1.311
 8587SOL    HW226661   6.575   1.771   1.445
 8588SOL     OW26662   3.391   2.438   6.345
 8588SOL    HW126663   3.448   2.444   6.263
 8588SOL    HW226664   3.365   2.530   6.374
 8589SOL     OW26665   2.906   1.626   4.741
 8589SOL    HW126666   2.890   1.693   4.813
 8589SOL    HW226667   2.827   1.565   4.734
 8590SOL     OW26668   5.638   5.055   5.129
 8590SOL    HW126669   5.662   5.152   5.121
 8590SOL    HW226670   5.687   5.014   5.206
 8591SOL     OW26671   0.312   2.851   0.705
 8591SOL    HW126672   0.406   2.822   0.688
 8591SOL    HW226673   0.268   2.873   0.618
 8592SOL     OW26674   6.413   5.877   6.876
 8592SOL    HW126675   6.324   5.912   6.847
 8592SOL    HW226676   6.474   5.871   6.796
 8593SOL     OW26677   0.376   6.050   2.978
 8593SOL    HW126678   0.320   6.053   3.061
 8593SOL    HW226679   0.416   5.959   2.968
 8594SOL     OW26680   3.810   4.022   3.237
 8594SOL    HW126681   3.878   3.992   3.170
 8594SOL    HW226682   3.845   4.005   3.330
 8595SOL     OW26683   1.171   3.266   1.666
 8595SOL    HW126684   1.195   3.217   1.749
 8595SOL    HW226685   1.205   3.216   1.586
 8596SOL     OW26686   6.908   4.339   2.336
 8596SOL    HW126687   6.994   4.381   2.306
 8596SOL    HW226688   6.832   4.402   2.321
 8597SOL     OW26689   2.604   1.706   0.435
 8597SOL    HW126690   2.611   1.614   0.397
 8597SOL    HW226691   2.662   1.714   0.516
 8598SOL     OW26692   5.927   3.437   1.984
 8598SOL    HW126693   5.863   3.448   2.060
 8598SOL    HW226694   5.915   3.347   1.942
 8599SOL     OW26695   0.633   3.143   0.827
 8599SOL    HW126696   0.610   3.185   0.740
 8599SOL    HW226697   0.636   3.043   0.816
 8600SOL     OW26698   6.752   2.493   6.561
 8600SOL    HW126699   6.806   2.411   6.537
 8600SOL    HW226700   6.657   2.466   6.578
 8601SOL     OW26701   0.617   0.254   5.086
 8601SOL    HW126702   0.686   0.209   5.029
 8601SOL    HW226703   0.648   0.346   5.110
 8602SOL     OW26704   1.573   6.414   1.800
 8602SOL    HW126705   1.551   6.481   1.728
 8602SOL    HW226706   1.613   6.333   1.758
 8603SOL     OW26707   4.929   3.342   1.361
 8603SOL    HW126708   4.904   3.342   1.458
 8603SOL    HW226709   4.847   3.330   1.305
 8604SOL     OW26710   5.661   2.812   3.161
 8604SOL    HW126711   5.699   2.901   3.133
 8604SOL    HW226712   5.728   2.762   3.215
 8605SOL     OW26713   3.244   5.487   1.711
 8605SOL    HW126714   3.277   5.396   1.686
 8605SOL    HW226715   3.321   5.544   1.738
 8606SOL     OW26716   3.705   5.535   4.846
 8606SOL    HW126717   3.629   5.591   4.878
 8606SOL    HW226718   3.674   5.442   4.831
 8607SOL     OW26719   3.020   6.213   0.976
 8607SOL    HW126720   2.929   6.217   0.935
 8607SOL    HW226721   3.074   6.143   0.929
 8608SOL     OW26722   6.012   6.903   2.340
 8608SOL    HW126723   6.098   6.930   2.382
 8608SOL    HW226724   6.030   6.865   2.249
 8609SOL     OW26725   4.874   0.573   6.176
 8609SOL    HW126726   4.875   0.475   6.155
 8609SOL    HW226727   4.968   0.609   6.172
 8610SOL     OW26728   0.280   6.539   5.903
 8610SOL    HW126729   0.200   6.507   5.853
 8610SOL    HW226730   0.363   6.502   5.861
 8611SOL     OW26731   1.628   1.716   3.201
 8611SOL    HW126732   1.675   1.724   3.289
 8611SOL    HW226733   1.673   1.775   3.134
 8612SOL     OW26734   5.167   3.427   4.615
 8612SOL    HW126735   5.237   3.496   4.597
 8612SOL    HW226736   5.089   3.469   4.662
 8613SOL     OW26737   1.343   0.781   0.477
 8613SOL    HW126738   1.385   0.786   0.386
 8613SOL    HW226739   1.246   0.804   0.471
 8614SOL     OW26740   1.772   1.823   3.418
 8614SOL    HW126741   1.752   1.903   3.474
 8614SOL    HW226742   1.869   1.821   3.395
 8615SOL     OW26743   4.609   1.931   5.701
 8615SOL    HW126744   4.598   1.954   5.604
 8615SOL    HW226745   4.636   2.012   5.752
 8616SOL     OW26746   0.934   2.965   0.239
 8616SOL    HW126747   0.856   2.957   0.177
 8616SOL    HW226748   0.902   2.985   0.331
 8617SOL     OW26749   5.689   2.420   0.730
 8617SOL    HW126750   5.739   2.502   0.705
 8617SOL    HW226751   5.643   2.434   0.818
 8618SOL     OW26752   3.934   1.203   3.168
 8618SOL    HW126753   3.855   1.226   3.224
 8618SOL    HW226754   3.924   1.242   3.077
 8619SOL     OW26755   4.009   6.471   0.798
 8619SOL    HW126756   3.928   6.457   0.741
 8619SOL    HW226757   4.011   6.403   0.871
 8620SOL     OW26758   6.038   5.812   3.405
 8620SOL    HW126759   6.063   5.798   3.310
 8620SOL    HW226760   6.016   5.908   3.421
 8621SOL     OW26761   5.153   0.788   4.352
 8621SOL    HW126762   5.114   0.830   4.270
 8621SOL    HW226763   5.244   0.827   4.369
 8622SOL     OW26764   4.590   5.030   6.312
 8622SOL    HW126765   4.620   5.008   6.219
 8622SOL    HW226766   4.641   5.110   6.346
 8623SOL     OW26767   6.534   2.083   4.053
 8623SOL    HW126768   6.452   2.138   4.064
 8623SOL    HW226769   6.539   2.015   4.127
 8624SOL     OW26770   6.181   3.242   3.995
 8624SOL    HW126771   6.225   3.324   4.032
 8624SOL    HW226772   6.115   3.269   3.924
 8625SOL     OW26773   3.521   1.443   6.724
 8625SOL    HW126774   3.468   1.402   6.651
 8625SOL    HW226775   3.582   1.513   6.686
 8626SOL     OW26776   2.862   3.641   2.475
 8626SOL    HW126777   2.870   3.543   2.458
 8626SOL    HW226778   2.769   3.663   2.502
 8627SOL     OW26779   2.618   0.525   0.170
 8627SOL    HW126780   2.684   0.450   0.173
 8627SOL    HW226781   2.661   0.607   0.133
 8628SOL     OW26782   6.200   1.496   1.156
 8628SOL    HW126783   6.215   1.434   1.233
 8628SOL    HW226784   6.240   1.585   1.177
 8629SOL     OW26785   1.457   5.937   3.542
 8629SOL    HW126786   1.363   5.910   3.521
 8629SOL    HW226787   1.487   5.890   3.625
 8630SOL     OW26788   5.270   4.963   4.113
 8630SOL    HW126789   5.285   5.062   4.108
 8630SOL    HW226790   5.354   4.917   4.140
 8631SOL     OW26791   4.441   6.406   3.900
 8631SOL    HW126792   4.424   6.329   3.961
 8631SOL    HW226793   4.512   6.381   3.834
 8632SOL     OW26794   3.094   0.529   3.130
 8632SOL    HW126795   2.998   0.514   3.107
 8632SOL    HW226796   3.102   0.608   3.190
 8633SOL     OW26797   6.722   6.530   2.618
 8633SOL    HW126798   6.797   6.528   2.684
 8633SOL    HW226799   6.692   6.437   2.599
 8634SOL     OW26800   6.014   5.926   1.769
 8634SOL    HW126801   6.078   5.883   1.705
 8634SOL    HW226802   5.941   5.861   1.791
 8635SOL     OW26803   6.067   3.500   5.631
 8635SOL    HW126804   6.047   3.433   5.560
 8635SOL    HW226805   6.035   3.590   5.603
 8636SOL     OW26806   5.255   4.806   0.578
 8636SOL    HW126807   5.227   4.861   0.657
 8636SOL    HW226808   5.328   4.743   0.606
 8637SOL     OW26809   1.380   0.999   1.670
 8637SOL    HW126810   1.378   0.930   1.599
 8637SOL    HW226811   1.411   1.086   1.631
 8638SOL     OW26812   5.559   4.542   1.344
 8638SOL    HW126813   5.595   4.533   1.437
 8638SOL    HW226814   5.617   4.490   1.281
 8639SOL     OW26815   6.183   2.231   1.986
 8639SOL    HW126816   6.242   2.284   1.925
 8639SOL    HW226817   6.121   2.293   2.034
 8640SOL     OW26818   5.074   6.217   1.559
 8640SOL    HW126819   5.025   6.203   1.473
 8640SOL    HW226820   5.016   6.269   1.622
 8641SOL     OW26821   4.902   4.420   3.492
 8641SOL    HW126822   4.942   4.453   3.578
 8641SOL    HW226823   4.831   4.482   3.461
 8642SOL     OW26824   4.301   1.873   1.821
 8642SOL    HW126825   4.229   1.942   1.822
 8642SOL    HW226826   4.304   1.826   1.909
 8643SOL     OW26827   4.733   0.378   0.283
 8643SOL    HW126828   4.677   0.413   0.208
 8643SOL    HW226829   4.828   0.407   0.270
 8644SOL     OW26830   6.643   3.131   5.133
 8644SOL    HW126831   6.692   3.133   5.046
 8644SOL    HW226832   6.599   3.219   5.149
 8645SOL     OW26833   6.455   3.693   1.647
 8645SOL    HW126834   6.361   3.712   1.620
 8645SOL    HW226835   6.513   3.771   1.623
 8646SOL     OW26836   4.991   5.883   1.065
 8646SOL    HW126837   4.896   5.881   1.095
 8646SOL    HW226838   5.051   5.887   1.145
 8647SOL     OW26839   4.357   4.779   2.071
 8647SOL    HW126840   4.443   4.792   2.120
 8647SOL    HW226841   4.377   4.765   1.973
 8648SOL     OW26842   6.082   1.213   4.061
 8648SOL    HW126843   6.070   1.259   3.973
 8648SOL    HW226844   6.151   1.141   4.052
 8649SOL     OW26845   6.483   4.532   5.498
 8649SOL    HW126846   6.441   4.530   5.589
 8649SOL    HW226847   6.578   4.503   5.504
 8650SOL     OW26848   0.210   5.214   1.607
 8650SOL    HW126849   0.259   5.173   1.530
 8650SOL    HW226850   0.112   5.199   1.596
 8651SOL     OW26851   3.851   3.279   1.014
 8651SOL    HW126852   3.894   3.252   1.101
 8651SOL    HW226853   3.806   3.200   0.973
 8652SOL     OW26854   1.028   3.108   4.264
 8652SOL    HW126855   1.040   3.203   4.235
 8652SOL    HW226856   0.993   3.105   4.357
 8653SOL     OW26857   5.181   2.819   6.347
 8653SOL    HW126858   5.250   2.747   6.339
 8653SOL    HW226859   5.225   2.904   6.378
 8654SOL     OW26860   1.406   5.363   1.666
 8654SOL    HW126861   1.379   5.359   1.569
 8654SOL    HW226862   1.430   5.271   1.697
 8655SOL     OW26863   6.245   6.573   2.213
 8655SOL    HW126864   6.217   6.478   2.226
 8655SOL    HW226865   6.283   6.608   2.299
 8656SOL     OW26866   6.888   2.036   1.406
 8656SOL    HW126867   6.838   2.090   1.473
 8656SOL    HW226868   6.832   1.959   1.375
 8657SOL     OW26869   3.041   4.604   0.963
 8657SOL    HW126870   2.996   4.516   0.975
 8657SOL    HW226871   3.018   4.641   0.873
 8658SOL     OW26872   1.000   5.342   6.366
 8658SOL    HW126873   0.933   5.387   6.426
 8658SOL    HW226874   0.957   5.322   6.278
 8659SOL     OW26875   4.232   6.893   3.875
 8659SOL    HW126876   4.171   6.948   3.932
 8659SOL    HW226877   4.326   6.923   3.889
 8660SOL     OW26878   5.451   4.417   0.087
 8660SOL    HW126879   5.475   4.332   0.133
 8660SOL    HW226880   5.532   4.453   0.038
 8661SOL     OW26881   6.490   3.144   1.691
 8661SOL    HW126882   6.580   3.143   1.646
 8661SOL    HW226883   6.419   3.124   1.623
 8662SOL     OW26884   0.804   0.110   0.110
 8662SOL    HW126885   0.802   0.012   0.090
 8662SOL    HW226886   0.817   0.123   0.208
 8663SOL     OW26887   2.544   5.241   1.037
 8663SOL    HW126888   2.520   5.193   0.952
 8663SOL    HW226889   2.563   5.174   1.108
 8664SOL     OW26890   4.257   4.985   1.841
 8664SOL    HW126891   4.263   5.030   1.752
 8664SOL    HW226892   4.293   5.047   1.911
 8665SOL     OW26893   4.862   5.553   4.441
 8665SOL    HW126894   4.778   5.576   4.490
 8665SOL    HW226895   4.940   5.558   4.504
 8666SOL     OW26896   6.341   4.602   3.949
 8666SOL    HW126897   6.371   4.697   3.941
 8666SOL    HW226898   6.395   4.556   4.019
 8667SOL     OW26899   5.704   2.626   3.462
 8667SOL    HW126900   5.634   2.666   3.403
 8667SOL    HW226901   5.679   2.640   3.558
 8668SOL     OW26902   3.362   0.827   4.755
 8668SOL    HW126903   3.387   0.788   4.843
 8668SOL    HW226904   3.424   0.791   4.684
 8669SOL     OW26905   4.219   0.023   5.980
 8669SOL    HW126906   4.299   0.079   5.958
 8669SOL    HW226907   4.181   0.051   6.068
 8670SOL     OW26908   4.586   4.551   2.597
 8670SOL    HW126909   4.605   4.531   2.693
 8670SOL    HW226910   4.650   4.619   2.563
 8671SOL     OW26911   6.285   5.955   2.124
 8671SOL    HW126912   6.384   5.964   2.136
 8671SOL    HW226913   6.246   5.909   2.203
 8672SOL     OW26914   3.537   4.997   5.587
 8672SOL    HW126915   3.485   4.927   5.637
 8672SOL    HW226916   3.634   4.987   5.608
 8673SOL     OW26917   4.850   2.294   0.054
 8673SOL    HW126918   4.941   2.287   0.012
 8673SOL    HW226919   4.793   2.355   7.022
 8674SOL     OW26920   0.728   0.225   2.834
 8674SOL    HW126921   0.649   0.218   2.894
 8674SOL    HW226922   0.718   0.162   2.757
 8675SOL     OW26923   2.392   2.285   2.707
 8675SOL    HW126924   2.433   2.264   2.619
 8675SOL    HW226925   2.452   2.347   2.758
 8676SOL     OW26926   4.658   0.895   4.286
 8676SOL    HW126927   4.669   0.811   4.338
 8676SOL    HW226928   4.594   0.956   4.333
 8677SOL     OW26929   1.953   3.791   5.725
 8677SOL    HW126930   1.945   3.848   5.643
 8677SOL    HW226931   2.038   3.814   5.773
 8678SOL     OW26932   1.549   1.119   5.948
 8678SOL    HW126933   1.618   1.177   5.905
 8678SOL    HW226934   1.530   1.153   6.040
 8679SOL     OW26935   6.030   1.635   4.319
 8679SOL    HW126936   6.053   1.727   4.286
 8679SOL    HW226937   6.073   1.567   4.260
 8680SOL     OW26938   0.547   3.649   0.650
 8680SOL    HW126939   0.524   3.714   0.577
 8680SOL    HW226940   0.636   3.672   0.688
 8681SOL     OW26941   4.233   3.640   1.387
 8681SOL    HW126942   4.226   3.703   1.464
 8681SOL    HW226943   4.289   3.561   1.413
 8682SOL     OW26944   1.136   5.811   2.773
 8682SOL    HW126945   1.232   5.824   2.801
 8682SOL    HW226946   1.133   5.755   2.691
 8683SOL     OW26947   4.966   2.769   6.176
 8683SOL    HW126948   5.038   2.793   6.241
 8683SOL    HW226949   4.943   2.673   6.186
 8684SOL     OW26950   6.868   2.583   3.975
 8684SOL    HW126951   6.787   2.614   4.025
 8684SOL    HW226952   6.862   2.484   3.961
 8685SOL     OW26953   0.345   1.253   5.597
 8685SOL    HW126954   0.344   1.207   5.508
 8685SOL    HW226955   0.372   1.348   5.585
 8686SOL     OW26956   6.346   1.830   3.573
 8686SOL    HW126957   6.366   1.838   3.670
 8686SOL    HW226958   6.316   1.919   3.537
 8687SOL     OW26959   3.954   0.844   2.650
 8687SOL    HW126960   3.966   0.881   2.742
 8687SOL    HW226961   3.859   0.813   2.639
 8688SOL     OW26962   1.222   0.060   2.040
 8688SOL    HW126963   1.308   0.009   2.044
 8688SOL    HW226964   1.160   0.028   2.111
 8689SOL     OW26965   4.772   4.783   0.817
 8689SOL    HW126966   4.732   4.710   0.874
 8689SOL    HW226967   4.853   4.748   0.771
 8690SOL     OW26968   1.307   0.640   2.926
 8690SOL    HW126969   1.293   0.706   2.999
 8690SOL    HW226970   1.379   0.575   2.952
 8691SOL     OW26971   5.716   1.825   0.343
 8691SOL    HW126972   5.733   1.731   0.373
 8691SOL    HW226973   5.641   1.864   0.398
 8692SOL     OW26974   1.786   1.206   3.698
 8692SOL    HW126975   1.845   1.140   3.654
 8692SOL    HW226976   1.740   1.262   3.629
 8693SOL     OW26977   5.421   2.393   6.902
 8693SOL    HW126978   5.425   2.488   6.933
 8693SOL    HW226979   5.473   2.383   6.817
 8694SOL     OW26980   3.648   0.014   6.917
 8694SOL    HW126981   3.667   6.999   6.826
 8694SOL    HW226982   3.711   6.996   6.984
 8695SOL     OW26983   4.642   4.125   5.190
 8695SOL    HW126984   4.670   4.035   5.226
 8695SOL    HW226985   4.598   4.177   5.262
 8696SOL     OW26986   1.998   5.357   0.870
 8696SOL    HW126987   1.922   5.406   0.828
 8696SOL    HW226988   1.967   5.269   0.905
 8697SOL     OW26989   5.023   4.933   6.541
 8697SOL    HW126990   5.086   4.935   6.619
 8697SOL    HW226991   5.062   4.986   6.465
 8698SOL     OW26992   6.061   5.982   4.752
 8698SOL    HW126993   5.991   5.916   4.725
 8698SOL    HW226994   6.021   6.073   4.759
 8699SOL     OW26995   1.378   1.654   4.925
 8699SOL    HW126996   1.288   1.645   4.881
 8699SOL    HW226997   1.416   1.563   4.942
 8700SOL     OW26998   2.871   2.467   6.019
 8700SOL    HW126999   2.924   2.518   6.087
 8700SOL    HW227000   2.924   2.459   5.935
 8701SOL     OW27001   1.238   1.321   3.552
 8701SOL    HW127002   1.260   1.382   3.627
 8701SOL    HW227003   1.320   1.305   3.496
 8702SOL     OW27004   5.529   6.084   6.796
 8702SOL    HW127005   5.514   6.181   6.815
 8702SOL    HW227006   5.443   6.042   6.767
 8703SOL     OW27007   1.305   5.372   1.426
 8703SOL    HW127008   1.326   5.317   1.346
 8703SOL    HW227009   1.297   5.469   1.400
 8704SOL     OW27010   0.649   4.407   1.898
 8704SOL    HW127011   0.587   4.386   1.974
 8704SOL    HW227012   0.735   4.444   1.934
 8705SOL     OW27013   5.026   6.771   4.549
 8705SOL    HW127014   5.070   6.808   4.467
 8705SOL    HW227015   4.928   6.788   4.544
 8706SOL     OW27016   5.035   1.716   5.637
 8706SOL    HW127017   4.998   1.744   5.548
 8706SOL    HW227018   4.998   1.627   5.662
 8707SOL     OW27019   4.684   2.172   5.807
 8707SOL    HW127020   4.761   2.196   5.749
 8707SOL    HW227021   4.608   2.235   5.791
 8708SOL     OW27022   3.919   1.889   0.996
 8708SOL    HW127023   3.867   1.824   1.052
 8708SOL    HW227024   4.005   1.910   1.043
 8709SOL     OW27025   6.062   3.469   0.430
 8709SOL    HW127026   6.002   3.530   0.481
 8709SOL    HW227027   6.130   3.523   0.380
 8710SOL     OW27028   5.967   3.107   4.153
 8710SOL    HW127029   5.903   3.108   4.076
 8710SOL    HW227030   6.054   3.147   4.124
 8711SOL     OW27031   0.718   1.372   4.446
 8711SOL    HW127032   0.645   1.421   4.398
 8711SOL    HW227033   0.689   1.353   4.540
 8712SOL     OW27034   4.051   1.023   6.872
 8712SOL    HW127035   4.011   0.979   6.792
 8712SOL    HW227036   4.044   0.961   6.951
 8713SOL     OW27037   6.091   4.766   2.645
 8713SOL    HW127038   6.023   4.792   2.577
 8713SOL    HW227039   6.051   4.771   2.736
 8714SOL     OW27040   1.516   1.489   4.214
 8714SOL    HW127041   1.427   1.518   4.251
 8714SOL    HW227042   1.588   1.521   4.274
 8715SOL     OW27043   5.951   1.109   2.675
 8715SOL    HW127044   5.931   1.182   2.740
 8715SOL    HW227045   5.966   1.148   2.584
 8716SOL     OW27046   0.531   1.013   1.883
 8716SOL    HW127047   0.592   1.086   1.915
 8716SOL    HW227048   0.532   0.938   1.950
 8717SOL     OW27049   4.152   3.510   0.528
 8717SOL    HW127050   4.178   3.432   0.472
 8717SOL    HW227051   4.195   3.503   0.618
 8718SOL     OW27052   0.312   2.625   5.782
 8718SOL    HW127053   0.380   2.553   5.797
 8718SOL    HW227054   0.232   2.586   5.736
 8719SOL     OW27055   6.133   0.840   5.738
 8719SOL    HW127056   6.224   0.800   5.742
 8719SOL    HW227057   6.117   0.879   5.648
 8720SOL     OW27058   4.855   3.395   5.811
 8720SOL    HW127059   4.920   3.471   5.816
 8720SOL    HW227060   4.779   3.420   5.751
 8721SOL     OW27061   6.822   0.868   5.141
 8721SOL    HW127062   6.760   0.799   5.180
 8721SOL    HW227063   6.800   0.957   5.179
 8722SOL     OW27064   2.950   2.868   1.181
 8722SOL    HW127065   2.883   2.849   1.253
 8722SOL    HW227066   2.908   2.925   1.111
 8723SOL     OW27067   0.140   5.507   0.370
 8723SOL    HW127068   0.143   5.476   0.465
 8723SOL    HW227069   0.081   5.446   0.316
 8724SOL     OW27070   5.402   6.269   6.365
 8724SOL    HW127071   5.465   6.274   6.443
 8724SOL    HW227072   5.431   6.332   6.294
 8725SOL     OW27073   2.207   6.058   1.471
 8725SOL    HW127074   2.190   6.081   1.567
 8725SOL    HW227075   2.253   5.970   1.465
 8726SOL     OW27076   6.621   0.542   1.560
 8726SOL    HW127077   6.696   0.476   1.557
 8726SOL    HW227078   6.537   0.500   1.526
 8727SOL     OW27079   6.253   6.816   0.830
 8727SOL    HW127080   6.197   6.823   0.912
 8727SOL    HW227081   6.264   6.720   0.806
 8728SOL     OW27082   1.955   6.305   5.665
 8728SOL    HW127083   1.909   6.331   5.581
 8728SOL    HW227084   2.017   6.229   5.648
 8729SOL     OW27085   5.000   5.987   4.893
 8729SOL    HW127086   5.008   5.897   4.850
 8729SOL    HW227087   5.044   6.055   4.835
 8730SOL     OW27088   6.740   5.997   0.650
 8730SOL    HW127089   6.825   5.964   0.692
 8730SOL    HW227090   6.762   6.050   0.568
 8731SOL     OW27091   0.695   1.580   2.422
 8731SOL    HW127092   0.680   1.610   2.516
 8731SOL    HW227093   0.732   1.656   2.368
 8732SOL     OW27094   6.496   5.618   1.958
 8732SOL    HW127095   6.417   5.668   1.924
 8732SOL    HW227096   6.523   5.656   2.047
 8733SOL     OW27097   6.824   6.985   0.947
 8733SOL    HW127098   6.763   6.920   0.993
 8733SOL    HW227099   6.871   6.939   0.872
 8734SOL     OW27100   6.969   5.825   0.631
 8734SOL    HW127101   6.956   5.748   0.694
 8734SOL    HW227102   0.004   5.796   0.554
 8735SOL     OW27103   0.026   2.688   6.564
 8735SOL    HW127104   6.998   2.728   6.488
 8735SOL    HW227105   0.116   2.732   6.571
 8736SOL     OW27106   0.112   4.552   5.683
 8736SOL    HW127107   0.176   4.495   5.631
 8736SOL    HW227108   0.159   4.635   5.714
 8737SOL     OW27109   3.845   6.346   6.740
 8737SOL    HW127110   3.806   6.323   6.650
 8737SOL    HW227111   3.944   6.350   6.732
 8738SOL     OW27112   0.823   3.791   5.306
 8738SOL    HW127113   0.776   3.769   5.391
 8738SOL    HW227114   0.877   3.712   5.276
 8739SOL     OW27115   1.102   3.578   5.649
 8739SOL    HW127116   1.138   3.528   5.727
 8739SOL    HW227117   1.008   3.550   5.632
 8740SOL     OW27118   1.438   6.688   1.272
 8740SOL    HW127119   1.444   6.591   1.249
 8740SOL    HW227120   1.524   6.718   1.311
 8741SOL     OW27121   1.533   3.592   2.252
 8741SOL    HW127122   1.478   3.660   2.302
 8741SOL    HW227123   1.577   3.636   2.174
 8742SOL     OW27124   4.759   6.011   2.262
 8742SOL    HW127125   4.735   5.953   2.340
 8742SOL    HW227126   4.815   5.959   2.198
 8743SOL     OW27127   2.338   4.916   2.925
 8743SOL    HW127128   2.352   4.908   3.024
 8743SOL    HW227129   2.394   4.847   2.878
 8744SOL     OW27130   3.146   3.223   5.387
 8744SOL    HW127131   3.068   3.275   5.421
 8744SOL    HW227132   3.216   3.218   5.457
 8745SOL     OW27133   6.222   1.375   0.072
 8745SOL    HW127134   6.226   1.450   0.007
 8745SOL    HW227135   6.243   1.289   0.024
 8746SOL     OW27136   5.531   3.796   5.046
 8746SOL    HW127137   5.599   3.786   5.120
 8746SOL    HW227138   5.576   3.831   4.964
 8747SOL     OW27139   0.908   2.320   4.233
 8747SOL    HW127140   0.947   2.404   4.271
 8747SOL    HW227141   0.947   2.303   4.143
 8748SOL     OW27142   2.874   0.215   0.385
 8748SOL    HW127143   2.851   0.123   0.353
 8748SOL    HW227144   2.855   0.222   0.483
 8749SOL     OW27145   4.159   1.938   3.520
 8749SOL    HW127146   4.194   1.939   3.426
 8749SOL    HW227147   4.230   1.969   3.583
 8750SOL     OW27148   1.685   0.813   5.512
 8750SOL    HW127149   1.594   0.781   5.485
 8750SOL    HW227150   1.697   0.801   5.610
 8751SOL     OW27151   1.997   6.737   3.102
 8751SOL    HW127152   1.963   6.644   3.115
 8751SOL    HW227153   1.967   6.772   3.014
 8752SOL     OW27154   2.395   1.549   5.983
 8752SOL    HW127155   2.488   1.561   5.949
 8752SOL    HW227156   2.397   1.520   6.079
 8753SOL     OW27157   6.116   1.588   5.200
 8753SOL    HW127158   6.134   1.577   5.103
 8753SOL    HW227159   6.129   1.500   5.247
 8754SOL     OW27160   2.014   1.156   5.463
 8754SOL    HW127161   2.067   1.086   5.415
 8754SOL    HW227162   1.917   1.131   5.461
 8755SOL     OW27163   2.315   2.228   0.727
 8755SOL    HW127164   2.400   2.233   0.779
 8755SOL    HW227165   2.261   2.310   0.744
 8756SOL     OW27166   1.783   4.217   4.535
 8756SOL    HW127167   1.871   4.186   4.572
 8756SOL    HW227168   1.760   4.305   4.575
 8757SOL     OW27169   3.624   5.912   4.080
 8757SOL    HW127170   3.589   5.884   3.991
 8757SOL    HW227171   3.548   5.926   4.143
 8758SOL     OW27172   5.210   6.488   2.241
 8758SOL    HW127173   5.112   6.479   2.263
 8758SOL    HW227174   5.243   6.576   2.274
 8759SOL     OW27175   5.304   1.052   6.038
 8759SOL    HW127176   5.399   1.035   6.063
 8759SOL    HW227177   5.299   1.076   5.941
 8760SOL     OW27178   2.110   3.334   3.659
 8760SOL    HW127179   2.031   3.346   3.719
 8760SOL    HW227180   2.182   3.398   3.686
 8761SOL     OW27181   5.724   5.928   1.498
 8761SOL    HW127182   5.642   5.902   1.447
 8761SOL    HW227183   5.738   6.027   1.489
 8762SOL     OW27184   0.848   4.576   0.557
 8762SOL    HW127185   0.905   4.632   0.616
 8762SOL    HW227186   0.905   4.525   0.493
 8763SOL     OW27187   0.055   6.059   6.353
 8763SOL    HW127188   6.990   6.100   6.377
 8763SOL    HW227189   0.064   5.970   6.398
 8764SOL     OW27190   3.885   2.013   5.803
 8764SOL    HW127191   3.841   2.032   5.715
 8764SOL    HW227192   3.828   1.950   5.856
 8765SOL     OW27193   6.798   0.431   5.015
 8765SOL    HW127194   6.723   0.376   5.053
 8765SOL    HW227195   6.882   0.378   5.018
 8766SOL     OW27196   1.925   4.686   2.276
 8766SOL    HW127197   2.024   4.695   2.266
 8766SOL    HW227198   1.904   4.599   2.319
 8767SOL     OW27199   5.241   1.510   5.833
 8767SOL    HW127200   5.278   1.452   5.906
 8767SOL    HW227201   5.280   1.602   5.840
 8768SOL     OW27202   0.980   3.615   6.913
 8768SOL    HW127203   1.076   3.602   6.888
 8768SOL    HW227204   0.974   3.660   7.002
 8769SOL     OW27205   1.919   1.155   5.865
 8769SOL    HW127206   1.912   1.085   5.936
 8769SOL    HW227207   1.831   1.199   5.852
 8770SOL     OW27208   5.351   1.273   3.451
 8770SOL    HW127209   5.318   1.307   3.363
 8770SOL    HW227210   5.450   1.260   3.446
 8771SOL     OW27211   2.678   2.596   5.635
 8771SOL    HW127212   2.713   2.636   5.551
 8771SOL    HW227213   2.615   2.521   5.612
 8772SOL     OW27214   6.108   6.743   6.769
 8772SOL    HW127215   6.057   6.828   6.781
 8772SOL    HW227216   6.075   6.694   6.689
 8773SOL     OW27217   2.767   1.900   3.221
 8773SOL    HW127218   2.841   1.869   3.161
 8773SOL    HW227219   2.679   1.892   3.174
 8774SOL     OW27220   1.329   0.353   0.239
 8774SOL    HW127221   1.405   0.352   0.174
 8774SOL    HW227222   1.286   0.444   0.240
 8775SOL     OW27223   6.194   6.366   4.282
 8775SOL    HW127224   6.124   6.320   4.337
 8775SOL    HW227225   6.224   6.305   4.209
 8776SOL     OW27226   3.225   3.777   5.163
 8776SOL    HW127227   3.198   3.789   5.067
 8776SOL    HW227228   3.161   3.828   5.221
 8777SOL     OW27229   6.273   5.609   2.691
 8777SOL    HW127230   6.241   5.688   2.640
 8777SOL    HW227231   6.359   5.576   2.652
 8778SOL     OW27232   1.271   2.837   2.976
 8778SOL    HW127233   1.174   2.816   2.963
 8778SOL    HW227234   1.320   2.819   2.891
 8779SOL     OW27235   1.393   4.641   1.133
 8779SOL    HW127236   1.408   4.679   1.041
 8779SOL    HW227237   1.410   4.543   1.132
 8780SOL     OW27238   2.065   5.603   4.698
 8780SOL    HW127239   2.113   5.629   4.614
 8780SOL    HW227240   1.997   5.673   4.721
 8781SOL     OW27241   0.997   2.303   2.505
 8781SOL    HW127242   0.910   2.272   2.544
 8781SOL    HW227243   1.040   2.367   2.568
 8782SOL     OW27244   4.992   1.569   3.741
 8782SOL    HW127245   5.015   1.637   3.812
 8782SOL    HW227246   5.077   1.528   3.706
 8783SOL     OW27247   6.490   2.702   5.856
 8783SOL    HW127248   6.577   2.741   5.826
 8783SOL    HW227249   6.494   2.685   5.955
 8784SOL     OW27250   5.811   4.421   5.931
 8784SOL    HW127251   5.876   4.452   6.000
 8784SOL    HW227252   5.764   4.499   5.891
 8785SOL     OW27253   5.239   4.245   5.890
 8785SOL    HW127254   5.330   4.252   5.849
 8785SOL    HW227255   5.248   4.212   5.984
 8786SOL     OW27256   1.718   6.475   0.324
 8786SOL    HW127257   1.738   6.573   0.317
 8786SOL    HW227258   1.772   6.436   0.398
 8787SOL     OW27259   1.077   2.656   6.968
 8787SOL    HW127260   1.139   2.614   0.011
 8787SOL    HW227261   1.121   2.660   6.878
 8788SOL     OW27262   1.439   1.859   5.383
 8788SOL    HW127263   1.474   1.819   5.298
 8788SOL    HW227264   1.437   1.959   5.375
 8789SOL     OW27265   0.567   0.950   0.168
 8789SOL    HW127266   0.624   1.018   0.124
 8789SOL    HW227267   0.625   0.884   0.217
 8790SOL     OW27268   4.067   1.948   6.728
 8790SOL    HW127269   4.033   2.037   6.697
 8790SOL    HW227270   4.164   1.955   6.751
 8791SOL     OW27271   4.962   6.240   5.418
 8791SOL    HW127272   5.020   6.167   5.454
 8791SOL    HW227273   4.998   6.270   5.329
 8792SOL     OW27274   5.459   6.557   2.818
 8792SOL    HW127275   5.543   6.609   2.829
 8792SOL    HW227276   5.480   6.464   2.788
 8793SOL     OW27277   1.459   4.630   3.496
 8793SOL    HW127278   1.523   4.704   3.521
 8793SOL    HW227279   1.433   4.580   3.579
 8794SOL     OW27280   2.596   5.849   2.846
 8794SOL    HW127281   2.587   5.758   2.804
 8794SOL    HW227282   2.541   5.915   2.795
 8795SOL     OW27283   2.553   5.843   4.837
 8795SOL    HW127284   2.639   5.859   4.886
 8795SOL    HW227285   2.497   5.925   4.840
 8796SOL     OW27286   5.513   2.286   5.275
 8796SOL    HW127287   5.447   2.333   5.333
 8796SOL    HW227288   5.470   2.264   5.187
 8797SOL     OW27289   0.796   5.889   6.700
 8797SOL    HW127290   0.825   5.984   6.704
 8797SOL    HW227291   0.838   5.845   6.620
 8798SOL     OW27292   3.466   3.318   5.420
 8798SOL    HW127293   3.497   3.316   5.326
 8798SOL    HW227294   3.383   3.375   5.427
 8799SOL     OW27295   3.063   0.752   2.636
 8799SOL    HW127296   3.036   0.708   2.722
 8799SOL    HW227297   3.112   0.686   2.579
 8800SOL     OW27298   4.263   4.481   0.546
 8800SOL    HW127299   4.188   4.415   0.547
 8800SOL    HW227300   4.241   4.557   0.607
 8801SOL     OW27301   3.157   6.627   5.831
 8801SOL    HW127302   3.115   6.562   5.767
 8801SOL    HW227303   3.188   6.578   5.912
 8802SOL     OW27304   2.564   6.035   1.627
 8802SOL    HW127305   2.531   6.124   1.657
 8802SOL    HW227306   2.494   5.990   1.572
 8803SOL     OW27307   4.097   6.104   1.646
 8803SOL    HW127308   4.049   6.022   1.614
 8803SOL    HW227309   4.046   6.185   1.618
 8804SOL     OW27310   2.878   0.972   1.650
 8804SOL    HW127311   2.946   1.046   1.648
 8804SOL    HW227312   2.830   0.969   1.563
 8805SOL     OW27313   0.389   0.391   3.352
 8805SOL    HW127314   0.460   0.462   3.359
 8805SOL    HW227315   0.364   0.379   3.256
 8806SOL     OW27316   1.771   5.207   0.483
 8806SOL    HW127317   1.847   5.157   0.443
 8806SOL    HW227318   1.747   5.167   0.572
 8807SOL     OW27319   2.214   5.490   6.474
 8807SOL    HW127320   2.190   5.466   6.380
 8807SOL    HW227321   2.304   5.453   6.496
 8808SOL     OW27322   5.734   1.795   1.050
 8808SOL    HW127323   5.729   1.870   0.983
 8808SOL    HW227324   5.828   1.787   1.084
 8809SOL     OW27325   5.839   4.524   0.279
 8809SOL    HW127326   5.759   4.526   0.339
 8809SOL    HW227327   5.868   4.617   0.258
 8810SOL     OW27328   5.133   1.618   3.984
 8810SOL    HW127329   5.124   1.520   4.002
 8810SOL    HW227330   5.140   1.667   4.070
 8811SOL     OW27331   1.383   1.098   3.339
 8811SOL    HW127332   1.432   1.179   3.306
 8811SOL    HW227333   1.447   1.039   3.389
 8812SOL     OW27334   2.422   1.259   0.331
 8812SOL    HW127335   2.358   1.194   0.289
 8812SOL    HW227336   2.383   1.295   0.415
 8813SOL     OW27337   1.259   5.636   1.348
 8813SOL    HW127338   1.188   5.595   1.290
 8813SOL    HW227339   1.331   5.673   1.290
 8814SOL     OW27340   5.786   6.708   5.936
 8814SOL    HW127341   5.823   6.726   5.845
 8814SOL    HW227342   5.689   6.688   5.930
 8815SOL     OW27343   5.989   5.788   3.123
 8815SOL    HW127344   5.929   5.721   3.077
 8815SOL    HW227345   6.081   5.783   3.082
 8816SOL     OW27346   0.743   5.307   1.838
 8816SOL    HW127347   0.703   5.267   1.921
 8816SOL    HW227348   0.827   5.356   1.862
 8817SOL     OW27349   2.110   3.856   5.314
 8817SOL    HW127350   2.186   3.911   5.279
 8817SOL    HW227351   2.128   3.759   5.300
 8818SOL     OW27352   6.844   4.242   4.879
 8818SOL    HW127353   6.800   4.153   4.870
 8818SOL    HW227354   6.793   4.298   4.945
 8819SOL     OW27355   6.920   0.177   4.194
 8819SOL    HW127356   6.885   0.243   4.261
 8819SOL    HW227357   6.984   0.222   4.132
 8820SOL     OW27358   0.572   2.505   3.277
 8820SOL    HW127359   0.485   2.460   3.299
 8820SOL    HW227360   0.554   2.584   3.218
 8821SOL     OW27361   1.739   0.045   6.501
 8821SOL    HW127362   1.757   6.975   6.535
 8821SOL    HW227363   1.825   0.088   6.474
 8822SOL     OW27364   1.089   2.704   3.771
 8822SOL    HW127365   1.112   2.767   3.697
 8822SOL    HW227366   1.030   2.631   3.735
 8823SOL     OW27367   2.088   5.085   1.721
 8823SOL    HW127368   1.994   5.059   1.700
 8823SOL    HW227369   2.146   5.071   1.641
 8824SOL     OW27370   4.333   4.361   0.819
 8824SOL    HW127371   4.272   4.348   0.741
 8824SOL    HW227372   4.375   4.273   0.843
 8825SOL     OW27373   2.368   2.668   0.679
 8825SOL    HW127374   2.320   2.591   0.722
 8825SOL    HW227375   2.394   2.735   0.749
 8826SOL     OW27376   5.915   0.479   0.615
 8826SOL    HW127377   5.940   0.424   0.694
 8826SOL    HW227378   5.987   0.545   0.596
 8827SOL     OW27379   6.593   1.750   3.070
 8827SOL    HW127380   6.567   1.659   3.100
 8827SOL    HW227381   6.548   1.770   2.982
 8828SOL     OW27382   1.579   6.456   3.603
 8828SOL    HW127383   1.607   6.366   3.638
 8828SOL    HW227384   1.504   6.491   3.658
 8829SOL     OW27385   1.726   1.008   1.465
 8829SOL    HW127386   1.655   1.078   1.453
 8829SOL    HW227387   1.683   0.920   1.484
 8830SOL     OW27388   1.197   1.240   0.246
 8830SOL    HW127389   1.264   1.308   0.275
 8830SOL    HW227390   1.210   1.218   0.150
 8831SOL     OW27391   6.815   0.918   1.746
 8831SOL    HW127392   6.884   0.922   1.673
 8831SOL    HW227393   6.752   0.994   1.737
 8832SOL     OW27394   6.327   1.194   2.172
 8832SOL    HW127395   6.308   1.232   2.263
 8832SOL    HW227396   6.418   1.221   2.142
 8833SOL     OW27397   1.320   5.125   2.427
 8833SOL    HW127398   1.235   5.177   2.432
 8833SOL    HW227399   1.340   5.102   2.332
 8834SOL     OW27400   6.142   4.229   3.892
 8834SOL    HW127401   6.237   4.202   3.907
 8834SOL    HW227402   6.088   4.148   3.868
 8835SOL     OW27403   0.559   0.954   6.800
 8835SOL    HW127404   0.560   0.859   6.830
 8835SOL    HW227405   0.644   0.998   6.827
 8836SOL     OW27406   4.905   2.046   2.256
 8836SOL    HW127407   4.806   2.035   2.242
 8836SOL    HW227408   4.952   1.961   2.229
 8837SOL     OW27409   0.087   2.151   1.785
 8837SOL    HW127410   0.035   2.194   1.858
 8837SOL    HW227411   0.063   2.054   1.780
 8838SOL     OW27412   1.597   6.249   4.276
 8838SOL    HW127413   1.519   6.231   4.216
 8838SOL    HW227414   1.680   6.215   4.232
 8839SOL     OW27415   5.115   6.087   4.414
 8839SOL    HW127416   5.111   6.179   4.376
 8839SOL    HW227417   5.089   6.021   4.343
 8840SOL     OW27418   4.288   0.525   2.159
 8840SOL    HW127419   4.245   0.435   2.152
 8840SOL    HW227420   4.310   0.560   2.068
 8841SOL     OW27421   2.827   0.303   4.260
 8841SOL    HW127422   2.894   0.260   4.199
 8841SOL    HW227423   2.796   0.236   4.328
 8842SOL     OW27424   1.242   2.717   1.997
 8842SOL    HW127425   1.247   2.621   1.971
 8842SOL    HW227426   1.255   2.774   1.915
 8843SOL     OW27427   0.088   3.076   4.248
 8843SOL    HW127428   0.023   3.117   4.184
 8843SOL    HW227429   0.135   3.000   4.205
 8844SOL     OW27430   6.067   1.648   6.452
 8844SOL    HW127431   6.128   1.596   6.512
 8844SOL    HW227432   6.004   1.585   6.405
 8845SOL     OW27433   5.222   2.972   7.020
 8845SOL    HW127434   5.182   2.939   6.935
 8845SOL    HW227435   5.249   2.893   0.054
 8846SOL     OW27436   3.221   4.934   3.603
 8846SOL    HW127437   3.176   4.962   3.688
 8846SOL    HW227438   3.152   4.902   3.538
 8847SOL     OW27439   0.915   1.106   2.963
 8847SOL    HW127440   0.934   1.164   2.884
 8847SOL    HW227441   0.845   1.149   3.020
 8848SOL     OW27442   0.816   0.894   3.337
 8848SOL    HW127443   0.915   0.910   3.333
 8848SOL    HW227444   0.793   0.849   3.423
 8849SOL     OW27445   2.964   6.949   1.496
 8849SOL    HW127446   2.902   6.921   1.423
 8849SOL    HW227447   2.973   0.026   1.496
 8850SOL     OW27448   3.180   2.703   6.670
 8850SOL    HW127449   3.107   2.766   6.645
 8850SOL    HW227450   3.141   2.622   6.714
 8851SOL     OW27451   1.866   3.560   1.917
 8851SOL    HW127452   1.844   3.495   1.990
 8851SOL    HW227453   1.956   3.600   1.933
 8852SOL     OW27454   0.313   1.863   4.631
 8852SOL    HW127455   0.240   1.930   4.616
 8852SOL    HW227456   0.401   1.910   4.638
 8853SOL     OW27457   4.558   0.399   1.646
 8853SOL    HW127458   4.573   0.471   1.580
 8853SOL    HW227459   4.614   0.415   1.727
 8854SOL     OW27460   0.362   2.718   4.928
 8854SOL    HW127461   0.446   2.676   4.961
 8854SOL    HW227462   0.383   2.806   4.886
 8855SOL     OW27463   5.030   4.556   1.420
 8855SOL    HW127464   5.126   4.538   1.442
 8855SOL    HW227465   5.019   4.557   1.320
 8856SOL     OW27466   6.065   0.649   6.132
 8856SOL    HW127467   6.144   0.588   6.127
 8856SOL    HW227468   5.981   0.595   6.144
 8857SOL     OW27469   6.764   1.784   6.833
 8857SOL    HW127470   6.776   1.842   6.913
 8857SOL    HW227471   6.850   1.737   6.813
 8858SOL     OW27472   6.459   5.674   4.759
 8858SOL    HW127473   6.549   5.698   4.796
 8858SOL    HW227474   6.463   5.679   4.659
 8859SOL     OW27475   0.836   5.789   2.644
 8859SOL    HW127476   0.812   5.881   2.613
 8859SOL    HW227477   0.926   5.791   2.687
 8860SOL     OW27478   6.728   2.820   2.258
 8860SOL    HW127479   6.657   2.811   2.329
 8860SOL    HW227480   6.757   2.729   2.229
 8861SOL     OW27481   3.275   2.649   1.696
 8861SOL    HW127482   3.280   2.734   1.645
 8861SOL    HW227483   3.295   2.666   1.793
 8862SOL     OW27484   4.205   4.809   4.853
 8862SOL    HW127485   4.235   4.720   4.887
 8862SOL    HW227486   4.204   4.808   4.753
 8863SOL     OW27487   1.109   4.057   2.118
 8863SOL    HW127488   1.084   4.135   2.174
 8863SOL    HW227489   1.040   3.985   2.127
 8864SOL     OW27490   6.454   1.634   5.135
 8864SOL    HW127491   6.370   1.683   5.112
 8864SOL    HW227492   6.534   1.688   5.105
 8865SOL     OW27493   3.128   1.493   0.784
 8865SOL    HW127494   3.042   1.445   0.803
 8865SOL    HW227495   3.111   1.569   0.721
 8866SOL     OW27496   6.002   0.092   2.134
 8866SOL    HW127497   5.975   0.015   2.192
 8866SOL    HW227498   6.078   0.141   2.177
 8867SOL     OW27499   6.169   2.852   2.831
 8867SOL    HW127500   6.150   2.900   2.917
 8867SOL    HW227501   6.131   2.904   2.755
 8868SOL     OW27502   6.939   3.144   3.483
 8868SOL    HW127503   6.923   3.065   3.542
 8868SOL    HW227504   6.918   3.119   3.388
 8869SOL     OW27505   4.740   0.033   3.423
 8869SOL    HW127506   4.826   7.012   3.449
 8869SOL    HW227507   4.711   0.095   3.495
 8870SOL     OW27508   0.951   0.898   1.839
 8870SOL    HW127509   1.039   0.851   1.832
 8870SOL    HW227510   0.966   0.989   1.879
 8871SOL     OW27511   7.013   6.975   1.260
 8871SOL    HW127512   7.009   0.052   1.251
 8871SOL    HW227513   0.074   6.941   1.217
 8872SOL     OW27514   0.164   4.434   3.515
 8872SOL    HW127515   0.167   4.335   3.508
 8872SOL    HW227516   0.101   4.471   3.447
 8873SOL     OW27517   2.019   1.262   3.258
 8873SOL    HW127518   1.967   1.341   3.225
 8873SOL    HW227519   2.051   1.280   3.351
 8874SOL     OW27520   3.005   6.049   0.667
 8874SOL    HW127521   3.050   5.988   0.602
 8874SOL    HW227522   3.054   6.136   0.670
 8875SOL     OW27523   5.932   3.201   4.610
 8875SOL    HW127524   5.854   3.250   4.571
 8875SOL    HW227525   5.971   3.141   4.541
 8876SOL     OW27526   4.298   0.968   0.889
 8876SOL    HW127527   4.368   0.968   0.818
 8876SOL    HW227528   4.259   0.876   0.898
 8877SOL     OW27529   0.911   4.938   1.152
 8877SOL    HW127530   0.987   4.875   1.131
 8877SOL    HW227531   0.934   4.991   1.233
 8878SOL     OW27532   5.121   3.397   1.897
 8878SOL    HW127533   5.221   3.407   1.897
 8878SOL    HW227534   5.096   3.316   1.845
 8879SOL     OW27535   6.710   4.348   3.847
 8879SOL    HW127536   6.616   4.340   3.813
 8879SOL    HW227537   6.772   4.304   3.782
 8880SOL     OW27538   4.248   2.300   3.134
 8880SOL    HW127539   4.262   2.344   3.045
 8880SOL    HW227540   4.275   2.363   3.207
 8881SOL     OW27541   3.349   4.987   2.398
 8881SOL    HW127542   3.303   5.071   2.427
 8881SOL    HW227543   3.283   4.913   2.393
 8882SOL     OW27544   3.859   0.881   0.329
 8882SOL    HW127545   3.833   0.958   0.387
 8882SOL    HW227546   3.933   0.830   0.372
 8883SOL     OW27547   0.266   6.395   2.775
 8883SOL    HW127548   0.336   6.383   2.846
 8883SOL    HW227549   0.209   6.474   2.797
 8884SOL     OW27550   4.317   2.847   5.810
 8884SOL    HW127551   4.305   2.794   5.894
 8884SOL    HW227552   4.368   2.930   5.830
 8885SOL     OW27553   5.617   5.097   0.836
 8885SOL    HW127554   5.518   5.100   0.820
 8885SOL    HW227555   5.660   5.178   0.797
 8886SOL     OW27556   5.058   6.719   6.884
 8886SOL    HW127557   5.111   6.664   6.949
 8886SOL    HW227558   4.973   6.671   6.862
 8887SOL     OW27559   3.695   0.451   1.594
 8887SOL    HW127560   3.678   0.433   1.497
 8887SOL    HW227561   3.780   0.503   1.603
 8888SOL     OW27562   3.504   2.052   2.248
 8888SOL    HW127563   3.562   2.116   2.198
 8888SOL    HW227564   3.535   1.958   2.231
 8889SOL     OW27565   1.360   4.744   0.206
 8889SOL    HW127566   1.413   4.799   0.141
 8889SOL    HW227567   1.422   4.705   0.274
 8890SOL     OW27568   1.568   5.832   0.125
 8890SOL    HW127569   1.515   5.889   0.188
 8890SOL    HW227570   1.590   5.885   0.043
 8891SOL     OW27571   6.281   3.511   5.017
 8891SOL    HW127572   6.281   3.432   4.956
 8891SOL    HW227573   6.361   3.508   5.076
 8892SOL     OW27574   2.653   5.210   4.543
 8892SOL    HW127575   2.650   5.170   4.635
 8892SOL    HW227576   2.682   5.306   4.550
 8893SOL     OW27577   0.530   4.640   5.429
 8893SOL    HW127578   0.437   4.660   5.398
 8893SOL    HW227579   0.536   4.546   5.462
 8894SOL     OW27580   5.116   2.494   1.792
 8894SOL    HW127581   5.195   2.436   1.813
 8894SOL    HW227582   5.091   2.483   1.695
 8895SOL     OW27583   6.369   3.660   1.018
 8895SOL    HW127584   6.403   3.724   0.949
 8895SOL    HW227585   6.270   3.657   1.016
 8896SOL     OW27586   0.944   1.197   3.422
 8896SOL    HW127587   1.026   1.165   3.469
 8896SOL    HW227588   0.871   1.130   3.435
 8897SOL     OW27589   1.777   5.558   4.396
 8897SOL    HW127590   1.736   5.618   4.465
 8897SOL    HW227591   1.802   5.471   4.439
 8898SOL     OW27592   5.258   4.206   2.509
 8898SOL    HW127593   5.171   4.240   2.475
 8898SOL    HW227594   5.291   4.266   2.581
 8899SOL     OW27595   2.087   3.857   2.308
 8899SOL    HW127596   2.056   3.793   2.378
 8899SOL    HW227597   2.020   3.859   2.233
 8900SOL     OW27598   4.059   1.674   4.417
 8900SOL    HW127599   4.043   1.727   4.500
 8900SOL    HW227600   4.076   1.735   4.340
 8901SOL     OW27601   1.531   5.277   4.957
 8901SOL    HW127602   1.623   5.259   4.924
 8901SOL    HW227603   1.499   5.199   5.012
 8902SOL     OW27604   0.587   4.935   6.617
 8902SOL    HW127605   0.608   4.947   6.714
 8902SOL    HW227606   0.579   5.024   6.573
 8903SOL     OW27607   0.853   0.548   4.978
 8903SOL    HW127608   0.832   0.514   4.886
 8903SOL    HW227609   0.950   0.571   4.983
 8904SOL     OW27610   0.340   0.808   3.223
 8904SOL    HW127611   0.375   0.788   3.132
 8904SOL    HW227612   0.241   0.795   3.224
 8905SOL     OW27613   1.976   4.261   1.341
 8905SOL    HW127614   1.975   4.172   1.295
 8905SOL    HW227615   1.987   4.248   1.439
 8906SOL     OW27616   6.264   0.524   6.993
 8906SOL    HW127617   6.284   0.618   6.968
 8906SOL    HW227618   6.288   0.509   0.066
 8907SOL     OW27619   2.922   3.152   5.048
 8907SOL    HW127620   2.835   3.124   5.008
 8907SOL    HW227621   2.958   3.078   5.105
 8908SOL     OW27622   1.655   4.998   6.030
 8908SOL    HW127623   1.565   5.006   5.988
 8908SOL    HW227624   1.690   5.089   6.052
 8909SOL     OW27625   2.343   5.798   2.007
 8909SOL    HW127626   2.265   5.748   2.043
 8909SOL    HW227627   2.404   5.735   1.959
 8910SOL     OW27628   1.165   0.988   3.828
 8910SOL    HW127629   1.203   0.911   3.879
 8910SOL    HW227630   1.124   0.954   3.743
 8911SOL     OW27631   5.351   2.841   4.783
 8911SOL    HW127632   5.345   2.914   4.715
 8911SOL    HW227633   5.259   2.819   4.817
 8912SOL     OW27634   3.308   2.962   3.726
 8912SOL    HW127635   3.389   3.021   3.724
 8912SOL    HW227636   3.309   2.907   3.809
 8913SOL     OW27637   5.129   5.593   1.301
 8913SOL    HW127638   5.160   5.586   1.396
 8913SOL    HW227639   5.160   5.513   1.249
 8914SOL     OW27640   4.654   5.977   5.596
 8914SOL    HW127641   4.679   6.062   5.550
 8914SOL    HW227642   4.722   5.956   5.666
 8915SOL     OW27643   2.171   0.906   3.862
 8915SOL    HW127644   2.229   0.937   3.937
 8915SOL    HW227645   2.089   0.963   3.858
 8916SOL     OW27646   5.783   1.124   2.299
 8916SOL    HW127647   5.749   1.127   2.392
 8916SOL    HW227648   5.711   1.094   2.237
 8917SOL     OW27649   5.561   1.998   0.578
 8917SOL    HW127650   5.498   1.935   0.533
 8917SOL    HW227651   5.604   2.057   0.509
 8918SOL     OW27652   1.000   3.652   2.260
 8918SOL    HW127653   0.982   3.739   2.214
 8918SOL    HW227654   0.978   3.661   2.358
 8919SOL     OW27655   6.563   2.794   2.478
 8919SOL    HW127656   6.545   2.783   2.575
 8919SOL    HW227657   6.531   2.712   2.429
 8920SOL     OW27658   1.097   1.640   0.451
 8920SOL    HW127659   1.015   1.593   0.483
 8920SOL    HW227660   1.109   1.725   0.502
 8921SOL     OW27661   0.941   3.209   1.559
 8921SOL    HW127662   1.019   3.212   1.622
 8921SOL    HW227663   0.968   3.162   1.475
 8922SOL     OW27664   2.913   4.868   3.171
 8922SOL    HW127665   2.894   4.966   3.178
 8922SOL    HW227666   2.973   4.841   3.247
 8923SOL     OW27667   2.636   1.225   3.513
 8923SOL    HW127668   2.704   1.260   3.577
 8923SOL    HW227669   2.544   1.245   3.548
 8924SOL     OW27670   6.163   5.016   4.658
 8924SOL    HW127671   6.157   5.105   4.704
 8924SOL    HW227672   6.085   5.005   4.596
 8925SOL     OW27673   0.724   6.752   3.827
 8925SOL    HW127674   0.689   6.790   3.912
 8925SOL    HW227675   0.667   6.675   3.798
 8926SOL     OW27676   6.141   1.748   6.878
 8926SOL    HW127677   6.070   1.779   6.941
 8926SOL    HW227678   6.225   1.728   6.930
 8927SOL     OW27679   1.355   1.137   6.432
 8927SOL    HW127680   1.346   1.083   6.348
 8927SOL    HW227681   1.383   1.230   6.409
 8928SOL     OW27682   1.645   7.004   5.582
 8928SOL    HW127683   1.638   0.015   5.489
 8928SOL    HW227684   1.740   7.012   5.614
 8929SOL     OW27685   0.136   1.925   3.376
 8929SOL    HW127686   0.155   1.956   3.282
 8929SOL    HW227687   0.094   1.835   3.373
 8930SOL     OW27688   2.361   5.141   3.304
 8930SOL    HW127689   2.280   5.099   3.346
 8930SOL    HW227690   2.392   5.217   3.360
 8931SOL     OW27691   4.282   3.307   0.055
 8931SOL    HW127692   4.327   3.396   0.044
 8931SOL    HW227693   4.197   3.305   0.004
 8932SOL     OW27694   0.771   3.953   3.246
 8932SOL    HW127695   0.861   3.940   3.202
 8932SOL    HW227696   0.723   3.865   3.249
 8933SOL     OW27697   4.829   1.959   6.510
 8933SOL    HW127698   4.775   1.910   6.579
 8933SOL    HW227699   4.802   1.927   6.419
 8934SOL     OW27700   2.692   5.989   3.037
 8934SOL    HW127701   2.617   6.019   3.095
 8934SOL    HW227702   2.656   5.940   2.958
 8935SOL     OW27703   6.873   5.296   6.958
 8935SOL    HW127704   6.958   5.334   6.994
 8935SOL    HW227705   6.800   5.364   6.966
 8936SOL     OW27706   3.778   2.805   1.038
 8936SOL    HW127707   3.730   2.846   1.116
 8936SOL    HW227708   3.875   2.830   1.041
 8937SOL     OW27709   1.020   0.645   6.182
 8937SOL    HW127710   1.061   0.705   6.251
 8937SOL    HW227711   1.027   0.689   6.092
 8938SOL     OW27712   4.586   6.126   1.813
 8938SOL    HW127713   4.626   6.045   1.770
 8938SOL    HW227714   4.502   6.151   1.766
 8939SOL     OW27715   5.702   2.291   4.797
 8939SOL    HW127716   5.646   2.278   4.715
 8939SOL    HW227717   5.659   2.245   4.874
 8940SOL     OW27718   5.949   6.994   2.627
 8940SOL    HW127719   5.996   0.057   2.649
 8940SOL    HW227720   5.918   6.997   2.531
 8941SOL     OW27721   4.038   1.399   6.740
 8941SOL    HW127722   3.983   1.412   6.823
 8941SOL    HW227723   4.044   1.486   6.691
 8942SOL     OW27724   1.189   2.139   5.273
 8942SOL    HW127725   1.207   2.237   5.281
 8942SOL    HW227726   1.226   2.106   5.186
 8943SOL     OW27727   5.413   3.498   0.984
 8943SOL    HW127728   5.391   3.443   0.904
 8943SOL    HW227729   5.377   3.590   0.972
 8944SOL     OW27730   4.274   6.065   1.338
 8944SOL    HW127731   4.325   6.085   1.254
 8944SOL    HW227732   4.338   6.041   1.411
 8945SOL     OW27733   2.230   1.091   4.275
 8945SOL    HW127734   2.246   1.189   4.263
 8945SOL    HW227735   2.224   1.047   4.186
 8946SOL     OW27736   4.264   0.555   4.710
 8946SOL    HW127737   4.208   0.638   4.707
 8946SOL    HW227738   4.300   0.542   4.802
 8947SOL     OW27739   3.898   4.185   5.175
 8947SOL    HW127740   3.977   4.245   5.162
 8947SOL    HW227741   3.834   4.227   5.239
 8948SOL     OW27742   5.670   5.108   3.223
 8948SOL    HW127743   5.571   5.121   3.218
 8948SOL    HW227744   5.697   5.089   3.317
 8949SOL     OW27745   1.490   5.438   5.883
 8949SOL    HW127746   1.463   5.526   5.923
 8949SOL    HW227747   1.554   5.391   5.944
 8950SOL     OW27748   4.820   2.872   4.800
 8950SOL    HW127749   4.843   2.957   4.752
 8950SOL    HW227750   4.781   2.807   4.735
 8951SOL     OW27751   2.776   2.277   5.627
 8951SOL    HW127752   2.760   2.223   5.710
 8951SOL    HW227753   2.871   2.308   5.626
 8952SOL     OW27754   6.411   6.664   3.523
 8952SOL    HW127755   6.500   6.619   3.509
 8952SOL    HW227756   6.417   6.759   3.492
 8953SOL     OW27757   1.712   5.253   5.997
 8953SOL    HW127758   1.787   5.199   5.960
 8953SOL    HW227759   1.747   5.318   6.065
 8954SOL     OW27760   2.454   6.220   5.893
 8954SOL    HW127761   2.398   6.168   5.957
 8954SOL    HW227762   2.429   6.317   5.899
 8955SOL     OW27763   6.818   3.612   4.441
 8955SOL    HW127764   6.767   3.543   4.390
 8955SOL    HW227765   6.783   3.703   4.419
 8956SOL     OW27766   1.035   0.646   4.628
 8956SOL    HW127767   1.099   0.587   4.676
 8956SOL    HW227768   0.943   0.607   4.633
 8957SOL     OW27769   2.958   6.129   1.593
 8957SOL    HW127770   2.957   6.068   1.514
 8957SOL    HW227771   2.865   6.150   1.620
 8958SOL     OW27772   2.713   0.206   4.532
 8958SOL    HW127773   2.635   0.218   4.471
 8958SOL    HW227774   2.681   0.198   4.627
 8959SOL     OW27775   3.772   5.630   0.157
 8959SOL    HW127776   3.692   5.607   0.211
 8959SOL    HW227777   3.854   5.625   0.214
 8960SOL     OW27778   4.173   6.063   0.832
 8960SOL    HW127779   4.130   6.147   0.865
 8960SOL    HW227780   4.139   5.986   0.886
 8961SOL     OW27781   0.977   2.987   4.042
 8961SOL    HW127782   0.999   3.043   4.122
 8961SOL    HW227783   1.053   2.926   4.021
 8962SOL     OW27784   4.982   0.767   3.862
 8962SOL    HW127785   4.910   0.818   3.908
 8962SOL    HW227786   4.998   0.804   3.771
 8963SOL     OW27787   0.516   1.032   3.753
 8963SOL    HW127788   0.500   1.129   3.770
 8963SOL    HW227789   0.615   1.014   3.749
 8964SOL     OW27790   6.882   3.426   3.000
 8964SOL    HW127791   6.921   3.504   3.049
 8964SOL    HW227792   6.787   3.446   2.976
 8965SOL     OW27793   1.703   4.995   1.419
 8965SOL    HW127794   1.744   4.999   1.510
 8965SOL    HW227795   1.707   4.901   1.385
 8966SOL     OW27796   3.802   1.984   5.251
 8966SOL    HW127797   3.847   2.003   5.164
 8966SOL    HW227798   3.703   1.972   5.236
 8967SOL     OW27799   5.399   6.188   0.847
 8967SOL    HW127800   5.319   6.131   0.867
 8967SOL    HW227801   5.460   6.137   0.785
 8968SOL     OW27802   5.154   4.379   3.185
 8968SOL    HW127803   5.241   4.427   3.170
 8968SOL    HW227804   5.161   4.323   3.267
 8969SOL     OW27805   6.555   0.385   4.495
 8969SOL    HW127806   6.483   0.434   4.446
 8969SOL    HW227807   6.606   0.450   4.552
 8970SOL     OW27808   2.865   2.292   1.443
 8970SOL    HW127809   2.920   2.309   1.525
 8970SOL    HW227810   2.769   2.286   1.467
 8971SOL     OW27811   4.024   6.281   2.582
 8971SOL    HW127812   3.987   6.325   2.500
 8971SOL    HW227813   3.950   6.236   2.632
 8972SOL     OW27814   5.064   0.484   4.939
 8972SOL    HW127815   5.102   0.394   4.918
 8972SOL    HW227816   5.083   0.506   5.035
 8973SOL     OW27817   1.959   5.130   5.953
 8973SOL    HW127818   1.987   5.181   5.872
 8973SOL    HW227819   2.015   5.048   5.962
 8974SOL     OW27820   0.812   2.927   3.821
 8974SOL    HW127821   0.796   2.839   3.865
 8974SOL    HW227822   0.873   2.982   3.877
 8975SOL     OW27823   3.717   0.892   6.054
 8975SOL    HW127824   3.651   0.820   6.077
 8975SOL    HW227825   3.758   0.927   6.138
 8976SOL     OW27826   1.688   5.410   4.182
 8976SOL    HW127827   1.726   5.497   4.214
 8976SOL    HW227828   1.683   5.346   4.258
 8977SOL     OW27829   5.550   1.399   6.745
 8977SOL    HW127830   5.539   1.302   6.766
 8977SOL    HW227831   5.514   1.418   6.654
 8978SOL     OW27832   6.059   4.931   1.420
 8978SOL    HW127833   6.147   4.934   1.373
 8978SOL    HW227834   6.069   4.967   1.513
 8979SOL     OW27835   1.196   4.409   5.145
 8979SOL    HW127836   1.177   4.346   5.070
 8979SOL    HW227837   1.183   4.362   5.232
 8980SOL     OW27838   4.106   3.426   4.573
 8980SOL    HW127839   4.077   3.366   4.499
 8980SOL    HW227840   4.192   3.392   4.612
 8981SOL     OW27841   2.636   1.698   5.299
 8981SOL    HW127842   2.650   1.776   5.361
 8981SOL    HW227843   2.620   1.732   5.207
 8982SOL     OW27844   3.532   4.325   0.563
 8982SOL    HW127845   3.450   4.376   0.538
 8982SOL    HW227846   3.560   4.267   0.486
 8983SOL     OW27847   4.636   4.600   0.934
 8983SOL    HW127848   4.613   4.558   0.846
 8983SOL    HW227849   4.614   4.537   1.008
 8984SOL     OW27850   1.481   6.442   3.301
 8984SOL    HW127851   1.439   6.530   3.325
 8984SOL    HW227852   1.536   6.410   3.378
 8985SOL     OW27853   3.150   3.427   6.010
 8985SOL    HW127854   3.070   3.385   5.966
 8985SOL    HW227855   3.228   3.424   5.947
 8986SOL     OW27856   3.070   6.543   2.281
 8986SOL    HW127857   3.044   6.592   2.198
 8986SOL    HW227858   3.125   6.463   2.257
 8987SOL     OW27859   5.360   6.707   2.306
 8987SOL    HW127860   5.344   6.805   2.311
 8987SOL    HW227861   5.457   6.690   2.289
 8988SOL     OW27862   0.862   4.704   4.771
 8988SOL    HW127863   0.883   4.765   4.695
 8988SOL    HW227864   0.872   4.609   4.742
 8989SOL     OW27865   2.433   2.491   6.762
 8989SOL    HW127866   2.358   2.476   6.827
 8989SOL    HW227867   2.468   2.402   6.731
 8990SOL     OW27868   6.865   5.247   3.434
 8990SOL    HW127869   6.785   5.188   3.423
 8990SOL    HW227870   6.895   5.245   3.529
 8991SOL     OW27871   1.475   2.117   5.256
 8991SOL    HW127872   1.555   2.161   5.215
 8991SOL    HW227873   1.414   2.085   5.184
 8992SOL     OW27874   6.937   2.405   1.171
 8992SOL    HW127875   0.006   2.385   1.205
 8992SOL    HW227876   6.921   2.355   1.086
 8993SOL     OW27877   3.775   2.336   0.651
 8993SOL    HW127878   3.685   2.307   0.617
 8993SOL    HW227879   3.808   2.413   0.597
 8994SOL     OW27880   1.771   5.568   2.457
 8994SOL    HW127881   1.822   5.517   2.526
 8994SOL    HW227882   1.827   5.576   2.374
 8995SOL     OW27883   0.450   0.248   1.474
 8995SOL    HW127884   0.526   0.207   1.524
 8995SOL    HW227885   0.365   0.200   1.497
 8996SOL     OW27886   4.028   6.624   5.791
 8996SOL    HW127887   4.095   6.697   5.778
 8996SOL    HW227888   3.937   6.658   5.768
 8997SOL     OW27889   6.271   0.511   4.806
 8997SOL    HW127890   6.315   0.508   4.716
 8997SOL    HW227891   6.340   0.502   4.877
 8998SOL     OW27892   6.801   4.089   4.297
 8998SOL    HW127893   6.791   4.108   4.199
 8998SOL    HW227894   6.891   4.050   4.314
 8999SOL     OW27895   4.154   6.551   6.027
 8999SOL    HW127896   4.111   6.567   5.938
 8999SOL    HW227897   4.212   6.629   6.050
 9000SOL     OW27898   1.185   3.931   1.483
 9000SOL    HW127899   1.228   3.842   1.466
 9000SOL    HW227900   1.184   3.984   1.399
 9001SOL     OW27901   1.221   5.499   1.088
 9001SOL    HW127902   1.225   5.408   1.130
 9001SOL    HW227903   1.257   5.494   0.995
 9002SOL     OW27904   0.258   4.991   6.298
 9002SOL    HW127905   0.292   4.946   6.216
 9002SOL    HW227906   0.239   5.088   6.278
 9003SOL     OW27907   5.603   6.883   0.626
 9003SOL    HW127908   5.649   6.919   0.545
 9003SOL    HW227909   5.561   6.795   0.604
 9004SOL     OW27910   5.841   4.718   1.505
 9004SOL    HW127911   5.816   4.774   1.584
 9004SOL    HW227912   5.890   4.775   1.438
 9005SOL     OW27913   5.391   0.786   5.524
 9005SOL    HW127914   5.388   0.789   5.424
 9005SOL    HW227915   5.472   0.735   5.553
 9006SOL     OW27916   4.232   5.693   0.327
 9006SOL    HW127917   4.253   5.758   0.400
 9006SOL    HW227918   4.315   5.644   0.302
 9007SOL     OW27919   1.385   0.881   3.099
 9007SOL    HW127920   1.385   0.974   3.136
 9007SOL    HW227921   1.455   0.874   3.028
 9008SOL     OW27922   0.181   5.581   2.095
 9008SOL    HW127923   0.223   5.575   2.186
 9008SOL    HW227924   0.082   5.573   2.104
 9009SOL     OW27925   3.310   6.803   2.135
 9009SOL    HW127926   3.383   6.813   2.067
 9009SOL    HW227927   3.223   6.832   2.095
 9010SOL     OW27928   1.638   5.712   4.601
 9010SOL    HW127929   1.633   5.670   4.691
 9010SOL    HW227930   1.545   5.721   4.563
 9011SOL     OW27931   1.948   2.103   2.331
 9011SOL    HW127932   2.042   2.069   2.331
 9011SOL    HW227933   1.898   2.064   2.409
 9012SOL     OW27934   2.538   5.988   6.923
 9012SOL    HW127935   2.471   5.942   6.864
 9012SOL    HW227936   2.626   5.994   6.875
 9013SOL     OW27937   1.909   0.033   4.566
 9013SOL    HW127938   1.912   7.001   4.650
 9013SOL    HW227939   1.852   7.010   4.498
 9014SOL     OW27940   5.601   3.178   3.890
 9014SOL    HW127941   5.529   3.137   3.833
 9014SOL    HW227942   5.565   3.196   3.981
 9015SOL     OW27943   4.404   0.228   6.273
 9015SOL    HW127944   4.354   0.298   6.222
 9015SOL    HW227945   4.363   0.217   6.363
 9016SOL     OW27946   4.655   5.320   5.833
 9016SOL    HW127947   4.719   5.263   5.884
 9016SOL    HW227948   4.651   5.411   5.874
 9017SOL     OW27949   3.735   6.961   5.309
 9017SOL    HW127950   3.689   0.012   5.359
 9017SOL    HW227951   3.679   6.878   5.313
 9018SOL     OW27952   3.547   4.507   0.296
 9018SOL    HW127953   3.469   4.493   0.355
 9018SOL    HW227954   3.617   4.560   0.345
 9019SOL     OW27955   0.637   3.445   3.465
 9019SOL    HW127956   0.558   3.474   3.520
 9019SOL    HW227957   0.698   3.390   3.521
 9020SOL     OW27958   5.218   4.707   3.207
 9020SOL    HW127959   5.201   4.796   3.250
 9020SOL    HW227960   5.151   4.641   3.241
 9021SOL     OW27961   0.507   1.325   3.798
 9021SOL    HW127962   0.545   1.382   3.872
 9021SOL    HW227963   0.511   1.376   3.712
 9022SOL     OW27964   4.071   3.816   6.328
 9022SOL    HW127965   4.146   3.754   6.306
 9022SOL    HW227966   4.069   3.889   6.260
 9023SOL     OW27967   6.977   4.637   0.513
 9023SOL    HW127968   0.005   4.550   0.512
 9023SOL    HW227969   0.005   4.704   0.567
 9024SOL     OW27970   2.091   5.370   6.213
 9024SOL    HW127971   2.139   5.353   6.127
 9024SOL    HW227972   2.040   5.288   6.240
 9025SOL     OW27973   0.895   6.073   1.372
 9025SOL    HW127974   0.919   6.001   1.307
 9025SOL    HW227975   0.818   6.043   1.429
 9026SOL     OW27976   5.352   1.255   0.461
 9026SOL    HW127977   5.262   1.258   0.505
 9026SOL    HW227978   5.422   1.277   0.528
 9027SOL     OW27979   0.782   3.969   3.711
 9027SOL    HW127980   0.687   3.948   3.686
 9027SOL    HW227981   0.841   3.959   3.631
 9028SOL     OW27982   3.110   4.718   6.504
 9028SOL    HW127983   3.182   4.740   6.570
 9028SOL    HW227984   3.068   4.802   6.471
 9029SOL     OW27985   4.596   6.845   4.231
 9029SOL    HW127986   4.651   6.926   4.211
 9029SOL    HW227987   4.632   6.767   4.180
 9030SOL     OW27988   3.223   2.054   2.256
 9030SOL    HW127989   3.320   2.072   2.239
 9030SOL    HW227990   3.172   2.061   2.170
 9031SOL     OW27991   4.875   6.993   5.119
 9031SOL    HW127992   4.892   6.897   5.139
 9031SOL    HW227993   4.777   7.006   5.101
 9032SOL     OW27994   5.318   2.440   1.370
 9032SOL    HW127995   5.396   2.395   1.414
 9032SOL    HW227996   5.338   2.452   1.273
 9033SOL     OW27997   0.928   6.406   2.798
 9033SOL    HW127998   1.008   6.397   2.858
 9033SOL    HW227999   0.955   6.384   2.704
 9034SOL     OW28000   4.760   6.847   4.484
 9034SOL    HW128001   4.705   6.818   4.406
 9034SOL    HW228002   4.714   6.921   4.532
 9035SOL     OW28003   3.054   5.365   6.214
 9035SOL    HW128004   3.018   5.397   6.126
 9035SOL    HW228005   3.147   5.332   6.202
 9036SOL     OW28006   1.015   4.614   5.240
 9036SOL    HW128007   1.095   4.554   5.234
 9036SOL    HW228008   0.957   4.584   5.315
 9037SOL     OW28009   0.066   0.790   2.216
 9037SOL    HW128010   7.023   0.761   2.286
 9037SOL    HW228011   0.017   0.814   2.132
 9038SOL     OW28012   3.954   3.676   5.761
 9038SOL    HW128013   3.929   3.579   5.756
 9038SOL    HW228014   3.952   3.715   5.669
 9039SOL     OW28015   4.411   6.417   6.564
 9039SOL    HW128016   4.493   6.452   6.610
 9039SOL    HW228017   4.410   6.317   6.569
 9040SOL     OW28018   1.718   2.507   1.694
 9040SOL    HW128019   1.815   2.494   1.718
 9040SOL    HW228020   1.662   2.493   1.775
 9041SOL     OW28021   5.703   2.056   2.945
 9041SOL    HW128022   5.759   2.041   3.026
 9041SOL    HW228023   5.606   2.041   2.969
 9042SOL     OW28024   4.797   5.621   6.974
 9042SOL    HW128025   4.896   5.620   6.957
 9042SOL    HW228026   4.779   5.628   0.049
 9043SOL     OW28027   2.643   2.557   1.436
 9043SOL    HW128028   2.552   2.525   1.412
 9043SOL    HW228029   2.702   2.479   1.458
 9044SOL     OW28030   0.933   0.671   0.408
 9044SOL    HW128031   0.992   0.750   0.396
 9044SOL    HW228032   0.838   0.700   0.415
 9045SOL     OW28033   4.161   0.953   3.708
 9045SOL    HW128034   4.206   1.042   3.710
 9045SOL    HW228035   4.211   0.892   3.646
 9046SOL     OW28036   3.521   2.852   2.167
 9046SOL    HW128037   3.555   2.946   2.169
 9046SOL    HW228038   3.569   2.800   2.096
 9047SOL     OW28039   0.925   4.530   6.016
 9047SOL    HW128040   0.937   4.515   5.917
 9047SOL    HW228041   0.988   4.470   6.066
 9048SOL     OW28042   0.177   1.633   5.713
 9048SOL    HW128043   0.078   1.620   5.726
 9048SOL    HW228044   0.198   1.730   5.719
 9049SOL     OW28045   2.152   6.456   5.482
 9049SOL    HW128046   2.091   6.506   5.419
 9049SOL    HW228047   2.245   6.491   5.472
 9050SOL     OW28048   0.660   4.643   0.366
 9050SOL    HW128049   0.582   4.582   0.374
 9050SOL    HW228050   0.727   4.621   0.437
 9051SOL     OW28051   2.130   1.036   1.843
 9051SOL    HW128052   2.167   1.078   1.926
 9051SOL    HW228053   2.094   0.945   1.866
 9052SOL     OW28054   1.839   3.736   6.388
 9052SOL    HW128055   1.758   3.790   6.365
 9052SOL    HW228056   1.821   3.683   6.471
 9053SOL     OW28057   1.070   0.758   6.783
 9053SOL    HW128058   1.029   0.803   6.704
 9053SOL    HW228059   1.161   0.795   6.799
 9054SOL     OW28060   1.473   5.490   2.862
 9054SOL    HW128061   1.458   5.435   2.780
 9054SOL    HW228062   1.571   5.495   2.882
 9055SOL     OW28063   0.651   2.831   5.658
 9055SOL    HW128064   0.722   2.778   5.704
 9055SOL    HW228065   0.619   2.781   5.577
 9056SOL     OW28066   5.980   2.201   3.786
 9056SOL    HW128067   5.933   2.170   3.869
 9056SOL    HW228068   5.940   2.288   3.757
 9057SOL     OW28069   4.819   2.235   3.805
 9057SOL    HW128070   4.721   2.248   3.786
 9057SOL    HW228071   4.830   2.161   3.871
 9058SOL     OW28072   2.472   0.080   5.817
 9058SOL    HW128073   2.540   0.042   5.754
 9058SOL    HW228074   2.409   0.008   5.846
 9059SOL     OW28075   1.007   2.258   3.531
 9059SOL    HW128076   1.023   2.172   3.483
 9059SOL    HW228077   0.923   2.301   3.498
 9060SOL     OW28078   4.774   3.174   5.263
 9060SOL    HW128079   4.807   3.191   5.170
 9060SOL    HW228080   4.843   3.122   5.313
 9061SOL     OW28081   1.846   4.867   3.121
 9061SOL    HW128082   1.900   4.809   3.060
 9061SOL    HW228083   1.810   4.945   3.070
 9062SOL     OW28084   1.782   6.292   1.666
 9062SOL    HW128085   1.767   6.235   1.747
 9062SOL    HW228086   1.847   6.365   1.687
 9063SOL     OW28087   3.087   1.710   2.377
 9063SOL    HW128088   3.044   1.748   2.295
 9063SOL    HW228089   3.052   1.759   2.458
 9064SOL     OW28090   5.089   4.089   6.859
 9064SOL    HW128091   5.062   4.004   6.905
 9064SOL    HW228092   5.122   4.154   6.926
 9065SOL     OW28093   2.973   0.723   1.510
 9065SOL    HW128094   2.993   0.810   1.556
 9065SOL    HW228095   2.973   0.737   1.411
 9066SOL     OW28096   5.302   6.921   6.980
 9066SOL    HW128097   5.219   6.977   6.978
 9066SOL    HW228098   5.280   6.833   7.022
 9067SOL     OW28099   1.358   0.392   1.420
 9067SOL    HW128100   1.318   0.314   1.371
 9067SOL    HW228101   1.288   0.462   1.434
 9068SOL     OW28102   1.808   5.951   6.605
 9068SOL    HW128103   1.750   5.881   6.647
 9068SOL    HW228104   1.784   5.961   6.509
 9069SOL     OW28105   1.312   2.481   6.277
 9069SOL    HW128106   1.400   2.459   6.234
 9069SOL    HW228107   1.309   2.579   6.297
 9070SOL     OW28108   1.379   4.574   3.972
 9070SOL    HW128109   1.408   4.646   3.909
 9070SOL    HW228110   1.438   4.494   3.962
 9071SOL     OW28111   4.903   5.861   6.809
 9071SOL    HW128112   4.847   5.785   6.778
 9071SOL    HW228113   4.957   5.897   6.733
 9072SOL     OW28114   4.854   4.460   0.397
 9072SOL    HW128115   4.864   4.558   0.415
 9072SOL    HW228116   4.844   4.411   0.483
 9073SOL     OW28117   2.532   0.694   1.017
 9073SOL    HW128118   2.484   0.749   1.085
 9073SOL    HW228119   2.479   0.611   0.998
 9074SOL     OW28120   0.419   0.573   2.011
 9074SOL    HW128121   0.446   0.478   1.996
 9074SOL    HW228122   0.363   0.604   1.934
 9075SOL     OW28123   6.965   0.045   1.678
 9075SOL    HW128124   6.878   0.084   1.648
 9075SOL    HW228125   0.014   0.073   1.614
 9076SOL     OW28126   1.100   1.888   5.045
 9076SOL    HW128127   1.162   1.963   5.022
 9076SOL    HW228128   1.109   1.816   4.976
 9077SOL     OW28129   5.827   6.496   2.042
 9077SOL    HW128130   5.729   6.477   2.040
 9077SOL    HW228131   5.844   6.593   2.023
 9078SOL     OW28132   4.807   2.969   5.738
 9078SOL    HW128133   4.736   3.012   5.793
 9078SOL    HW228134   4.886   3.029   5.731
 9079SOL     OW28135   3.368   0.619   5.622
 9079SOL    HW128136   3.286   0.650   5.572
 9079SOL    HW228137   3.401   0.693   5.680
 9080SOL     OW28138   4.598   1.369   6.773
 9080SOL    HW128139   4.662   1.301   6.736
 9080SOL    HW228140   4.646   1.428   6.837
 9081SOL     OW28141   5.388   6.759   3.369
 9081SOL    HW128142   5.336   6.674   3.369
 9081SOL    HW228143   5.348   6.823   3.435
 9082SOL     OW28144   2.517   0.488   2.120
 9082SOL    HW128145   2.552   0.399   2.091
 9082SOL    HW228146   2.439   0.513   2.063
 9083SOL     OW28147   4.555   4.713   3.761
 9083SOL    HW128148   4.625   4.657   3.806
 9083SOL    HW228149   4.493   4.751   3.830
 9084SOL     OW28150   4.058   3.510   2.766
 9084SOL    HW128151   4.060   3.493   2.668
 9084SOL    HW228152   4.088   3.428   2.815
 9085SOL     OW28153   0.933   2.873   0.807
 9085SOL    HW128154   0.969   2.793   0.759
 9085SOL    HW228155   0.838   2.887   0.781
 9086SOL     OW28156   6.680   3.661   6.892
 9086SOL    HW128157   6.660   3.746   6.843
 9086SOL    HW228158   6.760   3.617   6.850
 9087SOL     OW28159   5.307   3.292   2.401
 9087SOL    HW128160   5.258   3.205   2.406
 9087SOL    HW228161   5.384   3.283   2.337
 9088SOL     OW28162   5.661   5.599   1.518
 9088SOL    HW128163   5.578   5.546   1.498
 9088SOL    HW228164   5.636   5.694   1.535
 9089SOL     OW28165   4.416   1.084   5.482
 9089SOL    HW128166   4.371   1.082   5.571
 9089SOL    HW228167   4.362   1.140   5.419
 9090SOL     OW28168   6.041   1.670   3.442
 9090SOL    HW128169   6.068   1.666   3.539
 9090SOL    HW228170   6.043   1.766   3.412
 9091SOL     OW28171   3.988   2.767   5.916
 9091SOL    HW128172   4.024   2.681   5.951
 9091SOL    HW228173   4.004   2.772   5.817
 9092SOL     OW28174   6.880   3.181   5.934
 9092SOL    HW128175   6.938   3.129   5.872
 9092SOL    HW228176   6.887   3.143   6.026
 9093SOL     OW28177   1.907   6.483   4.899
 9093SOL    HW128178   1.963   6.512   4.977
 9093SOL    HW228179   1.827   6.432   4.933
 9094SOL     OW28180   1.693   3.528   0.699
 9094SOL    HW128181   1.639   3.611   0.713
 9094SOL    HW228182   1.786   3.553   0.671
 9095SOL     OW28183   0.013   6.884   6.430
 9095SOL    HW128184   0.052   6.842   6.348
 9095SOL    HW228185   0.060   6.970   6.449
 9096SOL     OW28186   6.038   5.115   3.556
 9096SOL    HW128187   6.126   5.143   3.518
 9096SOL    HW228188   6.051   5.084   3.651
 9097SOL     OW28189   1.344   2.755   6.260
 9097SOL    HW128190   1.341   2.844   6.306
 9097SOL    HW228191   1.261   2.743   6.206
 9098SOL     OW28192   2.158   4.504   4.245
 9098SOL    HW128193   2.188   4.409   4.233
 9098SOL    HW228194   2.210   4.563   4.184
 9099SOL     OW28195   2.308   1.582   0.055
 9099SOL    HW128196   2.278   1.603   0.149
 9099SOL    HW228197   2.293   1.485   0.037
 9100SOL     OW28198   1.587   4.941   4.304
 9100SOL    HW128199   1.673   4.909   4.264
 9100SOL    HW228200   1.572   4.894   4.392
 9101SOL     OW28201   0.309   1.838   0.663
 9101SOL    HW128202   0.263   1.900   0.600
 9101SOL    HW228203   0.365   1.891   0.727
 9102SOL     OW28204   3.668   0.979   3.160
 9102SOL    HW128205   3.743   0.918   3.135
 9102SOL    HW228206   3.670   0.995   3.259
 9103SOL     OW28207   6.220   0.537   1.266
 9103SOL    HW128208   6.267   0.565   1.349
 9103SOL    HW228209   6.269   0.460   1.224
 9104SOL     OW28210   6.360   2.035   6.196
 9104SOL    HW128211   6.292   1.982   6.246
 9104SOL    HW228212   6.321   2.122   6.168
 9105SOL     OW28213   3.045   0.905   6.863
 9105SOL    HW128214   2.946   0.890   6.869
 9105SOL    HW228215   3.076   0.883   6.770
 9106SOL     OW28216   2.331   3.105   6.559
 9106SOL    HW128217   2.288   3.178   6.506
 9106SOL    HW228218   2.304   3.016   6.523
 9107SOL     OW28219   3.477   0.757   0.870
 9107SOL    HW128220   3.435   0.831   0.922
 9107SOL    HW228221   3.509   0.792   0.782
 9108SOL     OW28222   6.674   5.891   5.929
 9108SOL    HW128223   6.665   5.988   5.907
 9108SOL    HW228224   6.604   5.866   5.996
 9109SOL     OW28225   5.331   4.152   2.957
 9109SOL    HW128226   5.402   4.145   2.887
 9109SOL    HW228227   5.243   4.171   2.913
 9110SOL     OW28228   1.221   6.686   2.440
 9110SOL    HW128229   1.206   6.684   2.538
 9110SOL    HW228230   1.183   6.604   2.398
 9111SOL     OW28231   3.916   2.691   5.627
 9111SOL    HW128232   3.943   2.674   5.532
 9111SOL    HW228233   3.831   2.743   5.628
 9112SOL     OW28234   0.657   5.001   2.221
 9112SOL    HW128235   0.712   5.078   2.191
 9112SOL    HW228236   0.609   4.961   2.142
 9113SOL     OW28237   6.030   0.286   4.440
 9113SOL    HW128238   5.953   0.249   4.387
 9113SOL    HW228239   6.007   0.284   4.537
 9114SOL     OW28240   1.518   0.693   6.539
 9114SOL    HW128241   1.430   0.725   6.574
 9114SOL    HW228242   1.504   0.606   6.490
 9115SOL     OW28243   5.419   3.564   5.157
 9115SOL    HW128244   5.480   3.633   5.121
 9115SOL    HW228245   5.348   3.608   5.213
 9116SOL     OW28246   0.994   5.971   3.642
 9116SOL    HW128247   1.070   5.978   3.707
 9116SOL    HW228248   0.954   5.880   3.649
 9117SOL     OW28249   1.925   6.834   0.142
 9117SOL    HW128250   1.947   6.919   0.190
 9117SOL    HW228251   1.971   6.757   0.187
 9118SOL     OW28252   6.711   4.658   1.667
 9118SOL    HW128253   6.623   4.667   1.713
 9118SOL    HW228254   6.726   4.737   1.608
 9119SOL     OW28255   3.619   0.925   1.134
 9119SOL    HW128256   3.611   1.015   1.090
 9119SOL    HW228257   3.699   0.924   1.193
 9120SOL     OW28258   6.552   4.092   4.637
 9120SOL    HW128259   6.552   4.161   4.565
 9120SOL    HW228260   6.607   4.013   4.608
 9121SOL     OW28261   4.146   0.696   4.235
 9121SOL    HW128262   4.162   0.780   4.184
 9121SOL    HW228263   4.231   0.644   4.242
 9122SOL     OW28264   6.964   1.693   2.151
 9122SOL    HW128265   6.971   1.728   2.245
 9122SOL    HW228266   6.932   1.598   2.153
 9123SOL     OW28267   0.694   6.433   4.430
 9123SOL    HW128268   0.663   6.398   4.518
 9123SOL    HW228269   0.628   6.407   4.359
 9124SOL     OW28270   4.016   5.836   0.517
 9124SOL    HW128271   3.991   5.800   0.607
 9124SOL    HW228272   4.046   5.760   0.459
 9125SOL     OW28273   5.459   6.891   1.580
 9125SOL    HW128274   5.516   6.931   1.651
 9125SOL    HW228275   5.362   6.901   1.605
 9126SOL     OW28276   3.946   5.054   0.751
 9126SOL    HW128277   4.044   5.068   0.768
 9126SOL    HW228278   3.934   5.000   0.668
 9127SOL     OW28279   6.673   4.390   5.012
 9127SOL    HW128280   6.698   4.483   5.037
 9127SOL    HW228281   6.592   4.391   4.953
 9128SOL     OW28282   5.625   4.149   6.436
 9128SOL    HW128283   5.619   4.050   6.442
 9128SOL    HW228284   5.554   4.184   6.375
 9129SOL     OW28285   6.763   3.168   0.952
 9129SOL    HW128286   6.675   3.137   0.916
 9129SOL    HW228287   6.835   3.104   0.926
 9130SOL     OW28288   3.236   3.198   5.703
 9130SOL    HW128289   3.294   3.128   5.662
 9130SOL    HW228290   3.291   3.256   5.763
 9131SOL     OW28291   6.095   2.784   0.543
 9131SOL    HW128292   6.142   2.845   0.479
 9131SOL    HW228293   6.002   2.818   0.560
 9132SOL     OW28294   1.234   4.087   3.751
 9132SOL    HW128295   1.197   4.176   3.777
 9132SOL    HW228296   1.295   4.055   3.823
 9133SOL     OW28297   5.194   0.112   0.726
 9133SOL    HW128298   5.145   0.074   0.647
 9133SOL    HW228299   5.215   0.039   0.790
 9134SOL     OW28300   4.656   4.468   6.675
 9134SOL    HW128301   4.722   4.531   6.636
 9134SOL    HW228302   4.573   4.468   6.618
 9135SOL     OW28303   6.676   5.253   2.511
 9135SOL    HW128304   6.702   5.239   2.415
 9135SOL    HW228305   6.581   5.224   2.524
 9136SOL     OW28306   0.902   5.112   6.686
 9136SOL    HW128307   0.993   5.144   6.659
 9136SOL    HW228308   0.907   5.072   6.778
 9137SOL     OW28309   5.594   5.439   6.324
 9137SOL    HW128310   5.681   5.392   6.340
 9137SOL    HW228311   5.599   5.532   6.358
 9138SOL     OW28312   1.706   4.499   6.696
 9138SOL    HW128313   1.759   4.569   6.648
 9138SOL    HW228314   1.622   4.538   6.731
 9139SOL     OW28315   0.056   0.214   1.223
 9139SOL    HW128316   0.000   0.210   1.140
 9139SOL    HW228317   0.152   0.225   1.198
 9140SOL     OW28318   1.591   4.166   2.383
 9140SOL    HW128319   1.547   4.179   2.472
 9140SOL    HW228320   1.592   4.069   2.360
 9141SOL     OW28321   0.317   6.125   4.672
 9141SOL    HW128322   0.363   6.212   4.653
 9141SOL    HW228323   0.295   6.080   4.585
 9142SOL     OW28324   1.493   4.870   3.865
 9142SOL    HW128325   1.496   4.930   3.784
 9142SOL    HW228326   1.580   4.822   3.874
 9143SOL     OW28327   5.838   3.532   2.617
 9143SOL    HW128328   5.898   3.473   2.670
 9143SOL    HW228329   5.756   3.481   2.590
 9144SOL     OW28330   2.501   4.411   5.486
 9144SOL    HW128331   2.454   4.348   5.424
 9144SOL    HW228332   2.496   4.504   5.449
 9145SOL     OW28333   2.816   6.529   6.244
 9145SOL    HW128334   2.807   6.432   6.218
 9145SOL    HW228335   2.892   6.539   6.308
 9146SOL     OW28336   6.130   2.106   4.368
 9146SOL    HW128337   6.128   2.203   4.345
 9146SOL    HW228338   6.044   2.080   4.411
 9147SOL     OW28339   4.417   0.619   6.156
 9147SOL    HW128340   4.485   0.692   6.160
 9147SOL    HW228341   4.366   0.616   6.243
 9148SOL     OW28342   4.028   5.712   2.418
 9148SOL    HW128343   3.993   5.774   2.489
 9148SOL    HW228344   3.955   5.653   2.387
 9149SOL     OW28345   0.334   4.350   1.306
 9149SOL    HW128346   0.430   4.326   1.293
 9149SOL    HW228347   0.295   4.378   1.218
 9150SOL     OW28348   3.154   3.793   0.114
 9150SOL    HW128349   3.202   3.744   0.042
 9150SOL    HW228350   3.079   3.846   0.074
 9151SOL     OW28351   2.109   3.246   4.015
 9151SOL    HW128352   2.035   3.229   3.950
 9151SOL    HW228353   2.129   3.162   4.066
 9152SOL     OW28354   1.835   5.050   1.658
 9152SOL    HW128355   1.798   5.131   1.704
 9152SOL    HW228356   1.798   4.967   1.700
 9153SOL     OW28357   0.492   3.609   0.146
 9153SOL    HW128358   0.493   3.533   0.081
 9153SOL    HW228359   0.585   3.624   0.181
 9154SOL     OW28360   4.418   5.459   2.976
 9154SOL    HW128361   4.419   5.558   2.957
 9154SOL    HW228362   4.420   5.409   2.889
 9155SOL     OW28363   1.009   6.296   2.567
 9155SOL    HW128364   1.005   6.197   2.580
 9155SOL    HW228365   0.993   6.318   2.471
 9156SOL     OW28366   6.913   4.202   5.697
 9156SOL    HW128367   6.942   4.257   5.775
 9156SOL    HW228368   6.925   4.255   5.613
 9157SOL     OW28369   1.795   4.589   5.030
 9157SOL    HW128370   1.845   4.514   4.987
 9157SOL    HW228371   1.730   4.627   4.965
 9158SOL     OW28372   0.238   2.595   4.265
 9158SOL    HW128373   0.170   2.628   4.331
 9158SOL    HW228374   0.309   2.663   4.254
 9159SOL     OW28375   1.930   0.744   3.992
 9159SOL    HW128376   1.946   0.702   3.902
 9159SOL    HW228377   1.917   0.842   3.981
 9160SOL     OW28378   0.438   3.583   6.028
 9160SOL    HW128379   0.357   3.525   6.039
 9160SOL    HW228380   0.516   3.526   6.004
 9161SOL     OW28381   5.792   3.078   2.588
 9161SOL    HW128382   5.718   3.097   2.523
 9161SOL    HW228383   5.759   3.017   2.659
 9162SOL     OW28384   4.632   2.005   2.247
 9162SOL    HW128385   4.565   2.076   2.226
 9162SOL    HW228386   4.618   1.926   2.188
 9163SOL     OW28387   2.000   3.578   3.440
 9163SOL    HW128388   2.019   3.482   3.424
 9163SOL    HW228389   2.024   3.602   3.534
 9164SOL     OW28390   3.458   7.010   0.612
 9164SOL    HW128391   3.522   0.033   0.674
 9164SOL    HW228392   3.364   0.008   0.641
 9165SOL     OW28393   5.961   0.764   6.860
 9165SOL    HW128394   5.998   0.674   6.882
 9165SOL    HW228395   5.880   0.753   6.801
 9166SOL     OW28396   4.366   6.192   1.671
 9166SOL    HW128397   4.269   6.179   1.653
 9166SOL    HW228398   4.409   6.235   1.591
 9167SOL     OW28399   1.155   1.980   4.635
 9167SOL    HW128400   1.127   1.982   4.539
 9167SOL    HW228401   1.232   1.918   4.646
 9168SOL     OW28402   6.299   5.900   4.657
 9168SOL    HW128403   6.326   5.807   4.684
 9168SOL    HW228404   6.207   5.919   4.690
 9169SOL     OW28405   6.255   5.747   0.094
 9169SOL    HW128406   6.265   5.774   0.190
 9169SOL    HW228407   6.329   5.788   0.041
 9170SOL     OW28408   1.909   0.810   5.742
 9170SOL    HW128409   1.930   0.902   5.708
 9170SOL    HW228410   1.989   0.774   5.790
 9171SOL     OW28411   4.142   5.335   0.177
 9171SOL    HW128412   4.125   5.285   0.093
 9171SOL    HW228413   4.077   5.410   0.185
 9172SOL     OW28414   4.995   1.099   6.003
 9172SOL    HW128415   4.987   1.166   5.930
 9172SOL    HW228416   5.092   1.081   6.021
 9173SOL     OW28417   5.803   4.488   5.632
 9173SOL    HW128418   5.871   4.555   5.604
 9173SOL    HW228419   5.821   4.401   5.586
 9174SOL     OW28420   5.895   4.290   0.029
 9174SOL    HW128421   5.852   4.333   0.108
 9174SOL    HW228422   5.968   4.349   7.017
 9175SOL     OW28423   2.158   1.317   1.827
 9175SOL    HW128424   2.140   1.222   1.802
 9175SOL    HW228425   2.084   1.375   1.792
 9176SOL     OW28426   1.609   0.697   2.387
 9176SOL    HW128427   1.519   0.668   2.418
 9176SOL    HW228428   1.672   0.699   2.465
 9177SOL     OW28429   0.619   5.868   3.525
 9177SOL    HW128430   0.696   5.848   3.464
 9177SOL    HW228431   0.547   5.914   3.473
 9178SOL     OW28432   1.252   3.424   0.645
 9178SOL    HW128433   1.324   3.460   0.587
 9178SOL    HW228434   1.287   3.412   0.738
 9179SOL     OW28435   3.855   5.099   2.894
 9179SOL    HW128436   3.953   5.083   2.884
 9179SOL    HW228437   3.804   5.022   2.856
 9180SOL     OW28438   0.249   0.943   5.030
 9180SOL    HW128439   0.171   0.881   5.024
 9180SOL    HW228440   0.303   0.935   4.946
 9181SOL     OW28441   2.742   2.408   3.316
 9181SOL    HW128442   2.707   2.431   3.225
 9181SOL    HW228443   2.798   2.325   3.310
 9182SOL     OW28444   6.466   1.817   2.823
 9182SOL    HW128445   6.463   1.916   2.807
 9182SOL    HW228446   6.379   1.776   2.795
 9183SOL     OW28447   2.781   1.816   5.835
 9183SOL    HW128448   2.686   1.792   5.814
 9183SOL    HW228449   2.829   1.737   5.870
 9184SOL     OW28450   2.866   4.852   1.328
 9184SOL    HW128451   2.878   4.951   1.332
 9184SOL    HW228452   2.955   4.807   1.344
 9185SOL     OW28453   1.122   0.964   5.253
 9185SOL    HW128454   1.054   0.912   5.304
 9185SOL    HW228455   1.212   0.952   5.294
 9186SOL     OW28456   5.877   6.934   6.078
 9186SOL    HW128457   5.865   6.851   6.024
 9186SOL    HW228458   5.800   6.946   6.140
 9187SOL     OW28459   5.332   3.061   1.088
 9187SOL    HW128460   5.312   2.970   1.052
 9187SOL    HW228461   5.249   3.101   1.126
 9188SOL     OW28462   1.081   0.638   2.542
 9188SOL    HW128463   1.081   0.582   2.459
 9188SOL    HW228464   0.990   0.637   2.583
 9189SOL     OW28465   2.873   0.882   6.239
 9189SOL    HW128466   2.791   0.935   6.216
 9189SOL    HW228467   2.846   0.797   6.284
 9190SOL     OW28468   4.061   0.905   5.727
 9190SOL    HW128469   4.146   0.936   5.770
 9190SOL    HW228470   3.983   0.938   5.779
 9191SOL     OW28471   5.745   0.294   1.186
 9191SOL    HW128472   5.648   0.278   1.206
 9191SOL    HW228473   5.763   0.272   1.091
 9192SOL     OW28474   5.074   4.524   4.172
 9192SOL    HW128475   5.097   4.434   4.207
 9192SOL    HW228476   4.985   4.552   4.206
 9193SOL     OW28477   4.001   3.076   2.682
 9193SOL    HW128478   3.907   3.043   2.689
 9193SOL    HW228479   4.031   3.071   2.587
 9194SOL     OW28480   3.108   5.189   3.104
 9194SOL    HW128481   3.067   5.120   3.045
 9194SOL    HW228482   3.043   5.213   3.176
 9195SOL     OW28483   0.783   3.319   3.673
 9195SOL    HW128484   0.785   3.230   3.628
 9195SOL    HW228485   0.689   3.344   3.695
 9196SOL     OW28486   5.384   5.676   3.181
 9196SOL    HW128487   5.392   5.718   3.091
 9196SOL    HW228488   5.468   5.627   3.203
 9197SOL     OW28489   4.397   2.445   6.888
 9197SOL    HW128490   4.401   2.350   6.919
 9197SOL    HW228491   4.305   2.466   6.855
 9198SOL     OW28492   6.333   3.255   5.270
 9198SOL    HW128493   6.236   3.272   5.259
 9198SOL    HW228494   6.365   3.196   5.196
 9199SOL     OW28495   0.974   3.655   6.531
 9199SOL    HW128496   0.925   3.620   6.451
 9199SOL    HW228497   1.004   3.578   6.588
 9200SOL     OW28498   4.681   6.364   1.918
 9200SOL    HW128499   4.664   6.274   1.877
 9200SOL    HW228500   4.723   6.351   2.008
 9201SOL     OW28501   0.034   3.240   2.147
 9201SOL    HW128502   0.005   3.159   2.197
 9201SOL    HW228503   0.126   3.225   2.109
 9202SOL     OW28504   1.916   6.095   3.835
 9202SOL    HW128505   2.005   6.093   3.880
 9202SOL    HW228506   1.906   6.179   3.782
 9203SOL     OW28507   5.372   2.065   0.790
 9203SOL    HW128508   5.332   1.976   0.815
 9203SOL    HW228509   5.423   2.056   0.705
 9204SOL     OW28510   4.828   4.615   2.225
 9204SOL    HW128511   4.927   4.606   2.232
 9204SOL    HW228512   4.787   4.524   2.219
 9205SOL     OW28513   4.367   2.400   1.203
 9205SOL    HW128514   4.336   2.458   1.279
 9205SOL    HW228515   4.288   2.371   1.149
 9206SOL     OW28516   6.978   6.339   5.322
 9206SOL    HW128517   0.048   6.341   5.286
 9206SOL    HW228518   6.915   6.306   5.251
 9207SOL     OW28519   5.312   6.665   0.075
 9207SOL    HW128520   5.322   6.708   0.165
 9207SOL    HW228521   5.252   6.585   0.083
 9208SOL     OW28522   5.313   4.559   1.506
 9208SOL    HW128523   5.398   4.550   1.454
 9208SOL    HW228524   5.306   4.652   1.542
 9209SOL     OW28525   4.968   0.243   4.408
 9209SOL    HW128526   5.011   0.331   4.423
 9209SOL    HW228527   5.031   0.170   4.433
 9210SOL     OW28528   1.092   0.048   6.944
 9210SOL    HW128529   1.114   6.976   6.965
 9210SOL    HW228530   1.008   0.074   6.991
 9211SOL     OW28531   5.284   1.751   6.235
 9211SOL    HW128532   5.282   1.772   6.333
 9211SOL    HW228533   5.248   1.659   6.220
 9212SOL     OW28534   6.157   3.559   6.446
 9212SOL    HW128535   6.100   3.484   6.414
 9212SOL    HW228536   6.252   3.528   6.455
 9213SOL     OW28537   6.936   5.546   2.646
 9213SOL    HW128538   6.959   5.450   2.639
 9213SOL    HW228539   6.851   5.557   2.698
 9214SOL     OW28540   2.182   1.238   6.061
 9214SOL    HW128541   2.123   1.162   6.032
 9214SOL    HW228542   2.179   1.311   5.993
 9215SOL     OW28543   0.107   4.115   3.544
 9215SOL    HW128544   0.207   4.122   3.548
 9215SOL    HW228545   0.077   4.118   3.449
 9216SOL     OW28546   2.409   6.637   4.033
 9216SOL    HW128547   2.406   6.712   3.968
 9216SOL    HW228548   2.498   6.591   4.027
 9217SOL     OW28549   3.188   2.439   0.111
 9217SOL    HW128550   3.176   2.510   0.041
 9217SOL    HW228551   3.138   2.357   0.083
 9218SOL     OW28552   4.349   6.118   5.415
 9218SOL    HW128553   4.377   6.032   5.458
 9218SOL    HW228554   4.251   6.116   5.396
 9219SOL     OW28555   3.845   3.019   6.233
 9219SOL    HW128556   3.819   3.110   6.199
 9219SOL    HW228557   3.817   3.011   6.329
 9220SOL     OW28558   0.840   7.016   3.729
 9220SOL    HW128559   0.786   6.940   3.768
 9220SOL    HW228560   0.782   0.075   3.722
 9221SOL     OW28561   2.729   1.706   2.194
 9221SOL    HW128562   2.769   1.623   2.154
 9221SOL    HW228563   2.680   1.756   2.123
 9222SOL     OW28564   1.968   5.783   3.520
 9222SOL    HW128565   1.894   5.721   3.495
 9222SOL    HW228566   1.993   5.768   3.616
 9223SOL     OW28567   6.201   2.421   4.647
 9223SOL    HW128568   6.213   2.520   4.645
 9223SOL    HW228569   6.198   2.390   4.742
 9224SOL     OW28570   1.718   5.358   2.849
 9224SOL    HW128571   1.751   5.265   2.863
 9224SOL    HW228572   1.796   5.421   2.849
 9225SOL     OW28573   0.435   5.293   5.653
 9225SOL    HW128574   0.458   5.245   5.568
 9225SOL    HW228575   0.337   5.286   5.669
 9226SOL     OW28576   0.916   6.923   4.730
 9226SOL    HW128577   0.840   6.987   4.723
 9226SOL    HW228578   0.886   6.832   4.701
 9227SOL     OW28579   3.906   3.308   0.342
 9227SOL    HW128580   4.005   3.300   0.331
 9227SOL    HW228581   3.883   3.309   0.440
 9228SOL     OW28582   3.874   3.250   5.159
 9228SOL    HW128583   3.965   3.276   5.129
 9228SOL    HW228584   3.881   3.177   5.227
 9229SOL     OW28585   0.229   5.238   0.785
 9229SOL    HW128586   0.200   5.252   0.880
 9229SOL    HW228587   0.260   5.144   0.774
 9230SOL     OW28588   3.398   0.383   6.205
 9230SOL    HW128589   3.332   0.327   6.255
 9230SOL    HW228590   3.440   0.449   6.267
 9231SOL     OW28591   5.928   6.774   1.249
 9231SOL    HW128592   5.857   6.728   1.303
 9231SOL    HW228593   5.893   6.792   1.158
 9232SOL     OW28594   1.067   5.081   2.196
 9232SOL    HW128595   1.062   5.007   2.129
 9232SOL    HW228596   1.119   5.157   2.158
 9233SOL     OW28597   1.246   0.391   5.922
 9233SOL    HW128598   1.339   0.386   5.885
 9233SOL    HW228599   1.212   0.485   5.914
 9234SOL     OW28600   3.330   4.074   6.522
 9234SOL    HW128601   3.338   4.173   6.521
 9234SOL    HW228602   3.407   4.035   6.573
 9235SOL     OW28603   2.302   2.308   3.277
 9235SOL    HW128604   2.225   2.336   3.219
 9235SOL    HW228605   2.375   2.272   3.219
 9236SOL     OW28606   1.942   4.142   6.536
 9236SOL    HW128607   1.985   4.060   6.498
 9236SOL    HW228608   1.946   4.216   6.469
 9237SOL     OW28609   6.857   5.446   3.830
 9237SOL    HW128610   6.884   5.536   3.796
 9237SOL    HW228611   6.880   5.439   3.927
 9238SOL     OW28612   1.507   2.333   5.422
 9238SOL    HW128613   1.490   2.246   5.376
 9238SOL    HW228614   1.594   2.371   5.391
 9239SOL     OW28615   1.730   5.960   6.329
 9239SOL    HW128616   1.748   6.051   6.291
 9239SOL    HW228617   1.806   5.898   6.304
 9240SOL     OW28618   3.920   1.606   4.901
 9240SOL    HW128619   3.868   1.650   4.974
 9240SOL    HW228620   3.859   1.548   4.847
 9241SOL     OW28621   5.624   6.087   0.050
 9241SOL    HW128622   5.593   6.097   6.978
 9241SOL    HW228623   5.711   6.134   0.062
 9242SOL     OW28624   2.524   2.723   6.923
 9242SOL    HW128625   2.535   2.711   7.022
 9242SOL    HW228626   2.469   2.648   6.887
 9243SOL     OW28627   2.345   0.463   0.372
 9243SOL    HW128628   2.422   0.413   0.413
 9243SOL    HW228629   2.265   0.403   0.368
 9244SOL     OW28630   2.841   6.613   0.081
 9244SOL    HW128631   2.802   6.633   7.014
 9244SOL    HW228632   2.830   6.516   0.101
 9245SOL     OW28633   0.833   4.763   2.670
 9245SOL    HW128634   0.780   4.833   2.623
 9245SOL    HW228635   0.871   4.700   2.602
 9246SOL     OW28636   5.204   0.213   0.085
 9246SOL    HW128637   5.295   0.171   0.090
 9246SOL    HW228638   5.182   0.253   0.174
 9247SOL     OW28639   3.186   6.856   2.881
 9247SOL    HW128640   3.214   6.913   2.804
 9247SOL    HW228641   3.264   6.838   2.940
 9248SOL     OW28642   2.995   0.437   6.886
 9248SOL    HW128643   3.027   0.344   6.900
 9248SOL    HW228644   3.073   0.500   6.893
 9249SOL     OW28645   3.871   0.862   0.624
 9249SOL    HW128646   3.949   0.800   0.633
 9249SOL    HW228647   3.863   0.916   0.708
 9250SOL     OW28648   0.481   3.753   2.450
 9250SOL    HW128649   0.411   3.700   2.497
 9250SOL    HW228650   0.440   3.833   2.407
 9251SOL     OW28651   4.069   2.069   1.288
 9251SOL    HW128652   3.990   2.015   1.315
 9251SOL    HW228653   4.142   2.008   1.257
 9252SOL     OW28654   5.451   1.644   4.640
 9252SOL    HW128655   5.499   1.662   4.726
 9252SOL    HW228656   5.515   1.601   4.576
 9253SOL     OW28657   2.452   4.815   3.525
 9253SOL    HW128658   2.431   4.891   3.464
 9253SOL    HW228659   2.502   4.744   3.475
 9254SOL     OW28660   6.826   6.201   2.364
 9254SOL    HW128661   6.886   6.280   2.378
 9254SOL    HW228662   6.850   6.129   2.430
 9255SOL     OW28663   6.690   3.688   0.971
 9255SOL    HW128664   6.667   3.779   1.007
 9255SOL    HW228665   6.698   3.624   1.046
 9256SOL     OW28666   2.644   6.527   1.062
 9256SOL    HW128667   2.642   6.581   0.978
 9256SOL    HW228668   2.615   6.433   1.043
 9257SOL     OW28669   6.415   6.109   4.771
 9257SOL    HW128670   6.429   6.088   4.868
 9257SOL    HW228671   6.382   6.028   4.723
 9258SOL     OW28672   5.383   4.343   2.705
 9258SOL    HW128673   5.362   4.423   2.761
 9258SOL    HW228674   5.481   4.323   2.710
 9259SOL     OW28675   0.935   2.437   6.725
 9259SOL    HW128676   1.004   2.505   6.701
 9259SOL    HW228677   0.861   2.482   6.775
 9260SOL     OW28678   4.930   4.489   4.914
 9260SOL    HW128679   4.898   4.539   4.995
 9260SOL    HW228680   4.930   4.391   4.933
 9261SOL     OW28681   1.754   3.325   1.204
 9261SOL    HW128682   1.765   3.385   1.125
 9261SOL    HW228683   1.800   3.366   1.283
 9262SOL     OW28684   0.771   6.241   6.006
 9262SOL    HW128685   0.732   6.296   5.931
 9262SOL    HW228686   0.816   6.301   6.071
 9263SOL     OW28687   2.552   4.586   2.845
 9263SOL    HW128688   2.601   4.653   2.901
 9263SOL    HW228689   2.507   4.634   2.769
 9264SOL     OW28690   5.087   3.614   5.624
 9264SOL    HW128691   5.058   3.632   5.718
 9264SOL    HW228692   5.163   3.548   5.624
 9265SOL     OW28693   4.819   6.933   2.313
 9265SOL    HW128694   4.853   6.970   2.400
 9265SOL    HW228695   4.734   6.883   2.329
 9266SOL     OW28696   0.517   4.640   1.469
 9266SOL    HW128697   0.579   4.680   1.536
 9266SOL    HW228698   0.433   4.611   1.514
 9267SOL     OW28699   0.110   1.409   3.480
 9267SOL    HW128700   0.197   1.455   3.498
 9267SOL    HW228701   0.093   1.406   3.381
 9268SOL     OW28702   0.554   0.895   1.274
 9268SOL    HW128703   0.533   0.957   1.349
 9268SOL    HW228704   0.545   0.800   1.305
 9269SOL     OW28705   3.117   6.562   0.799
 9269SOL    HW128706   3.131   6.519   0.888
 9269SOL    HW228707   3.158   6.653   0.800
 9270SOL     OW28708   2.304   1.115   5.061
 9270SOL    HW128709   2.392   1.089   5.021
 9270SOL    HW228710   2.246   1.156   4.990
 9271SOL     OW28711   1.460   4.848   5.698
 9271SOL    HW128712   1.441   4.871   5.793
 9271SOL    HW228713   1.377   4.859   5.643
 9272SOL     OW28714   6.717   6.508   5.622
 9272SOL    HW128715   6.681   6.480   5.533
 9272SOL    HW228716   6.770   6.433   5.662
 9273SOL     OW28717   6.473   3.645   3.636
 9273SOL    HW128718   6.511   3.564   3.682
 9273SOL    HW228719   6.548   3.705   3.607
 9274SOL     OW28720   6.940   3.341   0.420
 9274SOL    HW128721   6.989   3.262   0.382
 9274SOL    HW228722   6.842   3.324   0.417
 9275SOL     OW28723   4.708   1.757   0.203
 9275SOL    HW128724   4.730   1.738   0.298
 9275SOL    HW228725   4.687   1.671   0.156
 9276SOL     OW28726   1.754   3.935   0.273
 9276SOL    HW128727   1.782   3.857   0.217
 9276SOL    HW228728   1.670   3.911   0.323
 9277SOL     OW28729   3.135   5.846   2.592
 9277SOL    HW128730   3.206   5.910   2.623
 9277SOL    HW228731   3.048   5.869   2.636
 9278SOL     OW28732   1.032   0.174   5.659
 9278SOL    HW128733   1.100   0.108   5.691
 9278SOL    HW228734   0.941   0.145   5.689
 9279SOL     OW28735   3.626   5.898   1.910
 9279SOL    HW128736   3.532   5.878   1.882
 9279SOL    HW228737   3.656   5.983   1.866
 9280SOL     OW28738   1.473   4.771   1.352
 9280SOL    HW128739   1.540   4.719   1.405
 9280SOL    HW228740   1.446   4.718   1.271
 9281SOL     OW28741   1.310   5.412   0.691
 9281SOL    HW128742   1.379   5.365   0.636
 9281SOL    HW228743   1.355   5.477   0.752
 9282SOL     OW28744   1.782   0.326   4.547
 9282SOL    HW128745   1.816   0.233   4.557
 9282SOL    HW228746   1.854   0.384   4.508
 9283SOL     OW28747   5.159   5.291   6.740
 9283SOL    HW128748   5.229   5.348   6.698
 9283SOL    HW228749   5.178   5.195   6.720
 9284SOL     OW28750   4.353   6.253   1.122
 9284SOL    HW128751   4.385   6.183   1.058
 9284SOL    HW228752   4.415   6.331   1.120
 9285SOL     OW28753   7.018   5.960   3.373
 9285SOL    HW128754   6.968   6.024   3.431
 9285SOL    HW228755   0.040   5.891   3.430
 9286SOL     OW28756   5.301   6.344   1.441
 9286SOL    HW128757   5.229   6.300   1.495
 9286SOL    HW228758   5.282   6.331   1.344
 9287SOL     OW28759   4.433   4.308   0.418
 9287SOL    HW128760   4.415   4.216   0.453
 9287SOL    HW228761   4.377   4.374   0.468
 9288SOL     OW28762   3.950   1.166   2.799
 9288SOL    HW128763   3.854   1.178   2.774
 9288SOL    HW228764   3.964   1.072   2.833
 9289SOL     OW28765   4.431   5.963   2.460
 9289SOL    HW128766   4.431   5.878   2.514
 9289SOL    HW228767   4.359   6.024   2.494
 9290SOL     OW28768   4.920   1.331   3.885
 9290SOL    HW128769   4.992   1.262   3.889
 9290SOL    HW228770   4.954   1.411   3.834
 9291SOL     OW28771   0.594   4.403   5.579
 9291SOL    HW128772   0.509   4.401   5.630
 9291SOL    HW228773   0.668   4.365   5.636
 9292SOL     OW28774   1.768   2.108   7.018
 9292SOL    HW128775   1.673   2.079   7.009
 9292SOL    HW228776   1.799   2.094   0.089
 9293SOL     OW28777   4.813   0.956   5.219
 9293SOL    HW128778   4.726   0.923   5.256
 9293SOL    HW228779   4.887   0.934   5.282
 9294SOL     OW28780   5.131   6.459   5.594
 9294SOL    HW128781   5.134   6.362   5.622
 9294SOL    HW228782   5.093   6.513   5.669
 9295SOL     OW28783   6.427   0.326   2.816
 9295SOL    HW128784   6.369   0.246   2.831
 9295SOL    HW228785   6.517   0.296   2.783
 9296SOL     OW28786   1.910   3.609   5.408
 9296SOL    HW128787   1.901   3.708   5.415
 9296SOL    HW228788   2.002   3.586   5.377
 9297SOL     OW28789   6.707   5.381   2.026
 9297SOL    HW128790   6.779   5.368   1.958
 9297SOL    HW228791   6.635   5.439   1.987
 9298SOL     OW28792   0.132   4.569   6.456
 9298SOL    HW128793   0.050   4.513   6.462
 9298SOL    HW228794   0.145   4.599   6.362
 9299SOL     OW28795   3.045   2.191   4.040
 9299SOL    HW128796   3.111   2.156   3.974
 9299SOL    HW228797   3.017   2.284   4.014
 9300SOL     OW28798   2.804   5.802   6.047
 9300SOL    HW128799   2.805   5.787   5.949
 9300SOL    HW228800   2.882   5.755   6.089
 9301SOL     OW28801   0.210   3.302   4.149
 9301SOL    HW128802   0.214   3.363   4.228
 9301SOL    HW228803   0.190   3.209   4.179
 9302SOL     OW28804   3.045   5.441   3.984
 9302SOL    HW128805   3.030   5.455   4.082
 9302SOL    HW228806   3.117   5.503   3.953
 9303SOL     OW28807   2.602   4.713   7.015
 9303SOL    HW128808   2.567   4.802   6.984
 9303SOL    HW228809   2.529   4.645   7.009
 9304SOL     OW28810   5.869   5.820   5.894
 9304SOL    HW128811   5.841   5.752   5.963
 9304SOL    HW228812   5.788   5.855   5.847
 9305SOL     OW28813   1.912   1.559   1.186
 9305SOL    HW128814   1.888   1.465   1.209
 9305SOL    HW228815   1.903   1.617   1.267
 9306SOL     OW28816   6.844   6.280   4.142
 9306SOL    HW128817   6.824   6.335   4.223
 9306SOL    HW228818   6.843   6.338   4.061
 9307SOL     OW28819   2.042   3.887   0.955
 9307SOL    HW128820   2.045   3.789   0.975
 9307SOL    HW228821   2.081   3.937   1.032
 9308SOL     OW28822   2.379   3.622   1.088
 9308SOL    HW128823   2.421   3.598   1.000
 9308SOL    HW228824   2.410   3.713   1.115
 9309SOL     OW28825   4.046   5.560   5.779
 9309SOL    HW128826   4.133   5.533   5.820
 9309SOL    HW228827   4.014   5.489   5.717
 9310SOL     OW28828   0.019   6.527   6.306
 9310SOL    HW128829   0.015   6.627   6.294
 9310SOL    HW228830   0.114   6.498   6.313
 9311SOL     OW28831   5.586   4.397   0.429
 9311SOL    HW128832   5.540   4.409   0.517
 9311SOL    HW228833   5.621   4.303   0.422
 9312SOL     OW28834   5.657   3.373   4.133
 9312SOL    HW128835   5.583   3.306   4.132
 9312SOL    HW228836   5.732   3.341   4.075
 9313SOL     OW28837   0.271   0.695   1.793
 9313SOL    HW128838   0.304   0.628   1.727
 9313SOL    HW228839   0.254   0.783   1.747
 9314SOL     OW28840   5.097   4.818   1.205
 9314SOL    HW128841   5.082   4.851   1.112
 9314SOL    HW228842   5.012   4.828   1.258
 9315SOL     OW28843   5.908   5.388   5.831
 9315SOL    HW128844   5.885   5.480   5.861
 9315SOL    HW228845   5.979   5.392   5.760
 9316SOL     OW28846   5.158   6.015   0.640
 9316SOL    HW128847   5.207   5.949   0.698
 9316SOL    HW228848   5.145   5.976   0.549
 9317SOL     OW28849   2.806   6.514   3.133
 9317SOL    HW128850   2.879   6.574   3.100
 9317SOL    HW228851   2.775   6.546   3.222
 9318SOL     OW28852   3.149   0.006   3.591
 9318SOL    HW128853   3.146   6.960   3.519
 9318SOL    HW228854   3.212   6.999   3.663
 9319SOL     OW28855   3.783   2.161   0.315
 9319SOL    HW128856   3.704   2.165   0.376
 9319SOL    HW228857   3.800   2.252   0.277
 9320SOL     OW28858   6.666   6.675   0.181
 9320SOL    HW128859   6.649   6.730   0.262
 9320SOL    HW228860   6.718   6.728   0.114
 9321SOL     OW28861   0.936   2.241   3.942
 9321SOL    HW128862   0.998   2.319   3.935
 9321SOL    HW228863   0.989   2.157   3.946
 9322SOL     OW28864   5.368   3.043   0.324
 9322SOL    HW128865   5.344   2.951   0.293
 9322SOL    HW228866   5.355   3.108   0.249
 9323SOL     OW28867   0.942   2.404   5.276
 9323SOL    HW128868   0.850   2.367   5.268
 9323SOL    HW228869   0.984   2.372   5.361
 9324SOL     OW28870   0.543   4.292   1.003
 9324SOL    HW128871   0.587   4.267   1.089
 9324SOL    HW228872   0.463   4.234   0.988
 9325SOL     OW28873   1.283   4.512   3.102
 9325SOL    HW128874   1.292   4.457   3.019
 9325SOL    HW228875   1.373   4.543   3.133
 9326SOL     OW28876   4.846   4.899   1.278
 9326SOL    HW128877   4.764   4.845   1.298
 9326SOL    HW228878   4.834   4.991   1.315
 9327SOL     OW28879   2.267   1.556   3.201
 9327SOL    HW128880   2.340   1.500   3.162
 9327SOL    HW228881   2.304   1.644   3.230
 9328SOL     OW28882   1.198   6.855   3.217
 9328SOL    HW128883   1.243   6.798   3.148
 9328SOL    HW228884   1.121   6.805   3.255
 9329SOL     OW28885   1.710   4.845   6.224
 9329SOL    HW128886   1.676   4.869   6.133
 9329SOL    HW228887   1.634   4.845   6.289
 9330SOL     OW28888   0.480   6.539   0.820
 9330SOL    HW128889   0.505   6.473   0.891
 9330SOL    HW228890   0.391   6.514   0.781
 9331SOL     OW28891   1.825   5.063   4.949
 9331SOL    HW128892   1.758   5.003   4.992
 9331SOL    HW228893   1.910   5.013   4.932
 9332SOL     OW28894   6.060   5.185   0.270
 9332SOL    HW128895   5.964   5.170   0.248
 9332SOL    HW228896   6.067   5.257   0.339
 9333SOL     OW28897   1.646   4.966   0.699
 9333SOL    HW128898   1.622   4.877   0.738
 9333SOL    HW228899   1.638   5.036   0.769
 9334SOL     OW28900   6.884   5.264   0.532
 9334SOL    HW128901   6.979   5.233   0.541
 9334SOL    HW228902   6.855   5.307   0.618
 9335SOL     OW28903   0.249   3.803   0.967
 9335SOL    HW128904   0.155   3.831   0.989
 9335SOL    HW228905   0.303   3.801   1.051
 9336SOL     OW28906   4.208   5.823   5.283
 9336SOL    HW128907   4.285   5.781   5.331
 9336SOL    HW228908   4.240   5.900   5.228
 9337SOL     OW28909   3.329   1.488   4.633
 9337SOL    HW128910   3.265   1.463   4.706
 9337SOL    HW228911   3.279   1.530   4.557
 9338SOL     OW28912   4.874   6.814   0.984
 9338SOL    HW128913   4.801   6.866   0.939
 9338SOL    HW228914   4.848   6.718   0.988
 9339SOL     OW28915   6.939   3.525   5.068
 9339SOL    HW128916   6.840   3.522   5.059
 9339SOL    HW228917   6.981   3.536   4.978
 9340SOL     OW28918   2.394   4.784   2.083
 9340SOL    HW128919   2.342   4.852   2.032
 9340SOL    HW228920   2.340   4.751   2.160
 9341SOL     OW28921   5.957   5.588   0.575
 9341SOL    HW128922   5.971   5.537   0.660
 9341SOL    HW228923   5.923   5.526   0.505
 9342SOL     OW28924   2.749   0.232   5.028
 9342SOL    HW128925   2.812   0.309   5.027
 9342SOL    HW228926   2.675   0.250   5.094
 9343SOL     OW28927   5.375   3.640   1.555
 9343SOL    HW128928   5.321   3.660   1.637
 9343SOL    HW228929   5.461   3.691   1.560
 9344SOL     OW28930   5.967   0.268   4.734
 9344SOL    HW128931   5.997   0.177   4.761
 9344SOL    HW228932   5.956   0.325   4.815
 9345SOL     OW28933   6.928   4.441   6.404
 9345SOL    HW128934   6.852   4.500   6.377
 9345SOL    HW228935   6.901   4.384   6.481
 9346SOL     OW28936   4.942   0.339   2.039
 9346SOL    HW128937   4.962   0.255   2.088
 9346SOL    HW228938   4.846   0.339   2.010
 9347SOL     OW28939   4.787   6.830   1.989
 9347SOL    HW128940   4.705   6.781   2.018
 9347SOL    HW228941   4.770   6.929   1.995
 9348SOL     OW28942   2.035   5.353   1.841
 9348SOL    HW128943   2.078   5.432   1.798
 9348SOL    HW228944   2.059   5.270   1.792
 9349SOL     OW28945   6.326   5.466   1.304
 9349SOL    HW128946   6.402   5.403   1.323
 9349SOL    HW228947   6.263   5.423   1.240
 9350SOL     OW28948   6.476   0.410   6.824
 9350SOL    HW128949   6.381   0.399   6.855
 9350SOL    HW228950   6.537   0.407   6.903
 9351SOL     OW28951   4.783   3.943   6.366
 9351SOL    HW128952   4.814   3.853   6.396
 9351SOL    HW228953   4.729   3.934   6.283
 9352SOL     OW28954   2.638   2.067   0.274
 9352SOL    HW128955   2.639   2.097   0.369
 9352SOL    HW228956   2.550   2.090   0.233
 9353SOL     OW28957   0.935   3.092   2.027
 9353SOL    HW128958   0.873   3.171   2.037
 9353SOL    HW228959   1.008   3.115   1.963
 9354SOL     OW28960   5.418   2.301   2.494
 9354SOL    HW128961   5.405   2.391   2.451
 9354SOL    HW228962   5.457   2.238   2.427
 9355SOL     OW28963   6.900   1.452   2.239
 9355SOL    HW128964   6.806   1.462   2.274
 9355SOL    HW228965   6.959   1.417   2.312
 9356SOL     OW28966   4.621   2.632   2.349
 9356SOL    HW128967   4.640   2.726   2.321
 9356SOL    HW228968   4.637   2.623   2.447
 9357SOL     OW28969   2.530   4.825   6.523
 9357SOL    HW128970   2.608   4.791   6.575
 9357SOL    HW228971   2.446   4.781   6.556
 9358SOL     OW28972   5.243   3.904   2.262
 9358SOL    HW128973   5.192   3.820   2.283
 9358SOL    HW228974   5.183   3.969   2.215
 9359SOL     OW28975   4.665   5.371   6.195
 9359SOL    HW128976   4.568   5.393   6.209
 9359SOL    HW228977   4.715   5.455   6.172
 9360SOL     OW28978   1.279   1.326   5.161
 9360SOL    HW128979   1.354   1.325   5.096
 9360SOL    HW228980   1.194   1.304   5.114
 9361SOL     OW28981   1.881   1.175   2.549
 9361SOL    HW128982   1.881   1.219   2.460
 9361SOL    HW228983   1.963   1.201   2.600
 9362SOL     OW28984   1.601   1.090   2.990
 9362SOL    HW128985   1.540   1.167   3.009
 9362SOL    HW228986   1.654   1.109   2.908
 9363SOL     OW28987   1.350   6.304   1.933
 9363SOL    HW128988   1.304   6.370   1.992
 9363SOL    HW228989   1.444   6.333   1.916
 9364SOL     OW28990   5.373   4.169   1.183
 9364SOL    HW128991   5.316   4.158   1.264
 9364SOL    HW228992   5.389   4.266   1.166
 9365SOL     OW28993   1.996   1.073   3.604
 9365SOL    HW128994   2.068   1.005   3.587
 9365SOL    HW228995   2.038   1.160   3.629
 9366SOL     OW28996   3.045   1.730   1.955
 9366SOL    HW128997   3.005   1.784   2.029
 9366SOL    HW228998   2.986   1.734   1.874
 9367SOL     OW28999   5.668   6.795   3.615
 9367SOL    HW129000   5.707   6.872   3.565
 9367SOL    HW229001   5.568   6.800   3.612
 9368SOL     OW29002   5.139   2.892   0.679
 9368SOL    HW129003   5.177   2.817   0.624
 9368SOL    HW229004   5.093   2.957   0.618
 9369SOL     OW29005   0.273   1.562   5.262
 9369SOL    HW129006   0.356   1.591   5.214
 9369SOL    HW229007   0.234   1.483   5.214
 9370SOL     OW29008   5.534   5.660   2.476
 9370SOL    HW129009   5.500   5.566   2.483
 9370SOL    HW229010   5.474   5.713   2.416
 9371SOL     OW29011   1.487   6.751   0.557
 9371SOL    HW129012   1.552   6.735   0.631
 9371SOL    HW229013   1.450   6.844   0.566
 9372SOL     OW29014   5.498   5.584   0.239
 9372SOL    HW129015   5.570   5.619   0.298
 9372SOL    HW229016   5.528   5.500   0.194
 9373SOL     OW29017   5.311   2.816   4.047
 9373SOL    HW129018   5.224   2.831   3.998
 9373SOL    HW229019   5.339   2.721   4.038
 9374SOL     OW29020   5.063   4.329   6.725
 9374SOL    HW129021   5.028   4.302   6.635
 9374SOL    HW229022   5.070   4.249   6.784
 9375SOL     OW29023   6.273   0.523   4.515
 9375SOL    HW129024   6.211   0.465   4.462
 9375SOL    HW229025   6.286   0.610   4.469
 9376SOL     OW29026   2.300   3.232   1.722
 9376SOL    HW129027   2.347   3.222   1.634
 9376SOL    HW229028   2.337   3.310   1.772
 9377SOL     OW29029   6.497   4.871   3.586
 9377SOL    HW129030   6.449   4.833   3.507
 9377SOL    HW229031   6.434   4.925   3.641
 9378SOL     OW29032   3.998   6.208   0.991
 9378SOL    HW129033   3.906   6.170   0.981
 9378SOL    HW229034   4.023   6.209   1.088
 9379SOL     OW29035   5.369   5.312   5.384
 9379SOL    HW129036   5.313   5.276   5.459
 9379SOL    HW229037   5.359   5.252   5.304
 9380SOL     OW29038   6.045   5.733   5.679
 9380SOL    HW129039   5.986   5.772   5.750
 9380SOL    HW229040   6.018   5.768   5.590
 9381SOL     OW29041   1.477   0.551   7.017
 9381SOL    HW129042   1.470   0.452   7.002
 9381SOL    HW229043   1.572   0.574   0.014
 9382SOL     OW29044   5.530   1.593   2.997
 9382SOL    HW129045   5.591   1.652   2.946
 9382SOL    HW229046   5.435   1.616   2.975
 9383SOL     OW29047   6.603   5.127   6.134
 9383SOL    HW129048   6.557   5.051   6.088
 9383SOL    HW229049   6.535   5.190   6.171
 9384SOL     OW29050   4.027   6.708   3.146
 9384SOL    HW129051   3.962   6.732   3.074
 9384SOL    HW229052   4.058   6.614   3.133
 9385SOL     OW29053   3.852   0.693   3.950
 9385SOL    HW129054   3.905   0.617   3.911
 9385SOL    HW229055   3.869   0.698   4.049
 9386SOL     OW29056   4.118   0.189   5.308
 9386SOL    HW129057   4.087   0.111   5.362
 9386SOL    HW229058   4.152   0.260   5.369
 9387SOL     OW29059   4.693   5.570   0.531
 9387SOL    HW129060   4.650   5.547   0.444
 9387SOL    HW229061   4.777   5.517   0.543
 9388SOL     OW29062   6.711   0.154   2.007
 9388SOL    HW129063   6.770   0.234   1.993
 9388SOL    HW229064   6.730   0.086   1.936
 9389SOL     OW29065   2.776   1.091   0.740
 9389SOL    HW129066   2.850   1.141   0.695
 9389SOL    HW229067   2.726   1.037   0.673
 9390SOL     OW29068   3.657   5.272   1.172
 9390SOL    HW129069   3.604   5.312   1.247
 9390SOL    HW229070   3.595   5.223   1.110
 9391SOL     OW29071   6.192   1.470   4.152
 9391SOL    HW129072   6.184   1.380   4.110
 9391SOL    HW229073   6.180   1.541   4.082
 9392SOL     OW29074   1.004   6.558   4.475
 9392SOL    HW129075   1.086   6.505   4.496
 9392SOL    HW229076   0.930   6.497   4.448
 9393SOL     OW29077   3.975   1.723   5.371
 9393SOL    HW129078   3.926   1.667   5.438
 9393SOL    HW229079   3.909   1.775   5.317
 9394SOL     OW29080   6.340   1.999   2.019
 9394SOL    HW129081   6.304   2.092   2.014
 9394SOL    HW229082   6.389   1.987   2.105
 9395SOL     OW29083   1.979   3.015   6.557
 9395SOL    HW129084   1.881   3.009   6.578
 9395SOL    HW229085   1.992   3.014   6.458
 9396SOL     OW29086   0.050   0.956   6.216
 9396SOL    HW129087   0.136   0.910   6.194
 9396SOL    HW229088   0.004   0.982   6.131
 9397SOL     OW29089   1.965   2.061   0.567
 9397SOL    HW129090   2.061   2.052   0.541
 9397SOL    HW229091   1.928   1.971   0.589
 9398SOL     OW29092   2.299   1.720   1.880
 9398SOL    HW129093   2.349   1.773   1.948
 9398SOL    HW229094   2.229   1.665   1.925
 9399SOL     OW29095   0.195   0.254   5.815
 9399SOL    HW129096   0.216   0.286   5.908
 9399SOL    HW229097   0.186   0.332   5.754
 9400SOL     OW29098   3.629   1.850   3.541
 9400SOL    HW129099   3.574   1.767   3.539
 9400SOL    HW229100   3.699   1.843   3.612
 9401SOL     OW29101   4.674   6.781   3.841
 9401SOL    HW129102   4.757   6.834   3.825
 9401SOL    HW229103   4.694   6.706   3.903
 9402SOL     OW29104   2.671   5.540   6.485
 9402SOL    HW129105   2.632   5.632   6.495
 9402SOL    HW229106   2.762   5.547   6.444
 9403SOL     OW29107   5.808   0.212   4.245
 9403SOL    HW129108   5.725   0.157   4.246
 9403SOL    HW229109   5.794   0.293   4.189
 9404SOL     OW29110   1.446   4.029   5.869
 9404SOL    HW129111   1.380   4.058   5.800
 9404SOL    HW229112   1.525   3.987   5.824
 9405SOL     OW29113   0.765   0.470   1.331
 9405SOL    HW129114   0.686   0.529   1.349
 9405SOL    HW229115   0.832   0.482   1.403
 9406SOL     OW29116   6.756   1.116   5.228
 9406SOL    HW129117   6.708   1.149   5.147
 9406SOL    HW229118   6.693   1.115   5.306
 9407SOL     OW29119   3.672   5.659   3.005
 9407SOL    HW129120   3.720   5.613   3.080
 9407SOL    HW229121   3.574   5.645   3.015
 9408SOL     OW29122   3.786   1.896   6.620
 9408SOL    HW129123   3.701   1.949   6.623
 9408SOL    HW229124   3.840   1.926   6.541
 9409SOL     OW29125   6.106   3.840   3.449
 9409SOL    HW129126   6.085   3.938   3.451
 9409SOL    HW229127   6.025   3.787   3.473
 9410SOL     OW29128   4.491   6.779   1.506
 9410SOL    HW129129   4.542   6.767   1.591
 9410SOL    HW229130   4.545   6.745   1.429
 9411SOL     OW29131   4.849   5.713   2.017
 9411SOL    HW129132   4.852   5.622   2.060
 9411SOL    HW229133   4.773   5.716   1.951
 9412SOL     OW29134   6.215   2.841   3.203
 9412SOL    HW129135   6.301   2.816   3.159
 9412SOL    HW229136   6.234   2.876   3.295
 9413SOL     OW29137   3.797   5.202   3.328
 9413SOL    HW129138   3.727   5.258   3.285
 9413SOL    HW229139   3.755   5.119   3.365
 9414SOL     OW29140   2.193   0.095   2.410
 9414SOL    HW129141   2.254   0.016   2.401
 9414SOL    HW229142   2.201   0.132   2.503
 9415SOL     OW29143   1.766   0.934   2.478
 9415SOL    HW129144   1.832   0.870   2.518
 9415SOL    HW229145   1.790   1.027   2.503
 9416SOL     OW29146   1.527   2.784   1.805
 9416SOL    HW129147   1.511   2.695   1.847
 9416SOL    HW229148   1.586   2.839   1.865
 9417SOL     OW29149   1.587   0.296   4.976
 9417SOL    HW129150   1.501   0.274   5.022
 9417SOL    HW229151   1.577   0.382   4.926
 9418SOL     OW29152   4.808   4.023   0.966
 9418SOL    HW129153   4.873   3.969   1.019
 9418SOL    HW229154   4.716   3.986   0.978
 9419SOL     OW29155   2.681   5.304   3.926
 9419SOL    HW129156   2.759   5.304   3.988
 9419SOL    HW229157   2.686   5.224   3.866
 9420SOL     OW29158   1.908   0.207   4.100
 9420SOL    HW129159   1.817   0.244   4.085
 9420SOL    HW229160   1.946   0.244   4.185
 9421SOL     OW29161   1.894   5.405   4.803
 9421SOL    HW129162   1.922   5.316   4.769
 9421SOL    HW229163   1.949   5.477   4.760
 9422SOL     OW29164   4.238   1.054   3.011
 9422SOL    HW129165   4.324   1.010   3.036
 9422SOL    HW229166   4.239   1.149   3.042
 9423SOL     OW29167   4.599   0.484   4.833
 9423SOL    HW129168   4.528   0.415   4.850
 9423SOL    HW229169   4.680   0.463   4.888
 9424SOL     OW29170   3.432   6.113   4.004
 9424SOL    HW129171   3.379   6.029   3.991
 9424SOL    HW229172   3.385   6.172   4.070
 9425SOL     OW29173   0.736   5.450   3.004
 9425SOL    HW129174   0.694   5.471   3.092
 9425SOL    HW229175   0.698   5.508   2.933
 9426SOL     OW29176   3.678   5.839   0.667
 9426SOL    HW129177   3.694   5.816   0.571
 9426SOL    HW229178   3.711   5.932   0.685
 9427SOL     OW29179   3.323   4.899   3.925
 9427SOL    HW129180   3.249   4.952   3.884
 9427SOL    HW229181   3.318   4.804   3.895
 9428SOL     OW29182   4.849   6.342   2.487
 9428SOL    HW129183   4.758   6.338   2.527
 9428SOL    HW229184   4.855   6.419   2.424
 9429SOL     OW29185   0.775   3.589   2.919
 9429SOL    HW129186   0.836   3.513   2.939
 9429SOL    HW229187   0.729   3.573   2.832
 9430SOL     OW29188   6.004   0.257   1.538
 9430SOL    HW129189   5.954   0.335   1.501
 9430SOL    HW229190   6.021   0.271   1.635
 9431SOL     OW29191   6.507   4.276   6.992
 9431SOL    HW129192   6.571   4.347   6.963
 9431SOL    HW229193   6.461   4.305   0.053
 9432SOL     OW29194   6.557   6.902   4.261
 9432SOL    HW129195   6.483   6.886   4.326
 9432SOL    HW229196   6.522   6.957   4.185
 9433SOL     OW29197   2.487   5.679   3.972
 9433SOL    HW129198   2.514   5.682   3.876
 9433SOL    HW229199   2.420   5.605   3.986
 9434SOL     OW29200   5.574   4.325   3.291
 9434SOL    HW129201   5.511   4.324   3.369
 9434SOL    HW229202   5.523   4.349   3.208
 9435SOL     OW29203   2.337   2.322   4.988
 9435SOL    HW129204   2.435   2.338   5.001
 9435SOL    HW229205   2.289   2.410   4.989
 9436SOL     OW29206   3.168   1.762   5.608
 9436SOL    HW129207   3.130   1.852   5.586
 9436SOL    HW229208   3.267   1.762   5.589
 9437SOL     OW29209   0.393   5.940   4.224
 9437SOL    HW129210   0.478   5.889   4.237
 9437SOL    HW229211   0.357   5.923   4.133
 9438SOL     OW29212   0.738   6.537   2.185
 9438SOL    HW129213   0.777   6.629   2.181
 9438SOL    HW229214   0.803   6.476   2.229
 9439SOL     OW29215   1.459   3.695   0.777
 9439SOL    HW129216   1.490   3.790   0.766
 9439SOL    HW229217   1.360   3.690   0.765
 9440SOL     OW29218   4.030   5.426   4.582
 9440SOL    HW129219   4.006   5.514   4.624
 9440SOL    HW229220   4.060   5.363   4.654
 9441SOL     OW29221   1.632   5.676   5.270
 9441SOL    HW129222   1.606   5.581   5.287
 9441SOL    HW229223   1.727   5.679   5.239
 9442SOL     OW29224   1.051   3.602   0.947
 9442SOL    HW129225   1.082   3.509   0.929
 9442SOL    HW229226   1.046   3.617   1.046
 9443SOL     OW29227   1.329   3.100   1.481
 9443SOL    HW129228   1.240   3.096   1.437
 9443SOL    HW229229   1.399   3.122   1.414
 9444SOL     OW29230   1.271   4.609   5.668
 9444SOL    HW129231   1.352   4.559   5.636
 9444SOL    HW229232   1.211   4.546   5.718
 9445SOL     OW29233   6.420   2.854   1.642
 9445SOL    HW129234   6.379   2.804   1.566
 9445SOL    HW229235   6.451   2.944   1.611
 9446SOL     OW29236   5.462   4.050   6.962
 9446SOL    HW129237   5.427   3.959   6.987
 9446SOL    HW229238   5.401   4.092   6.896
 9447SOL     OW29239   6.004   1.747   2.085
 9447SOL    HW129240   6.016   1.660   2.133
 9447SOL    HW229241   5.981   1.819   2.151
 9448SOL     OW29242   6.539   6.026   0.232
 9448SOL    HW129243   6.610   5.957   0.226
 9448SOL    HW229244   6.517   6.044   0.328
 9449SOL     OW29245   5.903   5.268   5.414
 9449SOL    HW129246   5.956   5.190   5.449
 9449SOL    HW229247   5.928   5.350   5.464
 9450SOL     OW29248   2.720   6.192   3.944
 9450SOL    HW129249   2.723   6.092   3.940
 9450SOL    HW229250   2.626   6.223   3.934
 9451SOL     OW29251   4.176   3.563   5.536
 9451SOL    HW129252   4.268   3.597   5.552
 9451SOL    HW229253   4.174   3.463   5.544
 9452SOL     OW29254   3.095   3.770   0.710
 9452SOL    HW129255   3.125   3.823   0.789
 9452SOL    HW229256   3.170   3.762   0.645
 9453SOL     OW29257   3.046   5.538   1.349
 9453SOL    HW129258   3.013   5.515   1.441
 9453SOL    HW229259   2.988   5.492   1.281
 9454SOL     OW29260   2.076   2.052   5.713
 9454SOL    HW129261   2.153   2.029   5.653
 9454SOL    HW229262   2.005   1.982   5.703
 9455SOL     OW29263   1.996   1.953   2.890
 9455SOL    HW129264   2.032   2.008   2.814
 9455SOL    HW229265   1.970   1.863   2.857
 9456SOL     OW29266   1.302   2.989   0.510
 9456SOL    HW129267   1.233   2.945   0.453
 9456SOL    HW229268   1.264   3.073   0.548
 9457SOL     OW29269   6.588   3.452   0.025
 9457SOL    HW129270   6.491   3.446   7.022
 9457SOL    HW229271   6.635   3.516   6.987
 9458SOL     OW29272   0.949   6.273   4.407
 9458SOL    HW129273   0.903   6.232   4.329
 9458SOL    HW229274   0.898   6.253   4.491
 9459SOL     OW29275   4.655   6.146   1.301
 9459SOL    HW129276   4.681   6.120   1.208
 9459SOL    HW229277   4.605   6.071   1.344
 9460SOL     OW29278   1.151   3.372   5.812
 9460SOL    HW129279   1.088   3.309   5.858
 9460SOL    HW229280   1.211   3.320   5.751
 9461SOL     OW29281   1.786   0.199   2.991
 9461SOL    HW129282   1.857   0.137   3.025
 9461SOL    HW229283   1.726   0.225   3.066
 9462SOL     OW29284   0.409   3.035   3.184
 9462SOL    HW129285   0.367   3.098   3.119
 9462SOL    HW229286   0.379   3.058   3.276
 9463SOL     OW29287   6.138   2.096   6.835
 9463SOL    HW129288   6.099   2.009   6.803
 9463SOL    HW229289   6.098   2.172   6.784
 9464SOL     OW29290   4.260   6.534   5.514
 9464SOL    HW129291   4.200   6.579   5.447
 9464SOL    HW229292   4.210   6.458   5.557
 9465SOL     OW29293   5.089   6.326   4.310
 9465SOL    HW129294   5.036   6.361   4.387
 9465SOL    HW229295   5.152   6.396   4.278
 9466SOL     OW29296   3.565   1.710   6.988
 9466SOL    HW129297   3.645   1.763   6.961
 9466SOL    HW229298   3.573   1.686   0.063
 9467SOL     OW29299   1.520   3.137   2.303
 9467SOL    HW129300   1.462   3.057   2.320
 9467SOL    HW229301   1.607   3.126   2.351
 9468SOL     OW29302   0.685   2.283   6.096
 9468SOL    HW129303   0.753   2.228   6.047
 9468SOL    HW229304   0.597   2.235   6.096
 9469SOL     OW29305   7.010   4.317   2.668
 9469SOL    HW129306   6.946   4.261   2.616
 9469SOL    HW229307   0.021   4.265   2.746
 9470SOL     OW29308   6.658   3.784   1.304
 9470SOL    HW129309   6.630   3.880   1.304
 9470SOL    HW229310   6.706   3.764   1.218
 9471SOL     OW29311   0.327   2.574   6.266
 9471SOL    HW129312   0.324   2.648   6.198
 9471SOL    HW229313   0.234   2.542   6.284
 9472SOL     OW29314   6.789   2.129   5.222
 9472SOL    HW129315   6.722   2.110   5.151
 9472SOL    HW229316   6.821   2.042   5.261
 9473SOL     OW29317   2.986   5.755   5.108
 9473SOL    HW129318   2.929   5.681   5.073
 9473SOL    HW229319   2.930   5.816   5.165
 9474SOL     OW29320   3.300   5.329   3.710
 9474SOL    HW129321   3.322   5.361   3.802
 9474SOL    HW229322   3.202   5.310   3.704
 9475SOL     OW29323   1.875   3.320   1.652
 9475SOL    HW129324   1.948   3.265   1.610
 9475SOL    HW229325   1.848   3.392   1.588
 9476SOL     OW29326   2.733   3.726   5.438
 9476SOL    HW129327   2.646   3.768   5.413
 9476SOL    HW229328   2.790   3.718   5.356
 9477SOL     OW29329   0.683   2.199   0.593
 9477SOL    HW129330   0.643   2.274   0.646
 9477SOL    HW229331   0.782   2.204   0.598
 9478SOL     OW29332   5.643   4.090   5.609
 9478SOL    HW129333   5.715   4.100   5.678
 9478SOL    HW229334   5.586   4.011   5.633
 9479SOL     OW29335   5.891   5.620   4.900
 9479SOL    HW129336   5.956   5.596   4.971
 9479SOL    HW229337   5.916   5.574   4.815
 9480SOL     OW29338   6.095   4.075   6.523
 9480SOL    HW129339   6.036   4.119   6.455
 9480SOL    HW229340   6.099   3.977   6.505
 9481SOL     OW29341   6.672   2.945   2.731
 9481SOL    HW129342   6.638   2.873   2.792
 9481SOL    HW229343   6.599   3.011   2.712
 9482SOL     OW29344   4.364   0.223   2.464
 9482SOL    HW129345   4.306   0.145   2.438
 9482SOL    HW229346   4.413   0.202   2.548
 9483SOL     OW29347   1.349   1.475   0.916
 9483SOL    HW129348   1.284   1.495   0.843
 9483SOL    HW229349   1.442   1.500   0.886
 9484SOL     OW29350   6.131   0.659   3.272
 9484SOL    HW129351   6.062   0.624   3.207
 9484SOL    HW229352   6.215   0.605   3.263
 9485SOL     OW29353   1.208   6.940   2.350
 9485SOL    HW129354   1.132   6.986   2.394
 9485SOL    HW229355   1.209   6.844   2.376
 9486SOL     OW29356   2.477   6.481   1.841
 9486SOL    HW129357   2.455   6.505   1.935
 9486SOL    HW229358   2.556   6.534   1.810
 9487SOL     OW29359   3.175   3.541   4.082
 9487SOL    HW129360   3.205   3.514   4.174
 9487SOL    HW229361   3.081   3.512   4.068
 9488SOL     OW29362   1.286   1.437   1.746
 9488SOL    HW129363   1.259   1.376   1.821
 9488SOL    HW229364   1.368   1.487   1.772
 9489SOL     OW29365   2.639   4.322   0.653
 9489SOL    HW129366   2.681   4.299   0.741
 9489SOL    HW229367   2.702   4.298   0.580
 9490SOL     OW29368   5.014   1.502   6.812
 9490SOL    HW129369   4.922   1.490   6.849
 9490SOL    HW229370   5.024   1.447   6.729
 9491SOL     OW29371   6.397   5.500   5.999
 9491SOL    HW129372   6.361   5.408   5.983
 9491SOL    HW229373   6.490   5.506   5.961
 9492SOL     OW29374   2.562   4.442   1.437
 9492SOL    HW129375   2.643   4.467   1.490
 9492SOL    HW229376   2.568   4.345   1.411
 9493SOL     OW29377   5.486   6.303   2.715
 9493SOL    HW129378   5.562   6.260   2.763
 9493SOL    HW229379   5.502   6.297   2.616
 9494SOL     OW29380   3.263   3.087   5.967
 9494SOL    HW129381   3.186   3.104   5.905
 9494SOL    HW229382   3.256   2.994   6.003
 9495SOL     OW29383   5.377   2.465   4.246
 9495SOL    HW129384   5.388   2.510   4.335
 9495SOL    HW229385   5.324   2.381   4.257
 9496SOL     OW29386   6.388   4.094   0.323
 9496SOL    HW129387   6.289   4.102   0.335
 9496SOL    HW229388   6.411   4.000   0.300
 9497SOL     OW29389   0.763   5.765   5.796
 9497SOL    HW129390   0.689   5.713   5.752
 9497SOL    HW229391   0.727   5.852   5.829
 9498SOL     OW29392   3.976   0.018   6.606
 9498SOL    HW129393   4.015   0.049   6.519
 9498SOL    HW229394   4.049   0.004   6.672
 9499SOL     OW29395   4.475   3.981   5.985
 9499SOL    HW129396   4.486   4.044   5.908
 9499SOL    HW229397   4.380   3.984   6.017
 9500SOL     OW29398   5.253   5.566   1.557
 9500SOL    HW129399   5.259   5.553   1.656
 9500SOL    HW229400   5.312   5.499   1.511
 9501SOL     OW29401   3.335   2.144   4.826
 9501SOL    HW129402   3.273   2.171   4.752
 9501SOL    HW229403   3.303   2.183   4.912
 9502SOL     OW29404   3.639   3.271   5.640
 9502SOL    HW129405   3.692   3.189   5.620
 9502SOL    HW229406   3.585   3.296   5.560
 9503SOL     OW29407   1.318   6.776   1.702
 9503SOL    HW129408   1.350   6.710   1.635
 9503SOL    HW229409   1.315   6.732   1.792
 9504SOL     OW29410   0.672   3.212   0.405
 9504SOL    HW129411   0.763   3.210   0.446
 9504SOL    HW229412   0.610   3.264   0.465
 9505SOL     OW29413   5.022   3.043   3.044
 9505SOL    HW129414   5.092   3.025   2.974
 9505SOL    HW229415   4.942   3.085   3.001
 9506SOL     OW29416   0.075   1.791   1.030
 9506SOL    HW129417   0.061   1.711   1.089
 9506SOL    HW229418   0.056   1.874   1.082
 9507SOL     OW29419   1.242   2.222   4.755
 9507SOL    HW129420   1.216   2.137   4.710
 9507SOL    HW229421   1.161   2.264   4.796
 9508SOL     OW29422   4.732   1.386   6.341
 9508SOL    HW129423   4.672   1.441   6.399
 9508SOL    HW229424   4.754   1.300   6.387
 9509SOL     OW29425   3.005   0.381   6.236
 9509SOL    HW129426   3.058   0.464   6.218
 9509SOL    HW229427   3.067   0.303   6.246
 9510SOL     OW29428   6.647   4.198   2.953
 9510SOL    HW129429   6.564   4.168   3.001
 9510SOL    HW229430   6.645   4.165   2.859
 9511SOL     OW29431   2.343   1.249   1.409
 9511SOL    HW129432   2.392   1.162   1.414
 9511SOL    HW229433   2.406   1.321   1.380
 9512SOL     OW29434   1.399   3.403   4.950
 9512SOL    HW129435   1.393   3.496   4.985
 9512SOL    HW229436   1.315   3.380   4.901
 9513SOL     OW29437   2.352   4.415   4.524
 9513SOL    HW129438   2.330   4.362   4.442
 9513SOL    HW229439   2.310   4.372   4.604
 9514SOL     OW29440   2.872   2.992   6.267
 9514SOL    HW129441   2.919   2.925   6.209
 9514SOL    HW229442   2.938   3.061   6.298
 9515SOL     OW29443   2.033   5.221   5.716
 9515SOL    HW129444   2.037   5.320   5.710
 9515SOL    HW229445   2.018   5.182   5.625
 9516SOL     OW29446   5.125   4.537   5.277
 9516SOL    HW129447   5.149   4.557   5.182
 9516SOL    HW229448   5.130   4.439   5.293
 9517SOL     OW29449   1.133   5.355   2.412
 9517SOL    HW129450   1.045   5.400   2.401
 9517SOL    HW229451   1.179   5.348   2.323
 9518SOL     OW29452   0.665   3.115   5.579
 9518SOL    HW129453   0.760   3.087   5.563
 9518SOL    HW229454   0.638   3.090   5.672
 9519SOL     OW29455   3.210   3.009   2.945
 9519SOL    HW129456   3.298   2.962   2.953
 9519SOL    HW229457   3.207   3.084   3.011
 9520SOL     OW29458   5.569   0.899   6.476
 9520SOL    HW129459   5.532   0.811   6.447
 9520SOL    HW229460   5.493   0.964   6.489
 9521SOL     OW29461   3.876   1.228   1.472
 9521SOL    HW129462   3.825   1.151   1.434
 9521SOL    HW229463   3.830   1.314   1.448
 9522SOL     OW29464   3.716   6.497   1.549
 9522SOL    HW129465   3.813   6.474   1.559
 9522SOL    HW229466   3.703   6.594   1.566
 9523SOL     OW29467   2.523   5.071   4.125
 9523SOL    HW129468   2.455   5.124   4.175
 9523SOL    HW229469   2.578   5.018   4.190
 9524SOL     OW29470   1.914   4.186   0.387
 9524SOL    HW129471   1.949   4.112   0.328
 9524SOL    HW229472   1.949   4.273   0.355
 9525SOL     OW29473   2.154   3.499   6.460
 9525SOL    HW129474   2.120   3.410   6.490
 9525SOL    HW229475   2.192   3.491   6.368
 9526SOL     OW29476   5.576   5.525   6.639
 9526SOL    HW129477   5.650   5.457   6.640
 9526SOL    HW229478   5.581   5.576   6.553
 9527SOL     OW29479   4.041   6.784   4.561
 9527SOL    HW129480   4.136   6.754   4.571
 9527SOL    HW229481   4.038   6.868   4.507
 9528SOL     OW29482   4.919   2.388   0.527
 9528SOL    HW129483   5.015   2.384   0.555
 9528SOL    HW229484   4.891   2.483   0.515
 9529SOL     OW29485   5.630   1.155   1.883
 9529SOL    HW129486   5.678   1.076   1.845
 9529SOL    HW229487   5.542   1.166   1.835
 9530SOL     OW29488   1.205   5.845   3.512
 9530SOL    HW129489   1.190   5.786   3.433
 9530SOL    HW229490   1.145   5.924   3.506
 9531SOL     OW29491   3.277   5.345   1.997
 9531SOL    HW129492   3.209   5.397   2.048
 9531SOL    HW229493   3.314   5.401   1.923
 9532SOL     OW29494   6.878   4.971   3.898
 9532SOL    HW129495   6.930   4.905   3.844
 9532SOL    HW229496   6.864   5.055   3.844
 9533SOL     OW29497   1.417   3.994   3.092
 9533SOL    HW129498   1.447   4.063   3.158
 9533SOL    HW229499   1.329   4.023   3.052
 9534SOL     OW29500   4.502   5.700   4.090
 9534SOL    HW129501   4.494   5.613   4.041
 9534SOL    HW229502   4.598   5.715   4.115
 9535SOL     OW29503   6.912   1.403   4.584
 9535SOL    HW129504   6.986   1.412   4.516
 9535SOL    HW229505   6.951   1.394   4.675
 9536SOL     OW29506   3.428   3.909   5.558
 9536SOL    HW129507   3.526   3.893   5.573
 9536SOL    HW229508   3.381   3.913   5.646
 9537SOL     OW29509   6.700   0.929   3.858
 9537SOL    HW129510   6.782   0.886   3.896
 9537SOL    HW229511   6.723   1.021   3.826
 9538SOL     OW29512   5.379   0.239   4.584
 9538SOL    HW129513   5.299   0.178   4.585
 9538SOL    HW229514   5.349   0.332   4.564
 9539SOL     OW29515   3.534   4.054   2.884
 9539SOL    HW129516   3.545   4.052   2.983
 9539SOL    HW229517   3.607   4.001   2.841
 9540SOL     OW29518   4.116   4.763   3.372
 9540SOL    HW129519   4.089   4.751   3.277
 9540SOL    HW229520   4.035   4.768   3.430
 9541SOL     OW29521   1.628   5.897   5.466
 9541SOL    HW129522   1.639   5.818   5.406
 9541SOL    HW229523   1.619   5.980   5.412
 9542SOL     OW29524   6.425   4.089   3.138
 9542SOL    HW129525   6.430   4.188   3.153
 9542SOL    HW229526   6.330   4.059   3.142
 9543SOL     OW29527   2.459   0.443   6.052
 9543SOL    HW129528   2.364   0.465   6.028
 9543SOL    HW229529   2.488   0.501   6.128
 9544SOL     OW29530   6.437   3.588   4.695
 9544SOL    HW129531   6.339   3.571   4.703
 9544SOL    HW229532   6.479   3.519   4.637
 9545SOL     OW29533   6.640   4.498   2.355
 9545SOL    HW129534   6.560   4.447   2.322
 9545SOL    HW229535   6.673   4.557   2.281
 9546SOL     OW29536   2.761   2.792   1.389
 9546SOL    HW129537   2.719   2.702   1.385
 9546SOL    HW229538   2.821   2.798   1.468
 9547SOL     OW29539   4.696   0.221   3.614
 9547SOL    HW129540   4.714   0.318   3.600
 9547SOL    HW229541   4.722   0.195   3.706
 9548SOL     OW29542   0.653   5.142   6.240
 9548SOL    HW129543   0.598   5.192   6.308
 9548SOL    HW229544   0.712   5.205   6.191
 9549SOL     OW29545   4.008   1.531   1.294
 9549SOL    HW129546   4.062   1.597   1.345
 9549SOL    HW229547   4.060   1.446   1.283
 9550SOL     OW29548   5.915   3.043   1.655
 9550SOL    HW129549   5.872   3.100   1.725
 9550SOL    HW229550   5.990   2.991   1.696
 9551SOL     OW29551   5.905   2.950   6.213
 9551SOL    HW129552   5.965   3.010   6.160
 9551SOL    HW229553   5.940   2.857   6.210
 9552SOL     OW29554   2.769   1.774   0.614
 9552SOL    HW129555   2.827   1.855   0.607
 9552SOL    HW229556   2.762   1.746   0.710
 9553SOL     OW29557   5.863   1.492   6.956
 9553SOL    HW129558   5.862   1.453   0.025
 9553SOL    HW229559   5.880   1.420   6.889
 9554SOL     OW29560   2.956   0.814   4.209
 9554SOL    HW129561   2.960   0.886   4.278
 9554SOL    HW229562   2.876   0.828   4.151
 9555SOL     OW29563   0.622   6.621   3.532
 9555SOL    HW129564   0.598   6.714   3.505
 9555SOL    HW229565   0.585   6.602   3.623
 9556SOL     OW29566   2.308   4.785   6.690
 9556SOL    HW129567   2.277   4.712   6.750
 9556SOL    HW229568   2.256   4.783   6.605
 9557SOL     OW29569   5.961   1.052   0.780
 9557SOL    HW129570   5.940   0.978   0.715
 9557SOL    HW229571   6.050   1.035   0.822
 9558SOL     OW29572   5.043   6.312   6.191
 9558SOL    HW129573   5.071   6.399   6.151
 9558SOL    HW229574   5.084   6.237   6.140
 9559SOL     OW29575   2.437   4.915   6.925
 9559SOL    HW129576   2.385   4.861   6.992
 9559SOL    HW229577   2.414   4.884   6.833
 9560SOL     OW29578   2.827   0.238   2.517
 9560SOL    HW129579   2.825   0.307   2.590
 9560SOL    HW229580   2.920   0.231   2.481
 9561SOL     OW29581   0.510   0.334   0.127
 9561SOL    HW129582   0.477   0.265   0.062
 9561SOL    HW229583   0.608   0.346   0.116
 9562SOL     OW29584   2.316   5.796   3.155
 9562SOL    HW129585   2.229   5.812   3.202
 9562SOL    HW229586   2.366   5.883   3.148
 9563SOL     OW29587   1.153   5.825   6.349
 9563SOL    HW129588   1.144   5.839   6.250
 9563SOL    HW229589   1.198   5.738   6.366
 9564SOL     OW29590   1.835   1.188   0.932
 9564SOL    HW129591   1.752   1.174   0.879
 9564SOL    HW229592   1.912   1.145   0.885
 9565SOL     OW29593   2.576   1.591   4.141
 9565SOL    HW129594   2.505   1.647   4.182
 9565SOL    HW229595   2.663   1.608   4.187
 9566SOL     OW29596   2.870   0.417   0.223
 9566SOL    HW129597   2.896   0.343   0.286
 9566SOL    HW229598   2.947   0.438   0.163
 9567SOL     OW29599   6.710   4.214   0.948
 9567SOL    HW129600   6.806   4.190   0.930
 9567SOL    HW229601   6.704   4.261   1.036
 9568SOL     OW29602   4.236   1.727   6.568
 9568SOL    HW129603   4.286   1.641   6.586
 9568SOL    HW229604   4.161   1.736   6.633
 9569SOL     OW29605   5.697   0.292   2.133
 9569SOL    HW129606   5.614   0.331   2.092
 9569SOL    HW229607   5.768   0.286   2.063
 9570SOL     OW29608   0.619   3.605   1.668
 9570SOL    HW129609   0.548   3.535   1.672
 9570SOL    HW229610   0.676   3.599   1.750
 9571SOL     OW29611   1.570   1.211   0.104
 9571SOL    HW129612   1.553   1.241   0.010
 9571SOL    HW229613   1.514   1.132   0.125
 9572SOL     OW29614   2.334   4.812   4.597
 9572SOL    HW129615   2.253   4.754   4.606
 9572SOL    HW229616   2.416   4.755   4.593
 9573SOL     OW29617   6.609   0.250   4.136
 9573SOL    HW129618   6.547   0.319   4.175
 9573SOL    HW229619   6.684   0.234   4.200
 9574SOL     OW29620   4.159   2.909   0.501
 9574SOL    HW129621   4.213   2.849   0.560
 9574SOL    HW229622   4.219   2.979   0.461
 9575SOL     OW29623   5.463   0.071   1.997
 9575SOL    HW129624   5.441   0.168   1.993
 9575SOL    HW229625   5.495   0.040   1.907
 9576SOL     OW29626   0.795   0.842   6.892
 9576SOL    HW129627   0.822   0.796   6.976
 9576SOL    HW229628   0.876   0.855   6.834
 9577SOL     OW29629   6.203   5.328   2.851
 9577SOL    HW129630   6.179   5.399   2.785
 9577SOL    HW229631   6.148   5.246   2.835
 9578SOL     OW29632   1.780   3.372   2.093
 9578SOL    HW129633   1.760   3.314   2.013
 9578SOL    HW229634   1.706   3.363   2.159
 9579SOL     OW29635   5.859   5.661   2.482
 9579SOL    HW129636   5.790   5.732   2.494
 9579SOL    HW229637   5.890   5.659   2.387
 9580SOL     OW29638   4.644   4.323   3.343
 9580SOL    HW129639   4.712   4.253   3.364
 9580SOL    HW229640   4.562   4.308   3.397
 9581SOL     OW29641   5.742   2.005   6.915
 9581SOL    HW129642   5.715   2.091   6.873
 9581SOL    HW229643   5.661   1.948   6.930
 9582SOL     OW29644   5.256   6.526   4.904
 9582SOL    HW129645   5.343   6.557   4.867
 9582SOL    HW229646   5.253   6.426   4.901
 9583SOL     OW29647   3.641   4.906   1.697
 9583SOL    HW129648   3.618   4.821   1.744
 9583SOL    HW229649   3.718   4.951   1.743
 9584SOL     OW29650   2.694   4.990   3.922
 9584SOL    HW129651   2.650   5.027   4.004
 9584SOL    HW229652   2.631   4.927   3.876
 9585SOL     OW29653   4.663   6.241   0.863
 9585SOL    HW129654   4.588   6.179   0.887
 9585SOL    HW229655   4.653   6.326   0.914
 9586SOL     OW29656   3.458   5.626   2.766
 9586SOL    HW129657   3.544   5.575   2.772
 9586SOL    HW229658   3.476   5.723   2.777
 9587SOL     OW29659   3.775   6.022   0.977
 9587SOL    HW129660   3.765   6.037   0.879
 9587SOL    HW229661   3.686   6.001   1.018
 9588SOL     OW29662   6.320   5.525   6.841
 9588SOL    HW129663   6.383   5.600   6.822
 9588SOL    HW229664   6.333   5.495   6.936
 9589SOL     OW29665   1.840   2.504   6.484
 9589SOL    HW129666   1.913   2.569   6.465
 9589SOL    HW229667   1.754   2.554   6.497
 9590SOL     OW29668   6.454   0.461   0.818
 9590SOL    HW129669   6.483   0.366   0.804
 9590SOL    HW229670   6.518   0.522   0.771
 9591SOL     OW29671   5.119   0.973   0.497
 9591SOL    HW129672   5.072   0.886   0.482
 9591SOL    HW229673   5.127   1.022   0.410
 9592SOL     OW29674   2.143   6.382   6.002
 9592SOL    HW129675   2.185   6.367   6.091
 9592SOL    HW229676   2.190   6.458   5.955
 9593SOL     OW29677   1.903   2.406   3.793
 9593SOL    HW129678   1.899   2.448   3.702
 9593SOL    HW229679   1.829   2.443   3.850
 9594SOL     OW29680   6.774   6.365   3.477
 9594SOL    HW129681   6.816   6.276   3.494
 9594SOL    HW229682   6.845   6.434   3.461
 9595SOL     OW29683   0.327   3.402   3.274
 9595SOL    HW129684   0.417   3.382   3.236
 9595SOL    HW229685   0.336   3.468   3.348
 9596SOL     OW29686   1.123   6.789   0.654
 9596SOL    HW129687   1.058   6.807   0.580
 9596SOL    HW229688   1.100   6.847   0.733
 9597SOL     OW29689   1.217   3.521   1.627
 9597SOL    HW129690   1.151   3.561   1.690
 9597SOL    HW229691   1.213   3.421   1.634
 9598SOL     OW29692   2.287   4.259   4.282
 9598SOL    HW129693   2.265   4.167   4.314
 9598SOL    HW229694   2.368   4.256   4.224
 9599SOL     OW29695   4.211   6.737   4.268
 9599SOL    HW129696   4.272   6.723   4.346
 9599SOL    HW229697   4.198   6.650   4.220
 9600SOL     OW29698   3.749   1.479   1.426
 9600SOL    HW129699   3.657   1.508   1.453
 9600SOL    HW229700   3.793   1.553   1.375
 9601SOL     OW29701   0.960   3.506   0.650
 9601SOL    HW129702   1.057   3.483   0.644
 9601SOL    HW229703   0.922   3.514   0.558
 9602SOL     OW29704   4.142   4.855   5.597
 9602SOL    HW129705   4.185   4.828   5.511
 9602SOL    HW229706   4.145   4.779   5.662
 9603SOL     OW29707   5.004   6.920   5.867
 9603SOL    HW129708   5.072   6.954   5.801
 9603SOL    HW229709   5.038   6.935   5.960
 9604SOL     OW29710   5.183   6.763   0.696
 9604SOL    HW129711   5.233   6.751   0.611
 9604SOL    HW229712   5.225   6.837   0.749
 9605SOL     OW29713   5.655   5.547   1.821
 9605SOL    HW129714   5.639   5.454   1.789
 9605SOL    HW229715   5.590   5.569   1.895
 9606SOL     OW29716   1.390   0.978   0.159
 9606SOL    HW129717   1.442   0.893   0.166
 9606SOL    HW229718   1.293   0.958   0.169
 9607SOL     OW29719   2.034   1.915   6.004
 9607SOL    HW129720   2.007   1.866   5.921
 9607SOL    HW229721   2.105   1.982   5.981
 9608SOL     OW29722   5.908   2.822   4.583
 9608SOL    HW129723   5.931   2.758   4.510
 9608SOL    HW229724   5.992   2.864   4.618
 9609SOL     OW29725   4.638   2.806   6.885
 9609SOL    HW129726   4.602   2.765   6.969
 9609SOL    HW229727   4.606   2.900   6.878
 9610SOL     OW29728   0.860   5.000   2.904
 9610SOL    HW129729   0.817   5.055   2.831
 9610SOL    HW229730   0.832   5.037   2.993
 9611SOL     OW29731   2.292   0.689   0.516
 9611SOL    HW129732   2.315   0.608   0.463
 9611SOL    HW229733   2.335   0.684   0.606
 9612SOL     OW29734   0.135   1.980   3.918
 9612SOL    HW129735   0.220   1.997   3.968
 9612SOL    HW229736   0.058   1.978   3.982
 9613SOL     OW29737   5.964   5.067   3.113
 9613SOL    HW129738   5.908   5.036   3.190
 9613SOL    HW229739   5.965   5.167   3.111
 9614SOL     OW29740   4.670   2.421   3.533
 9614SOL    HW129741   4.595   2.476   3.570
 9614SOL    HW229742   4.722   2.475   3.467
 9615SOL     OW29743   1.792   4.480   1.332
 9615SOL    HW129744   1.837   4.390   1.336
 9615SOL    HW229745   1.704   4.475   1.380
 9616SOL     OW29746   3.870   3.599   6.732
 9616SOL    HW129747   3.804   3.524   6.731
 9616SOL    HW229748   3.963   3.561   6.735
 9617SOL     OW29749   1.957   2.898   2.944
 9617SOL    HW129750   1.910   2.888   2.856
 9617SOL    HW229751   2.047   2.940   2.929
 9618SOL     OW29752   2.230   1.779   0.949
 9618SOL    HW129753   2.164   1.853   0.960
 9618SOL    HW229754   2.185   1.692   0.967
 9619SOL     OW29755   2.437   0.572   6.544
 9619SOL    HW129756   2.478   0.602   6.630
 9619SOL    HW229757   2.343   0.605   6.539
 9620SOL     OW29758   5.618   1.357   5.425
 9620SOL    HW129759   5.538   1.345   5.485
 9620SOL    HW229760   5.618   1.450   5.388
 9621SOL     OW29761   1.571   3.460   3.097
 9621SOL    HW129762   1.567   3.556   3.123
 9621SOL    HW229763   1.664   3.438   3.066
 9622SOL     OW29764   5.604   0.059   0.820
 9622SOL    HW129765   5.507   0.079   0.837
 9622SOL    HW229766   5.613   0.001   0.739
 9623SOL     OW29767   2.316   4.066   6.584
 9623SOL    HW129768   2.330   4.122   6.665
 9623SOL    HW229769   2.268   4.119   6.514
 9624SOL     OW29770   6.264   2.654   4.110
 9624SOL    HW129771   6.341   2.717   4.123
 9624SOL    HW229772   6.294   2.577   4.053
 9625SOL     OW29773   5.692   5.723   0.969
 9625SOL    HW129774   5.649   5.637   0.997
 9625SOL    HW229775   5.633   5.770   0.903
 9626SOL     OW29776   3.761   6.682   0.235
 9626SOL    HW129777   3.764   6.588   0.202
 9626SOL    HW229778   3.675   6.698   0.283
 9627SOL     OW29779   1.558   6.845   6.898
 9627SOL    HW129780   1.583   6.748   6.889
 9627SOL    HW229781   1.541   6.883   6.807
 9628SOL     OW29782   2.942   6.827   2.404
 9628SOL    HW129783   3.004   6.749   2.414
 9628SOL    HW229784   2.861   6.800   2.354
 9629SOL     OW29785   2.381   0.443   1.033
 9629SOL    HW129786   2.358   0.346   1.026
 9629SOL    HW229787   2.337   0.493   0.958
 9630SOL     OW29788   6.723   1.928   6.350
 9630SOL    HW129789   6.731   1.828   6.349
 9630SOL    HW229790   6.739   1.963   6.258
 9631SOL     OW29791   6.519   6.191   0.001
 9631SOL    HW129792   6.506   6.125   0.075
 9631SOL    HW229793   6.524   6.283   0.039
 9632SOL     OW29794   0.507   5.502   2.089
 9632SOL    HW129795   0.459   5.487   2.003
 9632SOL    HW229796   0.544   5.595   2.091
 9633SOL     OW29797   7.010   4.887   6.067
 9633SOL    HW129798   6.976   4.951   6.136
 9633SOL    HW229799   0.031   4.938   5.993
 9634SOL     OW29800   1.197   5.838   6.048
 9634SOL    HW129801   1.170   5.926   6.009
 9634SOL    HW229802   1.269   5.797   5.992
 9635SOL     OW29803   0.298   5.958   5.491
 9635SOL    HW129804   0.321   6.037   5.548
 9635SOL    HW229805   0.271   5.989   5.400
 9636SOL     OW29806   4.215   1.041   0.206
 9636SOL    HW129807   4.150   1.003   0.272
 9636SOL    HW229808   4.178   1.126   0.169
 9637SOL     OW29809   1.831   1.223   6.775
 9637SOL    HW129810   1.860   1.303   6.722
 9637SOL    HW229811   1.733   1.231   6.794
 9638SOL     OW29812   6.671   2.210   6.782
 9638SOL    HW129813   6.608   2.242   6.711
 9638SOL    HW229814   6.763   2.205   6.745
 9639SOL     OW29815   3.977   1.041   2.153
 9639SOL    HW129816   3.936   1.053   2.243
 9639SOL    HW229817   4.028   1.123   2.128
 9640SOL     OW29818   1.413   2.277   2.417
 9640SOL    HW129819   1.334   2.261   2.357
 9640SOL    HW229820   1.469   2.195   2.421
 9641SOL     OW29821   5.747   5.685   6.850
 9641SOL    HW129822   5.766   5.600   6.900
 9641SOL    HW229823   5.652   5.713   6.867
 9642SOL     OW29824   3.739   0.650   3.559
 9642SOL    HW129825   3.810   0.718   3.541
 9642SOL    HW229826   3.716   0.651   3.656
 9643SOL     OW29827   4.294   4.579   2.625
 9643SOL    HW129828   4.259   4.504   2.568
 9643SOL    HW229829   4.394   4.575   2.628
 9644SOL     OW29830   3.052   1.934   0.087
 9644SOL    HW129831   3.136   1.887   0.112
 9644SOL    HW229832   2.981   1.916   0.155
 9645SOL     OW29833   2.768   5.543   4.975
 9645SOL    HW129834   2.709   5.529   4.896
 9645SOL    HW229835   2.832   5.466   4.983
 9646SOL     OW29836   3.832   5.192   4.326
 9646SOL    HW129837   3.797   5.260   4.390
 9646SOL    HW229838   3.872   5.237   4.247
 9647SOL     OW29839   6.578   2.771   6.171
 9647SOL    HW129840   6.588   2.715   6.254
 9647SOL    HW229841   6.669   2.789   6.133
 9648SOL     OW29842   4.182   3.832   0.768
 9648SOL    HW129843   4.281   3.815   0.769
 9648SOL    HW229844   4.140   3.780   0.693
 9649SOL     OW29845   2.323   5.150   1.942
 9649SOL    HW129846   2.241   5.119   1.991
 9649SOL    HW229847   2.321   5.250   1.934
 9650SOL     OW29848   0.492   6.802   0.747
 9650SOL    HW129849   0.491   6.702   0.750
 9650SOL    HW229850   0.570   6.837   0.799
 9651SOL     OW29851   0.613   1.677   6.414
 9651SOL    HW129852   0.692   1.630   6.373
 9651SOL    HW229853   0.533   1.618   6.409
 9652SOL     OW29854   0.765   4.853   1.836
 9652SOL    HW129855   0.734   4.913   1.910
 9652SOL    HW229856   0.823   4.904   1.773
 9653SOL     OW29857   6.315   6.602   4.250
 9653SOL    HW129858   6.274   6.516   4.278
 9653SOL    HW229859   6.333   6.658   4.330
 9654SOL     OW29860   2.245   3.062   2.932
 9654SOL    HW129861   2.213   3.099   3.019
 9654SOL    HW229862   2.217   3.122   2.857
 9655SOL     OW29863   6.378   1.500   6.604
 9655SOL    HW129864   6.292   1.502   6.655
 9655SOL    HW229865   6.439   1.572   6.638
 9656SOL     OW29866   2.906   1.495   3.080
 9656SOL    HW129867   2.881   1.471   3.174
 9656SOL    HW229868   2.891   1.415   3.021
 9657SOL     OW29869   0.124   6.867   4.736
 9657SOL    HW129870   0.150   6.905   4.825
 9657SOL    HW229871   0.147   6.770   4.733
 9658SOL     OW29872   5.477   1.964   3.050
 9658SOL    HW129873   5.496   1.999   3.141
 9658SOL    HW229874   5.379   1.974   3.030
 9659SOL     OW29875   1.168   5.255   6.699
 9659SOL    HW129876   1.213   5.197   6.767
 9659SOL    HW229877   1.179   5.351   6.724
 9660SOL     OW29878   1.109   5.342   0.369
 9660SOL    HW129879   1.023   5.336   0.319
 9660SOL    HW229880   1.099   5.404   0.446
 9661SOL     OW29881   4.336   0.082   0.835
 9661SOL    HW129882   4.254   0.025   0.831
 9661SOL    HW229883   4.322   0.157   0.899
 9662SOL     OW29884   5.231   1.552   4.313
 9662SOL    HW129885   5.209   1.643   4.277
 9662SOL    HW229886   5.159   1.523   4.376
 9663SOL     OW29887   2.230   6.107   3.336
 9663SOL    HW129888   2.206   6.109   3.433
 9663SOL    HW229889   2.178   6.036   3.290
 9664SOL     OW29890   2.389   5.817   1.467
 9664SOL    HW129891   2.442   5.750   1.519
 9664SOL    HW229892   2.349   5.774   1.386
 9665SOL     OW29893   5.065   4.162   3.989
 9665SOL    HW129894   5.091   4.257   3.969
 9665SOL    HW229895   5.032   4.119   3.905
 9666SOL     OW29896   5.400   4.867   4.679
 9666SOL    HW129897   5.405   4.872   4.779
 9666SOL    HW229898   5.308   4.839   4.652
 9667SOL     OW29899   3.104   3.077   3.573
 9667SOL    HW129900   3.170   3.028   3.629
 9667SOL    HW229901   3.091   3.030   3.486
 9668SOL     OW29902   0.942   0.912   5.446
 9668SOL    HW129903   0.848   0.936   5.419
 9668SOL    HW229904   0.949   0.913   5.545
 9669SOL     OW29905   1.227   6.216   6.933
 9669SOL    HW129906   1.206   6.205   6.836
 9669SOL    HW229907   1.318   6.257   6.942
 9670SOL     OW29908   5.600   4.765   6.430
 9670SOL    HW129909   5.678   4.751   6.490
 9670SOL    HW229910   5.616   4.720   6.342
 9671SOL     OW29911   0.127   0.753   0.003
 9671SOL    HW129912   0.037   0.720   6.999
 9671SOL    HW229913   0.128   0.773   0.101
 9672SOL     OW29914   1.365   6.163   5.123
 9672SOL    HW129915   1.265   6.173   5.127
 9672SOL    HW229916   1.390   6.071   5.150
 9673SOL     OW29917   2.271   2.878   6.384
 9673SOL    HW129918   2.217   2.799   6.355
 9673SOL    HW229919   2.328   2.909   6.309
 9674SOL     OW29920   2.779   6.833   2.101
 9674SOL    HW129921   2.759   6.735   2.100
 9674SOL    HW229922   2.800   6.864   2.008
 9675SOL     OW29923   0.082   2.355   2.607
 9675SOL    HW129924   7.020   2.314   2.575
 9675SOL    HW229925   0.068   2.453   2.624
 9676SOL     OW29926   0.382   2.418   4.513
 9676SOL    HW129927   0.310   2.474   4.555
 9676SOL    HW229928   0.396   2.448   4.418
 9677SOL     OW29929   1.492   3.280   5.467
 9677SOL    HW129930   1.497   3.296   5.368
 9677SOL    HW229931   1.534   3.357   5.515
 9678SOL     OW29932   3.258   3.204   3.208
 9678SOL    HW129933   3.339   3.172   3.256
 9678SOL    HW229934   3.285   3.268   3.136
 9679SOL     OW29935   0.683   3.510   1.071
 9679SOL    HW129936   0.735   3.588   1.105
 9679SOL    HW229937   0.600   3.543   1.026
 9680SOL     OW29938   4.770   5.027   3.139
 9680SOL    HW129939   4.870   5.022   3.137
 9680SOL    HW229940   4.742   5.106   3.194
 9681SOL     OW29941   1.008   0.549   4.343
 9681SOL    HW129942   1.018   0.567   4.441
 9681SOL    HW229943   1.035   0.454   4.325
 9682SOL     OW29944   0.371   4.854   3.128
 9682SOL    HW129945   0.300   4.893   3.186
 9682SOL    HW229946   0.335   4.775   3.078
 9683SOL     OW29947   5.230   6.470   6.048
 9683SOL    HW129948   5.299   6.496   5.981
 9683SOL    HW229949   5.199   6.551   6.097
 9684SOL     OW29950   0.976   4.517   3.650
 9684SOL    HW129951   0.936   4.579   3.717
 9684SOL    HW229952   1.045   4.565   3.597
 9685SOL     OW29953   1.903   1.895   6.747
 9685SOL    HW129954   1.853   1.979   6.722
 9685SOL    HW229955   1.998   1.903   6.717
 9686SOL     OW29956   5.142   2.224   1.649
 9686SOL    HW129957   5.083   2.259   1.577
 9686SOL    HW229958   5.238   2.237   1.623
 9687SOL     OW29959   3.964   1.436   4.567
 9687SOL    HW129960   4.007   1.508   4.513
 9687SOL    HW229961   3.879   1.470   4.607
 9688SOL     OW29962   6.360   1.857   3.851
 9688SOL    HW129963   6.449   1.837   3.893
 9688SOL    HW229964   6.313   1.927   3.905
 9689SOL     OW29965   2.202   5.380   5.535
 9689SOL    HW129966   2.242   5.373   5.626
 9689SOL    HW229967   2.221   5.295   5.484
 9690SOL     OW29968   5.861   3.769   0.354
 9690SOL    HW129969   5.949   3.760   0.400
 9690SOL    HW229970   5.790   3.789   0.422
 9691SOL     OW29971   1.522   4.344   0.612
 9691SOL    HW129972   1.564   4.332   0.522
 9691SOL    HW229973   1.424   4.326   0.605
 9692SOL     OW29974   3.323   5.853   0.634
 9692SOL    HW129975   3.246   5.847   0.571
 9692SOL    HW229976   3.381   5.772   0.623
 9693SOL     OW29977   5.982   5.959   1.314
 9693SOL    HW129978   5.900   5.972   1.257
 9693SOL    HW229979   6.055   6.019   1.282
 9694SOL     OW29980   1.434   1.975   1.018
 9694SOL    HW129981   1.425   1.992   0.919
 9694SOL    HW229982   1.531   1.958   1.039
 9695SOL     OW29983   6.923   4.297   0.450
 9695SOL    HW129984   6.836   4.314   0.404
 9695SOL    HW229985   6.986   4.373   0.432
 9696SOL     OW29986   3.783   4.477   0.519
 9696SOL    HW129987   3.700   4.422   0.531
 9696SOL    HW229988   3.783   4.552   0.584
 9697SOL     OW29989   0.668   5.986   5.962
 9697SOL    HW129990   0.730   6.064   5.961
 9697SOL    HW229991   0.573   6.018   5.959
 9698SOL     OW29992   4.528   1.573   5.196
 9698SOL    HW129993   4.526   1.670   5.221
 9698SOL    HW229994   4.618   1.549   5.161
 9699SOL     OW29995   1.747   2.038   6.527
 9699SOL    HW129996   1.790   2.092   6.600
 9699SOL    HW229997   1.668   2.088   6.491
 9700SOL     OW29998   3.909   3.863   3.512
 9700SOL    HW129999   4.001   3.833   3.488
 9700SOL    HW230000   3.852   3.784   3.532
 9701SOL     OW30001   4.652   4.751   4.768
 9701SOL    HW130002   4.619   4.710   4.853
 9701SOL    HW230003   4.730   4.699   4.733
 9702SOL     OW30004   5.393   0.328   0.477
 9702SOL    HW130005   5.468   0.320   0.410
 9702SOL    HW230006   5.418   0.393   0.548
 9703SOL     OW30007   2.610   5.929   3.809
 9703SOL    HW130008   2.680   5.889   3.869
 9703SOL    HW230009   2.562   5.856   3.760
 9704SOL     OW30010   2.284   1.533   3.755
 9704SOL    HW130011   2.371   1.582   3.766
 9704SOL    HW230012   2.269   1.473   3.833
 9705SOL     OW30013   3.456   4.128   1.066
 9705SOL    HW130014   3.553   4.108   1.081
 9705SOL    HW230015   3.430   4.102   0.974
 9706SOL     OW30016   6.784   2.501   3.505
 9706SOL    HW130017   6.857   2.531   3.566
 9706SOL    HW230018   6.740   2.420   3.542
 9707SOL     OW30019   2.601   4.897   2.735
 9707SOL    HW130020   2.544   4.830   2.688
 9707SOL    HW230021   2.623   4.972   2.673
 9708SOL     OW30022   1.526   2.034   2.322
 9708SOL    HW130023   1.602   2.035   2.257
 9708SOL    HW230024   1.531   1.952   2.379
 9709SOL     OW30025   1.657   5.554   3.096
 9709SOL    HW130026   1.568   5.581   3.133
 9709SOL    HW230027   1.649   5.463   3.054
 9710SOL     OW30028   0.722   0.541   3.959
 9710SOL    HW130029   0.788   0.603   3.918
 9710SOL    HW230030   0.736   0.538   4.058
 9711SOL     OW30031   1.471   3.000   6.553
 9711SOL    HW130032   1.554   3.026   6.505
 9711SOL    HW230033   1.392   3.042   6.508
 9712SOL     OW30034   4.847   3.803   4.682
 9712SOL    HW130035   4.883   3.721   4.639
 9712SOL    HW230036   4.749   3.791   4.700
 9713SOL     OW30037   6.705   4.972   2.781
 9713SOL    HW130038   6.645   5.034   2.831
 9713SOL    HW230039   6.797   5.010   2.778
 9714SOL     OW30040   2.144   2.374   2.615
 9714SOL    HW130041   2.105   2.418   2.696
 9714SOL    HW230042   2.221   2.316   2.643
 9715SOL     OW30043   6.326   5.243   5.883
 9715SOL    HW130044   6.287   5.291   5.804
 9715SOL    HW230045   6.397   5.180   5.851
 9716SOL     OW30046   3.789   1.365   6.267
 9716SOL    HW130047   3.779   1.325   6.176
 9716SOL    HW230048   3.881   1.345   6.302
 9717SOL     OW30049   5.595   5.882   3.258
 9717SOL    HW130050   5.607   5.980   3.275
 9717SOL    HW230051   5.505   5.854   3.291
 9718SOL     OW30052   4.674   3.081   1.614
 9718SOL    HW130053   4.650   3.081   1.711
 9718SOL    HW230054   4.704   2.990   1.586
 9719SOL     OW30055   0.302   0.981   0.562
 9719SOL    HW130056   0.330   0.995   0.467
 9719SOL    HW230057   0.236   1.052   0.588
 9720SOL     OW30058   0.825   0.249   0.603
 9720SOL    HW130059   0.872   0.337   0.609
 9720SOL    HW230060   0.771   0.234   0.686
 9721SOL     OW30061   0.001   2.822   3.358
 9721SOL    HW130062   0.029   2.898   3.299
 9721SOL    HW230063   0.077   2.797   3.418
 9722SOL     OW30064   7.004   0.166   4.771
 9722SOL    HW130065   6.955   0.100   4.714
 9722SOL    HW230066   7.011   0.253   4.723
 9723SOL     OW30067   6.890   0.766   3.925
 9723SOL    HW130068   6.972   0.759   3.868
 9723SOL    HW230069   6.893   0.697   3.997
 9724SOL     OW30070   3.926   2.582   1.691
 9724SOL    HW130071   3.913   2.503   1.632
 9724SOL    HW230072   3.841   2.634   1.697
 9725SOL     OW30073   4.272   3.558   5.841
 9725SOL    HW130074   4.243   3.625   5.772
 9725SOL    HW230075   4.371   3.566   5.855
 9726SOL     OW30076   5.601   5.897   4.486
 9726SOL    HW130077   5.668   5.945   4.542
 9726SOL    HW230078   5.524   5.958   4.467
 9727SOL     OW30079   1.777   0.254   6.989
 9727SOL    HW130080   1.852   0.296   6.938
 9727SOL    HW230081   1.781   0.155   6.979
 9728SOL     OW30082   3.492   6.277   6.579
 9728SOL    HW130083   3.444   6.249   6.495
 9728SOL    HW230084   3.434   6.259   6.658
 9729SOL     OW30085   2.972   5.314   2.047
 9729SOL    HW130086   2.877   5.344   2.047
 9729SOL    HW230087   2.993   5.272   2.136
 9730SOL     OW30088   5.663   3.347   3.172
 9730SOL    HW130089   5.619   3.331   3.261
 9730SOL    HW230090   5.639   3.438   3.139
 9731SOL     OW30091   5.554   5.201   1.343
 9731SOL    HW130092   5.583   5.257   1.266
 9731SOL    HW230093   5.629   5.142   1.372
 9732SOL     OW30094   5.095   6.157   4.687
 9732SOL    HW130095   5.069   6.254   4.677
 9732SOL    HW230096   5.083   6.111   4.599
 9733SOL     OW30097   5.346   4.658   5.781
 9733SOL    HW130098   5.310   4.607   5.859
 9733SOL    HW230099   5.272   4.675   5.715
 9734SOL     OW30100   6.258   1.648   5.782
 9734SOL    HW130101   6.160   1.664   5.768
 9734SOL    HW230102   6.281   1.664   5.878
 9735SOL     OW30103   3.467   4.687   0.788
 9735SOL    HW130104   3.488   4.603   0.738
 9735SOL    HW230105   3.462   4.668   0.886
 9736SOL     OW30106   3.295   1.836   1.938
 9736SOL    HW130107   3.203   1.802   1.951
 9736SOL    HW230108   3.292   1.934   1.915
 9737SOL     OW30109   4.160   2.209   4.530
 9737SOL    HW130110   4.244   2.162   4.505
 9737SOL    HW230111   4.161   2.227   4.629
 9738SOL     OW30112   2.429   1.124   2.201
 9738SOL    HW130113   2.483   1.072   2.135
 9738SOL    HW230114   2.466   1.216   2.210
 9739SOL     OW30115   6.042   4.294   1.642
 9739SOL    HW130116   5.973   4.223   1.630
 9739SOL    HW230117   6.000   4.377   1.679
 9740SOL     OW30118   6.374   3.457   2.733
 9740SOL    HW130119   6.392   3.454   2.635
 9740SOL    HW230120   6.277   3.441   2.749
 9741SOL     OW30121   3.956   1.522   2.277
 9741SOL    HW130122   3.877   1.502   2.336
 9741SOL    HW230123   3.934   1.497   2.183
 9742SOL     OW30124   4.409   1.710   3.727
 9742SOL    HW130125   4.443   1.620   3.755
 9742SOL    HW230126   4.422   1.721   3.629
 9743SOL     OW30127   1.282   1.539   5.341
 9743SOL    HW130128   1.295   1.480   5.261
 9743SOL    HW230129   1.213   1.609   5.320
 9744SOL     OW30130   2.457   0.409   1.734
 9744SOL    HW130131   2.514   0.400   1.815
 9744SOL    HW230132   2.434   0.505   1.719
 9745SOL     OW30133   0.516   0.652   4.726
 9745SOL    HW130134   0.562   0.667   4.639
 9745SOL    HW230135   0.574   0.686   4.800
 9746SOL     OW30136   6.591   0.637   3.833
 9746SOL    HW130137   6.643   0.585   3.901
 9746SOL    HW230138   6.631   0.728   3.824
 9747SOL     OW30139   0.503   0.149   6.442
 9747SOL    HW130140   0.480   0.081   6.372
 9747SOL    HW230141   0.428   0.154   6.509
 9748SOL     OW30142   0.839   4.123   4.662
 9748SOL    HW130143   0.820   4.111   4.564
 9748SOL    HW230144   0.777   4.065   4.715
 9749SOL     OW30145   0.238   4.920   4.030
 9749SOL    HW130146   0.228   4.889   3.935
 9749SOL    HW230147   0.156   4.897   4.081
 9750SOL     OW30148   3.070   5.437   2.413
 9750SOL    HW130149   2.988   5.387   2.387
 9750SOL    HW230150   3.151   5.387   2.383
 9751SOL     OW30151   1.668   2.358   0.868
 9751SOL    HW130152   1.598   2.376   0.799
 9751SOL    HW230153   1.630   2.298   0.939
 9752SOL     OW30154   4.347   0.722   5.819
 9752SOL    HW130155   4.384   0.805   5.860
 9752SOL    HW230156   4.247   0.723   5.826
 9753SOL     OW30157   0.030   6.533   0.021
 9753SOL    HW130158   6.981   6.505   0.085
 9753SOL    HW230159   0.029   6.473   6.964
 9754SOL     OW30160   0.118   2.944   6.095
 9754SOL    HW130161   0.105   3.021   6.159
 9754SOL    HW230162   0.056   2.954   6.018
 9755SOL     OW30163   3.392   5.479   5.411
 9755SOL    HW130164   3.440   5.400   5.450
 9755SOL    HW230165   3.319   5.446   5.351
 9756SOL     OW30166   5.283   2.725   5.706
 9756SOL    HW130167   5.242   2.803   5.659
 9756SOL    HW230168   5.280   2.741   5.805
 9757SOL     OW30169   6.573   0.828   3.599
 9757SOL    HW130170   6.619   0.915   3.617
 9757SOL    HW230171   6.519   0.802   3.678
 9758SOL     OW30172   3.637   0.567   0.430
 9758SOL    HW130173   3.734   0.570   0.457
 9758SOL    HW230174   3.604   0.473   0.437
 9759SOL     OW30175   3.211   5.839   1.592
 9759SOL    HW130176   3.125   5.883   1.616
 9759SOL    HW230177   3.206   5.804   1.498
 9760SOL     OW30178   5.780   4.769   5.997
 9760SOL    HW130179   5.745   4.728   5.913
 9760SOL    HW230180   5.845   4.842   5.974
 9761SOL     OW30181   5.419   5.398   2.533
 9761SOL    HW130182   5.431   5.394   2.632
 9761SOL    HW230183   5.411   5.305   2.497
 9762SOL     OW30184   3.478   0.543   2.776
 9762SOL    HW130185   3.429   0.629   2.765
 9762SOL    HW230186   3.443   0.495   2.857
 9763SOL     OW30187   1.763   2.025   2.134
 9763SOL    HW130188   1.784   2.062   2.043
 9763SOL    HW230189   1.825   2.065   2.201
 9764SOL     OW30190   0.998   2.762   2.967
 9764SOL    HW130191   0.977   2.669   2.998
 9764SOL    HW230192   0.961   2.828   3.033
 9765SOL     OW30193   0.161   0.464   5.609
 9765SOL    HW130194   0.063   0.486   5.607
 9765SOL    HW230195   0.213   0.548   5.626
 9766SOL     OW30196   2.238   0.466   2.929
 9766SOL    HW130197   2.261   0.439   2.836
 9766SOL    HW230198   2.258   0.563   2.941
 9767SOL     OW30199   5.116   0.467   5.476
 9767SOL    HW130200   5.158   0.537   5.535
 9767SOL    HW230201   5.167   0.381   5.486
 9768SOL     OW30202   4.508   2.549   4.163
 9768SOL    HW130203   4.433   2.485   4.179
 9768SOL    HW230204   4.535   2.592   4.249
 9769SOL     OW30205   0.667   2.070   1.046
 9769SOL    HW130206   0.673   1.971   1.031
 9769SOL    HW230207   0.637   2.088   1.140
 9770SOL     OW30208   0.589   3.067   5.852
 9770SOL    HW130209   0.569   2.974   5.820
 9770SOL    HW230210   0.520   3.095   5.919
 9771SOL     OW30211   2.768   5.524   3.565
 9771SOL    HW130212   2.716   5.529   3.651
 9771SOL    HW230213   2.722   5.579   3.495
 9772SOL     OW30214   6.074   6.842   0.527
 9772SOL    HW130215   6.123   6.755   0.540
 9772SOL    HW230216   6.037   6.845   0.434
 9773SOL     OW30217   4.823   5.241   3.992
 9773SOL    HW130218   4.898   5.213   4.052
 9773SOL    HW230219   4.821   5.181   3.912
 9774SOL     OW30220   6.914   5.081   4.438
 9774SOL    HW130221   6.976   5.130   4.376
 9774SOL    HW230222   6.965   5.047   4.516
 9775SOL     OW30223   2.922   2.045   4.761
 9775SOL    HW130224   2.949   2.091   4.845
 9775SOL    HW230225   2.847   2.096   4.718
 9776SOL     OW30226   0.141   4.666   4.187
 9776SOL    HW130227   0.178   4.604   4.119
 9776SOL    HW230228   0.077   4.616   4.246
 9777SOL     OW30229   5.071   5.843   6.309
 9777SOL    HW130230   5.136   5.920   6.308
 9777SOL    HW230231   5.050   5.816   6.216
 9778SOL     OW30232   3.904   0.612   4.708
 9778SOL    HW130233   3.885   0.672   4.631
 9778SOL    HW230234   3.975   0.652   4.765
 9779SOL     OW30235   3.029   2.019   6.650
 9779SOL    HW130236   3.041   1.995   6.553
 9779SOL    HW230237   3.015   2.118   6.658
 9780SOL     OW30238   2.757   4.220   0.884
 9780SOL    HW130239   2.697   4.228   0.963
 9780SOL    HW230240   2.844   4.179   0.912
 9781SOL     OW30241   1.279   6.506   4.581
 9781SOL    HW130242   1.251   6.600   4.563
 9781SOL    HW230243   1.362   6.485   4.530
 9782SOL     OW30244   5.791   0.200   0.479
 9782SOL    HW130245   5.751   0.292   0.473
 9782SOL    HW230246   5.891   0.208   0.488
 9783SOL     OW30247   6.195   0.403   3.157
 9783SOL    HW130248   6.193   0.335   3.083
 9783SOL    HW230249   6.261   0.374   3.226
 9784SOL     OW30250   5.654   0.332   4.572
 9784SOL    HW130251   5.709   0.249   4.586
 9784SOL    HW230252   5.563   0.318   4.609
 9785SOL     OW30253   0.986   2.733   1.434
 9785SOL    HW130254   1.044   2.753   1.355
 9785SOL    HW230255   0.902   2.786   1.428
 9786SOL     OW30256   2.444   6.976   4.499
 9786SOL    HW130257   2.357   6.976   4.548
 9786SOL    HW230258   2.443   6.903   4.430
 9787SOL     OW30259   5.785   4.308   1.323
 9787SOL    HW130260   5.744   4.298   1.232
 9787SOL    HW230261   5.882   4.332   1.313
 9788SOL     OW30262   6.741   0.825   5.864
 9788SOL    HW130263   6.763   0.807   5.768
 9788SOL    HW230264   6.805   0.891   5.901
 9789SOL     OW30265   1.708   5.080   4.681
 9789SOL    HW130266   1.748   5.022   4.609
 9789SOL    HW230267   1.761   5.069   4.765
 9790SOL     OW30268   6.878   1.439   3.575
 9790SOL    HW130269   6.850   1.360   3.630
 9790SOL    HW230270   6.971   1.424   3.541
 9791SOL     OW30271   1.365   2.672   1.361
 9791SOL    HW130272   1.362   2.754   1.417
 9791SOL    HW230273   1.452   2.624   1.378
 9792SOL     OW30274   3.419   5.746   2.124
 9792SOL    HW130275   3.514   5.774   2.137
 9792SOL    HW230276   3.360   5.826   2.114
 9793SOL     OW30277   5.412   6.250   2.463
 9793SOL    HW130278   5.365   6.176   2.510
 9793SOL    HW230279   5.345   6.313   2.425
 9794SOL     OW30280   3.416   3.139   6.413
 9794SOL    HW130281   3.370   3.165   6.498
 9794SOL    HW230282   3.371   3.058   6.374
 9795SOL     OW30283   1.977   5.226   3.069
 9795SOL    HW130284   2.018   5.310   3.105
 9795SOL    HW230285   2.047   5.175   3.019
 9796SOL     OW30286   3.786   5.136   0.223
 9796SOL    HW130287   3.759   5.092   0.137
 9796SOL    HW230288   3.886   5.138   0.230
 9797SOL     OW30289   5.642   3.285   5.522
 9797SOL    HW130290   5.625   3.305   5.426
 9797SOL    HW230291   5.688   3.196   5.530
 9798SOL     OW30292   2.477   1.848   2.045
 9798SOL    HW130293   2.516   1.936   2.075
 9798SOL    HW230294   2.545   1.799   1.990
 9799SOL     OW30295   3.576   3.724   2.640
 9799SOL    HW130296   3.623   3.637   2.657
 9799SOL    HW230297   3.518   3.747   2.718
 9800SOL     OW30298   4.003   5.550   0.306
 9800SOL    HW130299   4.006   5.476   0.373
 9800SOL    HW230300   4.089   5.599   0.306
 9801SOL     OW30301   5.376   4.923   1.322
 9801SOL    HW130302   5.284   4.884   1.314
 9801SOL    HW230303   5.373   5.020   1.298
 9802SOL     OW30304   0.899   5.934   1.651
 9802SOL    HW130305   0.961   5.954   1.727
 9802SOL    HW230306   0.951   5.889   1.578
 9803SOL     OW30307   5.185   0.059   6.371
 9803SOL    HW130308   5.269   0.099   6.335
 9803SOL    HW230309   5.131   0.022   6.295
 9804SOL     OW30310   4.774   5.299   4.500
 9804SOL    HW130311   4.802   5.375   4.441
 9804SOL    HW230312   4.686   5.264   4.469
 9805SOL     OW30313   3.743   3.942   0.916
 9805SOL    HW130314   3.778   3.869   0.858
 9805SOL    HW230315   3.798   4.025   0.903
 9806SOL     OW30316   6.851   1.754   2.437
 9806SOL    HW130317   6.949   1.742   2.456
 9806SOL    HW230318   6.798   1.715   2.512
 9807SOL     OW30319   2.224   3.284   1.120
 9807SOL    HW130320   2.281   3.206   1.095
 9807SOL    HW230321   2.213   3.287   1.219
 9808SOL     OW30322   2.090   1.618   4.142
 9808SOL    HW130323   2.084   1.694   4.077
 9808SOL    HW230324   2.082   1.653   4.235
 9809SOL     OW30325   0.565   0.762   4.323
 9809SOL    HW130326   0.490   0.696   4.329
 9809SOL    HW230327   0.537   0.839   4.266
 9810SOL     OW30328   4.300   1.632   2.511
 9810SOL    HW130329   4.232   1.595   2.575
 9810SOL    HW230330   4.286   1.591   2.421
 9811SOL     OW30331   0.892   0.449   2.806
 9811SOL    HW130332   0.968   0.458   2.871
 9811SOL    HW230333   0.835   0.370   2.831
 9812SOL     OW30334   5.847   3.299   5.790
 9812SOL    HW130335   5.928   3.275   5.844
 9812SOL    HW230336   5.866   3.382   5.737
 9813SOL     OW30337   6.504   4.351   0.383
 9813SOL    HW130338   6.555   4.350   0.469
 9813SOL    HW230339   6.449   4.268   0.376
 9814SOL     OW30340   6.558   0.760   6.037
 9814SOL    HW130341   6.547   0.807   6.124
 9814SOL    HW230342   6.646   0.787   5.996
 9815SOL     OW30343   6.796   4.596   2.138
 9815SOL    HW130344   6.736   4.673   2.116
 9815SOL    HW230345   6.841   4.564   2.055
 9816SOL     OW30346   6.214   1.579   5.523
 9816SOL    HW130347   6.186   1.670   5.491
 9816SOL    HW230348   6.246   1.586   5.617
 9817SOL     OW30349   2.344   1.001   0.627
 9817SOL    HW130350   2.372   0.919   0.677
 9817SOL    HW230351   2.296   0.975   0.543
 9818SOL     OW30352   0.549   6.964   2.401
 9818SOL    HW130353   0.491   0.015   2.364
 9818SOL    HW230354   0.493   6.883   2.418
 9819SOL     OW30355   6.175   1.877   4.227
 9819SOL    HW130356   6.260   1.825   4.236
 9819SOL    HW230357   6.176   1.953   4.292
 9820SOL     OW30358   3.789   1.043   6.521
 9820SOL    HW130359   3.881   1.081   6.517
 9820SOL    HW230360   3.744   1.072   6.606
 9821SOL     OW30361   4.893   3.500   0.106
 9821SOL    HW130362   4.885   3.482   0.008
 9821SOL    HW230363   4.912   3.597   0.121
 9822SOL     OW30364   3.338   5.044   4.161
 9822SOL    HW130365   3.434   5.068   4.176
 9822SOL    HW230366   3.326   5.011   4.067
 9823SOL     OW30367   4.499   6.630   3.297
 9823SOL    HW130368   4.572   6.688   3.260
 9823SOL    HW230369   4.450   6.678   3.369
 9824SOL     OW30370   1.030   5.472   5.447
 9824SOL    HW130371   1.093   5.403   5.411
 9824SOL    HW230372   1.011   5.453   5.543
 9825SOL     OW30373   1.178   6.184   4.762
 9825SOL    HW130374   1.153   6.268   4.811
 9825SOL    HW230375   1.096   6.139   4.728
 9826SOL     OW30376   1.996   5.827   6.322
 9826SOL    HW130377   2.035   5.917   6.345
 9826SOL    HW230378   2.006   5.765   6.399
 9827SOL     OW30379   1.947   4.775   1.632
 9827SOL    HW130380   2.003   4.701   1.667
 9827SOL    HW230381   2.006   4.847   1.595
 9828SOL     OW30382   4.592   2.197   4.053
 9828SOL    HW130383   4.520   2.128   4.047
 9828SOL    HW230384   4.558   2.284   4.017
 9829SOL     OW30385   5.453   4.939   5.904
 9829SOL    HW130386   5.400   4.868   5.858
 9829SOL    HW230387   5.470   4.913   5.999
 9830SOL     OW30388   6.469   1.223   3.410
 9830SOL    HW130389   6.378   1.180   3.410
 9830SOL    HW230390   6.536   1.158   3.445
 9831SOL     OW30391   0.459   5.196   1.934
 9831SOL    HW130392   0.374   5.233   1.971
 9831SOL    HW230393   0.481   5.241   1.848
 9832SOL     OW30394   4.909   6.551   4.984
 9832SOL    HW130395   4.945   6.462   5.012
 9832SOL    HW230396   4.976   6.599   4.928
 9833SOL     OW30397   4.083   3.605   4.805
 9833SOL    HW130398   3.992   3.633   4.777
 9833SOL    HW230399   4.123   3.546   4.735
 9834SOL     OW30400   3.134   5.902   5.933
 9834SOL    HW130401   3.043   5.875   5.902
 9834SOL    HW230402   3.203   5.840   5.894
 9835SOL     OW30403   3.696   3.231   4.003
 9835SOL    HW130404   3.674   3.267   4.094
 9835SOL    HW230405   3.795   3.229   3.991
 9836SOL     OW30406   6.316   3.249   5.539
 9836SOL    HW130407   6.232   3.195   5.546
 9836SOL    HW230408   6.329   3.280   5.445
 9837SOL     OW30409   6.757   0.561   3.577
 9837SOL    HW130410   6.784   0.555   3.673
 9837SOL    HW230411   6.681   0.625   3.569
 9838SOL     OW30412   0.398   5.656   0.932
 9838SOL    HW130413   0.364   5.586   0.994
 9838SOL    HW230414   0.328   5.726   0.918
 9839SOL     OW30415   3.996   6.428   3.473
 9839SOL    HW130416   4.051   6.384   3.543
 9839SOL    HW230417   3.935   6.495   3.515
 9840SOL     OW30418   6.401   1.973   6.679
 9840SOL    HW130419   6.323   1.995   6.738
 9840SOL    HW230420   6.484   2.015   6.715
 9841SOL     OW30421   0.114   6.045   2.161
 9841SOL    HW130422   0.043   6.097   2.114
 9841SOL    HW230423   0.194   6.036   2.101
 9842SOL     OW30424   3.865   0.451   0.590
 9842SOL    HW130425   3.951   0.487   0.626
 9842SOL    HW230426   3.855   0.356   0.617
 9843SOL     OW30427   0.483   7.019   0.295
 9843SOL    HW130428   0.512   0.023   0.388
 9843SOL    HW230429   0.561   6.980   0.247
 9844SOL     OW30430   5.056   0.820   5.123
 9844SOL    HW130431   4.980   0.819   5.057
 9844SOL    HW230432   5.120   0.892   5.097
 9845SOL     OW30433   0.747   3.479   1.884
 9845SOL    HW130434   0.821   3.467   1.951
 9845SOL    HW230435   0.710   3.389   1.859
 9846SOL     OW30436   5.531   2.049   2.378
 9846SOL    HW130437   5.624   2.062   2.412
 9846SOL    HW230438   5.530   1.976   2.310
 9847SOL     OW30439   3.764   4.281   6.753
 9847SOL    HW130440   3.805   4.263   6.664
 9847SOL    HW230441   3.784   4.375   6.782
 9848SOL     OW30442   2.624   4.128   5.889
 9848SOL    HW130443   2.548   4.172   5.841
 9848SOL    HW230444   2.690   4.198   5.917
 9849SOL     OW30445   1.488   2.155   2.876
 9849SOL    HW130446   1.526   2.191   2.961
 9849SOL    HW230447   1.452   2.063   2.892
 9850SOL     OW30448   1.504   6.983   4.542
 9850SOL    HW130449   1.589   6.972   4.491
 9850SOL    HW230450   1.524   7.016   4.634
 9851SOL     OW30451   3.541   5.228   3.503
 9851SOL    HW130452   3.529   5.327   3.499
 9851SOL    HW230453   3.544   5.197   3.598
 9852SOL     OW30454   2.553   6.684   0.196
 9852SOL    HW130455   2.562   6.773   0.242
 9852SOL    HW230456   2.610   6.684   0.114
 9853SOL     OW30457   0.335   4.135   3.795
 9853SOL    HW130458   0.358   4.142   3.698
 9853SOL    HW230459   0.241   4.166   3.809
 9854SOL     OW30460   6.279   3.646   6.713
 9854SOL    HW130461   6.250   3.575   6.777
 9854SOL    HW230462   6.373   3.628   6.683
 9855SOL     OW30463   1.167   5.913   0.406
 9855SOL    HW130464   1.171   5.981   0.333
 9855SOL    HW230465   1.099   5.844   0.384
 9856SOL     OW30466   5.147   3.887   3.476
 9856SOL    HW130467   5.199   3.967   3.445
 9856SOL    HW230468   5.104   3.908   3.564
 9857SOL     OW30469   5.422   0.476   6.166
 9857SOL    HW130470   5.501   0.495   6.108
 9857SOL    HW230471   5.412   0.378   6.179
 9858SOL     OW30472   0.015   5.343   2.345
 9858SOL    HW130473   0.070   5.275   2.297
 9858SOL    HW230474   7.000   5.303   2.428
 9859SOL     OW30475   0.976   5.088   2.445
 9859SOL    HW130476   0.947   5.184   2.449
 9859SOL    HW230477   1.027   5.073   2.360
 9860SOL     OW30478   1.772   3.170   3.959
 9860SOL    HW130479   1.740   3.091   3.907
 9860SOL    HW230480   1.770   3.149   4.057
 9861SOL     OW30481   3.406   2.065   4.094
 9861SOL    HW130482   3.392   1.971   4.123
 9861SOL    HW230483   3.430   2.122   4.173
 9862SOL     OW30484   1.760   2.863   6.644
 9862SOL    HW130485   1.660   2.874   6.643
 9862SOL    HW230486   1.793   2.873   6.738
 9863SOL     OW30487   4.052   6.403   2.058
 9863SOL    HW130488   4.063   6.389   2.156
 9863SOL    HW230489   4.139   6.387   2.012
 9864SOL     OW30490   2.958   6.279   5.288
 9864SOL    HW130491   2.916   6.242   5.205
 9864SOL    HW230492   3.056   6.294   5.272
 9865SOL     OW30493   2.492   6.392   6.232
 9865SOL    HW130494   2.393   6.381   6.218
 9865SOL    HW230495   2.515   6.489   6.235
 9866SOL     OW30496   6.893   5.419   6.319
 9866SOL    HW130497   6.916   5.332   6.363
 9866SOL    HW230498   6.795   5.437   6.330
 9867SOL     OW30499   4.740   1.161   2.547
 9867SOL    HW130500   4.796   1.137   2.627
 9867SOL    HW230501   4.779   1.241   2.502
 9868SOL     OW30502   2.374   4.401   2.942
 9868SOL    HW130503   2.374   4.398   3.042
 9868SOL    HW230504   2.455   4.451   2.910
 9869SOL     OW30505   6.009   2.559   2.938
 9869SOL    HW130506   5.967   2.617   3.007
 9869SOL    HW230507   6.085   2.508   2.979
 9870SOL     OW30508   1.876   2.727   3.125
 9870SOL    HW130509   1.901   2.764   3.035
 9870SOL    HW230510   1.921   2.780   3.197
 9871SOL     OW30511   5.809   5.988   3.071
 9871SOL    HW130512   5.724   5.956   3.029
 9871SOL    HW230513   5.866   5.909   3.095
 9872SOL     OW30514   1.248   6.617   5.465
 9872SOL    HW130515   1.296   6.701   5.490
 9872SOL    HW230516   1.284   6.582   5.378
 9873SOL     OW30517   0.363   0.619   5.048
 9873SOL    HW130518   0.448   0.639   4.998
 9873SOL    HW230519   0.284   0.639   4.989
 9874SOL     OW30520   0.047   2.221   3.527
 9874SOL    HW130521   6.996   2.156   3.543
 9874SOL    HW230522   0.062   2.231   3.428
 9875SOL     OW30523   6.338   5.982   0.740
 9875SOL    HW130524   6.387   5.980   0.653
 9875SOL    HW230525   6.387   6.040   0.805
 9876SOL     OW30526   0.403   6.949   3.543
 9876SOL    HW130527   0.403   0.020   3.506
 9876SOL    HW230528   0.479   6.898   3.504
 9877SOL     OW30529   1.511   5.901   5.149
 9877SOL    HW130530   1.554   5.815   5.177
 9877SOL    HW230531   1.578   5.957   5.100
 9878SOL     OW30532   4.427   3.040   0.093
 9878SOL    HW130533   4.458   3.037   0.188
 9878SOL    HW230534   4.346   3.098   0.087
 9879SOL     OW30535   5.338   5.883   4.686
 9879SOL    HW130536   5.294   5.839   4.764
 9879SOL    HW230537   5.430   5.911   4.711
 9880SOL     OW30538   3.633   1.180   1.017
 9880SOL    HW130539   3.583   1.228   0.945
 9880SOL    HW230540   3.614   1.223   1.106
 9881SOL     OW30541   6.467   6.923   3.124
 9881SOL    HW130542   6.378   6.969   3.121
 9881SOL    HW230543   6.456   6.826   3.102
 9882SOL     OW30544   3.478   3.377   4.550
 9882SOL    HW130545   3.453   3.292   4.597
 9882SOL    HW230546   3.438   3.454   4.599
 9883SOL     OW30547   1.777   5.866   2.696
 9883SOL    HW130548   1.692   5.839   2.651
 9883SOL    HW230549   1.778   5.830   2.789
 9884SOL     OW30550   3.268   2.466   5.432
 9884SOL    HW130551   3.331   2.388   5.425
 9884SOL    HW230552   3.195   2.456   5.364
 9885SOL     OW30553   5.316   2.643   5.125
 9885SOL    HW130554   5.237   2.704   5.113
 9885SOL    HW230555   5.291   2.569   5.187
 9886SOL     OW30556   3.074   6.276   1.238
 9886SOL    HW130557   3.065   6.267   1.138
 9886SOL    HW230558   3.167   6.306   1.260
 9887SOL     OW30559   4.345   0.996   6.967
 9887SOL    HW130560   4.291   1.009   0.028
 9887SOL    HW230561   4.318   0.911   6.923
 9888SOL     OW30562   6.445   6.685   3.920
 9888SOL    HW130563   6.393   6.761   3.960
 9888SOL    HW230564   6.386   6.635   3.856
 9889SOL     OW30565   6.267   5.757   1.918
 9889SOL    HW130566   6.295   5.842   1.962
 9889SOL    HW230567   6.260   5.772   1.819
 9890SOL     OW30568   1.859   3.139   3.063
 9890SOL    HW130569   1.885   3.124   3.159
 9890SOL    HW230570   1.905   3.071   3.006
 9891SOL     OW30571   4.152   6.548   1.753
 9891SOL    HW130572   4.203   6.530   1.837
 9891SOL    HW230573   4.216   6.566   1.679
 9892SOL     OW30574   1.823   5.973   3.175
 9892SOL    HW130575   1.878   6.041   3.127
 9892SOL    HW230576   1.770   6.019   3.247
 9893SOL     OW30577   5.542   4.382   5.113
 9893SOL    HW130578   5.540   4.361   5.210
 9893SOL    HW230579   5.635   4.372   5.078
 9894SOL     OW30580   4.205   3.716   6.099
 9894SOL    HW130581   4.206   3.815   6.085
 9894SOL    HW230582   4.208   3.669   6.011
 9895SOL     OW30583   5.187   1.875   5.767
 9895SOL    HW130584   5.129   1.818   5.709
 9895SOL    HW230585   5.266   1.821   5.798
 9896SOL     OW30586   3.903   4.003   0.628
 9896SOL    HW130587   3.980   4.007   0.691
 9896SOL    HW230588   3.868   3.909   0.624
 9897SOL     OW30589   1.143   1.574   2.531
 9897SOL    HW130590   1.120   1.671   2.539
 9897SOL    HW230591   1.070   1.519   2.571
 9898SOL     OW30592   0.548   5.265   0.251
 9898SOL    HW130593   0.473   5.248   0.188
 9898SOL    HW230594   0.518   5.246   0.345
 9899SOL     OW30595   4.087   5.354   1.778
 9899SOL    HW130596   4.123   5.316   1.863
 9899SOL    HW230597   3.999   5.398   1.796
 9900SOL     OW30598   2.074   5.027   3.703
 9900SOL    HW130599   2.167   5.061   3.684
 9900SOL    HW230600   2.027   5.008   3.617
 9901SOL     OW30601   2.943   1.611   5.826
 9901SOL    HW130602   3.008   1.664   5.771
 9901SOL    HW230603   2.994   1.551   5.888
 9902SOL     OW30604   3.871   3.957   0.279
 9902SOL    HW130605   3.882   3.946   0.181
 9902SOL    HW230606   3.928   4.033   0.311
 9903SOL     OW30607   2.897   1.048   1.202
 9903SOL    HW130608   2.922   0.952   1.214
 9903SOL    HW230609   2.807   1.055   1.160
 9904SOL     OW30610   6.941   6.295   2.103
 9904SOL    HW130611   6.914   6.390   2.087
 9904SOL    HW230612   6.898   6.262   2.187
 9905SOL     OW30613   2.387   6.834   6.387
 9905SOL    HW130614   2.418   6.798   6.474
 9905SOL    HW230615   2.444   6.912   6.361
 9906SOL     OW30616   3.271   4.169   5.951
 9906SOL    HW130617   3.201   4.175   6.022
 9906SOL    HW230618   3.278   4.074   5.920
 9907SOL     OW30619   0.771   6.595   2.676
 9907SOL    HW130620   0.687   6.542   2.664
 9907SOL    HW230621   0.843   6.535   2.712
 9908SOL     OW30622   6.641   2.788   4.751
 9908SOL    HW130623   6.674   2.708   4.801
 9908SOL    HW230624   6.718   2.848   4.728
 9909SOL     OW30625   2.417   6.078   3.116
 9909SOL    HW130626   2.365   6.139   3.175
 9909SOL    HW230627   2.440   6.125   3.031
 9910SOL     OW30628   0.554   5.516   0.457
 9910SOL    HW130629   0.529   5.611   0.475
 9910SOL    HW230630   0.481   5.471   0.405
 9911SOL     OW30631   3.766   4.904   2.565
 9911SOL    HW130632   3.702   4.907   2.641
 9911SOL    HW230633   3.716   4.886   2.480
 9912SOL     OW30634   5.807   6.632   0.166
 9912SOL    HW130635   5.893   6.640   0.115
 9912SOL    HW230636   5.745   6.706   0.139
 9913SOL     OW30637   5.222   1.962   2.944
 9913SOL    HW130638   5.132   1.921   2.933
 9913SOL    HW230639   5.264   1.976   2.854
 9914SOL     OW30640   2.065   5.139   4.122
 9914SOL    HW130641   2.033   5.062   4.066
 9914SOL    HW230642   2.029   5.130   4.215
 9915SOL     OW30643   6.385   4.915   4.306
 9915SOL    HW130644   6.320   4.839   4.301
 9915SOL    HW230645   6.386   4.951   4.399
 9916SOL     OW30646   2.174   3.447   0.553
 9916SOL    HW130647   2.254   3.467   0.497
 9916SOL    HW230648   2.182   3.493   0.641
 9917SOL     OW30649   2.025   3.309   4.512
 9917SOL    HW130650   2.010   3.292   4.414
 9917SOL    HW230651   1.968   3.386   4.541
 9918SOL     OW30652   2.023   1.433   4.873
 9918SOL    HW130653   1.953   1.392   4.814
 9918SOL    HW230654   2.048   1.523   4.838
 9919SOL     OW30655   1.009   5.510   1.376
 9919SOL    HW130656   0.932   5.512   1.312
 9919SOL    HW230657   1.002   5.429   1.434
 9920SOL     OW30658   3.320   0.382   3.221
 9920SOL    HW130659   3.359   0.356   3.309
 9920SOL    HW230660   3.238   0.437   3.235
 9921SOL     OW30661   4.868   0.792   2.441
 9921SOL    HW130662   4.851   0.695   2.424
 9921SOL    HW230663   4.787   0.845   2.416
 9922SOL     OW30664   5.702   2.719   2.421
 9922SOL    HW130665   5.781   2.721   2.360
 9922SOL    HW230666   5.630   2.662   2.381
 9923SOL     OW30667   6.590   0.031   6.568
 9923SOL    HW130668   6.518   0.028   6.498
 9923SOL    HW230669   6.568   6.987   6.640
 9924SOL     OW30670   5.244   0.946   3.960
 9924SOL    HW130671   5.177   0.937   4.033
 9924SOL    HW230672   5.238   1.037   3.920
 9925SOL     OW30673   4.105   2.137   5.103
 9925SOL    HW130674   4.104   2.235   5.081
 9925SOL    HW230675   4.070   2.085   5.025
 9926SOL     OW30676   2.334   1.287   5.653
 9926SOL    HW130677   2.283   1.201   5.651
 9926SOL    HW230678   2.288   1.352   5.712
 9927SOL     OW30679   1.322   3.690   3.643
 9927SOL    HW130680   1.401   3.631   3.624
 9927SOL    HW230681   1.311   3.757   3.571
 9928SOL     OW30682   6.665   2.439   1.823
 9928SOL    HW130683   6.652   2.537   1.835
 9928SOL    HW230684   6.732   2.423   1.750
 9929SOL     OW30685   0.824   4.847   5.238
 9929SOL    HW130686   0.763   4.844   5.317
 9929SOL    HW230687   0.873   4.760   5.230
 9930SOL     OW30688   6.716   4.999   6.569
 9930SOL    HW130689   6.793   5.059   6.546
 9930SOL    HW230690   6.751   4.914   6.608
 9931SOL     OW30691   2.008   4.137   0.135
 9931SOL    HW130692   2.095   4.105   0.097
 9931SOL    HW230693   1.939   4.065   0.126
 9932SOL     OW30694   2.015   2.342   1.468
 9932SOL    HW130695   2.056   2.348   1.377
 9932SOL    HW230696   2.082   2.308   1.533
 9933SOL     OW30697   1.048   1.352   3.201
 9933SOL    HW130698   1.023   1.307   3.286
 9933SOL    HW230699   1.105   1.432   3.220
 9934SOL     OW30700   5.164   0.818   6.030
 9934SOL    HW130701   5.229   0.888   6.055
 9934SOL    HW230702   5.088   0.859   5.980
 9935SOL     OW30703   2.820   3.079   0.360
 9935SOL    HW130704   2.779   3.017   0.293
 9935SOL    HW230705   2.792   3.173   0.340
 9936SOL     OW30706   4.880   6.394   6.892
 9936SOL    HW130707   4.844   6.302   6.906
 9936SOL    HW230708   4.833   6.458   6.954
 9937SOL     OW30709   1.613   6.759   4.383
 9937SOL    HW130710   1.672   6.680   4.365
 9937SOL    HW230711   1.518   6.729   4.393
 9938SOL     OW30712   0.131   1.718   3.103
 9938SOL    HW130713   0.201   1.653   3.072
 9938SOL    HW230714   0.066   1.670   3.162
 9939SOL     OW30715   2.900   3.758   1.331
 9939SOL    HW130716   2.947   3.707   1.259
 9939SOL    HW230717   2.910   3.710   1.418
 9940SOL     OW30718   0.138   0.821   2.823
 9940SOL    HW130719   0.233   0.846   2.805
 9940SOL    HW230720   0.090   0.812   2.736
 9941SOL     OW30721   6.232   3.235   0.513
 9941SOL    HW130722   6.189   3.310   0.462
 9941SOL    HW230723   6.317   3.266   0.554
 9942SOL     OW30724   6.027   5.382   2.633
 9942SOL    HW130725   5.936   5.341   2.622
 9942SOL    HW230726   6.018   5.477   2.664
 9943SOL     OW30727   1.121   4.814   5.569
 9943SOL    HW130728   1.188   4.745   5.596
 9943SOL    HW230729   1.031   4.788   5.603
 9944SOL     OW30730   2.709   5.987   6.610
 9944SOL    HW130731   2.696   6.070   6.555
 9944SOL    HW230732   2.771   6.007   6.686
 9945SOL     OW30733   6.434   3.231   6.012
 9945SOL    HW130734   6.353   3.190   5.969
 9945SOL    HW230735   6.419   3.329   6.024
 9946SOL     OW30736   5.742   2.261   1.962
 9946SOL    HW130737   5.757   2.181   2.019
 9946SOL    HW230738   5.755   2.344   2.016
 9947SOL     OW30739   0.423   0.474   3.066
 9947SOL    HW130740   0.474   0.444   2.985
 9947SOL    HW230741   0.333   0.506   3.039
 9948SOL     OW30742   5.729   0.753   5.365
 9948SOL    HW130743   5.643   0.751   5.314
 9948SOL    HW230744   5.766   0.660   5.373
 9949SOL     OW30745   6.371   3.119   2.736
 9949SOL    HW130746   6.291   3.075   2.695
 9949SOL    HW230747   6.364   3.218   2.725
 9950SOL     OW30748   4.755   5.226   6.410
 9950SOL    HW130749   4.811   5.269   6.481
 9950SOL    HW230750   4.741   5.291   6.335
 9951SOL     OW30751   0.160   2.156   2.803
 9951SOL    HW130752   0.134   2.208   2.885
 9951SOL    HW230753   0.145   2.212   2.722
 9952SOL     OW30754   1.752   4.730   1.453
 9952SOL    HW130755   1.822   4.756   1.520
 9952SOL    HW230756   1.769   4.636   1.423
 9953SOL     OW30757   5.771   4.591   4.727
 9953SOL    HW130758   5.778   4.648   4.808
 9953SOL    HW230759   5.702   4.629   4.666
 9954SOL     OW30760   4.603   1.617   1.530
 9954SOL    HW130761   4.630   1.542   1.589
 9954SOL    HW230762   4.646   1.606   1.440
 9955SOL     OW30763   6.282   5.021   1.260
 9955SOL    HW130764   6.335   5.006   1.177
 9955SOL    HW230765   6.219   5.098   1.246
 9956SOL     OW30766   1.578   3.981   3.451
 9956SOL    HW130767   1.573   4.071   3.409
 9956SOL    HW230768   1.667   3.939   3.431
 9957SOL     OW30769   5.682   6.832   0.079
 9957SOL    HW130770   5.597   6.876   0.109
 9957SOL    HW230771   5.717   6.880   7.021
 9958SOL     OW30772   6.356   5.780   5.627
 9958SOL    HW130773   6.348   5.877   5.602
 9958SOL    HW230774   6.277   5.752   5.681
 9959SOL     OW30775   5.748   5.373   6.890
 9959SOL    HW130776   5.726   5.291   6.837
 9959SOL    HW230777   5.835   5.359   6.937
 9960SOL     OW30778   0.187   0.126   6.174
 9960SOL    HW130779   0.203   0.115   6.272
 9960SOL    HW230780   0.090   0.144   6.158
 9961SOL     OW30781   3.621   0.058   0.408
 9961SOL    HW130782   3.714   0.023   0.422
 9961SOL    HW230783   3.568   0.049   0.492
 9962SOL     OW30784   3.564   0.400   1.370
 9962SOL    HW130785   3.581   0.446   1.283
 9962SOL    HW230786   3.465   0.389   1.384
 9963SOL     OW30787   1.392   0.337   6.521
 9963SOL    HW130788   1.298   0.368   6.535
 9963SOL    HW230789   1.440   0.336   6.608
 9964SOL     OW30790   4.736   5.542   5.651
 9964SOL    HW130791   4.749   5.548   5.750
 9964SOL    HW230792   4.644   5.508   5.631
 9965SOL     OW30793   2.041   5.107   4.415
 9965SOL    HW130794   2.133   5.101   4.452
 9965SOL    HW230795   1.981   5.044   4.464
 9966SOL     OW30796   2.650   5.409   1.748
 9966SOL    HW130797   2.738   5.367   1.770
 9966SOL    HW230798   2.620   5.381   1.657
 9967SOL     OW30799   0.248   0.591   2.470
 9967SOL    HW130800   0.293   0.591   2.380
 9967SOL    HW230801   0.284   0.516   2.525
 9968SOL     OW30802   4.905   6.079   0.574
 9968SOL    HW130803   4.844   6.003   0.596
 9968SOL    HW230804   4.998   6.056   0.601
 9969SOL     OW30805   0.496   6.294   2.919
 9969SOL    HW130806   0.581   6.298   2.972
 9969SOL    HW230807   0.448   6.209   2.939
 9970SOL     OW30808   6.454   3.392   1.419
 9970SOL    HW130809   6.414   3.469   1.369
 9970SOL    HW230810   6.485   3.322   1.355
 9971SOL     OW30811   6.565   5.286   5.659
 9971SOL    HW130812   6.542   5.362   5.598
 9971SOL    HW230813   6.592   5.321   5.748
 9972SOL     OW30814   2.663   4.470   5.752
 9972SOL    HW130815   2.754   4.435   5.772
 9972SOL    HW230816   2.642   4.458   5.655
 9973SOL     OW30817   2.671   2.368   3.058
 9973SOL    HW130818   2.619   2.396   2.978
 9973SOL    HW230819   2.766   2.349   3.032
 9974SOL     OW30820   0.797   3.158   3.252
 9974SOL    HW130821   0.894   3.136   3.245
 9974SOL    HW230822   0.743   3.083   3.213
 9975SOL     OW30823   1.233   4.033   0.217
 9975SOL    HW130824   1.194   4.114   0.175
 9975SOL    HW230825   1.189   4.017   0.306
 9976SOL     OW30826   4.311   6.031   5.118
 9976SOL    HW130827   4.341   6.088   5.041
 9976SOL    HW230828   4.243   6.080   5.172
 9977SOL     OW30829   4.215   0.322   5.557
 9977SOL    HW130830   4.195   0.236   5.604
 9977SOL    HW230831   4.286   0.372   5.607
 9978SOL     OW30832   6.485   2.959   0.452
 9978SOL    HW130833   6.576   2.939   0.415
 9978SOL    HW230834   6.435   3.018   0.388
 9979SOL     OW30835   3.761   4.031   3.860
 9979SOL    HW130836   3.842   3.973   3.846
 9979SOL    HW230837   3.724   4.058   3.772
 9980SOL     OW30838   0.309   6.877   6.999
 9980SOL    HW130839   0.298   6.832   6.910
 9980SOL    HW230840   0.313   6.976   6.986
 9981SOL     OW30841   5.888   1.785   0.674
 9981SOL    HW130842   5.863   1.693   0.644
 9981SOL    HW230843   5.807   1.832   0.708
 9982SOL     OW30844   2.561   2.256   4.829
 9982SOL    HW130845   2.612   2.215   4.754
 9982SOL    HW230846   2.471   2.285   4.797
 9983SOL     OW30847   6.965   2.937   2.238
 9983SOL    HW130848   6.873   2.900   2.247
 9983SOL    HW230849   7.014   2.886   2.167
 9984SOL     OW30850   0.778   4.698   0.969
 9984SOL    HW130851   0.788   4.733   1.062
 9984SOL    HW230852   0.692   4.647   0.961
 9985SOL     OW30853   4.814   4.124   6.595
 9985SOL    HW130854   4.906   4.162   6.592
 9985SOL    HW230855   4.772   4.129   6.505
 9986SOL     OW30856   5.481   4.804   6.825
 9986SOL    HW130857   5.519   4.745   6.896
 9986SOL    HW230858   5.452   4.748   6.747
 9987SOL     OW30859   4.659   2.576   0.725
 9987SOL    HW130860   4.610   2.570   0.638
 9987SOL    HW230861   4.628   2.657   0.776
 9988SOL     OW30862   5.894   6.616   3.567
 9988SOL    HW130863   5.939   6.683   3.509
 9988SOL    HW230864   5.799   6.606   3.539
 9989SOL     OW30865   5.503   5.876   1.374
 9989SOL    HW130866   5.488   5.807   1.304
 9989SOL    HW230867   5.420   5.889   1.428
 9990SOL     OW30868   0.401   5.932   2.725
 9990SOL    HW130869   0.373   6.003   2.790
 9990SOL    HW230870   0.384   5.842   2.765
 9991SOL     OW30871   1.728   3.841   1.722
 9991SOL    HW130872   1.815   3.854   1.673
 9991SOL    HW230873   1.693   3.749   1.703
 9992SOL     OW30874   2.265   4.781   0.050
 9992SOL    HW130875   2.166   4.785   0.038
 9992SOL    HW230876   2.287   4.737   0.137
 9993SOL     OW30877   3.813   6.981   4.863
 9993SOL    HW130878   3.910   6.990   4.885
 9993SOL    HW230879   3.758   7.016   4.939
 9994SOL     OW30880   5.807   5.000   4.841
 9994SOL    HW130881   5.837   5.046   4.925
 9994SOL    HW230882   5.708   5.008   4.832
 9995SOL     OW30883   4.314   1.263   6.476
 9995SOL    HW130884   4.316   1.351   6.524
 9995SOL    HW230885   4.317   1.189   6.543
 9996SOL     OW30886   2.632   4.759   0.837
 9996SOL    HW130887   2.546   4.756   0.887
 9996SOL    HW230888   2.675   4.669   0.840
 9997SOL     OW30889   6.579   0.654   2.777
 9997SOL    HW130890   6.486   0.622   2.795
 9997SOL    HW230891   6.595   0.740   2.825
 9998SOL     OW30892   5.144   3.441   2.618
 9998SOL    HW130893   5.166   3.387   2.536
 9998SOL    HW230894   5.223   3.494   2.646
 9999SOL     OW30895   0.797   6.901   5.157
 9999SOL    HW130896   0.892   6.926   5.136
 9999SOL    HW230897   0.761   6.843   5.084
10000SOL     OW30898   4.587   2.758   0.915
10000SOL    HW130899   4.533   2.749   0.998
10000SOL    HW230900   4.540   2.817   0.850
10001SOL     OW30901   4.017   6.713   1.606
10001SOL    HW130902   4.091   6.772   1.573
10001SOL    HW230903   4.052   6.649   1.674
10002SOL     OW30904   1.819   6.383   2.472
10002SOL    HW130905   1.839   6.479   2.492
10002SOL    HW230906   1.852   6.360   2.380
10003SOL     OW30907   1.298   0.591   2.185
10003SOL    HW130908   1.390   0.628   2.169
10003SOL    HW230909   1.241   0.661   2.228
10004SOL     OW30910   6.691   2.959   3.781
10004SOL    HW130911   6.788   2.951   3.806
10004SOL    HW230912   6.666   3.056   3.778
10005SOL     OW30913   2.260   5.811   2.733
10005SOL    HW130914   2.329   5.745   2.702
10005SOL    HW230915   2.298   5.904   2.726
10006SOL     OW30916   5.702   2.018   6.118
10006SOL    HW130917   5.605   1.996   6.109
10006SOL    HW230918   5.716   2.115   6.099
10007SOL     OW30919   1.495   5.326   4.003
10007SOL    HW130920   1.475   5.230   4.023
10007SOL    HW230921   1.584   5.350   4.041
10008SOL     OW30922   4.548   0.842   5.402
10008SOL    HW130923   4.464   0.788   5.397
10008SOL    HW230924   4.526   0.936   5.429
10009SOL     OW30925   1.079   4.870   2.031
10009SOL    HW130926   1.072   4.773   2.007
10009SOL    HW230927   1.071   4.925   1.948
10010SOL     OW30928   1.819   4.266   1.019
10010SOL    HW130929   1.882   4.326   1.068
10010SOL    HW230930   1.737   4.250   1.075
10011SOL     OW30931   3.076   3.792   0.367
10011SOL    HW130932   3.112   3.774   0.275
10011SOL    HW230933   3.151   3.787   0.433
10012SOL     OW30934   5.593   2.114   3.587
10012SOL    HW130935   5.650   2.034   3.604
10012SOL    HW230936   5.536   2.098   3.506
10013SOL     OW30937   0.787   6.305   5.186
10013SOL    HW130938   0.834   6.244   5.123
10013SOL    HW230939   0.690   6.307   5.163
10014SOL     OW30940   1.095   0.885   3.577
10014SOL    HW130941   1.182   0.837   3.575
10014SOL    HW230942   1.088   0.946   3.498
10015SOL     OW30943   4.490   6.977   6.706
10015SOL    HW130944   4.494   6.995   6.804
10015SOL    HW230945   4.425   6.902   6.689
10016SOL     OW30946   3.105   0.998   4.575
10016SOL    HW130947   3.148   0.910   4.555
10016SOL    HW230948   3.103   1.013   4.674
10017SOL     OW30949   2.918   1.771   3.010
10017SOL    HW130950   2.882   1.683   3.043
10017SOL    HW230951   3.002   1.755   2.958
10018SOL     OW30952   0.072   4.649   5.449
10018SOL    HW130953   0.108   4.742   5.446
10018SOL    HW230954   0.063   4.620   5.544
10019SOL     OW30955   6.523   2.113   2.819
10019SOL    HW130956   6.548   2.149   2.729
10019SOL    HW230957   6.576   2.159   2.890
10020SOL     OW30958   6.335   0.816   2.549
10020SOL    HW130959   6.396   0.852   2.478
10020SOL    HW230960   6.260   0.766   2.507
10021SOL     OW30961   1.176   3.636   1.350
10021SOL    HW130962   1.269   3.633   1.312
10021SOL    HW230963   1.181   3.627   1.450
10022SOL     OW30964   1.422   6.507   6.079
10022SOL    HW130965   1.460   6.415   6.078
10022SOL    HW230966   1.454   6.558   6.000
10023SOL     OW30967   0.947   1.652   5.530
10023SOL    HW130968   0.951   1.672   5.433
10023SOL    HW230969   0.882   1.577   5.546
10024SOL     OW30970   2.265   4.329   3.645
10024SOL    HW130971   2.356   4.370   3.648
10024SOL    HW230972   2.216   4.362   3.564
10025SOL     OW30973   0.820   2.543   1.317
10025SOL    HW130974   0.894   2.608   1.336
10025SOL    HW230975   0.843   2.453   1.354
10026SOL     OW30976   6.279   1.187   4.929
10026SOL    HW130977   6.365   1.137   4.937
10026SOL    HW230978   6.233   1.189   5.018
10027SOL     OW30979   3.494   0.905   5.487
10027SOL    HW130980   3.542   0.923   5.401
10027SOL    HW230981   3.398   0.930   5.477
10028SOL     OW30982   3.841   6.894   2.260
10028SOL    HW130983   3.804   6.848   2.341
10028SOL    HW230984   3.865   6.826   2.191
10029SOL     OW30985   6.651   4.937   4.028
10029SOL    HW130986   6.671   4.913   4.123
10029SOL    HW230987   6.736   4.939   3.975
10030SOL     OW30988   2.662   6.989   4.274
10030SOL    HW130989   2.603   0.043   4.297
10030SOL    HW230990   2.720   6.967   4.352
10031SOL     OW30991   2.216   6.375   3.655
10031SOL    HW130992   2.244   6.280   3.640
10031SOL    HW230993   2.261   6.410   3.737
10032SOL     OW30994   3.024   5.923   3.999
10032SOL    HW130995   3.102   5.912   4.060
10032SOL    HW230996   3.056   5.960   3.911
10033SOL     OW30997   2.693   1.319   5.117
10033SOL    HW130998   2.736   1.382   5.181
10033SOL    HW230999   2.597   1.343   5.105
10034SOL     OW31000   2.162   1.089   2.113
10034SOL    HW131001   2.248   1.126   2.148
10034SOL    HW231002   2.136   1.010   2.167
10035SOL     OW31003   7.014   3.175   2.571
10035SOL    HW131004   6.982   3.267   2.595
10035SOL    HW231005   6.936   3.113   2.564
10036SOL     OW31006   0.296   0.999   6.946
10036SOL    HW131007   0.377   0.990   6.889
10036SOL    HW231008   0.264   0.908   6.975
10037SOL     OW31009   6.057   0.217   6.049
10037SOL    HW131010   5.982   0.159   6.017
10037SOL    HW231011   6.019   0.291   6.105
10038SOL     OW31012   5.355   6.504   6.648
10038SOL    HW131013   5.280   6.569   6.636
10038SOL    HW231014   5.418   6.511   6.571
10039SOL     OW31015   6.935   5.423   1.903
10039SOL    HW131016   6.996   5.458   1.831
10039SOL    HW231017   6.944   5.480   1.984
10040SOL     OW31018   2.498   0.114   0.388
10040SOL    HW131019   2.539   0.043   0.445
10040SOL    HW231020   2.410   0.141   0.427
10041SOL     OW31021   5.493   4.906   4.944
10041SOL    HW131022   5.526   4.982   5.000
10041SOL    HW231023   5.557   4.830   4.949
10042SOL     OW31024   6.606   0.450   5.531
10042SOL    HW131025   6.524   0.508   5.522
10042SOL    HW231026   6.618   0.426   5.628
10043SOL     OW31027   0.499   0.670   2.686
10043SOL    HW131028   0.544   0.680   2.597
10043SOL    HW231029   0.401   0.682   2.675
10044SOL     OW31030   2.715   2.082   6.862
10044SOL    HW131031   2.634   2.040   6.904
10044SOL    HW231032   2.794   2.068   6.920
10045SOL     OW31033   3.943   6.542   3.895
10045SOL    HW131034   4.037   6.518   3.919
10045SOL    HW231035   3.943   6.616   3.828
10046SOL     OW31036   0.075   2.239   1.495
10046SOL    HW131037   0.116   2.186   1.569
10046SOL    HW231038   7.005   2.205   1.476
10047SOL     OW31039   1.256   2.730   3.379
10047SOL    HW131040   1.209   2.642   3.370
10047SOL    HW231041   1.206   2.800   3.329
10048SOL     OW31042   3.626   2.575   1.794
10048SOL    HW131043   3.639   2.645   1.863
10048SOL    HW231044   3.657   2.487   1.829
10049SOL     OW31045   1.894   5.965   4.478
10049SOL    HW131046   1.820   5.914   4.433
10049SOL    HW231047   1.899   5.938   4.574
10050SOL     OW31048   5.868   1.640   4.725
10050SOL    HW131049   5.913   1.727   4.704
10050SOL    HW231050   5.895   1.571   4.658
10051SOL     OW31051   6.451   2.577   0.514
10051SOL    HW131052   6.515   2.620   0.451
10051SOL    HW231053   6.487   2.488   0.543
10052SOL     OW31054   1.897   5.078   0.997
10052SOL    HW131055   1.930   5.015   1.068
10052SOL    HW231056   1.809   5.116   1.025
10053SOL     OW31057   3.060   6.332   3.308
10053SOL    HW131058   2.990   6.300   3.245
10053SOL    HW231059   3.042   6.296   3.400
10054SOL     OW31060   4.470   5.665   3.468
10054SOL    HW131061   4.402   5.601   3.431
10054SOL    HW231062   4.514   5.625   3.548
10055SOL     OW31063   6.054   2.780   6.599
10055SOL    HW131064   6.098   2.802   6.686
10055SOL    HW231065   6.027   2.864   6.553
10056SOL     OW31066   5.493   4.235   2.287
10056SOL    HW131067   5.489   4.183   2.201
10056SOL    HW231068   5.412   4.216   2.342
10057SOL     OW31069   2.371   2.530   3.404
10057SOL    HW131070   2.438   2.503   3.473
10057SOL    HW231071   2.337   2.448   3.358
10058SOL     OW31072   0.681   4.770   3.782
10058SOL    HW131073   0.779   4.791   3.775
10058SOL    HW231074   0.641   4.825   3.855
10059SOL     OW31075   5.141   0.675   1.654
10059SOL    HW131076   5.239   0.677   1.634
10059SOL    HW231077   5.120   0.596   1.712
10060SOL     OW31078   2.378   2.279   2.240
10060SOL    HW131079   2.456   2.323   2.196
10060SOL    HW231080   2.316   2.348   2.276
10061SOL     OW31081   6.302   1.825   5.039
10061SOL    HW131082   6.292   1.819   4.939
10061SOL    HW231083   6.216   1.857   5.079
10062SOL     OW31084   5.458   6.000   2.850
10062SOL    HW131085   5.461   6.071   2.920
10062SOL    HW231086   5.542   5.947   2.852
10063SOL     OW31087   0.413   3.013   2.204
10063SOL    HW131088   0.425   2.939   2.139
10063SOL    HW231089   0.502   3.044   2.237
10064SOL     OW31090   5.012   5.726   5.584
10064SOL    HW131091   4.925   5.678   5.580
10064SOL    HW231092   5.081   5.675   5.533
10065SOL     OW31093   0.662   6.781   2.826
10065SOL    HW131094   0.687   6.875   2.801
10065SOL    HW231095   0.718   6.717   2.774
10066SOL     OW31096   0.368   0.195   3.518
10066SOL    HW131097   0.371   0.220   3.615
10066SOL    HW231098   0.366   0.278   3.463
10067SOL     OW31099   4.963   6.683   3.641
10067SOL    HW131100   4.960   6.783   3.631
10067SOL    HW231101   5.059   6.654   3.641
10068SOL     OW31102   5.210   4.021   5.723
10068SOL    HW131103   5.222   4.117   5.747
10068SOL    HW231104   5.116   4.007   5.690
10069SOL     OW31105   5.018   0.926   4.161
10069SOL    HW131106   4.958   0.846   4.152
10069SOL    HW231107   4.965   1.009   4.143
10070SOL     OW31108   1.305   6.793   4.623
10070SOL    HW131109   1.306   6.805   4.722
10070SOL    HW231110   1.374   6.851   4.581
10071SOL     OW31111   4.959   5.188   5.083
10071SOL    HW131112   4.999   5.129   5.153
10071SOL    HW231113   4.976   5.149   4.993
10072SOL     OW31114   1.326   6.618   4.230
10072SOL    HW131115   1.239   6.652   4.263
10072SOL    HW231116   1.338   6.523   4.257
10073SOL     OW31117   6.780   6.032   6.257
10073SOL    HW131118   6.728   6.082   6.326
10073SOL    HW231119   6.792   6.089   6.176
10074SOL     OW31120   2.607   6.972   5.585
10074SOL    HW131121   2.584   6.903   5.517
10074SOL    HW231122   2.700   6.957   5.619
10075SOL     OW31123   1.436   2.327   3.940
10075SOL    HW131124   1.448   2.274   3.856
10075SOL    HW231125   1.473   2.276   4.018
10076SOL     OW31126   5.968   0.251   3.819
10076SOL    HW131127   6.008   0.342   3.812
10076SOL    HW231128   5.885   0.246   3.764
10077SOL     OW31129   2.514   1.511   6.929
10077SOL    HW131130   2.577   1.588   6.941
10077SOL    HW231131   2.428   1.531   6.976
10078SOL     OW31132   5.598   6.033   5.499
10078SOL    HW131133   5.572   6.126   5.474
10078SOL    HW231134   5.687   6.035   5.546
10079SOL     OW31135   0.033   2.442   5.956
10079SOL    HW131136   0.025   2.541   5.965
10079SOL    HW231137   0.027   2.417   5.859
10080SOL     OW31138   1.161   2.654   5.718
10080SOL    HW131139   1.194   2.621   5.807
10080SOL    HW231140   1.062   2.641   5.712
10081SOL     OW31141   0.483   1.158   0.413
10081SOL    HW131142   0.485   1.224   0.488
10081SOL    HW231143   0.574   1.148   0.374
10082SOL     OW31144   0.013   0.385   0.604
10082SOL    HW131145   0.089   0.321   0.608
10082SOL    HW231146   0.038   0.464   0.547
10083SOL     OW31147   5.605   1.492   4.476
10083SOL    HW131148   5.632   1.397   4.487
10083SOL    HW231149   5.634   1.525   4.386
10084SOL     OW31150   2.271   1.015   6.860
10084SOL    HW131151   2.324   1.000   6.776
10084SOL    HW231152   2.324   1.071   6.923
10085SOL     OW31153   0.776   5.315   2.505
10085SOL    HW131154   0.814   5.401   2.537
10085SOL    HW231155   0.769   5.316   2.405
10086SOL     OW31156   6.711   3.427   2.042
10086SOL    HW131157   6.645   3.358   2.013
10086SOL    HW231158   6.797   3.412   1.994
10087SOL     OW31159   1.710   0.024   3.796
10087SOL    HW131160   1.694   0.118   3.828
10087SOL    HW231161   1.651   0.006   3.718
10088SOL     OW31162   6.547   0.718   5.053
10088SOL    HW131163   6.466   0.660   5.062
10088SOL    HW231164   6.613   0.693   5.123
10089SOL     OW31165   2.365   2.662   2.129
10089SOL    HW131166   2.461   2.683   2.148
10089SOL    HW231167   2.307   2.712   2.193
10090SOL     OW31168   6.802   5.200   2.277
10090SOL    HW131169   6.789   5.220   2.180
10090SOL    HW231170   6.884   5.245   2.310
10091SOL     OW31171   0.507   2.261   3.780
10091SOL    HW131172   0.478   2.303   3.866
10091SOL    HW231173   0.486   2.321   3.703
10092SOL     OW31174   1.579   2.624   5.059
10092SOL    HW131175   1.502   2.651   5.002
10092SOL    HW231176   1.624   2.705   5.096
10093SOL     OW31177   0.309   6.016   6.204
10093SOL    HW131178   0.224   5.994   6.253
10093SOL    HW231179   0.297   6.101   6.153
10094SOL     OW31180   1.807   1.244   2.173
10094SOL    HW131181   1.819   1.312   2.101
10094SOL    HW231182   1.740   1.175   2.143
10095SOL     OW31183   0.402   1.803   5.543
10095SOL    HW131184   0.365   1.711   5.535
10095SOL    HW231185   0.377   1.856   5.462
10096SOL     OW31186   0.245   5.679   2.349
10096SOL    HW131187   0.193   5.758   2.383
10096SOL    HW231188   0.222   5.598   2.403
10097SOL     OW31189   1.375   2.544   5.930
10097SOL    HW131190   1.463   2.501   5.911
10097SOL    HW231191   1.304   2.474   5.934
10098SOL     OW31192   3.530   5.226   6.624
10098SOL    HW131193   3.520   5.159   6.551
10098SOL    HW231194   3.460   5.297   6.615
10099SOL     OW31195   6.743   5.175   4.830
10099SOL    HW131196   6.783   5.253   4.781
10099SOL    HW231197   6.783   5.170   4.922
10100SOL     OW31198   5.253   1.049   5.727
10100SOL    HW131199   5.171   1.065   5.672
10100SOL    HW231200   5.308   0.976   5.685
10101SOL     OW31201   6.930   4.584   2.679
10101SOL    HW131202   6.964   4.495   2.648
10101SOL    HW231203   6.844   4.605   2.632
10102SOL     OW31204   3.985   0.303   4.012
10102SOL    HW131205   3.885   0.310   4.009
10102SOL    HW231206   4.025   0.371   3.951
10103SOL     OW31207   1.184   1.861   0.584
10103SOL    HW131208   1.262   1.858   0.646
10103SOL    HW231209   1.216   1.890   0.493
10104SOL     OW31210   1.668   6.017   5.821
10104SOL    HW131211   1.684   6.102   5.871
10104SOL    HW231212   1.579   6.019   5.777
10105SOL     OW31213   3.489   0.527   0.135
10105SOL    HW131214   3.528   0.619   0.143
10105SOL    HW231215   3.539   0.464   0.195
10106SOL     OW31216   4.845   5.333   1.775
10106SOL    HW131217   4.886   5.421   1.755
10106SOL    HW231218   4.829   5.283   1.690
10107SOL     OW31219   5.860   1.009   5.896
10107SOL    HW131220   5.856   0.952   5.814
10107SOL    HW231221   5.946   0.994   5.943
10108SOL     OW31222   5.854   6.270   6.714
10108SOL    HW131223   5.757   6.255   6.692
10108SOL    HW231224   5.865   6.277   6.813
10109SOL     OW31225   4.323   6.036   3.380
10109SOL    HW131226   4.281   5.966   3.438
10109SOL    HW231227   4.402   6.075   3.428
10110SOL     OW31228   3.371   1.449   5.425
10110SOL    HW131229   3.399   1.545   5.424
10110SOL    HW231230   3.452   1.391   5.427
10111SOL     OW31231   0.033   2.798   2.572
10111SOL    HW131232   6.968   2.834   2.540
10111SOL    HW231233   0.107   2.831   2.513
10112SOL     OW31234   4.060   3.406   5.918
10112SOL    HW131235   4.128   3.470   5.880
10112SOL    HW231236   3.984   3.396   5.853
10113SOL     OW31237   4.392   6.902   0.406
10113SOL    HW131238   4.435   6.821   0.446
10113SOL    HW231239   4.404   6.979   0.468
10114SOL     OW31240   4.363   1.685   1.608
10114SOL    HW131241   4.460   1.663   1.600
10114SOL    HW231242   4.351   1.764   1.668
10115SOL     OW31243   1.167   1.733   4.145
10115SOL    HW131244   1.099   1.797   4.109
10115SOL    HW231245   1.231   1.781   4.204
10116SOL     OW31246   0.290   0.324   0.665
10116SOL    HW131247   0.281   0.225   0.669
10116SOL    HW231248   0.298   0.361   0.758
10117SOL     OW31249   4.754   0.718   5.515
10117SOL    HW131250   4.675   0.766   5.477
10117SOL    HW231251   4.742   0.620   5.504
10118SOL     OW31252   6.166   5.061   2.300
10118SOL    HW131253   6.258   5.090   2.328
10118SOL    HW231254   6.108   5.142   2.289
10119SOL     OW31255   2.179   0.502   5.983
10119SOL    HW131256   2.131   0.513   6.070
10119SOL    HW231257   2.139   0.424   5.933
10120SOL     OW31258   5.733   3.294   3.676
10120SOL    HW131259   5.690   3.299   3.585
10120SOL    HW231260   5.668   3.255   3.741
10121SOL     OW31261   5.752   5.162   3.909
10121SOL    HW131262   5.691   5.124   3.979
10121SOL    HW231263   5.800   5.088   3.863
10122SOL     OW31264   5.133   3.135   6.716
10122SOL    HW131265   5.069   3.211   6.703
10122SOL    HW231266   5.082   3.049   6.714
10123SOL     OW31267   0.011   6.534   0.305
10123SOL    HW131268   0.023   6.632   0.319
10123SOL    HW231269   0.101   6.491   0.295
10124SOL     OW31270   3.020   4.014   1.248
10124SOL    HW131271   2.983   3.930   1.288
10124SOL    HW231272   2.986   4.093   1.298
10125SOL     OW31273   2.171   0.589   0.893
10125SOL    HW131274   2.120   0.551   0.971
10125SOL    HW231275   2.121   0.569   0.808
10126SOL     OW31276   5.550   5.069   6.833
10126SOL    HW131277   5.515   4.977   6.815
10126SOL    HW231278   5.630   5.062   6.893
10127SOL     OW31279   3.556   4.802   5.324
10127SOL    HW131280   3.553   4.901   5.310
10127SOL    HW231281   3.462   4.767   5.328
10128SOL     OW31282   0.110   1.873   1.732
10128SOL    HW131283   0.139   1.892   1.638
10128SOL    HW231284   0.059   1.786   1.733
10129SOL     OW31285   5.075   2.636   3.322
10129SOL    HW131286   5.104   2.731   3.312
10129SOL    HW231287   5.135   2.577   3.268
10130SOL     OW31288   6.130   6.118   1.133
10130SOL    HW131289   6.142   6.048   1.063
10130SOL    HW231290   6.041   6.163   1.120
10131SOL     OW31291   0.192   0.077   0.259
10131SOL    HW131292   0.270   0.015   0.249
10131SOL    HW231293   0.225   0.171   0.268
10132SOL     OW31294   2.528   0.085   2.630
10132SOL    HW131295   2.576   0.030   2.698
10132SOL    HW231296   2.435   0.104   2.662
10133SOL     OW31297   5.926   4.912   2.405
10133SOL    HW131298   5.920   4.818   2.373
10133SOL    HW231299   6.012   4.952   2.375
10134SOL     OW31300   0.399   1.428   2.001
10134SOL    HW131301   0.498   1.416   2.005
10134SOL    HW231302   0.377   1.523   1.979
10135SOL     OW31303   3.074   6.112   3.571
10135SOL    HW131304   3.104   6.097   3.665
10135SOL    HW231305   2.975   6.117   3.568
10136SOL     OW31306   6.745   6.790   2.142
10136SOL    HW131307   6.740   6.876   2.194
10136SOL    HW231308   6.656   6.770   2.103
10137SOL     OW31309   5.586   5.112   4.145
10137SOL    HW131310   5.617   5.019   4.127
10137SOL    HW231311   5.596   5.133   4.242
10138SOL     OW31312   5.315   2.267   6.116
10138SOL    HW131313   5.377   2.248   6.040
10138SOL    HW231314   5.309   2.187   6.176
10139SOL     OW31315   3.609   2.887   3.426
10139SOL    HW131316   3.511   2.885   3.448
10139SOL    HW231317   3.620   2.901   3.327
10140SOL     OW31318   0.926   5.607   4.423
10140SOL    HW131319   0.885   5.697   4.432
10140SOL    HW231320   0.997   5.609   4.352
10141SOL     OW31321   2.144   0.536   3.919
10141SOL    HW131322   2.178   0.463   3.978
10141SOL    HW231323   2.158   0.624   3.963
10142SOL     OW31324   4.976   5.823   4.079
10142SOL    HW131325   5.003   5.824   4.175
10142SOL    HW231326   5.026   5.894   4.030
10143SOL     OW31327   4.670   5.902   1.670
10143SOL    HW131328   4.681   5.848   1.587
10143SOL    HW231329   4.643   5.842   1.746
10144SOL     OW31330   2.745   4.708   3.015
10144SOL    HW131331   2.730   4.801   2.981
10144SOL    HW231332   2.816   4.709   3.086
10145SOL     OW31333   2.968   0.033   5.908
10145SOL    HW131334   2.988   0.127   5.938
10145SOL    HW231335   2.897   7.017   5.967
10146SOL     OW31336   5.180   4.727   4.032
10146SOL    HW131337   5.198   4.822   4.056
10146SOL    HW231338   5.138   4.680   4.109
10147SOL     OW31339   4.798   5.649   4.180
10147SOL    HW131340   4.813   5.636   4.277
10147SOL    HW231341   4.852   5.727   4.148
10148SOL     OW31342   6.214   4.978   0.390
10148SOL    HW131343   6.171   4.920   0.459
10148SOL    HW231344   6.148   5.047   0.360
10149SOL     OW31345   4.275   3.484   0.772
10149SOL    HW131346   4.351   3.419   0.779
10149SOL    HW231347   4.233   3.496   0.862
10150SOL     OW31348   5.425   4.001   0.845
10150SOL    HW131349   5.455   4.011   0.750
10150SOL    HW231350   5.503   4.013   0.906
10151SOL     OW31351   1.209   6.008   5.503
10151SOL    HW131352   1.113   6.003   5.477
10151SOL    HW231353   1.234   5.926   5.555
10152SOL     OW31354   0.114   5.709   3.864
10152SOL    HW131355   0.024   5.712   3.820
10152SOL    HW231356   0.162   5.627   3.833
10153SOL     OW31357   5.153   6.010   4.004
10153SOL    HW131358   5.241   5.981   3.967
10153SOL    HW231359   5.146   6.110   3.997
10154SOL     OW31360   6.606   5.744   5.726
10154SOL    HW131361   6.521   5.769   5.679
10154SOL    HW231362   6.620   5.805   5.804
10155SOL     OW31363   3.609   1.528   6.136
10155SOL    HW131364   3.677   1.473   6.186
10155SOL    HW231365   3.529   1.472   6.116
10156SOL     OW31366   5.772   0.180   2.371
10156SOL    HW131367   5.743   0.230   2.290
10156SOL    HW231368   5.861   0.214   2.402
10157SOL     OW31369   4.693   0.842   4.730
10157SOL    HW131370   4.646   0.765   4.687
10157SOL    HW231371   4.626   0.901   4.775
10158SOL     OW31372   4.577   3.515   5.916
10158SOL    HW131373   4.646   3.448   5.941
10158SOL    HW231374   4.610   3.607   5.937
10159SOL     OW31375   1.608   1.276   6.217
10159SOL    HW131376   1.641   1.188   6.252
10159SOL    HW231377   1.571   1.330   6.293
10160SOL     OW31378   0.627   5.895   3.174
10160SOL    HW131379   0.599   5.857   3.086
10160SOL    HW231380   0.692   5.833   3.218
10161SOL     OW31381   1.970   5.949   5.793
10161SOL    HW131382   1.874   5.973   5.797
10161SOL    HW231383   2.023   6.011   5.850
10162SOL     OW31384   3.444   2.622   6.790
10162SOL    HW131385   3.407   2.534   6.763
10162SOL    HW231386   3.372   2.691   6.788
10163SOL     OW31387   0.020   2.845   5.560
10163SOL    HW131388   6.971   2.841   5.490
10163SOL    HW231389   0.082   2.768   5.547
10164SOL     OW31390   1.314   2.386   5.256
10164SOL    HW131391   1.396   2.357   5.305
10164SOL    HW231392   1.336   2.403   5.160
10165SOL     OW31393   0.120   1.980   3.114
10165SOL    HW131394   0.122   1.880   3.105
10165SOL    HW231395   0.039   2.015   3.068
10166SOL     OW31396   0.690   1.205   1.961
10166SOL    HW131397   0.788   1.183   1.961
10166SOL    HW231398   0.678   1.302   1.981
10167SOL     OW31399   4.863   0.418   0.990
10167SOL    HW131400   4.924   0.380   0.919
10167SOL    HW231401   4.830   0.343   1.047
10168SOL     OW31402   6.640   4.575   4.720
10168SOL    HW131403   6.686   4.652   4.764
10168SOL    HW231404   6.709   4.506   4.695
10169SOL     OW31405   6.383   4.364   4.376
10169SOL    HW131406   6.474   4.354   4.416
10169SOL    HW231407   6.314   4.352   4.446
10170SOL     OW31408   1.348   3.678   4.792
10170SOL    HW131409   1.336   3.777   4.797
10170SOL    HW231410   1.326   3.637   4.880
10171SOL     OW31411   6.228   3.029   5.995
10171SOL    HW131412   6.175   3.114   5.996
10171SOL    HW231413   6.181   2.962   5.938
10172SOL     OW31414   4.692   1.141   4.194
10172SOL    HW131415   4.676   1.043   4.201
10172SOL    HW231416   4.785   1.157   4.161
10173SOL     OW31417   2.266   2.232   2.929
10173SOL    HW131418   2.286   2.323   2.965
10173SOL    HW231419   2.308   2.222   2.839
10174SOL     OW31420   5.894   4.112   0.637
10174SOL    HW131421   5.915   4.153   0.726
10174SOL    HW231422   5.980   4.086   0.592
10175SOL     OW31423   6.443   2.448   6.267
10175SOL    HW131424   6.359   2.421   6.313
10175SOL    HW231425   6.504   2.492   6.334
10176SOL     OW31426   2.342   3.592   0.215
10176SOL    HW131427   2.305   3.680   0.246
10176SOL    HW231428   2.398   3.552   0.287
10177SOL     OW31429   1.937   0.207   5.794
10177SOL    HW131430   2.035   0.226   5.789
10177SOL    HW231431   1.914   0.135   5.728
10178SOL     OW31432   5.471   2.910   5.463
10178SOL    HW131433   5.503   2.948   5.377
10178SOL    HW231434   5.442   2.815   5.449
10179SOL     OW31435   7.014   3.367   6.217
10179SOL    HW131436   6.929   3.362   6.164
10179SOL    HW231437   0.030   3.459   6.210
10180SOL     OW31438   2.448   6.515   5.939
10180SOL    HW131439   2.496   6.569   5.870
10180SOL    HW231440   2.452   6.562   6.027
10181SOL     OW31441   5.734   3.488   1.608
10181SOL    HW131442   5.755   3.585   1.613
10181SOL    HW231443   5.816   3.436   1.583
10182SOL     OW31444   4.282   1.356   0.322
10182SOL    HW131445   4.338   1.348   0.240
10182SOL    HW231446   4.338   1.333   0.402
10183SOL     OW31447   1.366   1.450   6.729
10183SOL    HW131448   1.312   1.526   6.766
10183SOL    HW231449   1.462   1.476   6.726
10184SOL     OW31450   4.803   0.412   6.883
10184SOL    HW131451   4.845   0.448   6.801
10184SOL    HW231452   4.783   0.315   6.871
10185SOL     OW31453   4.794   1.100   0.099
10185SOL    HW131454   4.723   1.046   0.054
10185SOL    HW231455   4.863   1.126   0.031
10186SOL     OW31456   4.586   2.071   2.878
10186SOL    HW131457   4.666   2.132   2.873
10186SOL    HW231458   4.531   2.082   2.796
10187SOL     OW31459   0.508   2.073   1.999
10187SOL    HW131460   0.580   2.054   2.066
10187SOL    HW231461   0.459   2.157   2.026
10188SOL     OW31462   3.807   4.652   0.755
10188SOL    HW131463   3.879   4.626   0.820
10188SOL    HW231464   3.736   4.581   0.755
10189SOL     OW31465   1.488   6.639   5.840
10189SOL    HW131466   1.501   6.722   5.786
10189SOL    HW231467   1.400   6.597   5.817
10190SOL     OW31468   4.632   2.499   7.004
10190SOL    HW131469   4.595   2.555   0.055
10190SOL    HW231470   4.558   2.460   6.950
10191SOL     OW31471   6.825   4.565   6.634
10191SOL    HW131472   6.857   4.652   6.598
10191SOL    HW231473   6.759   4.581   6.708
10192SOL     OW31474   3.775   1.639   0.500
10192SOL    HW131475   3.865   1.655   0.460
10192SOL    HW231476   3.754   1.542   0.499
10193SOL     OW31477   4.095   4.277   0.615
10193SOL    HW131478   4.018   4.272   0.678
10193SOL    HW231479   4.081   4.213   0.539
10194SOL     OW31480   4.962   2.828   5.383
10194SOL    HW131481   4.978   2.744   5.434
10194SOL    HW231482   5.025   2.899   5.416
10195SOL     OW31483   6.291   4.235   1.742
10195SOL    HW131484   6.204   4.227   1.693
10195SOL    HW231485   6.366   4.205   1.683
10196SOL     OW31486   0.424   1.516   4.663
10196SOL    HW131487   0.401   1.419   4.652
10196SOL    HW231488   0.428   1.539   4.760
10197SOL     OW31489   5.698   0.696   6.720
10197SOL    HW131490   5.742   0.626   6.664
10197SOL    HW231491   5.630   0.745   6.665
10198SOL     OW31492   4.462   0.031   3.331
10198SOL    HW131493   4.548   0.027   3.383
10198SOL    HW231494   4.389   7.010   3.384
10199SOL     OW31495   0.699   2.296   5.281
10199SOL    HW131496   0.665   2.273   5.190
10199SOL    HW231497   0.624   2.291   5.348
10200SOL     OW31498   5.395   1.577   1.856
10200SOL    HW131499   5.366   1.593   1.950
10200SOL    HW231500   5.314   1.571   1.797
10201SOL     OW31501   1.109   3.967   0.450
10201SOL    HW131502   1.019   3.996   0.484
10201SOL    HW231503   1.104   3.871   0.421
10202SOL     OW31504   5.104   0.502   4.385
10202SOL    HW131505   5.173   0.453   4.331
10202SOL    HW231506   5.113   0.600   4.370
10203SOL     OW31507   6.729   2.551   4.566
10203SOL    HW131508   6.786   2.593   4.636
10203SOL    HW231509   6.716   2.454   4.586
10204SOL     OW31510   5.732   5.009   6.470
10204SOL    HW131511   5.682   4.923   6.471
10204SOL    HW231512   5.776   5.021   6.381
10205SOL     OW31513   0.483   1.288   6.286
10205SOL    HW131514   0.498   1.371   6.340
10205SOL    HW231515   0.569   1.237   6.280
10206SOL     OW31516   1.803   1.175   4.897
10206SOL    HW131517   1.728   1.119   4.863
10206SOL    HW231518   1.885   1.119   4.909
10207SOL     OW31519   2.293   2.251   5.426
10207SOL    HW131520   2.312   2.167   5.477
10207SOL    HW231521   2.216   2.298   5.468
10208SOL     OW31522   6.903   6.278   5.570
10208SOL    HW131523   6.924   6.322   5.482
10208SOL    HW231524   6.989   6.263   5.620
10209SOL     OW31525   0.353   6.695   6.095
10209SOL    HW131526   0.329   6.648   6.010
10209SOL    HW231527   0.430   6.756   6.078
10210SOL     OW31528   3.474   0.363   1.791
10210SOL    HW131529   3.510   0.401   1.706
10210SOL    HW231530   3.509   0.415   1.869
10211SOL     OW31531   5.142   5.683   5.911
10211SOL    HW131532   5.209   5.615   5.941
10211SOL    HW231533   5.143   5.689   5.812
10212SOL     OW31534   0.789   0.428   6.560
10212SOL    HW131535   0.743   0.393   6.478
10212SOL    HW231536   0.884   0.397   6.560
10213SOL     OW31537   6.699   2.409   0.863
10213SOL    HW131538   6.756   2.346   0.915
10213SOL    HW231539   6.668   2.483   0.923
10214SOL     OW31540   1.298   2.465   7.003
10214SOL    HW131541   1.207   2.429   6.983
10214SOL    HW231542   1.362   2.389   7.015
10215SOL     OW31543   2.951   3.682   2.118
10215SOL    HW131544   2.939   3.668   2.217
10215SOL    HW231545   2.881   3.631   2.068
10216SOL     OW31546   0.643   6.172   1.876
10216SOL    HW131547   0.607   6.150   1.785
10216SOL    HW231548   0.645   6.090   1.933
10217SOL     OW31549   3.746   1.682   5.119
10217SOL    HW131550   3.659   1.634   5.107
10217SOL    HW231551   3.733   1.779   5.098
10218SOL     OW31552   0.880   3.430   2.575
10218SOL    HW131553   0.794   3.381   2.559
10218SOL    HW231554   0.950   3.395   2.514
10219SOL     OW31555   0.142   5.588   3.039
10219SOL    HW131556   0.065   5.542   3.083
10219SOL    HW231557   0.119   5.684   3.023
10220SOL     OW31558   3.409   3.323   0.119
10220SOL    HW131559   3.499   3.327   0.163
10220SOL    HW231560   3.337   3.338   0.187
10221SOL     OW31561   0.730   5.601   3.890
10221SOL    HW131562   0.802   5.607   3.959
10221SOL    HW231563   0.689   5.509   3.893
10222SOL     OW31564   3.566   3.834   3.664
10222SOL    HW131565   3.477   3.793   3.686
10222SOL    HW231566   3.562   3.933   3.682
10223SOL     OW31567   2.360   6.632   0.921
10223SOL    HW131568   2.443   6.684   0.899
10223SOL    HW231569   2.376   6.535   0.904
10224SOL     OW31570   6.465   3.689   2.999
10224SOL    HW131571   6.378   3.737   2.988
10224SOL    HW231572   6.514   3.688   2.912
10225SOL     OW31573   1.751   3.629   5.815
10225SOL    HW131574   1.818   3.697   5.785
10225SOL    HW231575   1.790   3.537   5.808
10226SOL     OW31576   5.181   4.229   0.055
10226SOL    HW131577   5.271   4.237   0.097
10226SOL    HW231578   5.123   4.305   0.084
10227SOL     OW31579   5.698   3.671   1.217
10227SOL    HW131580   5.720   3.679   1.119
10227SOL    HW231581   5.781   3.648   1.267
10228SOL     OW31582   5.031   0.334   0.768
10228SOL    HW131583   4.984   0.352   0.682
10228SOL    HW231584   5.102   0.265   0.754
10229SOL     OW31585   0.590   2.575   5.029
10229SOL    HW131586   0.624   2.496   4.976
10229SOL    HW231587   0.637   2.578   5.117
10230SOL     OW31588   6.316   6.232   1.321
10230SOL    HW131589   6.358   6.152   1.364
10230SOL    HW231590   6.241   6.202   1.261
10231SOL     OW31591   0.224   4.437   2.569
10231SOL    HW131592   0.280   4.465   2.646
10231SOL    HW231593   0.134   4.407   2.602
10232SOL     OW31594   4.755   4.309   2.770
10232SOL    HW131595   4.764   4.406   2.792
10232SOL    HW231596   4.752   4.256   2.855
10233SOL     OW31597   2.356   4.255   5.284
10233SOL    HW131598   2.262   4.241   5.315
10233SOL    HW231599   2.397   4.168   5.259
10234SOL     OW31600   0.994   0.930   2.174
10234SOL    HW131601   0.901   0.969   2.174
10234SOL    HW231602   1.021   0.912   2.269
10235SOL     OW31603   1.092   0.898   3.036
10235SOL    HW131604   1.141   0.867   2.954
10235SOL    HW231605   1.050   0.987   3.018
10236SOL     OW31606   1.399   0.071   2.606
10236SOL    HW131607   1.397   0.003   2.679
10236SOL    HW231608   1.306   0.102   2.585
10237SOL     OW31609   0.185   3.412   4.418
10237SOL    HW131610   0.190   3.324   4.465
10237SOL    HW231611   0.137   3.478   4.476
10238SOL     OW31612   2.725   6.906   1.303
10238SOL    HW131613   2.645   6.848   1.294
10238SOL    HW231614   2.702   6.999   1.274
10239SOL     OW31615   0.616   1.928   4.799
10239SOL    HW131616   0.686   1.984   4.755
10239SOL    HW231617   0.527   1.971   4.789
10240SOL     OW31618   2.167   6.133   0.761
10240SOL    HW131619   2.180   6.169   0.668
10240SOL    HW231620   2.256   6.116   0.802
10241SOL     OW31621   4.584   3.605   1.381
10241SOL    HW131622   4.521   3.664   1.331
10241SOL    HW231623   4.532   3.535   1.429
10242SOL     OW31624   7.008   2.966   0.574
10242SOL    HW131625   6.916   3.006   0.572
10242SOL    HW231626   7.008   2.885   0.633
10243SOL     OW31627   2.962   6.169   2.229
10243SOL    HW131628   2.939   6.075   2.255
10243SOL    HW231629   2.944   6.181   2.131
10244SOL     OW31630   2.879   5.299   1.788
10244SOL    HW131631   2.859   5.201   1.790
10244SOL    HW231632   2.953   5.319   1.852
10245SOL     OW31633   5.428   4.445   1.126
10245SOL    HW131634   5.338   4.488   1.131
10245SOL    HW231635   5.489   4.485   1.194
10246SOL     OW31636   3.380   3.182   4.144
10246SOL    HW131637   3.407   3.272   4.110
10246SOL    HW231638   3.348   3.190   4.238
10247SOL     OW31639   0.951   2.934   4.486
10247SOL    HW131640   1.036   2.916   4.438
10247SOL    HW231641   0.970   2.961   4.580
10248SOL     OW31642   0.695   1.007   5.383
10248SOL    HW131643   0.638   0.976   5.460
10248SOL    HW231644   0.703   1.107   5.385
10249SOL     OW31645   2.326   4.964   6.051
10249SOL    HW131646   2.288   4.978   5.960
10249SOL    HW231647   2.425   4.948   6.044
10250SOL     OW31648   3.071   2.272   0.819
10250SOL    HW131649   3.095   2.263   0.916
10250SOL    HW231650   2.980   2.312   0.810
10251SOL     OW31651   1.637   0.713   4.559
10251SOL    HW131652   1.664   0.745   4.468
10251SOL    HW231653   1.564   0.645   4.551
10252SOL     OW31654   4.440   4.671   5.739
10252SOL    HW131655   4.463   4.624   5.654
10252SOL    HW231656   4.470   4.766   5.733
10253SOL     OW31657   3.740   6.287   6.474
10253SOL    HW131658   3.653   6.258   6.514
10253SOL    HW231659   3.778   6.212   6.420
10254SOL     OW31660   6.898   1.625   5.696
10254SOL    HW131661   6.824   1.655   5.757
10254SOL    HW231662   6.859   1.587   5.612
10255SOL     OW31663   4.011   4.426   1.706
10255SOL    HW131664   4.022   4.435   1.607
10255SOL    HW231665   3.967   4.339   1.726
10256SOL     OW31666   3.739   1.524   4.702
10256SOL    HW131667   3.689   1.437   4.699
10256SOL    HW231668   3.678   1.596   4.735
10257SOL     OW31669   3.892   5.802   2.901
10257SOL    HW131670   3.980   5.767   2.932
10257SOL    HW231671   3.819   5.742   2.933
10258SOL     OW31672   2.718   1.491   2.718
10258SOL    HW131673   2.675   1.440   2.643
10258SOL    HW231674   2.654   1.561   2.751
10259SOL     OW31675   1.645   3.868   4.329
10259SOL    HW131676   1.582   3.946   4.323
10259SOL    HW231677   1.641   3.829   4.421
10260SOL     OW31678   0.110   0.021   3.098
10260SOL    HW131679   0.027   0.008   3.043
10260SOL    HW231680   0.177   0.073   3.044
10261SOL     OW31681   0.260   4.275   0.659
10261SOL    HW131682   0.309   4.229   0.734
10261SOL    HW231683   0.259   4.215   0.579
10262SOL     OW31684   3.871   0.791   6.560
10262SOL    HW131685   3.845   0.883   6.530
10262SOL    HW231686   3.934   0.751   6.494
10263SOL     OW31687   5.681   0.738   2.888
10263SOL    HW131688   5.708   0.649   2.923
10263SOL    HW231689   5.669   0.802   2.964
10264SOL     OW31690   6.761   0.299   6.321
10264SOL    HW131691   6.788   0.215   6.274
10264SOL    HW231692   6.661   0.310   6.315
10265SOL     OW31693   1.876   1.757   2.035
10265SOL    HW131694   1.815   1.685   2.068
10265SOL    HW231695   1.839   1.846   2.063
10266SOL     OW31696   2.598   3.276   1.712
10266SOL    HW131697   2.610   3.319   1.622
10266SOL    HW231698   2.521   3.320   1.759
10267SOL     OW31699   6.491   0.298   0.526
10267SOL    HW131700   6.444   0.215   0.494
10267SOL    HW231701   6.515   0.288   0.622
10268SOL     OW31702   3.347   5.704   2.474
10268SOL    HW131703   3.372   5.643   2.550
10268SOL    HW231704   3.251   5.731   2.484
10269SOL     OW31705   1.927   1.610   0.714
10269SOL    HW131706   2.014   1.624   0.667
10269SOL    HW231707   1.886   1.524   0.684
10270SOL     OW31708   2.536   0.290   3.505
10270SOL    HW131709   2.574   0.247   3.588
10270SOL    HW231710   2.444   0.254   3.489
10271SOL     OW31711   2.120   1.261   6.826
10271SOL    HW131712   2.141   1.165   6.807
10271SOL    HW231713   2.021   1.275   6.821
10272SOL     OW31714   6.104   6.913   4.459
10272SOL    HW131715   6.009   6.942   4.446
10272SOL    HW231716   6.165   6.977   4.411
10273SOL     OW31717   1.966   5.285   3.787
10273SOL    HW131718   2.046   5.345   3.786
10273SOL    HW231719   1.996   5.190   3.780
10274SOL     OW31720   0.824   4.096   4.945
10274SOL    HW131721   0.829   4.148   4.860
10274SOL    HW231722   0.742   4.123   4.995
10275SOL     OW31723   6.594   1.362   2.081
10275SOL    HW131724   6.542   1.427   2.024
10275SOL    HW231725   6.607   1.277   2.030
10276SOL     OW31726   2.628   5.639   5.180
10276SOL    HW131727   2.619   5.738   5.174
10276SOL    HW231728   2.678   5.605   5.101
10277SOL     OW31729   1.256   5.943   3.785
10277SOL    HW131730   1.272   5.845   3.778
10277SOL    HW231731   1.329   5.992   3.736
10278SOL     OW31732   6.516   0.115   4.524
10278SOL    HW131733   6.452   0.100   4.449
10278SOL    HW231734   6.568   0.199   4.508
10279SOL     OW31735   1.273   5.483   3.882
10279SOL    HW131736   1.342   5.411   3.873
10279SOL    HW231737   1.304   5.552   3.948
10280SOL     OW31738   6.501   4.847   0.437
10280SOL    HW131739   6.407   4.876   0.418
10280SOL    HW231740   6.501   4.754   0.474
10281SOL     OW31741   6.432   0.834   3.330
10281SOL    HW131742   6.480   0.855   3.416
10281SOL    HW231743   6.428   0.735   3.318
10282SOL     OW31744   4.971   3.009   3.319
10282SOL    HW131745   4.939   3.086   3.374
10282SOL    HW231746   4.966   3.032   3.222
10283SOL     OW31747   0.516   2.513   1.308
10283SOL    HW131748   0.615   2.517   1.294
10283SOL    HW231749   0.470   2.511   1.219
10284SOL     OW31750   0.086   4.290   4.231
10284SOL    HW131751   0.033   4.347   4.294
10284SOL    HW231752   0.088   4.332   4.141
10285SOL     OW31753   6.830   6.519   6.103
10285SOL    HW131754   6.922   6.535   6.139
10285SOL    HW231755   6.769   6.495   6.179
10286SOL     OW31756   2.623   1.296   3.085
10286SOL    HW131757   2.568   1.350   3.021
10286SOL    HW231758   2.588   1.309   3.177
10287SOL     OW31759   1.395   5.462   2.550
10287SOL    HW131760   1.415   5.379   2.603
10287SOL    HW231761   1.423   5.449   2.455
10288SOL     OW31762   3.630   5.863   4.640
10288SOL    HW131763   3.699   5.902   4.579
10288SOL    HW231764   3.672   5.844   4.729
10289SOL     OW31765   4.137   6.376   0.072
10289SOL    HW131766   4.227   6.344   0.043
10289SOL    HW231767   4.147   6.443   0.145
10290SOL     OW31768   3.074   3.331   1.997
10290SOL    HW131769   3.104   3.335   1.902
10290SOL    HW231770   3.153   3.323   2.057
10291SOL     OW31771   2.466   1.924   2.560
10291SOL    HW131772   2.479   2.019   2.532
10291SOL    HW231773   2.547   1.871   2.536
10292SOL     OW31774   0.102   6.766   6.202
10292SOL    HW131775   0.198   6.744   6.182
10292SOL    HW231776   0.066   6.826   6.130
10293SOL     OW31777   1.298   3.968   5.110
10293SOL    HW131778   1.230   3.912   5.062
10293SOL    HW231779   1.338   4.034   5.046
10294SOL     OW31780   3.186   0.367   2.324
10294SOL    HW131781   3.088   0.353   2.314
10294SOL    HW231782   3.229   0.369   2.234
10295SOL     OW31783   1.175   1.481   7.006
10295SOL    HW131784   1.145   1.514   0.073
10295SOL    HW231785   1.274   1.466   7.008
10296SOL     OW31786   6.379   1.883   5.857
10296SOL    HW131787   6.371   1.797   5.807
10296SOL    HW231788   6.440   1.871   5.935
10297SOL     OW31789   3.856   1.183   0.859
10297SOL    HW131790   3.777   1.171   0.919
10297SOL    HW231791   3.835   1.253   0.791
10298SOL     OW31792   0.318   2.358   2.290
10298SOL    HW131793   0.276   2.395   2.373
10298SOL    HW231794   0.363   2.271   2.311
10299SOL     OW31795   4.468   0.129   2.700
10299SOL    HW131796   4.553   0.167   2.736
10299SOL    HW231797   4.400   0.124   2.773
10300SOL     OW31798   1.441   3.428   0.841
10300SOL    HW131799   1.531   3.385   0.844
10300SOL    HW231800   1.452   3.527   0.831
10301SOL     OW31801   3.971   0.853   0.061
10301SOL    HW131802   3.930   0.866   0.151
10301SOL    HW231803   4.009   0.761   0.054
10302SOL     OW31804   3.057   6.440   4.948
10302SOL    HW131805   2.997   6.381   5.003
10302SOL    HW231806   3.064   6.530   4.990
10303SOL     OW31807   0.292   4.793   4.378
10303SOL    HW131808   0.234   4.725   4.332
10303SOL    HW231809   0.326   4.755   4.464
10304SOL     OW31810   5.861   6.469   0.559
10304SOL    HW131811   5.842   6.561   0.525
10304SOL    HW231812   5.777   6.415   0.561
10305SOL     OW31813   3.093   3.766   5.825
10305SOL    HW131814   3.021   3.736   5.762
10305SOL    HW231815   3.137   3.686   5.866
10306SOL     OW31816   3.950   0.498   0.964
10306SOL    HW131817   3.889   0.420   0.980
10306SOL    HW231818   3.897   0.576   0.931
10307SOL     OW31819   1.904   0.135   5.310
10307SOL    HW131820   1.984   0.150   5.368
10307SOL    HW231821   1.934   0.128   5.215
10308SOL     OW31822   3.059   4.745   1.833
10308SOL    HW131823   3.132   4.737   1.765
10308SOL    HW231824   3.011   4.658   1.841
10309SOL     OW31825   0.208   0.780   5.841
10309SOL    HW131826   0.121   0.731   5.849
10309SOL    HW231827   0.196   0.861   5.784
10310SOL     OW31828   3.006   4.033   5.965
10310SOL    HW131829   3.045   4.000   6.051
10310SOL    HW231830   2.996   3.956   5.902
10311SOL     OW31831   5.055   5.610   6.916
10311SOL    HW131832   5.146   5.579   6.944
10311SOL    HW231833   5.064   5.690   6.857
10312SOL     OW31834   3.447   6.605   2.533
10312SOL    HW131835   3.503   6.573   2.457
10312SOL    HW231836   3.507   6.622   2.612
10313SOL     OW31837   5.118   7.007   2.724
10313SOL    HW131838   5.216   6.989   2.727
10313SOL    HW231839   5.068   6.922   2.739
10314SOL     OW31840   0.505   0.259   0.987
10314SOL    HW131841   0.557   0.214   0.914
10314SOL    HW231842   0.425   0.304   0.947
10315SOL     OW31843   5.537   5.674   3.605
10315SOL    HW131844   5.506   5.579   3.604
10315SOL    HW231845   5.459   5.734   3.584
10316SOL     OW31846   0.431   1.339   6.854
10316SOL    HW131847   0.459   1.259   6.801
10316SOL    HW231848   0.447   1.323   6.951
10317SOL     OW31849   3.402   6.033   5.033
10317SOL    HW131850   3.429   6.043   4.938
10317SOL    HW231851   3.476   6.066   5.092
10318SOL     OW31852   6.523   0.470   0.248
10318SOL    HW131853   6.539   0.426   0.337
10318SOL    HW231854   6.425   0.486   0.236
10319SOL     OW31855   0.506   4.182   4.007
10319SOL    HW131856   0.440   4.179   3.932
10319SOL    HW231857   0.599   4.179   3.970
10320SOL     OW31858   6.886   6.808   3.227
10320SOL    HW131859   6.868   6.767   3.138
10320SOL    HW231860   6.975   6.854   3.225
10321SOL     OW31861   6.089   3.016   2.280
10321SOL    HW131862   6.044   3.006   2.191
10321SOL    HW231863   6.182   2.980   2.274
10322SOL     OW31864   4.544   4.690   5.045
10322SOL    HW131865   4.586   4.635   5.117
10322SOL    HW231866   4.465   4.642   5.008
10323SOL     OW31867   1.063   4.047   5.908
10323SOL    HW131868   1.128   4.060   5.983
10323SOL    HW231869   0.982   4.102   5.923
10324SOL     OW31870   3.440   3.137   2.466
10324SOL    HW131871   3.375   3.113   2.538
10324SOL    HW231872   3.403   3.110   2.377
10325SOL     OW31873   5.902   5.999   4.393
10325SOL    HW131874   5.864   5.928   4.453
10325SOL    HW231875   6.000   6.008   4.411
10326SOL     OW31876   5.320   3.431   6.557
10326SOL    HW131877   5.402   3.466   6.511
10326SOL    HW231878   5.280   3.357   6.504
10327SOL     OW31879   2.697   5.307   0.030
10327SOL    HW131880   2.769   5.245   7.021
10327SOL    HW231881   2.705   5.394   7.005
10328SOL     OW31882   5.424   2.203   2.097
10328SOL    HW131883   5.494   2.209   2.169
10328SOL    HW231884   5.453   2.136   2.029
10329SOL     OW31885   3.725   1.813   2.198
10329SOL    HW131886   3.672   1.808   2.283
10329SOL    HW231887   3.817   1.844   2.219
10330SOL     OW31888   5.615   0.597   1.793
10330SOL    HW131889   5.695   0.552   1.833
10330SOL    HW231890   5.552   0.624   1.866
10331SOL     OW31891   5.809   6.214   5.820
10331SOL    HW131892   5.796   6.189   5.916
10331SOL    HW231893   5.865   6.297   5.815
10332SOL     OW31894   1.309   1.720   6.349
10332SOL    HW131895   1.272   1.792   6.290
10332SOL    HW231896   1.407   1.735   6.363
10333SOL     OW31897   1.573   3.404   4.587
10333SOL    HW131898   1.581   3.431   4.683
10333SOL    HW231899   1.494   3.450   4.546
10334SOL     OW31900   3.163   1.559   4.138
10334SOL    HW131901   3.243   1.561   4.079
10334SOL    HW231902   3.081   1.578   4.083
10335SOL     OW31903   1.317   2.410   4.999
10335SOL    HW131904   1.222   2.379   4.991
10335SOL    HW231905   1.344   2.457   4.916
10336SOL     OW31906   5.592   6.996   3.018
10336SOL    HW131907   5.635   0.062   3.036
10336SOL    HW231908   5.612   6.968   2.924
10337SOL     OW31909   6.689   5.658   6.761
10337SOL    HW131910   6.718   5.603   6.840
10337SOL    HW231911   6.764   5.664   6.695
10338SOL     OW31912   1.078   6.654   1.492
10338SOL    HW131913   1.116   6.655   1.400
10338SOL    HW231914   1.048   6.746   1.517
10339SOL     OW31915   5.905   2.478   5.968
10339SOL    HW131916   5.934   2.469   5.873
10339SOL    HW231917   5.815   2.520   5.972
10340SOL     OW31918   2.063   4.014   6.035
10340SOL    HW131919   2.154   4.003   5.996
10340SOL    HW231920   2.065   4.085   6.106
10341SOL     OW31921   2.494   4.479   3.667
10341SOL    HW131922   2.538   4.518   3.587
10341SOL    HW231923   2.533   4.518   3.750
10342SOL     OW31924   0.810   0.730   3.553
10342SOL    HW131925   0.856   0.779   3.628
10342SOL    HW231926   0.793   0.636   3.581
10343SOL     OW31927   3.816   5.471   1.798
10343SOL    HW131928   3.749   5.483   1.725
10343SOL    HW231929   3.805   5.544   1.866
10344SOL     OW31930   4.554   6.724   0.096
10344SOL    HW131931   4.455   6.713   0.099
10344SOL    HW231932   4.579   6.807   0.145
10345SOL     OW31933   2.233   4.005   4.360
10345SOL    HW131934   2.209   3.926   4.416
10345SOL    HW231935   2.178   4.003   4.276
10346SOL     OW31936   0.038   6.184   0.120
10346SOL    HW131937   6.989   6.251   0.099
10346SOL    HW231938   0.128   6.226   0.107
10347SOL     OW31939   5.608   1.990   4.891
10347SOL    HW131940   5.519   2.011   4.931
10347SOL    HW231941   5.608   2.016   4.794
10348SOL     OW31942   6.689   4.989   1.210
10348SOL    HW131943   6.657   4.933   1.286
10348SOL    HW231944   6.789   4.986   1.204
10349SOL     OW31945   0.682   6.627   6.143
10349SOL    HW131946   0.633   6.683   6.077
10349SOL    HW231947   0.738   6.686   6.202
10350SOL     OW31948   3.265   1.045   6.503
10350SOL    HW131949   3.217   1.023   6.418
10350SOL    HW231950   3.361   1.066   6.483
10351SOL     OW31951   3.965   5.327   6.423
10351SOL    HW131952   3.909   5.315   6.505
10351SOL    HW231953   4.061   5.310   6.446
10352SOL     OW31954   3.848   3.922   6.463
10352SOL    HW131955   3.765   3.868   6.448
10352SOL    HW231956   3.921   3.888   6.403
10353SOL     OW31957   0.512   2.945   4.796
10353SOL    HW131958   0.607   2.970   4.814
10353SOL    HW231959   0.509   2.877   4.723
10354SOL     OW31960   5.488   1.679   1.139
10354SOL    HW131961   5.485   1.595   1.193
10354SOL    HW231962   5.582   1.709   1.130
10355SOL     OW31963   1.318   4.850   3.322
10355SOL    HW131964   1.233   4.869   3.371
10355SOL    HW231965   1.352   4.759   3.346
10356SOL     OW31966   0.180   2.157   4.648
10356SOL    HW131967   0.110   2.096   4.683
10356SOL    HW231968   0.159   2.251   4.674
10357SOL     OW31969   3.613   2.724   7.000
10357SOL    HW131970   3.680   2.780   6.950
10357SOL    HW231971   3.563   2.666   6.936
10358SOL     OW31972   0.062   1.444   2.508
10358SOL    HW131973   7.012   1.376   2.506
10358SOL    HW231974   0.148   1.402   2.482
10359SOL     OW31975   0.796   1.452   1.090
10359SOL    HW131976   0.828   1.516   1.160
10359SOL    HW231977   0.831   1.361   1.109
10360SOL     OW31978   0.468   4.947   2.861
10360SOL    HW131979   0.445   4.993   2.946
10360SOL    HW231980   0.390   4.894   2.829
10361SOL     OW31981   1.958   4.870   1.182
10361SOL    HW131982   1.989   4.786   1.227
10361SOL    HW231983   1.978   4.949   1.241
10362SOL     OW31984   1.561   4.672   5.338
10362SOL    HW131985   1.466   4.698   5.320
10362SOL    HW231986   1.606   4.650   5.251
10363SOL     OW31987   5.648   6.970   3.401
10363SOL    HW131988   5.581   0.011   3.364
10363SOL    HW231989   5.735   6.982   3.353
10364SOL     OW31990   1.661   3.608   1.137
10364SOL    HW131991   1.699   3.529   1.089
10364SOL    HW231992   1.669   3.689   1.080
10365SOL     OW31993   4.821   5.078   6.908
10365SOL    HW131994   4.915   5.076   6.942
10365SOL    HW231995   4.785   5.171   6.916
10366SOL     OW31996   3.748   6.387   3.740
10366SOL    HW131997   3.777   6.298   3.705
10366SOL    HW231998   3.822   6.429   3.792
10367SOL     OW31999   6.894   1.654   3.218
10367SOL    HW132000   6.854   1.569   3.253
10367SOL    HW232001   6.833   1.694   3.150
10368SOL     OW32002   2.569   0.604   1.472
10368SOL    HW132003   2.610   0.645   1.553
10368SOL    HW232004   2.478   0.567   1.495
10369SOL     OW32005   4.359   2.717   0.253
10369SOL    HW132006   4.374   2.707   0.155
10369SOL    HW232007   4.267   2.753   0.269
10370SOL     OW32008   3.995   1.222   5.207
10370SOL    HW132009   4.007   1.128   5.239
10370SOL    HW232010   3.908   1.230   5.160
10371SOL     OW32011   5.327   6.622   5.440
10371SOL    HW132012   5.303   6.589   5.349
10371SOL    HW232013   5.284   6.565   5.509
10372SOL     OW32014   1.065   0.563   3.794
10372SOL    HW132015   1.023   0.472   3.798
10372SOL    HW232016   1.118   0.571   3.709
10373SOL     OW32017   1.213   5.287   4.850
10373SOL    HW132018   1.262   5.271   4.764
10373SOL    HW232019   1.253   5.232   4.923
10374SOL     OW32020   3.011   1.896   3.888
10374SOL    HW132021   2.958   1.895   3.804
10374SOL    HW232022   3.090   1.957   3.877
10375SOL     OW32023   0.122   1.669   0.775
10375SOL    HW132024   0.090   1.699   0.865
10375SOL    HW232025   0.190   1.734   0.740
10376SOL     OW32026   6.742   0.118   3.501
10376SOL    HW132027   6.837   0.149   3.499
10376SOL    HW232028   6.723   0.063   3.420
10377SOL     OW32029   0.544   6.354   4.225
10377SOL    HW132030   0.566   6.313   4.137
10377SOL    HW232031   0.446   6.348   4.241
10378SOL     OW32032   6.204   6.383   5.699
10378SOL    HW132033   6.228   6.479   5.716
10378SOL    HW232034   6.126   6.358   5.756
10379SOL     OW32035   4.425   1.971   4.690
10379SOL    HW132036   4.507   2.025   4.710
10379SOL    HW232037   4.448   1.874   4.690
10380SOL     OW32038   3.919   1.140   3.665
10380SOL    HW132039   3.963   1.113   3.579
10380SOL    HW232040   3.918   1.063   3.728
10381SOL     OW32041   3.890   5.240   4.962
10381SOL    HW132042   3.830   5.241   4.882
10381SOL    HW232043   3.945   5.156   4.960
10382SOL     OW32044   0.950   5.724   0.325
10382SOL    HW132045   1.029   5.692   0.272
10382SOL    HW232046   0.866   5.701   0.276
10383SOL     OW32047   5.487   2.533   0.563
10383SOL    HW132048   5.523   2.574   0.478
10383SOL    HW232049   5.560   2.483   0.609
10384SOL     OW32050   5.695   1.133   6.768
10384SOL    HW132051   5.758   1.084   6.709
10384SOL    HW232052   5.662   1.073   6.841
10385SOL     OW32053   6.973   2.306   0.045
10385SOL    HW132054   6.876   2.280   0.048
10385SOL    HW232055   7.019   2.257   6.994
10386SOL     OW32056   6.808   1.803   6.089
10386SOL    HW132057   6.793   1.716   6.136
10386SOL    HW232058   6.892   1.798   6.035
10387SOL     OW32059   1.511   3.890   2.424
10387SOL    HW132060   1.438   3.852   2.368
10387SOL    HW232061   1.486   3.882   2.521
10388SOL     OW32062   2.161   4.498   2.544
10388SOL    HW132063   2.073   4.485   2.499
10388SOL    HW232064   2.151   4.480   2.642
10389SOL     OW32065   0.811   5.790   3.350
10389SOL    HW132066   0.868   5.753   3.423
10389SOL    HW232067   0.854   5.872   3.312
10390SOL     OW32068   2.245   3.975   3.787
10390SOL    HW132069   2.173   3.936   3.844
10390SOL    HW232070   2.276   4.062   3.825
10391SOL     OW32071   3.766   6.249   4.678
10391SOL    HW132072   3.774   6.252   4.579
10391SOL    HW232073   3.746   6.340   4.713
10392SOL     OW32074   6.139   5.315   6.438
10392SOL    HW132075   6.141   5.303   6.537
10392SOL    HW232076   6.107   5.406   6.415
10393SOL     OW32077   0.423   1.001   4.838
10393SOL    HW132078   0.374   0.970   4.757
10393SOL    HW232079   0.521   0.994   4.822
10394SOL     OW32080   3.462   7.002   1.121
10394SOL    HW132081   3.367   6.976   1.141
10394SOL    HW232082   3.523   6.928   1.148
10395SOL     OW32083   1.435   1.076   4.117
10395SOL    HW132084   1.383   1.081   4.202
10395SOL    HW232085   1.521   1.125   4.127
10396SOL     OW32086   0.426   0.075   4.949
10396SOL    HW132087   0.472   0.127   5.022
10396SOL    HW232088   0.370   0.138   4.894
10397SOL     OW32089   4.198   2.036   2.360
10397SOL    HW132090   4.151   2.105   2.306
10397SOL    HW232091   4.218   2.072   2.451
10398SOL     OW32092   6.638   2.898   1.998
10398SOL    HW132093   6.705   2.960   1.958
10398SOL    HW232094   6.683   2.839   2.065
10399SOL     OW32095   6.234   2.894   5.213
10399SOL    HW132096   6.144   2.877   5.253
10399SOL    HW232097   6.305   2.871   5.280
10400SOL     OW32098   1.630   4.821   1.749
10400SOL    HW132099   1.664   4.752   1.686
10400SOL    HW232100   1.563   4.780   1.810
10401SOL     OW32101   1.244   5.240   1.167
10401SOL    HW132102   1.297   5.156   1.173
10401SOL    HW232103   1.147   5.219   1.174
10402SOL     OW32104   0.855   2.042   4.665
10402SOL    HW132105   0.949   2.007   4.663
10402SOL    HW232106   0.857   2.139   4.689
10403SOL     OW32107   5.537   0.781   2.418
10403SOL    HW132108   5.635   0.794   2.406
10403SOL    HW232109   5.514   0.783   2.515
10404SOL     OW32110   0.064   0.446   4.723
10404SOL    HW132111   0.127   0.504   4.775
10404SOL    HW232112   0.025   0.499   4.648
10405SOL     OW32113   2.892   7.001   0.230
10405SOL    HW132114   2.935   6.913   0.209
10405SOL    HW232115   2.901   0.040   0.151
10406SOL     OW32116   2.126   5.856   5.344
10406SOL    HW132117   2.053   5.868   5.411
10406SOL    HW232118   2.182   5.939   5.340
10407SOL     OW32119   2.088   1.259   6.450
10407SOL    HW132120   2.172   1.288   6.403
10407SOL    HW232121   2.011   1.315   6.419
10408SOL     OW32122   3.832   6.791   2.938
10408SOL    HW132123   3.775   6.858   2.986
10408SOL    HW232124   3.864   6.831   2.852
10409SOL     OW32125   6.595   4.853   2.563
10409SOL    HW132126   6.639   4.860   2.473
10409SOL    HW232127   6.644   4.909   2.629
10410SOL     OW32128   4.874   5.528   1.284
10410SOL    HW132129   4.830   5.557   1.200
10410SOL    HW232130   4.964   5.571   1.291
10411SOL     OW32131   1.785   4.897   2.320
10411SOL    HW132132   1.829   4.808   2.331
10411SOL    HW232133   1.839   4.967   2.367
10412SOL     OW32134   0.704   2.460   6.873
10412SOL    HW132135   0.695   2.555   6.845
10412SOL    HW232136   0.621   2.410   6.849
10413SOL     OW32137   6.789   1.638   4.845
10413SOL    HW132138   6.855   1.562   4.848
10413SOL    HW232139   6.772   1.671   4.938
10414SOL     OW32140   5.600   6.340   5.000
10414SOL    HW132141   5.564   6.400   4.929
10414SOL    HW232142   5.572   6.373   5.090
10415SOL     OW32143   7.004   5.379   3.232
10415SOL    HW132144   6.927   5.404   3.291
10415SOL    HW232145   0.054   5.339   3.288
10416SOL     OW32146   5.123   0.699   0.333
10416SOL    HW132147   5.036   0.741   0.308
10416SOL    HW232148   5.196   0.768   0.332
10417SOL     OW32149   4.709   4.380   4.235
10417SOL    HW132150   4.761   4.308   4.189
10417SOL    HW232151   4.705   4.361   4.333
10418SOL     OW32152   6.136   3.483   7.020
10418SOL    HW132153   6.128   3.401   0.055
10418SOL    HW232154   6.062   3.547   0.019
10419SOL     OW32155   1.477   0.509   4.856
10419SOL    HW132156   1.507   0.501   4.761
10419SOL    HW232157   1.501   0.600   4.891
10420SOL     OW32158   6.463   3.892   4.323
10420SOL    HW132159   6.527   3.848   4.261
10420SOL    HW232160   6.460   3.990   4.304
10421SOL     OW32161   0.636   3.629   4.385
10421SOL    HW132162   0.716   3.638   4.445
10421SOL    HW232163   0.575   3.707   4.399
10422SOL     OW32164   5.515   3.259   5.792
10422SOL    HW132165   5.510   3.160   5.795
10422SOL    HW232166   5.596   3.287   5.740
10423SOL     OW32167   2.322   5.471   2.412
10423SOL    HW132168   2.306   5.393   2.351
10423SOL    HW232169   2.386   5.534   2.369
10424SOL     OW32170   4.339   0.870   2.174
10424SOL    HW132171   4.434   0.846   2.155
10424SOL    HW232172   4.332   0.916   2.262
10425SOL     OW32173   0.878   4.199   0.347
10425SOL    HW132174   0.848   4.177   0.254
10425SOL    HW232175   0.842   4.130   0.410
10426SOL     OW32176   6.716   2.000   0.550
10426SOL    HW132177   6.699   2.081   0.607
10426SOL    HW232178   6.638   1.938   0.556
10427SOL     OW32179   6.056   0.523   3.810
10427SOL    HW132180   6.098   0.543   3.721
10427SOL    HW232181   6.120   0.544   3.883
10428SOL     OW32182   1.886   6.459   4.617
10428SOL    HW132183   1.794   6.435   4.588
10428SOL    HW232184   1.888   6.470   4.717
10429SOL     OW32185   2.482   4.148   1.765
10429SOL    HW132186   2.498   4.244   1.788
10429SOL    HW232187   2.558   4.114   1.708
10430SOL     OW32188   3.442   0.214   4.272
10430SOL    HW132189   3.398   0.124   4.278
10430SOL    HW232190   3.530   0.210   4.320
10431SOL     OW32191   4.270   2.315   4.079
10431SOL    HW132192   4.275   2.354   3.987
10431SOL    HW232193   4.293   2.218   4.076
10432SOL     OW32194   0.406   5.052   0.651
10432SOL    HW132195   0.417   4.960   0.614
10432SOL    HW232196   0.458   5.117   0.595
10433SOL     OW32197   3.781   6.496   4.380
10433SOL    HW132198   3.700   6.548   4.353
10433SOL    HW232199   3.816   6.531   4.467
10434SOL     OW32200   4.085   1.239   0.040
10434SOL    HW132201   4.079   1.161   7.000
10434SOL    HW232202   4.025   1.312   0.008
10435SOL     OW32203   2.576   1.232   1.907
10435SOL    HW132204   2.672   1.240   1.933
10435SOL    HW232205   2.538   1.322   1.888
10436SOL     OW32206   0.932   3.573   5.220
10436SOL    HW132207   1.011   3.511   5.222
10436SOL    HW232208   0.850   3.521   5.196
10437SOL     OW32209   6.968   6.686   4.910
10437SOL    HW132210   6.983   6.774   4.865
10437SOL    HW232211   6.942   6.618   4.842
10438SOL     OW32212   6.635   5.268   6.554
10438SOL    HW132213   6.721   5.293   6.600
10438SOL    HW232214   6.619   5.170   6.564
10439SOL     OW32215   6.062   5.632   4.518
10439SOL    HW132216   6.012   5.552   4.484
10439SOL    HW232217   6.129   5.601   4.586
10440SOL     OW32218   6.247   2.728   1.119
10440SOL    HW132219   6.267   2.650   1.061
10440SOL    HW232220   6.262   2.813   1.067
10441SOL     OW32221   4.566   1.817   6.588
10441SOL    HW132222   4.594   1.857   6.676
10441SOL    HW232223   4.478   1.856   6.561
10442SOL     OW32224   2.190   0.994   5.284
10442SOL    HW132225   2.276   0.984   5.335
10442SOL    HW232226   2.206   1.048   5.202
10443SOL     OW32227   0.816   0.697   0.102
10443SOL    HW132228   0.803   0.600   0.084
10443SOL    HW232229   0.858   0.709   0.192
10444SOL     OW32230   4.147   5.265   3.518
10444SOL    HW132231   4.205   5.202   3.570
10444SOL    HW232232   4.113   5.219   3.436
10445SOL     OW32233   1.096   3.762   4.116
10445SOL    HW132234   1.018   3.799   4.065
10445SOL    HW232235   1.157   3.714   4.052
10446SOL     OW32236   2.456   4.710   4.872
10446SOL    HW132237   2.554   4.702   4.853
10446SOL    HW232238   2.414   4.619   4.867
10447SOL     OW32239   1.331   2.290   2.691
10447SOL    HW132240   1.394   2.237   2.747
10447SOL    HW232241   1.369   2.301   2.599
10448SOL     OW32242   0.930   5.554   2.499
10448SOL    HW132243   1.030   5.567   2.495
10448SOL    HW232244   0.887   5.641   2.521
10449SOL     OW32245   3.637   4.987   4.756
10449SOL    HW132246   3.723   4.942   4.734
10449SOL    HW232247   3.605   4.958   4.846
10450SOL     OW32248   0.757   2.111   3.798
10450SOL    HW132249   0.832   2.169   3.830
10450SOL    HW232250   0.670   2.155   3.818
10451SOL     OW32251   2.933   1.731   4.472
10451SOL    HW132252   2.970   1.821   4.494
10451SOL    HW232253   2.948   1.669   4.549
10452SOL     OW32254   6.664   2.472   4.304
10452SOL    HW132255   6.727   2.497   4.378
10452SOL    HW232256   6.570   2.476   4.338
10453SOL     OW32257   3.179   5.277   4.300
10453SOL    HW132258   3.226   5.221   4.232
10453SOL    HW232259   3.242   5.347   4.335
10454SOL     OW32260   6.672   1.232   6.823
10454SOL    HW132261   6.586   1.240   6.772
10454SOL    HW232262   6.705   1.324   6.846
10455SOL     OW32263   0.490   6.090   2.246
10455SOL    HW132264   0.500   6.190   2.246
10455SOL    HW232265   0.434   6.062   2.324
10456SOL     OW32266   1.774   5.441   6.635
10456SOL    HW132267   1.871   5.415   6.639
10456SOL    HW232268   1.734   5.406   6.550
10457SOL     OW32269   3.895   1.346   0.594
10457SOL    HW132270   3.957   1.399   0.651
10457SOL    HW232271   3.941   1.320   0.509
10458SOL     OW32272   1.466   6.384   0.298
10458SOL    HW132273   1.400   6.457   0.318
10458SOL    HW232274   1.559   6.420   0.307
10459SOL     OW32275   5.708   6.029   1.177
10459SOL    HW132276   5.674   6.058   1.267
10459SOL    HW232277   5.630   6.002   1.120
10460SOL     OW32278   6.225   1.016   6.367
10460SOL    HW132279   6.224   0.916   6.358
10460SOL    HW232280   6.270   1.056   6.288
10461SOL     OW32281   7.011   3.880   5.498
10461SOL    HW132282   7.013   3.788   5.458
10461SOL    HW232283   6.927   3.891   5.552
10462SOL     OW32284   4.114   3.921   6.768
10462SOL    HW132285   4.043   3.854   6.746
10462SOL    HW232286   4.204   3.879   6.756
10463SOL     OW32287   4.629   2.402   5.420
10463SOL    HW132288   4.547   2.420   5.366
10463SOL    HW232289   4.687   2.336   5.372
10464SOL     OW32290   6.550   4.423   2.012
10464SOL    HW132291   6.643   4.456   1.999
10464SOL    HW232292   6.541   4.331   1.974
10465SOL     OW32293   5.197   4.012   1.556
10465SOL    HW132294   5.167   4.005   1.651
10465SOL    HW232295   5.124   3.984   1.495
10466SOL     OW32296   5.933   4.102   5.077
10466SOL    HW132297   5.998   4.096   5.153
10466SOL    HW232298   5.847   4.058   5.104
10467SOL     OW32299   0.418   2.598   6.550
10467SOL    HW132300   0.391   2.533   6.478
10467SOL    HW232301   0.355   2.676   6.550
10468SOL     OW32302   1.697   3.733   3.762
10468SOL    HW132303   1.764   3.679   3.812
10468SOL    HW232304   1.647   3.673   3.699
10469SOL     OW32305   1.146   1.215   3.967
10469SOL    HW132306   1.231   1.267   3.970
10469SOL    HW232307   1.162   1.130   3.916
10470SOL     OW32308   2.243   4.004   2.089
10470SOL    HW132309   2.152   3.965   2.075
10470SOL    HW232310   2.292   3.950   2.157
10471SOL     OW32311   2.640   4.636   6.250
10471SOL    HW132312   2.675   4.596   6.166
10471SOL    HW232313   2.599   4.726   6.230
10472SOL     OW32314   4.264   5.517   5.955
10472SOL    HW132315   4.354   5.496   5.992
10472SOL    HW232316   4.193   5.491   6.020
10473SOL     OW32317   6.354   5.213   0.205
10473SOL    HW132318   6.428   5.178   0.262
10473SOL    HW232319   6.268   5.210   0.256
10474SOL     OW32320   6.232   5.867   5.339
10474SOL    HW132321   6.291   5.820   5.405
10474SOL    HW232322   6.145   5.818   5.331
10475SOL     OW32323   0.784   5.557   1.578
10475SOL    HW132324   0.737   5.581   1.492
10475SOL    HW232325   0.726   5.583   1.655
10476SOL     OW32326   5.353   6.953   1.224
10476SOL    HW132327   5.295   0.007   1.252
10476SOL    HW232328   5.297   6.884   1.177
10477SOL     OW32329   6.891   5.706   3.741
10477SOL    HW132330   6.884   5.805   3.756
10477SOL    HW232331   6.832   5.680   3.664
10478SOL     OW32332   0.342   0.708   6.504
10478SOL    HW132333   0.351   0.626   6.447
10478SOL    HW232334   0.326   0.788   6.445
10479SOL     OW32335   0.356   3.986   2.326
10479SOL    HW132336   0.406   4.025   2.249
10479SOL    HW232337   0.296   4.056   2.366
10480SOL     OW32338   2.425   0.627   3.325
10480SOL    HW132339   2.497   0.559   3.309
10480SOL    HW232340   2.378   0.647   3.239
10481SOL     OW32341   6.466   1.040   1.320
10481SOL    HW132342   6.537   0.976   1.350
10481SOL    HW232343   6.499   1.093   1.242
10482SOL     OW32344   5.721   4.214   3.892
10482SOL    HW132345   5.708   4.130   3.944
10482SOL    HW232346   5.771   4.280   3.948
10483SOL     OW32347   6.225   0.774   6.693
10483SOL    HW132348   6.152   0.766   6.624
10483SOL    HW232349   6.310   0.802   6.648
10484SOL     OW32350   5.873   1.017   1.836
10484SOL    HW132351   5.839   0.959   1.762
10484SOL    HW232352   5.956   1.064   1.806
10485SOL     OW32353   5.964   3.202   5.171
10485SOL    HW132354   6.024   3.198   5.091
10485SOL    HW232355   5.869   3.194   5.142
10486SOL     OW32356   5.538   2.609   2.196
10486SOL    HW132357   5.452   2.569   2.228
10486SOL    HW232358   5.536   2.615   2.096
10487SOL     OW32359   4.323   6.939   2.292
10487SOL    HW132360   4.243   6.991   2.264
10487SOL    HW232361   4.300   6.879   2.368
10488SOL     OW32362   3.835   4.200   6.476
10488SOL    HW132363   3.837   4.101   6.491
10488SOL    HW232364   3.811   4.218   6.380
10489SOL     OW32365   1.549   4.980   5.076
10489SOL    HW132366   1.492   4.918   5.022
10489SOL    HW232367   1.493   5.022   5.148
10490SOL     OW32368   6.264   0.095   4.328
10490SOL    HW132369   6.278   0.126   4.234
10490SOL    HW232370   6.204   0.159   4.375
10491SOL     OW32371   6.486   5.522   5.522
10491SOL    HW132372   6.453   5.600   5.575
10491SOL    HW232373   6.558   5.552   5.459
10492SOL     OW32374   5.126   4.428   5.609
10492SOL    HW132375   5.096   4.524   5.601
10492SOL    HW232376   5.052   4.368   5.579
10493SOL     OW32377   3.479   1.453   1.095
10493SOL    HW132378   3.538   1.474   1.017
10493SOL    HW232379   3.410   1.386   1.067
10494SOL     OW32380   5.625   1.632   5.651
10494SOL    HW132381   5.716   1.605   5.682
10494SOL    HW232382   5.577   1.553   5.613
10495SOL     OW32383   1.994   0.099   6.439
10495SOL    HW132384   2.057   0.023   6.429
10495SOL    HW232385   2.002   0.160   6.361
10496SOL     OW32386   6.495   6.984   5.612
10496SOL    HW132387   6.464   6.995   5.517
10496SOL    HW232388   6.567   6.915   5.615
10497SOL     OW32389   1.451   1.427   6.447
10497SOL    HW132390   1.502   1.430   6.533
10497SOL    HW232391   1.411   1.517   6.428
10498SOL     OW32392   3.407   5.275   6.022
10498SOL    HW132393   3.479   5.294   6.088
10498SOL    HW232394   3.399   5.177   6.008
10499SOL     OW32395   3.233   5.973   3.088
10499SOL    HW132396   3.144   5.978   3.133
10499SOL    HW232397   3.274   6.063   3.084
10500SOL     OW32398   2.299   2.148   6.628
10500SOL    HW132399   2.290   2.150   6.528
10500SOL    HW232400   2.394   2.167   6.652
10501SOL     OW32401   1.956   3.842   3.174
10501SOL    HW132402   1.906   3.878   3.095
10501SOL    HW232403   1.894   3.831   3.251
10502SOL     OW32404   3.368   5.470   4.358
10502SOL    HW132405   3.410   5.547   4.407
10502SOL    HW232406   3.430   5.437   4.288
10503SOL     OW32407   2.222   3.219   5.997
10503SOL    HW132408   2.203   3.250   5.904
10503SOL    HW232409   2.306   3.262   6.031
10504SOL     OW32410   2.124   3.569   1.254
10504SOL    HW132411   2.140   3.474   1.278
10504SOL    HW232412   2.207   3.607   1.213
10505SOL     OW32413   1.033   6.586   0.471
10505SOL    HW132414   0.935   6.600   0.461
10505SOL    HW232415   1.067   6.642   0.546
10506SOL     OW32416   6.993   4.316   5.434
10506SOL    HW132417   0.028   4.396   5.449
10506SOL    HW232418   7.007   4.282   5.341
10507SOL     OW32419   1.933   0.134   3.451
10507SOL    HW132420   1.969   0.183   3.530
10507SOL    HW232421   1.927   0.036   3.473
10508SOL     OW32422   6.134   4.050   2.816
10508SOL    HW132423   6.219   4.064   2.765
10508SOL    HW232424   6.058   4.038   2.753
10509SOL     OW32425   1.938   0.731   5.438
10509SOL    HW132426   1.845   0.765   5.454
10509SOL    HW232427   1.996   0.755   5.516
10510SOL     OW32428   5.869   0.468   6.644
10510SOL    HW132429   5.899   0.455   6.739
10510SOL    HW232430   5.944   0.444   6.582
10511SOL     OW32431   6.966   2.632   1.298
10511SOL    HW132432   6.963   2.543   1.254
10511SOL    HW232433   7.010   2.624   1.388
10512SOL     OW32434   2.408   0.612   6.293
10512SOL    HW132435   2.313   0.643   6.285
10512SOL    HW232436   2.429   0.591   6.388
10513SOL     OW32437   0.195   2.000   0.451
10513SOL    HW132438   0.215   2.086   0.403
10513SOL    HW232439   0.233   1.924   0.399
10514SOL     OW32440   0.433   3.391   1.680
10514SOL    HW132441   0.408   3.388   1.583
10514SOL    HW232442   0.354   3.423   1.733
10515SOL     OW32443   6.847   3.207   4.869
10515SOL    HW132444   6.944   3.189   4.854
10515SOL    HW232445   6.821   3.290   4.819
10516SOL     OW32446   2.590   6.759   0.879
10516SOL    HW132447   2.624   6.769   0.785
10516SOL    HW232448   2.552   6.846   0.910
10517SOL     OW32449   0.663   2.953   3.184
10517SOL    HW132450   0.568   2.984   3.181
10517SOL    HW232451   0.675   2.887   3.257
10518SOL     OW32452   0.608   6.000   2.543
10518SOL    HW132453   0.618   5.932   2.470
10518SOL    HW232454   0.553   5.961   2.617
10519SOL     OW32455   4.382   3.133   5.832
10519SOL    HW132456   4.317   3.175   5.769
10519SOL    HW232457   4.372   3.176   5.922
10520SOL     OW32458   3.197   5.067   6.087
10520SOL    HW132459   3.275   5.037   6.032
10520SOL    HW232460   3.220   5.063   6.184
10521SOL     OW32461   6.599   5.719   2.508
10521SOL    HW132462   6.548   5.661   2.445
10521SOL    HW232463   6.615   5.670   2.593
10522SOL     OW32464   0.193   0.096   2.130
10522SOL    HW132465   0.278   0.089   2.079
10522SOL    HW232466   0.116   0.066   2.073
10523SOL     OW32467   6.673   6.155   5.816
10523SOL    HW132468   6.584   6.187   5.848
10523SOL    HW232469   6.690   6.189   5.723
10524SOL     OW32470   4.857   1.048   4.640
10524SOL    HW132471   4.809   0.988   4.704
10524SOL    HW232472   4.791   1.110   4.597
10525SOL     OW32473   3.274   6.663   4.972
10525SOL    HW132474   3.316   6.647   4.883
10525SOL    HW232475   3.210   6.739   4.965
10526SOL     OW32476   4.624   6.650   2.692
10526SOL    HW132477   4.619   6.745   2.661
10526SOL    HW232478   4.720   6.621   2.696
10527SOL     OW32479   1.579   2.726   4.704
10527SOL    HW132480   1.601   2.775   4.620
10527SOL    HW232481   1.637   2.644   4.711
10528SOL     OW32482   5.764   4.877   5.388
10528SOL    HW132483   5.860   4.862   5.363
10528SOL    HW232484   5.752   4.972   5.417
10529SOL     OW32485   0.203   6.045   4.403
10529SOL    HW132486   0.109   6.013   4.386
10529SOL    HW232487   0.265   6.004   4.336
10530SOL     OW32488   1.888   2.100   4.985
10530SOL    HW132489   1.805   2.058   5.021
10530SOL    HW232490   1.952   2.117   5.060
10531SOL     OW32491   1.986   2.133   4.712
10531SOL    HW132492   1.964   2.107   4.806
10531SOL    HW232493   2.075   2.179   4.711
10532SOL     OW32494   3.375   3.377   4.934
10532SOL    HW132495   3.364   3.289   4.886
10532SOL    HW232496   3.351   3.452   4.872
10533SOL     OW32497   2.888   1.357   6.333
10533SOL    HW132498   2.873   1.309   6.246
10533SOL    HW232499   2.821   1.326   6.400
10534SOL     OW32500   5.688   5.005   1.593
10534SOL    HW132501   5.760   5.013   1.662
10534SOL    HW232502   5.728   5.012   1.502
10535SOL     OW32503   6.808   0.587   1.850
10535SOL    HW132504   6.721   0.634   1.844
10535SOL    HW232505   6.860   0.602   1.766
10536SOL     OW32506   5.307   6.019   3.210
10536SOL    HW132507   5.356   6.096   3.251
10536SOL    HW232508   5.246   5.978   3.278
10537SOL     OW32509   6.185   5.557   1.020
10537SOL    HW132510   6.245   5.633   0.993
10537SOL    HW232511   6.092   5.591   1.029
10538SOL     OW32512   3.968   3.804   0.014
10538SOL    HW132513   4.007   3.714   7.017
10538SOL    HW232514   3.876   3.809   6.998
10539SOL     OW32515   0.783   3.253   5.105
10539SOL    HW132516   0.698   3.201   5.092
10539SOL    HW232517   0.855   3.213   5.049
10540SOL     OW32518   3.689   0.850   6.937
10540SOL    HW132519   3.619   0.922   6.931
10540SOL    HW232520   3.685   0.808   0.005
10541SOL     OW32521   3.665   2.503   0.933
10541SOL    HW132522   3.721   2.493   0.851
10541SOL    HW232523   3.575   2.537   0.908
10542SOL     OW32524   1.721   2.081   0.290
10542SOL    HW132525   1.688   1.998   0.334
10542SOL    HW232526   1.663   2.158   0.315
10543SOL     OW32527   2.246   0.024   4.704
10543SOL    HW132528   2.264   0.109   4.754
10543SOL    HW232529   2.187   0.042   4.626
10544SOL     OW32530   0.070   2.442   1.664
10544SOL    HW132531   0.085   2.365   1.601
10544SOL    HW232532   0.070   2.408   1.758
10545SOL     OW32533   4.756   1.607   2.921
10545SOL    HW132534   4.700   1.525   2.938
10545SOL    HW232535   4.701   1.689   2.938
10546SOL     OW32536   4.284   1.651   5.709
10546SOL    HW132537   4.222   1.583   5.670
10546SOL    HW232538   4.366   1.658   5.652
10547SOL     OW32539   5.028   6.584   1.611
10547SOL    HW132540   5.025   6.502   1.668
10547SOL    HW232541   5.027   6.665   1.669
10548SOL     OW32542   4.322   4.417   5.392
10548SOL    HW132543   4.309   4.405   5.294
10548SOL    HW232544   4.234   4.440   5.435
10549SOL     OW32545   1.062   1.598   1.788
10549SOL    HW132546   1.148   1.547   1.777
10549SOL    HW232547   1.026   1.623   1.698
10550SOL     OW32548   5.145   6.754   4.852
10550SOL    HW132549   5.135   6.770   4.754
10550SOL    HW232550   5.204   6.675   4.867
10551SOL     OW32551   1.200   2.765   6.031
10551SOL    HW132552   1.249   2.692   5.983
10551SOL    HW232553   1.106   2.769   5.997
10552SOL     OW32554   3.188   1.904   4.833
10552SOL    HW132555   3.245   1.982   4.861
10552SOL    HW232556   3.092   1.922   4.857
10553SOL     OW32557   2.930   5.059   6.013
10553SOL    HW132558   3.021   5.052   6.054
10553SOL    HW232559   2.869   5.111   6.073
10554SOL     OW32560   5.951   3.958   5.745
10554SOL    HW132561   6.039   3.912   5.759
10554SOL    HW232562   5.926   3.953   5.648
10555SOL     OW32563   3.568   2.597   1.271
10555SOL    HW132564   3.580   2.576   1.174
10555SOL    HW232565   3.555   2.513   1.322
10556SOL     OW32566   1.398   3.740   3.939
10556SOL    HW132567   1.406   3.721   3.841
10556SOL    HW232568   1.369   3.835   3.953
10557SOL     OW32569   5.255   1.385   3.687
10557SOL    HW132570   5.315   1.336   3.623
10557SOL    HW232571   5.259   1.483   3.668
10558SOL     OW32572   4.820   5.998   5.113
10558SOL    HW132573   4.886   5.991   5.039
10558SOL    HW232574   4.822   5.915   5.168
10559SOL     OW32575   4.300   2.722   0.663
10559SOL    HW132576   4.260   2.632   0.677
10559SOL    HW232577   4.395   2.712   0.631
10560SOL     OW32578   0.261   2.129   4.385
10560SOL    HW132579   0.253   2.225   4.359
10560SOL    HW232580   0.258   2.120   4.485
10561SOL     OW32581   2.143   4.242   6.745
10561SOL    HW132582   2.102   4.330   6.766
10561SOL    HW232583   2.099   4.202   6.665
10562SOL     OW32584   3.607   1.846   0.636
10562SOL    HW132585   3.511   1.861   0.614
10562SOL    HW232586   3.645   1.777   0.574
10563SOL     OW32587   1.093   2.447   2.826
10563SOL    HW132588   1.153   2.373   2.797
10563SOL    HW232589   1.100   2.523   2.762
10564SOL     OW32590   6.377   2.375   2.559
10564SOL    HW132591   6.317   2.384   2.638
10564SOL    HW232592   6.436   2.295   2.571
10565SOL     OW32593   5.129   1.892   4.771
10565SOL    HW132594   5.109   1.795   4.780
10565SOL    HW232595   5.198   1.906   4.700
10566SOL     OW32596   4.640   5.266   6.672
10566SOL    HW132597   4.660   5.216   6.588
10566SOL    HW232598   4.571   5.217   6.725
10567SOL     OW32599   2.711   5.302   4.230
10567SOL    HW132600   2.668   5.227   4.180
10567SOL    HW232601   2.643   5.373   4.250
10568SOL     OW32602   3.377   0.977   3.126
10568SOL    HW132603   3.472   0.987   3.095
10568SOL    HW232604   3.357   1.048   3.194
10569SOL     OW32605   6.788   2.474   3.067
10569SOL    HW132606   6.762   2.570   3.080
10569SOL    HW232607   6.821   2.437   3.153
10570SOL     OW32608   1.629   3.864   1.023
10570SOL    HW132609   1.632   3.875   0.924
10570SOL    HW232610   1.703   3.916   1.065
10571SOL     OW32611   6.510   6.892   4.640
10571SOL    HW132612   6.603   6.861   4.658
10571SOL    HW232613   6.512   6.984   4.601
10572SOL     OW32614   0.007   3.538   1.569
10572SOL    HW132615   0.084   3.595   1.541
10572SOL    HW232616   6.944   3.583   1.544
10573SOL     OW32617   6.046   4.894   5.637
10573SOL    HW132618   6.127   4.844   5.668
10573SOL    HW232619   6.014   4.854   5.551
10574SOL     OW32620   0.517   2.676   3.079
10574SOL    HW132621   0.493   2.633   2.992
10574SOL    HW232622   0.608   2.717   3.072
10575SOL     OW32623   1.099   6.601   6.613
10575SOL    HW132624   1.175   6.618   6.550
10575SOL    HW232625   1.131   6.610   6.707
10576SOL     OW32626   1.283   5.575   3.053
10576SOL    HW132627   1.188   5.568   3.024
10576SOL    HW232628   1.343   5.564   2.974
10577SOL     OW32629   0.641   2.454   5.848
10577SOL    HW132630   0.673   2.426   5.938
10577SOL    HW232631   0.548   2.422   5.834
10578SOL     OW32632   5.290   1.526   5.399
10578SOL    HW132633   5.309   1.488   5.489
10578SOL    HW232634   5.376   1.538   5.349
10579SOL     OW32635   5.424   6.639   0.619
10579SOL    HW132636   5.431   6.541   0.598
10579SOL    HW232637   5.407   6.651   0.717
10580SOL     OW32638   0.572   5.702   6.999
10580SOL    HW132639   0.481   5.685   0.016
10580SOL    HW232640   0.577   5.657   6.910
10581SOL     OW32641   4.736   2.801   3.639
10581SOL    HW132642   4.791   2.721   3.662
10581SOL    HW232643   4.694   2.789   3.549
10582SOL     OW32644   3.181   4.943   0.037
10582SOL    HW132645   3.098   4.917   7.009
10582SOL    HW232646   3.239   4.862   0.048
10583SOL     OW32647   4.672   1.354   1.664
10583SOL    HW132648   4.693   1.348   1.762
10583SOL    HW232649   4.671   1.263   1.624
10584SOL     OW32650   5.943   6.559   0.821
10584SOL    HW132651   6.026   6.510   0.848
10584SOL    HW232652   5.918   6.534   0.727
10585SOL     OW32653   2.628   4.243   6.250
10585SOL    HW132654   2.613   4.342   6.240
10585SOL    HW232655   2.615   4.217   6.346
10586SOL     OW32656   4.989   1.933   1.333
10586SOL    HW132657   4.935   1.971   1.408
10586SOL    HW232658   4.981   1.833   1.332
10587SOL     OW32659   6.215   2.990   0.376
10587SOL    HW132660   6.158   3.009   0.296
10587SOL    HW232661   6.226   3.073   0.430
10588SOL     OW32662   1.504   5.076   3.294
10588SOL    HW132663   1.456   4.989   3.305
10588SOL    HW232664   1.445   5.150   3.327
10589SOL     OW32665   5.902   1.527   3.848
10589SOL    HW132666   5.957   1.454   3.808
10589SOL    HW232667   5.962   1.592   3.895
10590SOL     OW32668   1.644   0.044   5.319
10590SOL    HW132669   1.604   0.005   5.235
10590SOL    HW232670   1.736   0.077   5.299
10591SOL     OW32671   1.564   2.514   1.944
10591SOL    HW132672   1.643   2.555   1.990
10591SOL    HW232673   1.503   2.474   2.012
10592SOL     OW32674   5.931   1.397   6.338
10592SOL    HW132675   5.841   1.435   6.361
10592SOL    HW232676   5.937   1.303   6.372
10593SOL     OW32677   0.921   4.538   1.645
10593SOL    HW132678   0.903   4.546   1.547
10593SOL    HW232679   1.007   4.490   1.660
10594SOL     OW32680   1.455   1.097   4.523
10594SOL    HW132681   1.413   1.109   4.613
10594SOL    HW232682   1.386   1.063   4.459
10595SOL     OW32683   2.269   5.896   4.599
10595SOL    HW132684   2.250   5.989   4.566
10595SOL    HW232685   2.212   5.878   4.680
10596SOL     OW32686   3.150   1.108   1.930
10596SOL    HW132687   3.103   1.120   2.017
10596SOL    HW232688   3.232   1.164   1.928
10597SOL     OW32689   1.316   0.325   3.987
10597SOL    HW132690   1.254   0.254   3.955
10597SOL    HW232691   1.404   0.315   3.940
10598SOL     OW32692   2.448   0.768   0.758
10598SOL    HW132693   2.471   0.722   0.844
10598SOL    HW232694   2.532   0.794   0.710
10599SOL     OW32695   4.853   0.496   6.621
10599SOL    HW132696   4.893   0.450   6.542
10599SOL    HW232697   4.753   0.494   6.613
10600SOL     OW32698   1.641   3.021   4.755
10600SOL    HW132699   1.724   3.056   4.712
10600SOL    HW232700   1.608   2.941   4.705
10601SOL     OW32701   3.220   6.339   5.270
10601SOL    HW132702   3.300   6.375   5.222
10601SOL    HW232703   3.222   6.239   5.268
10602SOL     OW32704   4.893   1.694   1.396
10602SOL    HW132705   4.816   1.663   1.340
10602SOL    HW232706   4.873   1.678   1.493
10603SOL     OW32707   0.666   5.174   5.510
10603SOL    HW132708   0.702   5.089   5.548
10603SOL    HW232709   0.733   5.214   5.448
10604SOL     OW32710   0.423   4.171   6.096
10604SOL    HW132711   0.520   4.169   6.072
10604SOL    HW232712   0.406   4.111   6.174
10605SOL     OW32713   1.745   5.047   6.391
10605SOL    HW132714   1.747   4.966   6.332
10605SOL    HW232715   1.652   5.061   6.425
10606SOL     OW32716   0.204   1.397   2.188
10606SOL    HW132717   0.282   1.411   2.127
10606SOL    HW232718   0.131   1.460   2.164
10607SOL     OW32719   5.530   4.452   6.517
10607SOL    HW132720   5.586   4.459   6.435
10607SOL    HW232721   5.563   4.378   6.575
10608SOL     OW32722   5.703   6.986   2.790
10608SOL    HW132723   5.639   7.015   2.718
10608SOL    HW232724   5.791   6.964   2.749
10609SOL     OW32725   4.120   6.948   2.532
10609SOL    HW132726   4.145   7.002   2.612
10609SOL    HW232727   4.091   7.010   2.458
10610SOL     OW32728   1.972   4.405   4.973
10610SOL    HW132729   2.049   4.341   4.976
10610SOL    HW232730   2.003   4.493   4.939
10611SOL     OW32731   4.978   2.302   6.141
10611SOL    HW132732   4.936   2.234   6.081
10611SOL    HW232733   4.997   2.262   6.230
10612SOL     OW32734   2.045   0.322   1.064
10612SOL    HW132735   2.065   0.248   1.129
10612SOL    HW232736   1.959   0.303   1.016
10613SOL     OW32737   0.687   6.422   6.675
10613SOL    HW132738   0.675   6.458   6.767
10613SOL    HW232739   0.607   6.368   6.649
10614SOL     OW32740   0.354   1.070   2.546
10614SOL    HW132741   0.371   1.055   2.643
10614SOL    HW232742   0.403   1.001   2.492
10615SOL     OW32743   0.180   6.416   5.543
10615SOL    HW132744   0.254   6.481   5.560
10615SOL    HW232745   0.101   6.464   5.503
10616SOL     OW32746   3.028   5.821   1.129
10616SOL    HW132747   3.002   5.860   1.040
10616SOL    HW232748   2.964   5.749   1.154
10617SOL     OW32749   0.587   1.407   6.541
10617SOL    HW132750   0.682   1.379   6.532
10617SOL    HW232751   0.534   1.336   6.586
10618SOL     OW32752   6.386   4.098   0.607
10618SOL    HW132753   6.366   4.076   0.512
10618SOL    HW232754   6.471   4.152   0.611
10619SOL     OW32755   0.333   3.560   3.492
10619SOL    HW132756   0.351   3.658   3.491
10619SOL    HW232757   0.321   3.530   3.586
10620SOL     OW32758   1.286   5.249   4.294
10620SOL    HW132759   1.378   5.253   4.255
10620SOL    HW232760   1.281   5.175   4.361
10621SOL     OW32761   3.809   6.360   0.595
10621SOL    HW132762   3.731   6.414   0.625
10621SOL    HW232763   3.776   6.281   0.543
10622SOL     OW32764   3.846   2.129   0.815
10622SOL    HW132765   3.942   2.155   0.829
10622SOL    HW232766   3.804   2.190   0.748
10623SOL     OW32767   6.974   1.370   4.853
10623SOL    HW132768   0.033   1.327   4.817
10623SOL    HW232769   6.954   1.334   4.944
10624SOL     OW32770   2.928   1.024   4.360
10624SOL    HW132771   2.841   1.072   4.370
10624SOL    HW232772   2.986   1.042   4.439
10625SOL     OW32773   1.018   2.652   0.685
10625SOL    HW132774   1.098   2.656   0.625
10625SOL    HW232775   0.942   2.607   0.638
10626SOL     OW32776   6.246   2.426   2.785
10626SOL    HW132777   6.283   2.419   2.877
10626SOL    HW232778   6.159   2.476   2.787
10627SOL     OW32779   5.263   5.695   4.893
10627SOL    HW132780   5.347   5.641   4.894
10627SOL    HW232781   5.225   5.698   4.985
10628SOL     OW32782   6.720   5.540   5.357
10628SOL    HW132783   6.772   5.470   5.406
10628SOL    HW232784   6.725   5.523   5.259
10629SOL     OW32785   2.352   4.502   6.703
10629SOL    HW132786   2.263   4.465   6.731
10629SOL    HW232787   2.341   4.555   6.619
10630SOL     OW32788   5.103   0.697   1.997
10630SOL    HW132789   5.191   0.744   2.004
10630SOL    HW232790   5.114   0.614   1.942
10631SOL     OW32791   1.305   6.840   4.902
10631SOL    HW132792   1.305   6.753   4.950
10631SOL    HW232793   1.275   6.913   4.964
10632SOL     OW32794   0.061   3.181   6.621
10632SOL    HW132795   7.021   3.243   6.574
10632SOL    HW232796   0.147   3.229   6.640
10633SOL     OW32797   1.175   5.026   0.178
10633SOL    HW132798   1.235   4.976   0.241
10633SOL    HW232799   1.137   5.106   0.225
10634SOL     OW32800   3.595   6.557   2.305
10634SOL    HW132801   3.526   6.513   2.248
10634SOL    HW232802   3.682   6.508   2.296
10635SOL     OW32803   1.740   1.416   1.563
10635SOL    HW132804   1.680   1.458   1.495
10635SOL    HW232805   1.833   1.409   1.526
10636SOL     OW32806   4.771   1.587   0.445
10636SOL    HW132807   4.857   1.582   0.394
10636SOL    HW232808   4.788   1.565   0.541
10637SOL     OW32809   3.160   4.227   6.200
10637SOL    HW132810   3.249   4.182   6.201
10637SOL    HW232811   3.172   4.325   6.218
10638SOL     OW32812   6.401   0.754   5.791
10638SOL    HW132813   6.404   0.655   5.800
10638SOL    HW232814   6.446   0.797   5.869
10639SOL     OW32815   3.532   1.935   5.222
10639SOL    HW132816   3.470   2.014   5.211
10639SOL    HW232817   3.478   1.853   5.241
10640SOL     OW32818   4.924   6.191   0.860
10640SOL    HW132819   4.974   6.178   0.774
10640SOL    HW232820   4.829   6.214   0.840
10641SOL     OW32821   3.372   0.030   6.998
10641SOL    HW132822   3.381   0.003   0.071
10641SOL    HW232823   3.461   0.021   6.953
10642SOL     OW32824   0.144   4.946   0.411
10642SOL    HW132825   0.052   4.977   0.437
10642SOL    HW232826   0.173   4.873   0.473
10643SOL     OW32827   4.345   3.221   5.414
10643SOL    HW132828   4.418   3.290   5.413
10643SOL    HW232829   4.384   3.131   5.397
10644SOL     OW32830   4.142   1.394   5.583
10644SOL    HW132831   4.078   1.320   5.564
10644SOL    HW232832   4.230   1.374   5.539
10645SOL     OW32833   2.280   6.884   4.956
10645SOL    HW132834   2.236   6.803   4.918
10645SOL    HW232835   2.313   6.942   4.881
10646SOL     OW32836   6.738   4.999   6.896
10646SOL    HW132837   6.825   4.975   6.854
10646SOL    HW232838   6.749   5.083   6.949
10647SOL     OW32839   0.645   5.769   0.649
10647SOL    HW132840   0.605   5.834   0.714
10647SOL    HW232841   0.600   5.779   0.560
10648SOL     OW32842   5.053   4.462   5.891
10648SOL    HW132843   5.087   4.426   5.804
10648SOL    HW232844   5.125   4.514   5.936
10649SOL     OW32845   0.408   4.485   6.498
10649SOL    HW132846   0.308   4.497   6.494
10649SOL    HW232847   0.433   4.452   6.589
10650SOL     OW32848   2.658   0.230   5.526
10650SOL    HW132849   2.751   0.261   5.544
10650SOL    HW232850   2.648   0.134   5.553
10651SOL     OW32851   2.530   0.377   5.144
10651SOL    HW132852   2.439   0.370   5.104
10651SOL    HW232853   2.543   0.468   5.183
10652SOL     OW32854   4.093   1.466   0.730
10652SOL    HW132855   4.172   1.413   0.700
10652SOL    HW232856   4.099   1.482   0.829
10653SOL     OW32857   6.444   4.147   3.930
10653SOL    HW132858   6.459   4.243   3.906
10653SOL    HW232859   6.471   4.089   3.853
10654SOL     OW32860   4.783   0.680   1.852
10654SOL    HW132861   4.843   0.738   1.906
10654SOL    HW232862   4.688   0.711   1.862
10655SOL     OW32863   2.389   5.781   1.172
10655SOL    HW132864   2.381   5.702   1.110
10655SOL    HW232865   2.485   5.808   1.179
10656SOL     OW32866   6.490   2.674   6.429
10656SOL    HW132867   6.409   2.663   6.487
10656SOL    HW232868   6.563   2.717   6.482
10657SOL     OW32869   6.662   0.610   0.989
10657SOL    HW132870   6.711   0.672   0.927
10657SOL    HW232871   6.591   0.562   0.937
10658SOL     OW32872   0.220   6.300   4.287
10658SOL    HW132873   0.193   6.263   4.199
10658SOL    HW232874   0.239   6.225   4.351
10659SOL     OW32875   4.920   1.079   0.956
10659SOL    HW132876   4.887   1.004   1.013
10659SOL    HW232877   5.019   1.071   0.945
10660SOL     OW32878   5.205   5.578   5.396
10660SOL    HW132879   5.288   5.634   5.396
10660SOL    HW232880   5.230   5.482   5.402
10661SOL     OW32881   6.946   0.827   1.970
10661SOL    HW132882   6.981   0.738   1.941
10661SOL    HW232883   6.916   0.878   1.889
10662SOL     OW32884   6.962   1.880   0.447
10662SOL    HW132885   6.873   1.926   0.451
10662SOL    HW232886   0.012   1.948   0.456
10663SOL     OW32887   0.929   2.253   0.895
10663SOL    HW132888   0.830   2.262   0.901
10663SOL    HW232889   0.968   2.337   0.858
10664SOL     OW32890   2.244   5.283   6.004
10664SOL    HW132891   2.320   5.248   6.058
10664SOL    HW232892   2.275   5.300   5.910
10665SOL     OW32893   5.981   2.105   0.053
10665SOL    HW132894   5.903   2.056   0.014
10665SOL    HW232895   6.044   2.130   7.002
10666SOL     OW32896   0.753   6.583   0.396
10666SOL    HW132897   0.678   6.532   0.353
10666SOL    HW232898   0.715   6.647   0.463
10667SOL     OW32899   3.274   2.598   5.654
10667SOL    HW132900   3.215   2.678   5.650
10667SOL    HW232901   3.281   2.557   5.562
10668SOL     OW32902   1.714   0.791   5.938
10668SOL    HW132903   1.763   0.790   5.850
10668SOL    HW232904   1.730   0.878   5.984
10669SOL     OW32905   1.946   6.187   6.527
10669SOL    HW132906   1.917   6.111   6.585
10669SOL    HW232907   1.984   6.151   6.442
10670SOL     OW32908   6.200   4.338   4.635
10670SOL    HW132909   6.225   4.244   4.657
10670SOL    HW232910   6.187   4.390   4.719
10671SOL     OW32911   2.035   2.833   3.333
10671SOL    HW132912   1.992   2.760   3.386
10671SOL    HW232913   2.114   2.869   3.383
10672SOL     OW32914   7.011   2.049   0.859
10672SOL    HW132915   0.058   1.979   0.879
10672SOL    HW232916   0.025   2.115   0.794
10673SOL     OW32917   3.572   4.119   4.269
10673SOL    HW132918   3.537   4.096   4.360
10673SOL    HW232919   3.665   4.084   4.258
10674SOL     OW32920   4.501   1.476   2.312
10674SOL    HW132921   4.504   1.403   2.381
10674SOL    HW232922   4.416   1.529   2.323
10675SOL     OW32923   1.420   1.250   5.678
10675SOL    HW132924   1.329   1.273   5.642
10675SOL    HW232925   1.413   1.231   5.776
10676SOL     OW32926   6.884   0.634   6.991
10676SOL    HW132927   6.823   0.664   0.041
10676SOL    HW232928   6.840   0.648   6.902
10677SOL     OW32929   5.549   1.589   0.572
10677SOL    HW132930   5.457   1.625   0.559
10677SOL    HW232931   5.571   1.591   0.670
10678SOL     OW32932   1.561   5.470   3.791
10678SOL    HW132933   1.525   5.430   3.875
10678SOL    HW232934   1.652   5.509   3.809
10679SOL     OW32935   5.521   5.114   3.498
10679SOL    HW132936   5.463   5.127   3.579
10679SOL    HW232937   5.607   5.165   3.510
10680SOL     OW32938   0.414   2.817   3.766
10680SOL    HW132939   0.437   2.727   3.803
10680SOL    HW232940   0.345   2.808   3.695
10681SOL     OW32941   0.602   2.982   0.050
10681SOL    HW132942   0.654   3.017   6.995
10681SOL    HW232943   0.607   2.882   0.050
10682SOL     OW32944   6.072   2.138   3.534
10682SOL    HW132945   6.058   2.221   3.479
10682SOL    HW232946   6.038   2.153   3.627
10683SOL     OW32947   1.031   0.801   4.133
10683SOL    HW132948   1.114   0.842   4.096
10683SOL    HW232949   1.056   0.728   4.197
10684SOL     OW32950   5.381   5.844   0.819
10684SOL    HW132951   5.407   5.844   0.722
10684SOL    HW232952   5.298   5.790   0.831
10685SOL     OW32953   6.352   2.770   2.661
10685SOL    HW132954   6.371   2.844   2.597
10685SOL    HW232955   6.276   2.797   2.721
10686SOL     OW32956   4.594   4.398   1.153
10686SOL    HW132957   4.513   4.348   1.121
10686SOL    HW232958   4.582   4.422   1.250
10687SOL     OW32959   7.015   5.080   1.214
10687SOL    HW132960   6.982   5.091   1.307
10687SOL    HW232961   0.070   5.141   1.198
10688SOL     OW32962   1.151   4.757   1.095
10688SOL    HW132963   1.107   4.680   1.049
10688SOL    HW232964   1.241   4.728   1.129
10689SOL     OW32965   0.938   0.479   0.637
10689SOL    HW132966   0.941   0.538   0.556
10689SOL    HW232967   0.936   0.536   0.719
10690SOL     OW32968   4.487   0.225   3.110
10690SOL    HW132969   4.435   0.168   3.173
10690SOL    HW232970   4.558   0.273   3.160
10691SOL     OW32971   5.138   1.548   1.488
10691SOL    HW132972   5.130   1.619   1.418
10691SOL    HW232973   5.129   1.589   1.579
10692SOL     OW32974   6.122   6.540   4.028
10692SOL    HW132975   6.175   6.481   3.966
10692SOL    HW232976   6.184   6.580   4.096
10693SOL     OW32977   4.683   2.832   4.138
10693SOL    HW132978   4.751   2.886   4.188
10693SOL    HW232979   4.614   2.798   4.203
10694SOL     OW32980   2.305   5.990   0.243
10694SOL    HW132981   2.246   5.924   0.289
10694SOL    HW232982   2.395   5.949   0.227
10695SOL     OW32983   5.641   3.469   6.017
10695SOL    HW132984   5.738   3.479   6.041
10695SOL    HW232985   5.627   3.380   5.973
10696SOL     OW32986   6.570   0.197   0.809
10696SOL    HW132987   6.526   0.107   0.812
10696SOL    HW232988   6.633   0.206   0.886
10697SOL     OW32989   2.076   5.861   3.270
10697SOL    HW132990   1.995   5.896   3.223
10697SOL    HW232991   2.048   5.805   3.348
10698SOL     OW32992   3.375   0.450   4.834
10698SOL    HW132993   3.405   0.533   4.881
10698SOL    HW232994   3.275   0.448   4.829
10699SOL     OW32995   1.357   2.994   3.818
10699SOL    HW132996   1.348   2.927   3.744
10699SOL    HW232997   1.281   2.983   3.882
10700SOL     OW32998   1.017   3.190   2.452
10700SOL    HW132999   1.057   3.115   2.506
10700SOL    HW233000   0.971   3.152   2.372
10701SOL     OW33001   2.932   0.064   1.114
10701SOL    HW133002   2.918   6.990   1.094
10701SOL    HW233003   2.881   0.120   1.049
10702SOL     OW33004   4.842   1.928   0.432
10702SOL    HW133005   4.935   1.922   0.469
10702SOL    HW233006   4.824   2.021   0.402
10703SOL     OW33007   3.679   3.645   4.040
10703SOL    HW133008   3.766   3.670   4.082
10703SOL    HW233009   3.613   3.719   4.054
10704SOL     OW33010   5.255   5.653   1.841
10704SOL    HW133011   5.236   5.592   1.917
10704SOL    HW233012   5.314   5.728   1.871
10705SOL     OW33013   1.190   3.084   6.886
10705SOL    HW133014   1.169   3.179   6.907
10705SOL    HW233015   1.272   3.079   6.831
10706SOL     OW33016   3.694   3.384   0.809
10706SOL    HW133017   3.740   3.325   0.875
10706SOL    HW233018   3.758   3.413   0.738
10707SOL     OW33019   5.641   0.318   6.576
10707SOL    HW133020   5.695   0.396   6.607
10707SOL    HW233021   5.579   0.289   6.650
10708SOL     OW33022   4.391   2.233   1.873
10708SOL    HW133023   4.447   2.173   1.817
10708SOL    HW233024   4.297   2.235   1.838
10709SOL     OW33025   1.197   0.698   6.459
10709SOL    HW133026   1.117   0.733   6.507
10709SOL    HW233027   1.179   0.604   6.428
10710SOL     OW33028   0.245   6.367   3.471
10710SOL    HW133029   0.213   6.309   3.397
10710SOL    HW233030   0.345   6.363   3.476
10711SOL     OW33031   1.914   3.949   5.498
10711SOL    HW133032   1.992   3.919   5.444
10711SOL    HW233033   1.829   3.926   5.451
10712SOL     OW33034   3.279   1.961   6.772
10712SOL    HW133035   3.329   1.893   6.718
10712SOL    HW233036   3.189   1.975   6.731
10713SOL     OW33037   2.484   6.907   6.952
10713SOL    HW133038   2.446   6.818   6.979
10713SOL    HW233039   2.536   6.945   0.006
10714SOL     OW33040   5.070   5.489   4.174
10714SOL    HW133041   5.062   5.566   4.111
10714SOL    HW233042   4.994   5.492   4.239
10715SOL     OW33043   6.102   0.225   2.727
10715SOL    HW133044   6.149   0.298   2.678
10715SOL    HW233045   6.170   0.160   2.762
10716SOL     OW33046   6.776   0.935   2.141
10716SOL    HW133047   6.830   0.993   2.202
10716SOL    HW233048   6.834   0.900   2.068
10717SOL     OW33049   0.685   6.717   1.913
10717SOL    HW133050   0.666   6.622   1.889
10717SOL    HW233051   0.772   6.722   1.963
10718SOL     OW33052   0.482   4.647   5.051
10718SOL    HW133053   0.458   4.570   4.992
10718SOL    HW233054   0.455   4.626   5.145
10719SOL     OW33055   3.463   6.526   3.244
10719SOL    HW133056   3.496   6.619   3.260
10719SOL    HW233057   3.540   6.462   3.244
10720SOL     OW33058   0.338   2.769   6.051
10720SOL    HW133059   0.313   2.753   5.955
10720SOL    HW233060   0.276   2.836   6.091
10721SOL     OW33061   5.510   1.540   3.958
10721SOL    HW133062   5.447   1.482   4.011
10721SOL    HW233063   5.557   1.484   3.890
10722SOL     OW33064   0.846   5.384   0.264
10722SOL    HW133065   0.822   5.434   0.346
10722SOL    HW233066   0.775   5.317   0.243
10723SOL     OW33067   6.916   3.974   6.450
10723SOL    HW133068   6.945   3.883   6.480
10723SOL    HW233069   6.985   4.041   6.476
10724SOL     OW33070   3.397   6.303   5.898
10724SOL    HW133071   3.376   6.373   5.966
10724SOL    HW233072   3.311   6.263   5.865
10725SOL     OW33073   6.976   6.724   5.849
10725SOL    HW133074   0.025   6.756   5.787
10725SOL    HW233075   6.972   6.624   5.847
10726SOL     OW33076   7.000   0.065   3.345
10726SOL    HW133077   0.021   0.077   3.256
10726SOL    HW233078   0.047   0.054   3.416
10727SOL     OW33079   4.780   6.357   6.136
10727SOL    HW133080   4.763   6.451   6.107
10727SOL    HW233081   4.877   6.345   6.158
10728SOL     OW33082   5.890   5.756   3.770
10728SOL    HW133083   5.880   5.809   3.685
10728SOL    HW233084   5.909   5.661   3.747
10729SOL     OW33085   0.070   2.759   3.973
10729SOL    HW133086   7.012   2.710   4.005
10729SOL    HW233087   0.146   2.695   3.962
10730SOL     OW33088   1.578   6.052   4.471
10730SOL    HW133089   1.573   6.137   4.418
10730SOL    HW233090   1.631   5.985   4.419
10731SOL     OW33091   4.891   4.303   5.578
10731SOL    HW133092   4.841   4.314   5.664
10731SOL    HW233093   4.890   4.207   5.550
10732SOL     OW33094   5.915   5.987   2.026
10732SOL    HW133095   5.949   5.955   1.938
10732SOL    HW233096   5.941   6.083   2.039
10733SOL     OW33097   0.622   1.336   6.028
10733SOL    HW133098   0.555   1.290   5.970
10733SOL    HW233099   0.585   1.424   6.059
10734SOL     OW33100   0.527   0.380   4.735
10734SOL    HW133101   0.440   0.339   4.761
10734SOL    HW233102   0.522   0.479   4.750
10735SOL     OW33103   6.568   0.690   1.788
10735SOL    HW133104   6.594   0.622   1.720
10735SOL    HW233105   6.512   0.761   1.745
10736SOL     OW33106   5.778   5.862   3.551
10736SOL    HW133107   5.711   5.794   3.580
10736SOL    HW233108   5.737   5.953   3.556
10737SOL     OW33109   0.093   0.737   0.775
10737SOL    HW133110   0.189   0.736   0.746
10737SOL    HW233111   0.079   0.669   0.847
10738SOL     OW33112   1.574   6.530   2.057
10738SOL    HW133113   1.592   6.497   1.964
10738SOL    HW233114   1.654   6.580   2.090
10739SOL     OW33115   4.936   2.719   4.041
10739SOL    HW133116   4.852   2.758   4.079
10739SOL    HW233117   4.915   2.632   3.997
10740SOL     OW33118   2.817   0.542   6.372
10740SOL    HW133119   2.904   0.495   6.358
10740SOL    HW233120   2.743   0.475   6.376
10741SOL     OW33121   1.526   2.568   4.189
10741SOL    HW133122   1.563   2.539   4.101
10741SOL    HW233123   1.600   2.579   4.255
10742SOL     OW33124   0.505   0.327   1.953
10742SOL    HW133125   0.597   0.337   1.916
10742SOL    HW233126   0.447   0.278   1.888
10743SOL     OW33127   3.796   2.568   6.079
10743SOL    HW133128   3.815   2.640   6.012
10743SOL    HW233129   3.856   2.490   6.063
10744SOL     OW33130   1.825   2.181   1.362
10744SOL    HW133131   1.830   2.198   1.264
10744SOL    HW233132   1.890   2.241   1.410
10745SOL     OW33133   2.793   5.609   1.176
10745SOL    HW133134   2.770   5.577   1.267
10745SOL    HW233135   2.855   5.545   1.132
10746SOL     OW33136   2.557   5.715   6.165
10746SOL    HW133137   2.634   5.735   6.103
10746SOL    HW233138   2.474   5.700   6.111
10747SOL     OW33139   6.864   6.999   4.643
10747SOL    HW133140   6.846   6.977   4.547
10747SOL    HW233141   6.939   6.942   4.677
10748SOL     OW33142   2.851   6.210   2.579
10748SOL    HW133143   2.807   6.208   2.669
10748SOL    HW233144   2.818   6.132   2.525
10749SOL     OW33145   5.036   3.286   2.126
10749SOL    HW133146   5.069   3.347   2.055
10749SOL    HW233147   5.029   3.193   2.090
10750SOL     OW33148   3.632   1.663   4.284
10750SOL    HW133149   3.615   1.581   4.338
10750SOL    HW233150   3.661   1.636   4.192
10751SOL     OW33151   6.169   6.006   3.698
10751SOL    HW133152   6.242   5.976   3.637
10751SOL    HW233153   6.100   6.056   3.646
10752SOL     OW33154   0.197   5.969   6.701
10752SOL    HW133155   0.128   6.040   6.689
10752SOL    HW233156   0.205   5.917   6.616
10753SOL     OW33157   5.366   7.021   5.256
10753SOL    HW133158   5.289   0.053   5.223
10753SOL    HW233159   5.396   0.034   5.344
10754SOL     OW33160   6.949   5.541   2.162
10754SOL    HW133161   6.900   5.609   2.217
10754SOL    HW233162   6.986   5.470   2.223
10755SOL     OW33163   0.220   1.919   2.285
10755SOL    HW133164   0.232   1.898   2.188
10755SOL    HW233165   0.186   1.838   2.332
10756SOL     OW33166   1.288   6.865   6.274
10756SOL    HW133167   1.385   6.849   6.289
10756SOL    HW233168   1.270   6.964   6.279
10757SOL     OW33169   6.978   2.683   1.582
10757SOL    HW133170   6.968   2.775   1.620
10757SOL    HW233171   0.026   2.634   1.633
10758SOL     OW33172   0.675   1.921   0.545
10758SOL    HW133173   0.770   1.907   0.517
10758SOL    HW233174   0.663   2.013   0.581
10759SOL     OW33175   3.968   4.283   5.624
10759SOL    HW133176   4.022   4.199   5.619
10759SOL    HW233177   3.872   4.261   5.610
10760SOL     OW33178   0.694   5.068   0.090
10760SOL    HW133179   0.702   4.983   0.142
10760SOL    HW233180   0.644   5.135   0.144
10761SOL     OW33181   1.183   1.277   6.588
10761SOL    HW133182   1.252   1.343   6.619
10761SOL    HW233183   1.222   1.221   6.515
10762SOL     OW33184   1.747   6.193   1.148
10762SOL    HW133185   1.750   6.240   1.236
10762SOL    HW233186   1.828   6.218   1.095
10763SOL     OW33187   4.961   1.204   2.252
10763SOL    HW133188   5.044   1.155   2.225
10763SOL    HW233189   4.893   1.137   2.285
10764SOL     OW33190   5.260   6.512   5.191
10764SOL    HW133191   5.219   6.421   5.194
10764SOL    HW233192   5.262   6.545   5.097
10765SOL     OW33193   0.041   2.801   1.128
10765SOL    HW133194   0.106   2.844   1.190
10765SOL    HW233195   7.013   2.730   1.176
10766SOL     OW33196   2.990   4.971   6.498
10766SOL    HW133197   2.937   4.967   6.583
10766SOL    HW233198   2.984   5.064   6.460
10767SOL     OW33199   1.903   4.643   6.558
10767SOL    HW133200   1.938   4.696   6.635
10767SOL    HW233201   1.935   4.682   6.472
10768SOL     OW33202   5.542   6.455   0.037
10768SOL    HW133203   5.495   6.514   0.104
10768SOL    HW233204   5.562   6.508   6.977
10769SOL     OW33205   3.060   3.496   4.898
10769SOL    HW133206   3.060   3.452   4.988
10769SOL    HW233207   3.078   3.594   4.909
10770SOL     OW33208   4.929   6.904   3.875
10770SOL    HW133209   5.022   6.892   3.911
10770SOL    HW233210   4.902   6.999   3.886
10771SOL     OW33211   4.677   5.845   5.937
10771SOL    HW133212   4.693   5.939   5.909
10771SOL    HW233213   4.615   5.843   6.016
10772SOL     OW33214   4.887   3.843   3.356
10772SOL    HW133215   4.871   3.776   3.428
10772SOL    HW233216   4.984   3.868   3.354
10773SOL     OW33217   0.507   3.974   0.821
10773SOL    HW133218   0.579   3.982   0.890
10773SOL    HW233219   0.452   3.892   0.838
10774SOL     OW33220   6.941   2.792   0.218
10774SOL    HW133221   6.955   2.734   0.138
10774SOL    HW233222   6.988   2.753   0.297
10775SOL     OW33223   2.903   4.895   6.968
10775SOL    HW133224   2.883   4.940   0.033
10775SOL    HW233225   2.941   4.804   6.985
10776SOL     OW33226   0.660   3.689   3.280
10776SOL    HW133227   0.639   3.679   3.378
10776SOL    HW233228   0.733   3.625   3.255
10777SOL     OW33229   1.361   6.703   1.978
10777SOL    HW133230   1.412   6.628   2.021
10777SOL    HW233231   1.405   6.790   1.998
10778SOL     OW33232   4.944   0.493   3.858
10778SOL    HW133233   4.985   0.583   3.846
10778SOL    HW233234   4.845   0.502   3.868
10779SOL     OW33235   5.569   2.918   6.255
10779SOL    HW133236   5.539   2.845   6.317
10779SOL    HW233237   5.494   2.982   6.241
10780SOL     OW33238   0.839   5.044   4.602
10780SOL    HW133239   0.792   5.112   4.659
10780SOL    HW233240   0.934   5.035   4.632
10781SOL     OW33241   6.091   2.676   5.639
10781SOL    HW133242   6.017   2.608   5.635
10781SOL    HW233243   6.068   2.754   5.581
10782SOL     OW33244   1.030   3.299   5.513
10782SOL    HW133245   0.985   3.209   5.514
10782SOL    HW233246   1.121   3.291   5.552
10783SOL     OW33247   1.398   4.026   3.971
10783SOL    HW133248   1.498   4.022   3.964
10783SOL    HW233249   1.372   4.101   4.031
10784SOL     OW33250   4.467   5.308   3.577
10784SOL    HW133251   4.439   5.339   3.486
10784SOL    HW233252   4.493   5.211   3.572
10785SOL     OW33253   1.482   5.070   1.582
10785SOL    HW133254   1.477   4.988   1.639
10785SOL    HW233255   1.542   5.053   1.503
10786SOL     OW33256   5.068   1.402   2.452
10786SOL    HW133257   5.050   1.333   2.382
10786SOL    HW233258   5.165   1.401   2.475
10787SOL     OW33259   3.139   1.530   3.769
10787SOL    HW133260   3.211   1.596   3.746
10787SOL    HW233261   3.114   1.541   3.865
10788SOL     OW33262   1.593   2.976   0.226
10788SOL    HW133263   1.624   3.003   0.317
10788SOL    HW233264   1.536   3.048   0.187
10789SOL     OW33265   5.841   2.034   2.723
10789SOL    HW133266   5.911   2.104   2.739
10789SOL    HW233267   5.771   2.040   2.794
10790SOL     OW33268   0.189   2.091   5.361
10790SOL    HW133269   0.183   2.018   5.293
10790SOL    HW233270   0.097   2.120   5.387
10791SOL     OW33271   1.787   3.740   3.358
10791SOL    HW133272   1.871   3.689   3.376
10791SOL    HW233273   1.710   3.676   3.354
10792SOL     OW33274   4.075   1.266   2.064
10792SOL    HW133275   4.100   1.275   2.160
10792SOL    HW233276   4.005   1.333   2.041
10793SOL     OW33277   3.932   2.070   4.431
10793SOL    HW133278   3.863   2.081   4.360
10793SOL    HW233279   3.987   2.153   4.437
10794SOL     OW33280   4.932   2.827   6.485
10794SOL    HW133281   5.027   2.797   6.472
10794SOL    HW233282   4.872   2.770   6.430
10795SOL     OW33283   6.299   2.925   3.464
10795SOL    HW133284   6.227   2.930   3.533
10795SOL    HW233285   6.386   2.898   3.508
10796SOL     OW33286   0.401   1.590   6.692
10796SOL    HW133287   0.487   1.611   6.646
10796SOL    HW233288   0.416   1.518   6.760
10797SOL     OW33289   5.532   5.154   6.585
10797SOL    HW133290   5.537   5.148   6.685
10797SOL    HW233291   5.615   5.117   6.545
10798SOL     OW33292   2.364   5.526   0.599
10798SOL    HW133293   2.306   5.605   0.616
10798SOL    HW233294   2.345   5.490   0.508
10799SOL     OW33295   2.043   0.452   3.210
10799SOL    HW133296   2.060   0.551   3.206
10799SOL    HW233297   2.115   0.404   3.160
10800SOL     OW33298   1.980   0.850   4.937
10800SOL    HW133299   2.046   0.883   4.869
10800SOL    HW233300   1.924   0.778   4.897
10801SOL     OW33301   2.787   6.211   6.470
10801SOL    HW133302   2.861   6.210   6.537
10801SOL    HW233303   2.735   6.296   6.479
10802SOL     OW33304   0.758   4.571   4.070
10802SOL    HW133305   0.682   4.621   4.112
10802SOL    HW233306   0.820   4.635   4.026
10803SOL     OW33307   6.853   4.407   4.520
10803SOL    HW133308   6.935   4.366   4.560
10803SOL    HW233309   6.878   4.466   4.444
10804SOL     OW33310   4.256   4.876   6.804
10804SOL    HW133311   4.300   4.819   6.735
10804SOL    HW233312   4.239   4.822   6.886
10805SOL     OW33313   4.701   5.850   0.581
10805SOL    HW133314   4.651   5.867   0.496
10805SOL    HW233315   4.727   5.754   0.585
10806SOL     OW33316   5.177   2.957   5.571
10806SOL    HW133317   5.091   2.997   5.604
10806SOL    HW233318   5.201   2.999   5.484
10807SOL     OW33319   4.425   2.965   5.307
10807SOL    HW133320   4.385   2.874   5.320
10807SOL    HW233321   4.518   2.956   5.273
10808SOL     OW33322   0.647   2.874   0.759
10808SOL    HW133323   0.616   2.873   0.663
10808SOL    HW233324   0.615   2.792   0.805
10809SOL     OW33325   1.176   0.817   2.777
10809SOL    HW133326   1.246   0.756   2.815
10809SOL    HW233327   1.111   0.764   2.723
10810SOL     OW33328   1.748   1.384   6.023
10810SOL    HW133329   1.692   1.342   6.094
10810SOL    HW233330   1.714   1.357   5.933
10811SOL     OW33331   4.081   6.175   6.532
10811SOL    HW133332   4.087   6.075   6.532
10811SOL    HW233333   4.082   6.209   6.438
10812SOL     OW33334   6.368   3.171   3.004
10812SOL    HW133335   6.461   3.140   3.020
10812SOL    HW233336   6.349   3.170   2.905
10813SOL     OW33337   2.948   5.891   2.201
10813SOL    HW133338   3.009   5.899   2.122
10813SOL    HW233339   2.982   5.819   2.262
10814SOL     OW33340   2.099   6.101   4.373
10814SOL    HW133341   2.101   6.186   4.425
10814SOL    HW233342   2.021   6.045   4.404
10815SOL     OW33343   5.534   1.960   5.725
10815SOL    HW133344   5.501   1.939   5.632
10815SOL    HW233345   5.520   1.880   5.783
10816SOL     OW33346   2.257   2.227   1.118
10816SOL    HW133347   2.343   2.277   1.129
10816SOL    HW233348   2.276   2.131   1.099
10817SOL     OW33349   3.880   1.835   1.881
10817SOL    HW133350   3.857   1.812   1.786
10817SOL    HW233351   3.798   1.830   1.937
10818SOL     OW33352   4.640   3.213   6.381
10818SOL    HW133353   4.632   3.185   6.285
10818SOL    HW233354   4.548   3.221   6.421
10819SOL     OW33355   2.151   3.579   5.236
10819SOL    HW133356   2.169   3.630   5.152
10819SOL    HW233357   2.177   3.483   5.223
10820SOL     OW33358   1.382   6.235   5.837
10820SOL    HW133359   1.400   6.148   5.791
10820SOL    HW233360   1.341   6.299   5.772
10821SOL     OW33361   0.250   0.293   6.872
10821SOL    HW133362   0.221   0.325   6.962
10821SOL    HW233363   0.234   0.366   6.804
10822SOL     OW33364   0.368   4.741   6.133
10822SOL    HW133365   0.427   4.817   6.108
10822SOL    HW233366   0.421   4.671   6.181
10823SOL     OW33367   1.684   1.942   1.112
10823SOL    HW133368   1.735   1.857   1.123
10823SOL    HW233369   1.708   2.006   1.185
10824SOL     OW33370   5.597   1.447   5.002
10824SOL    HW133371   5.584   1.542   4.975
10824SOL    HW233372   5.582   1.387   4.923
10825SOL     OW33373   3.617   1.265   2.379
10825SOL    HW133374   3.603   1.231   2.472
10825SOL    HW233375   3.529   1.273   2.333
10826SOL     OW33376   6.966   3.552   1.082
10826SOL    HW133377   6.971   3.493   1.001
10826SOL    HW233378   7.016   3.511   1.157
10827SOL     OW33379   0.928   2.510   4.649
10827SOL    HW133380   0.872   2.566   4.588
10827SOL    HW233381   0.870   2.443   4.695
10828SOL     OW33382   2.752   4.766   0.208
10828SOL    HW133383   2.806   4.683   0.219
10828SOL    HW233384   2.690   4.756   0.130
10829SOL     OW33385   2.352   3.922   1.849
10829SOL    HW133386   2.395   4.009   1.823
10829SOL    HW233387   2.298   3.935   1.931
10830SOL     OW33388   6.424   0.566   3.283
10830SOL    HW133389   6.507   0.585   3.231
10830SOL    HW233390   6.424   0.470   3.312
10831SOL     OW33391   5.160   2.746   2.099
10831SOL    HW133392   5.149   2.649   2.119
10831SOL    HW233393   5.203   2.757   2.009
10832SOL     OW33394   1.698   2.867   2.276
10832SOL    HW133395   1.731   2.780   2.313
10832SOL    HW233396   1.714   2.940   2.342
10833SOL     OW33397   3.456   6.999   4.702
10833SOL    HW133398   3.538   6.952   4.670
10833SOL    HW233399   3.472   0.075   4.703
10834SOL     OW33400   0.217   1.563   6.004
10834SOL    HW133401   0.129   1.520   6.026
10834SOL    HW233402   0.244   1.538   5.911
10835SOL     OW33403   0.408   1.504   0.423
10835SOL    HW133404   0.451   1.572   0.482
10835SOL    HW233405   0.345   1.448   0.476
10836SOL     OW33406   0.389   2.308   1.405
10836SOL    HW133407   0.434   2.395   1.383
10836SOL    HW233408   0.396   2.290   1.503
10837SOL     OW33409   1.512   5.303   0.523
10837SOL    HW133410   1.612   5.311   0.522
10837SOL    HW233411   1.475   5.329   0.435
10838SOL     OW33412   6.739   5.835   0.415
10838SOL    HW133413   6.803   5.874   0.349
10838SOL    HW233414   6.745   5.886   0.501
10839SOL     OW33415   2.149   2.089   6.865
10839SOL    HW133416   2.197   2.111   6.780
10839SOL    HW233417   2.094   2.167   6.894
10840SOL     OW33418   2.082   0.249   3.662
10840SOL    HW133419   2.093   0.238   3.761
10840SOL    HW233420   2.010   0.316   3.644
10841SOL     OW33421   4.362   3.979   0.159
10841SOL    HW133422   4.280   4.023   0.123
10841SOL    HW233423   4.420   4.046   0.205
10842SOL     OW33424   6.490   1.923   2.227
10842SOL    HW133425   6.541   1.836   2.224
10842SOL    HW233426   6.425   1.920   2.302
10843SOL     OW33427   1.183   2.316   1.262
10843SOL    HW133428   1.242   2.309   1.343
10843SOL    HW233429   1.222   2.380   1.197
10844SOL     OW33430   5.333   6.998   4.144
10844SOL    HW133431   5.425   6.994   4.105
10844SOL    HW233432   5.288   0.060   4.114
10845SOL     OW33433   2.318   3.579   1.528
10845SOL    HW133434   2.358   3.655   1.579
10845SOL    HW233435   2.236   3.547   1.575
10846SOL     OW33436   3.683   2.786   1.942
10846SOL    HW133437   3.780   2.808   1.954
10846SOL    HW233438   3.637   2.862   1.897
10847SOL     OW33439   5.372   1.999   5.255
10847SOL    HW133440   5.463   1.979   5.292
10847SOL    HW233441   5.328   2.070   5.310
10848SOL     OW33442   1.576   0.822   7.003
10848SOL    HW133443   1.587   0.872   6.917
10848SOL    HW233444   1.653   0.760   7.015
10849SOL     OW33445   0.880   4.424   4.679
10849SOL    HW133446   0.822   4.417   4.760
10849SOL    HW233447   0.859   4.348   4.616
10850SOL     OW33448   6.294   0.565   2.806
10850SOL    HW133449   6.346   0.483   2.828
10850SOL    HW233450   6.218   0.575   2.870
10851SOL     OW33451   4.659   2.715   0.272
10851SOL    HW133452   4.562   2.730   0.288
10851SOL    HW233453   4.699   2.797   0.230
10852SOL     OW33454   6.431   1.348   5.797
10852SOL    HW133455   6.394   1.320   5.709
10852SOL    HW233456   6.512   1.293   5.818
10853SOL     OW33457   2.928   0.272   5.550
10853SOL    HW133458   2.974   0.288   5.462
10853SOL    HW233459   2.992   0.231   5.615
10854SOL     OW33460   6.295   0.221   0.007
10854SOL    HW133461   6.224   0.292   0.002
10854SOL    HW233462   6.351   0.237   0.089
10855SOL     OW33463   1.034   5.904   0.687
10855SOL    HW133464   1.088   5.951   0.757
10855SOL    HW233465   1.072   5.924   0.597
10856SOL     OW33466   5.000   0.054   6.605
10856SOL    HW133467   5.069   0.069   6.535
10856SOL    HW233468   4.929   7.016   6.569
10857SOL     OW33469   6.367   6.715   4.815
10857SOL    HW133470   6.388   6.793   4.756
10857SOL    HW233471   6.279   6.675   4.787
10858SOL     OW33472   1.930   2.382   0.770
10858SOL    HW133473   1.852   2.337   0.815
10858SOL    HW233474   1.912   2.388   0.672
10859SOL     OW33475   2.646   5.676   1.601
10859SOL    HW133476   2.710   5.689   1.676
10859SOL    HW233477   2.677   5.600   1.543
10860SOL     OW33478   6.128   1.555   1.560
10860SOL    HW133479   6.125   1.642   1.609
10860SOL    HW233480   6.045   1.502   1.581
10861SOL     OW33481   1.808   4.672   1.067
10861SOL    HW133482   1.844   4.755   1.110
10861SOL    HW233483   1.854   4.592   1.106
10862SOL     OW33484   3.655   4.276   5.330
10862SOL    HW133485   3.574   4.247   5.279
10862SOL    HW233486   3.659   4.376   5.331
10863SOL     OW33487   0.799   6.852   3.231
10863SOL    HW133488   0.797   6.935   3.176
10863SOL    HW233489   0.746   6.780   3.184
10864SOL     OW33490   2.986   3.887   1.899
10864SOL    HW133491   3.006   3.897   1.997
10864SOL    HW233492   2.983   3.978   1.857
10865SOL     OW33493   2.964   1.861   2.662
10865SOL    HW133494   3.005   1.917   2.591
10865SOL    HW233495   3.015   1.873   2.747
10866SOL     OW33496   0.610   3.385   4.509
10866SOL    HW133497   0.610   3.465   4.448
10866SOL    HW233498   0.677   3.399   4.582
10867SOL     OW33499   4.863   2.643   0.508
10867SOL    HW133500   4.931   2.712   0.535
10867SOL    HW233501   4.797   2.685   0.446
10868SOL     OW33502   0.785   0.090   5.717
10868SOL    HW133503   0.770   7.015   5.701
10868SOL    HW233504   0.697   0.136   5.728
10869NA      NA33505   0.132   0.675   6.634
10870NA      NA33506   4.734   5.118   5.025
10871NA      NA33507   0.861   4.763   2.923
10872NA      NA33508   6.280   3.711   3.538
10873NA      NA33509   4.186   2.341   5.298
10874NA      NA33510   2.377   3.562   7.008
10875NA      NA33511   1.820   5.674   0.387
10876NA      NA33512   4.140   4.826   2.193
10877NA      NA33513   5.275   3.566   1.364
10878NA      NA33514   3.791   1.916   0.788
10879NA      NA33515   5.508   6.819   1.357
10880NA      NA33516   2.970   6.518   4.722
10881NA      NA33517   3.263   5.550   2.873
10882NA      NA33518   3.962   4.841   6.360
   7.02260   7.02260   7.02260
