Generated by trjconv : CNT in water t= 440.00000
33518
    1C        C    1   2.845   2.776   4.748
    1C        C    2   2.896   2.717   4.866
    1C        C    3   2.847   2.778   4.983
    1C        C    4   2.851   2.780   4.261
    1C        C    5   2.901   2.730   4.384
    1C        C    6   2.844   2.771   4.506
    1C        C    7   3.014   2.644   4.626
    1C        C    8   2.898   2.724   4.628
    1C        C    9   3.077   2.608   4.747
    1C        C   10   3.008   2.632   4.868
    1C        C   11   3.177   2.485   4.974
    1C        C   12   3.061   2.563   4.978
    1C        C   13   2.853   2.775   3.772
    1C        C   14   2.903   2.727   3.895
    1C        C   15   2.854   2.781   4.016
    1C        C   16   3.020   2.651   4.137
    1C        C   17   2.908   2.736   4.139
    1C        C   18   3.080   2.615   4.260
    1C        C   19   3.019   2.653   4.382
    1C        C   20   3.210   2.563   4.504
    1C        C   21   3.079   2.615   4.504
    1C        C   22   3.278   2.533   4.624
    1C        C   23   3.205   2.547   4.744
    1C        C   24   3.409   2.486   4.864
    1C        C   25   3.266   2.499   4.863
    1C        C   26   3.488   2.474   4.979
    1C        C   27   2.853   2.774   3.283
    1C        C   28   2.912   2.732   3.404
    1C        C   29   2.855   2.778   3.525
    1C        C   30   3.020   2.648   3.648
    1C        C   31   2.906   2.731   3.648
    1C        C   32   3.077   2.606   3.770
    1C        C   33   3.016   2.642   3.893
    1C        C   34   3.210   2.559   4.016
    1C        C   35   3.078   2.609   4.015
    1C        C   36   3.280   2.541   4.137
    1C        C   37   3.209   2.557   4.258
    1C        C   38   3.414   2.509   4.381
    1C        C   39   3.276   2.539   4.381
    1C        C   40   3.486   2.499   4.501
    1C        C   41   3.415   2.501   4.623
    1C        C   42   3.628   2.483   4.743
    1C        C   43   3.486   2.486   4.745
    1C        C   44   3.703   2.486   4.863
    1C        C   45   3.627   2.471   4.980
    1C        C   46   2.839   2.756   2.793
    1C        C   47   2.900   2.716   2.914
    1C        C   48   2.849   2.766   3.035
    1C        C   49   3.014   2.640   3.161
    1C        C   50   2.898   2.721   3.160
    1C        C   51   3.082   2.609   3.280
    1C        C   52   3.021   2.643   3.403
    1C        C   53   3.211   2.552   3.525
    1C        C   54   3.081   2.608   3.526
    1C        C   55   3.276   2.528   3.648
    1C        C   56   3.206   2.549   3.769
    1C        C   57   3.413   2.510   3.891
    1C        C   58   3.273   2.533   3.892
    1C        C   59   3.485   2.503   4.012
    1C        C   60   3.418   2.509   4.136
    1C        C   61   3.627   2.495   4.260
    1C        C   62   3.486   2.499   4.260
    1C        C   63   3.698   2.504   4.382
    1C        C   64   3.628   2.496   4.504
    1C        C   65   3.835   2.545   4.621
    1C        C   66   3.702   2.496   4.624
    1C        C   67   3.903   2.564   4.743
    1C        C   68   3.839   2.524   4.862
    1C        C   69   4.049   2.581   4.975
    1C        C   70   3.918   2.531   4.977
    1C        C   71   2.821   2.732   2.308
    1C        C   72   2.882   2.692   2.429
    1C        C   73   2.830   2.744   2.549
    1C        C   74   3.006   2.625   2.672
    1C        C   75   2.886   2.700   2.671
    1C        C   76   3.072   2.594   2.793
    1C        C   77   3.015   2.634   2.916
    1C        C   78   3.207   2.550   3.037
    1C        C   79   3.076   2.602   3.040
    1C        C   80   3.277   2.527   3.157
    1C        C   81   3.211   2.553   3.279
    1C        C   82   3.415   2.500   3.400
    1C        C   83   3.276   2.527   3.402
    1C        C   84   3.484   2.492   3.523
    1C        C   85   3.415   2.503   3.646
    1C        C   86   3.626   2.496   3.768
    1C        C   87   3.485   2.502   3.769
    1C        C   88   3.694   2.505   3.891
    1C        C   89   3.626   2.502   4.015
    1C        C   90   3.833   2.538   4.134
    1C        C   91   3.697   2.502   4.137
    1C        C   92   3.900   2.566   4.255
    1C        C   93   3.834   2.542   4.377
    1C        C   94   4.026   2.635   4.497
    1C        C   95   3.902   2.568   4.498
    1C        C   96   4.090   2.670   4.617
    1C        C   97   4.028   2.631   4.738
    1C        C   98   4.188   2.764   4.862
    1C        C   99   4.093   2.657   4.862
    1C        C  100   4.212   2.841   4.976
    1C        C  101   2.821   2.729   2.070
    1C        C  102   2.990   2.591   2.190
    1C        C  103   2.876   2.677   2.188
    1C        C  104   3.062   2.572   2.311
    1C        C  105   2.999   2.613   2.431
    1C        C  106   3.200   2.536   2.551
    1C        C  107   3.069   2.588   2.552
    1C        C  108   3.272   2.519   2.672
    1C        C  109   3.204   2.543   2.793
    1C        C  110   3.410   2.492   2.914
    1C        C  111   3.272   2.522   2.914
    1C        C  112   3.483   2.486   3.035
    1C        C  113   3.415   2.495   3.158
    1C        C  114   3.628   2.488   3.277
    1C        C  115   3.487   2.486   3.280
    1C        C  116   3.695   2.502   3.401
    1C        C  117   3.625   2.493   3.523
    1C        C  118   3.832   2.540   3.644
    1C        C  119   3.696   2.502   3.645
    1C        C  120   3.897   2.565   3.766
    1C        C  121   3.832   2.538   3.889
    1C        C  122   4.021   2.634   4.012
    1C        C  123   3.898   2.565   4.011
    1C        C  124   4.084   2.672   4.133
    1C        C  125   4.027   2.628   4.255
    1C        C  126   4.195   2.763   4.375
    1C        C  127   4.088   2.671   4.375
    1C        C  128   4.245   2.815   4.496
    1C        C  129   4.195   2.765   4.619
    1C        C  130   4.322   2.934   4.739
    1C        C  131   4.241   2.817   4.741
    1C        C  132   4.353   3.005   4.857
    1C        C  133   4.288   2.957   4.972
    1C        C  134   3.169   2.465   2.081
    1C        C  135   3.036   2.509   2.082
    1C        C  136   3.255   2.472   2.191
    1C        C  137   3.194   2.519   2.309
    1C        C  138   3.404   2.475   2.427
    1C        C  139   3.266   2.508   2.430
    1C        C  140   3.479   2.474   2.546
    1C        C  141   3.411   2.491   2.668
    1C        C  142   3.621   2.486   2.786
    1C        C  143   3.480   2.487   2.791
    1C        C  144   3.692   2.500   2.907
    1C        C  145   3.625   2.490   3.031
    1C        C  146   3.832   2.530   3.154
    1C        C  147   3.695   2.495   3.153
    1C        C  148   3.898   2.558   3.276
    1C        C  149   3.832   2.537   3.399
    1C        C  150   4.024   2.628   3.521
    1C        C  151   3.898   2.564   3.521
    1C        C  152   4.083   2.665   3.644
    1C        C  153   4.022   2.632   3.767
    1C        C  154   4.190   2.761   3.888
    1C        C  155   4.081   2.671   3.889
    1C        C  156   4.243   2.811   4.009
    1C        C  157   4.193   2.761   4.131
    1C        C  158   4.340   2.917   4.251
    1C        C  159   4.247   2.810   4.252
    1C        C  160   4.372   2.983   4.372
    1C        C  161   4.328   2.929   4.495
    1C        C  162   4.430   3.116   4.614
    1C        C  163   4.364   2.991   4.617
    1C        C  164   4.466   3.183   4.733
    1C        C  165   4.429   3.124   4.856
    1C        C  166   4.514   3.316   4.967
    1C        C  167   4.474   3.183   4.974
    1C        C  168   3.469   2.428   2.070
    1C        C  169   3.395   2.455   2.186
    1C        C  170   3.615   2.467   2.306
    1C        C  171   3.472   2.463   2.304
    1C        C  172   3.690   2.488   2.423
    1C        C  173   3.620   2.477   2.545
    1C        C  174   3.831   2.529   2.665
    1C        C  175   3.694   2.492   2.665
    1C        C  176   3.895   2.557   2.787
    1C        C  177   3.830   2.533   2.910
    1C        C  178   4.023   2.622   3.032
    1C        C  179   3.898   2.556   3.032
    1C        C  180   4.085   2.661   3.152
    1C        C  181   4.022   2.626   3.274
    1C        C  182   4.192   2.750   3.397
    1C        C  183   4.080   2.664   3.397
    1C        C  184   4.238   2.805   3.519
    1C        C  185   4.189   2.758   3.643
    1C        C  186   4.330   2.917   3.763
    1C        C  187   4.240   2.808   3.765
    1C        C  188   4.372   2.978   3.883
    1C        C  189   4.331   2.921   4.006
    1C        C  190   4.441   3.102   4.128
    1C        C  191   4.374   2.978   4.128
    1C        C  192   4.466   3.173   4.247
    1C        C  193   4.437   3.108   4.370
    1C        C  194   4.506   3.311   4.490
    1C        C  195   4.462   3.177   4.490
    1C        C  196   4.527   3.384   4.609
    1C        C  197   4.517   3.316   4.732
    1C        C  198   4.556   3.532   4.853
    1C        C  199   4.537   3.390   4.851
    1C        C  200   4.586   3.620   4.962
    1C        C  201   3.609   2.423   2.070
    1C        C  202   3.822   2.511   2.178
    1C        C  203   3.686   2.466   2.183
    1C        C  204   3.896   2.536   2.297
    1C        C  205   3.829   2.514   2.420
    1C        C  206   4.018   2.615   2.540
    1C        C  207   3.896   2.545   2.541
    1C        C  208   4.080   2.652   2.661
    1C        C  209   4.020   2.623   2.786
    1C        C  210   4.189   2.751   2.905
    1C        C  211   4.076   2.666   2.908
    1C        C  212   4.244   2.795   3.027
    1C        C  213   4.196   2.749   3.152
    1C        C  214   4.331   2.910   3.274
    1C        C  215   4.245   2.798   3.275
    1C        C  216   4.367   2.972   3.396
    1C        C  217   4.329   2.914   3.519
    1C        C  218   4.424   3.105   3.638
    1C        C  219   4.369   2.975   3.640
    1C        C  220   4.454   3.171   3.759
    1C        C  221   4.432   3.106   3.883
    1C        C  222   4.497   3.306   4.002
    1C        C  223   4.465   3.168   4.005
    1C        C  224   4.506   3.379   4.123
    1C        C  225   4.498   3.311   4.247
    1C        C  226   4.518   3.524   4.367
    1C        C  227   4.509   3.383   4.368
    1C        C  228   4.518   3.596   4.488
    1C        C  229   4.530   3.526   4.610
    1C        C  230   4.504   3.739   4.726
    1C        C  231   4.533   3.600   4.730
    1C        C  232   4.493   3.816   4.844
    1C        C  233   4.544   3.753   4.959
    1C        C  234   4.015   2.609   2.062
    1C        C  235   3.894   2.541   2.062
    1C        C  236   4.082   2.650   2.179
    1C        C  237   4.018   2.608   2.298
    1C        C  238   4.194   2.736   2.419
    1C        C  239   4.080   2.651   2.418
    1C        C  240   4.244   2.789   2.540
    1C        C  241   4.188   2.744   2.661
    1C        C  242   4.331   2.905   2.783
    1C        C  243   4.238   2.798   2.781
    1C        C  244   4.370   2.962   2.906
    1C        C  245   4.330   2.906   3.029
    1C        C  246   4.431   3.094   3.146
    1C        C  247   4.372   2.966   3.151
    1C        C  248   4.454   3.161   3.269
    1C        C  249   4.430   3.098   3.394
    1C        C  250   4.492   3.303   3.514
    1C        C  251   4.454   3.167   3.515
    1C        C  252   4.504   3.374   3.635
    1C        C  253   4.494   3.306   3.758
    1C        C  254   4.520   3.517   3.876
    1C        C  255   4.510   3.376   3.880
    1C        C  256   4.516   3.589   3.998
    1C        C  257   4.513   3.520   4.121
    1C        C  258   4.498   3.731   4.241
    1C        C  259   4.518   3.591   4.243
    1C        C  260   4.472   3.801   4.361
    1C        C  261   4.489   3.734   4.485
    1C        C  262   4.429   3.940   4.601
    1C        C  263   4.481   3.808   4.605
    1C        C  264   4.398   4.005   4.722
    1C        C  265   4.433   3.944   4.845
    1C        C  266   4.319   4.130   4.955
    1C        C  267   4.392   4.011   4.961
    1C        C  268   4.259   2.776   2.059
    1C        C  269   4.192   2.737   2.176
    1C        C  270   4.335   2.897   2.297
    1C        C  271   4.246   2.785   2.297
    1C        C  272   4.373   2.960   2.417
    1C        C  273   4.333   2.899   2.538
    1C        C  274   4.439   3.084   2.657
    1C        C  275   4.376   2.957   2.660
    1C        C  276   4.458   3.154   2.778
    1C        C  277   4.433   3.088   2.901
    1C        C  278   4.497   3.292   3.023
    1C        C  279   4.461   3.155   3.022
    1C        C  280   4.509   3.363   3.144
    1C        C  281   4.494   3.296   3.267
    1C        C  282   4.518   3.508   3.389
    1C        C  283   4.505   3.368   3.389
    1C        C  284   4.518   3.582   3.509
    1C        C  285   4.519   3.515   3.633
    1C        C  286   4.494   3.727   3.751
    1C        C  287   4.517   3.587   3.754
    1C        C  288   4.478   3.796   3.873
    1C        C  289   4.490   3.728   3.996
    1C        C  290   4.428   3.930   4.116
    1C        C  291   4.479   3.798   4.118
    1C        C  292   4.393   3.996   4.236
    1C        C  293   4.427   3.935   4.359
    1C        C  294   4.325   4.124   4.476
    1C        C  295   4.399   4.004   4.479
    1C        C  296   4.284   4.185   4.596
    1C        C  297   4.325   4.128   4.719
    1C        C  298   4.198   4.310   4.838
    1C        C  299   4.285   4.196   4.836
    1C        C  300   4.168   4.400   4.945
    1C        C  301   4.342   2.887   2.061
    1C        C  302   4.470   3.068   2.175
    1C        C  303   4.390   2.950   2.177
    1C        C  304   4.480   3.145   2.294
    1C        C  305   4.448   3.079   2.415
    1C        C  306   4.505   3.285   2.535
    1C        C  307   4.477   3.146   2.536
    1C        C  308   4.517   3.357   2.656
    1C        C  309   4.499   3.289   2.778
    1C        C  310   4.523   3.501   2.899
    1C        C  311   4.511   3.360   2.900
    1C        C  312   4.517   3.573   3.020
    1C        C  313   4.515   3.504   3.143
    1C        C  314   4.490   3.715   3.261
    1C        C  315   4.515   3.576   3.265
    1C        C  316   4.477   3.787   3.382
    1C        C  317   4.498   3.722   3.506
    1C        C  318   4.430   3.926   3.629
    1C        C  319   4.478   3.793   3.627
    1C        C  320   4.402   3.992   3.750
    1C        C  321   4.429   3.928   3.873
    1C        C  322   4.319   4.110   3.991
    1C        C  323   4.399   3.994   3.994
    1C        C  324   4.281   4.175   4.111
    1C        C  325   4.324   4.119   4.233
    1C        C  326   4.186   4.284   4.352
    1C        C  327   4.283   4.181   4.354
    1C        C  328   4.133   4.335   4.473
    1C        C  329   4.187   4.288   4.595
    1C        C  330   4.022   4.427   4.711
    1C        C  331   4.137   4.344   4.714
    1C        C  332   3.967   4.482   4.828
    1C        C  333   4.050   4.475   4.941
    1C        C  334   4.555   3.269   2.061
    1C        C  335   4.532   3.131   2.062
    1C        C  336   4.543   3.353   2.173
    1C        C  337   4.514   3.283   2.292
    1C        C  338   4.523   3.496   2.411
    1C        C  339   4.518   3.355   2.414
    1C        C  340   4.525   3.570   2.531
    1C        C  341   4.523   3.498   2.653
    1C        C  342   4.498   3.707   2.773
    1C        C  343   4.526   3.569   2.775
    1C        C  344   4.482   3.780   2.893
    1C        C  345   4.501   3.714   3.017
    1C        C  346   4.425   3.914   3.137
    1C        C  347   4.477   3.783   3.138
    1C        C  348   4.393   3.979   3.258
    1C        C  349   4.428   3.920   3.382
    1C        C  350   4.321   4.102   3.500
    1C        C  351   4.399   3.984   3.504
    1C        C  352   4.278   4.161   3.621
    1C        C  353   4.323   4.110   3.745
    1C        C  354   4.180   4.267   3.864
    1C        C  355   4.278   4.165   3.867
    1C        C  356   4.125   4.314   3.985
    1C        C  357   4.182   4.275   4.108
    1C        C  358   4.011   4.403   4.229
    1C        C  359   4.131   4.327   4.230
    1C        C  360   3.952   4.445   4.350
    1C        C  361   4.018   4.417   4.471
    1C        C  362   3.825   4.510   4.592
    1C        C  363   3.957   4.461   4.590
    1C        C  364   3.758   4.539   4.713
    1C        C  365   3.835   4.534   4.831
    1C        C  366   3.630   4.590   4.947
    1C        C  367   3.767   4.565   4.950
    1C        C  368   4.508   3.565   2.051
    1C        C  369   4.522   3.492   2.169
    1C        C  370   4.501   3.707   2.287
    1C        C  371   4.516   3.567   2.289
    1C        C  372   4.488   3.780   2.407
    1C        C  373   4.506   3.710   2.529
    1C        C  374   4.430   3.908   2.647
    1C        C  375   4.484   3.777   2.651
    1C        C  376   4.396   3.972   2.768
    1C        C  377   4.433   3.912   2.890
    1C        C  378   4.322   4.094   3.012
    1C        C  379   4.399   3.975   3.012
    1C        C  380   4.276   4.154   3.131
    1C        C  381   4.316   4.097   3.254
    1C        C  382   4.178   4.256   3.377
    1C        C  383   4.276   4.155   3.377
    1C        C  384   4.121   4.303   3.498
    1C        C  385   4.175   4.258   3.620
    1C        C  386   4.003   4.382   3.743
    1C        C  387   4.122   4.306   3.742
    1C        C  388   3.945   4.427   3.864
    1C        C  389   4.007   4.392   3.986
    1C        C  390   3.814   4.482   4.106
    1C        C  391   3.946   4.431   4.107
    1C        C  392   3.749   4.510   4.228
    1C        C  393   3.821   4.497   4.349
    1C        C  394   3.615   4.552   4.474
    1C        C  395   3.753   4.521   4.471
    1C        C  396   3.543   4.562   4.594
    1C        C  397   3.618   4.557   4.714
    1C        C  398   3.409   4.546   4.838
    1C        C  399   3.548   4.571   4.835
    1C        C  400   3.341   4.507   4.955
    1C        C  401   4.506   3.705   2.051
    1C        C  402   4.458   3.917   2.167
    1C        C  403   4.498   3.782   2.167
    1C        C  404   4.417   3.981   2.287
    1C        C  405   4.443   3.913   2.408
    1C        C  406   4.326   4.096   2.526
    1C        C  407   4.403   3.978   2.527
    1C        C  408   4.281   4.152   2.648
    1C        C  409   4.322   4.093   2.769
    1C        C  410   4.174   4.246   2.886
    1C        C  411   4.278   4.151   2.890
    1C        C  412   4.119   4.291   3.008
    1C        C  413   4.173   4.250   3.132
    1C        C  414   3.999   4.369   3.253
    1C        C  415   4.121   4.298   3.255
    1C        C  416   3.938   4.406   3.375
    1C        C  417   4.001   4.378   3.498
    1C        C  418   3.810   4.470   3.617
    1C        C  419   3.938   4.411   3.621
    1C        C  420   3.746   4.495   3.740
    1C        C  421   3.814   4.478   3.863
    1C        C  422   3.607   4.531   3.985
    1C        C  423   3.745   4.500   3.984
    1C        C  424   3.538   4.539   4.108
    1C        C  425   3.610   4.534   4.230
    1C        C  426   3.401   4.547   4.354
    1C        C  427   3.542   4.549   4.353
    1C        C  428   3.331   4.548   4.477
    1C        C  429   3.402   4.559   4.598
    1C        C  430   3.192   4.524   4.719
    1C        C  431   3.331   4.554   4.721
    1C        C  432   3.123   4.495   4.840
    1C        C  433   3.203   4.492   4.956
    1C        C  434   4.384   4.122   2.047
    1C        C  435   4.444   3.995   2.052
    1C        C  436   4.305   4.162   2.160
    1C        C  437   4.339   4.100   2.283
    1C        C  438   4.180   4.248   2.399
    1C        C  439   4.284   4.152   2.403
    1C        C  440   4.121   4.290   2.520
    1C        C  441   4.178   4.249   2.643
    1C        C  442   4.006   4.375   2.765
    1C        C  443   4.123   4.296   2.764
    1C        C  444   3.942   4.407   2.887
    1C        C  445   4.000   4.367   3.009
    1C        C  446   3.809   4.462   3.130
    1C        C  447   3.937   4.402   3.130
    1C        C  448   3.742   4.487   3.252
    1C        C  449   3.809   4.463   3.373
    1C        C  450   3.604   4.519   3.496
    1C        C  451   3.742   4.492   3.495
    1C        C  452   3.537   4.533   3.620
    1C        C  453   3.609   4.529   3.742
    1C        C  454   3.396   4.540   3.864
    1C        C  455   3.537   4.542   3.863
    1C        C  456   3.326   4.533   3.987
    1C        C  457   3.397   4.538   4.109
    1C        C  458   3.191   4.502   4.234
    1C        C  459   3.329   4.532   4.233
    1C        C  460   3.126   4.486   4.358
    1C        C  461   3.193   4.515   4.478
    1C        C  462   2.996   4.434   4.604
    1C        C  463   3.124   4.494   4.599
    1C        C  464   2.928   4.402   4.724
    1C        C  465   2.991   4.440   4.846
    1C        C  466   2.798   4.332   4.958
    1C        C  467   2.906   4.421   4.959
    1C        C  468   4.123   4.282   2.040
    1C        C  469   4.189   4.246   2.158
    1C        C  470   4.008   4.372   2.276
    1C        C  471   4.127   4.294   2.277
    1C        C  472   3.940   4.398   2.397
    1C        C  473   4.002   4.365   2.520
    1C        C  474   3.809   4.451   2.641
    1C        C  475   3.941   4.400   2.642
    1C        C  476   3.744   4.480   2.763
    1C        C  477   3.810   4.457   2.886
    1C        C  478   3.604   4.511   3.007
    1C        C  479   3.742   4.482   3.007
    1C        C  480   3.533   4.524   3.128
    1C        C  481   3.605   4.521   3.250
    1C        C  482   3.394   4.535   3.376
    1C        C  483   3.535   4.529   3.373
    1C        C  484   3.325   4.532   3.499
    1C        C  485   3.396   4.540   3.621
    1C        C  486   3.186   4.506   3.743
    1C        C  487   3.324   4.536   3.743
    1C        C  488   3.121   4.485   3.867
    1C        C  489   3.186   4.511   3.989
    1C        C  490   2.998   4.420   4.114
    1C        C  491   3.120   4.492   4.112
    1C        C  492   2.942   4.384   4.238
    1C        C  493   2.998   4.426   4.361
    1C        C  494   2.829   4.300   4.482
    1C        C  495   2.936   4.391   4.484
    1C        C  496   2.773   4.254   4.604
    1C        C  497   2.815   4.316   4.724
    1C        C  498   2.658   4.164   4.844
    1C        C  499   2.749   4.272   4.841
    1C        C  500   2.592   4.117   4.958
    1C        C  501   4.007   4.359   2.039
    1C        C  502   3.813   4.461   2.157
    1C        C  503   3.942   4.402   2.155
    1C        C  504   3.739   4.473   2.276
    1C        C  505   3.806   4.445   2.397
    1C        C  506   3.603   4.505   2.520
    1C        C  507   3.740   4.471   2.519
    1C        C  508   3.532   4.515   2.641
    1C        C  509   3.606   4.510   2.762
    1C        C  510   3.393   4.521   2.886
    1C        C  511   3.534   4.518   2.884
    1C        C  512   3.322   4.521   3.008
    1C        C  513   3.392   4.528   3.131
    1C        C  514   3.185   4.496   3.256
    1C        C  515   3.323   4.530   3.254
    1C        C  516   3.119   4.469   3.378
    1C        C  517   3.187   4.500   3.498
    1C        C  518   2.994   4.416   3.624
    1C        C  519   3.120   4.479   3.621
    1C        C  520   2.934   4.380   3.747
    1C        C  521   2.997   4.418   3.868
    1C        C  522   2.838   4.281   3.994
    1C        C  523   2.942   4.377   3.991
    1C        C  524   2.790   4.235   4.118
    1C        C  525   2.836   4.291   4.239
    1C        C  526   2.693   4.134   4.363
    1C        C  527   2.781   4.245   4.361
    1C        C  528   2.648   4.079   4.484
    1C        C  529   2.684   4.145   4.604
    1C        C  530   2.577   3.962   4.727
    1C        C  531   2.634   4.092   4.725
    1C        C  532   2.534   3.901   4.849
    1C        C  533   2.530   3.991   4.960
    1C        C  534   3.617   4.557   2.042
    1C        C  535   3.749   4.510   2.042
    1C        C  536   3.532   4.537   2.156
    1C        C  537   3.602   4.509   2.277
    1C        C  538   3.390   4.521   2.400
    1C        C  539   3.531   4.514   2.399
    1C        C  540   3.319   4.511   2.521
    1C        C  541   3.391   4.512   2.643
    1C        C  542   3.181   4.489   2.765
    1C        C  543   3.320   4.514   2.765
    1C        C  544   3.116   4.469   2.889
    1C        C  545   3.185   4.487   3.011
    1C        C  546   2.994   4.401   3.132
    1C        C  547   3.119   4.468   3.135
    1C        C  548   2.936   4.367   3.256
    1C        C  549   2.991   4.410   3.379
    1C        C  550   2.828   4.281   3.506
    1C        C  551   2.933   4.376   3.504
    1C        C  552   2.777   4.232   3.629
    1C        C  553   2.827   4.288   3.749
    1C        C  554   2.702   4.119   3.873
    1C        C  555   2.789   4.230   3.872
    1C        C  556   2.663   4.062   3.997
    1C        C  557   2.698   4.127   4.117
    1C        C  558   2.597   3.945   4.245
    1C        C  559   2.659   4.072   4.241
    1C        C  560   2.568   3.880   4.366
    1C        C  561   2.591   3.949   4.487
    1C        C  562   2.531   3.747   4.613
    1C        C  563   2.563   3.885   4.609
    1C        C  564   2.518   3.680   4.736
    1C        C  565   2.520   3.759   4.855
    1C        C  566   2.526   3.544   4.978
    1C        C  567   2.520   3.683   4.972
    1C        C  568   3.325   4.476   2.040
    1C        C  569   3.392   4.513   2.157
    1C        C  570   3.181   4.475   2.281
    1C        C  571   3.318   4.512   2.278
    1C        C  572   3.113   4.459   2.403
    1C        C  573   3.180   4.486   2.525
    1C        C  574   2.981   4.408   2.647
    1C        C  575   3.109   4.468   2.646
    1C        C  576   2.925   4.365   2.769
    1C        C  577   2.991   4.404   2.887
    1C        C  578   2.825   4.274   3.015
    1C        C  579   2.935   4.363   3.010
    1C        C  580   2.779   4.222   3.138
    1C        C  581   2.831   4.272   3.260
    1C        C  582   2.692   4.118   3.384
    1C        C  583   2.780   4.229   3.384
    1C        C  584   2.660   4.056   3.507
    1C        C  585   2.696   4.117   3.629
    1C        C  586   2.600   3.930   3.754
    1C        C  587   2.659   4.059   3.753
    1C        C  588   2.577   3.867   3.878
    1C        C  589   2.606   3.932   4.000
    1C        C  590   2.537   3.738   4.126
    1C        C  591   2.576   3.874   4.125
    1C        C  592   2.524   3.669   4.249
    1C        C  593   2.535   3.742   4.369
    1C        C  594   2.514   3.533   4.495
    1C        C  595   2.523   3.674   4.493
    1C        C  596   2.516   3.465   4.619
    1C        C  597   2.510   3.538   4.739
    1C        C  598   2.528   3.326   4.861
    1C        C  599   2.518   3.467   4.861
    1C        C  600   2.529   3.246   4.976
    1C        C  601   3.193   4.434   2.042
    1C        C  602   2.981   4.393   2.158
    1C        C  603   3.116   4.440   2.159
    1C        C  604   2.924   4.357   2.283
    1C        C  605   2.985   4.398   2.404
    1C        C  606   2.814   4.274   2.526
    1C        C  607   2.923   4.364   2.526
    1C        C  608   2.767   4.221   2.648
    1C        C  609   2.820   4.270   2.770
    1C        C  610   2.685   4.112   2.896
    1C        C  611   2.772   4.224   2.894
    1C        C  612   2.645   4.054   3.019
    1C        C  613   2.691   4.111   3.140
    1C        C  614   2.590   3.929   3.265
    1C        C  615   2.651   4.057   3.264
    1C        C  616   2.570   3.863   3.388
    1C        C  617   2.602   3.927   3.510
    1C        C  618   2.529   3.730   3.638
    1C        C  619   2.573   3.864   3.632
    1C        C  620   2.511   3.661   3.761
    1C        C  621   2.529   3.734   3.881
    1C        C  622   2.507   3.527   4.006
    1C        C  623   2.522   3.667   4.005
    1C        C  624   2.509   3.455   4.128
    1C        C  625   2.511   3.529   4.249
    1C        C  626   2.533   3.322   4.379
    1C        C  627   2.511   3.461   4.373
    1C        C  628   2.549   3.252   4.501
    1C        C  629   2.531   3.324   4.621
    1C        C  630   2.588   3.118   4.743
    1C        C  631   2.544   3.253   4.742
    1C        C  632   2.616   3.049   4.864
    1C        C  633   2.563   3.110   4.983
    1C        C  634   2.782   4.303   2.050
    1C        C  635   2.891   4.390   2.047
    1C        C  636   2.750   4.229   2.165
    1C        C  637   2.808   4.274   2.285
    1C        C  638   2.674   4.109   2.408
    1C        C  639   2.761   4.220   2.407
    1C        C  640   2.638   4.050   2.531
    1C        C  641   2.684   4.107   2.652
    1C        C  642   2.586   3.922   2.775
    1C        C  643   2.648   4.048   2.776
    1C        C  644   2.563   3.857   2.898
    1C        C  645   2.586   3.926   3.019
    1C        C  646   2.527   3.725   3.147
    1C        C  647   2.563   3.862   3.143
    1C        C  648   2.515   3.658   3.271
    1C        C  649   2.529   3.728   3.393
    1C        C  650   2.505   3.519   3.517
    1C        C  651   2.517   3.660   3.516
    1C        C  652   2.504   3.449   3.640
    1C        C  653   2.506   3.520   3.762
    1C        C  654   2.530   3.313   3.889
    1C        C  655   2.507   3.452   3.886
    1C        C  656   2.545   3.247   4.013
    1C        C  657   2.529   3.316   4.135
    1C        C  658   2.598   3.118   4.256
    1C        C  659   2.547   3.250   4.259
    1C        C  660   2.632   3.055   4.378
    1C        C  661   2.600   3.120   4.499
    1C        C  662   2.702   2.937   4.623
    1C        C  663   2.624   3.055   4.622
    1C        C  664   2.747   2.879   4.744
    1C        C  665   2.698   2.932   4.867
    1C        C  666   2.744   2.871   4.984
    1C        C  667   2.682   4.024   2.054
    1C        C  668   2.689   4.102   2.170
    1C        C  669   2.588   3.909   2.292
    1C        C  670   2.642   4.041   2.288
    1C        C  671   2.563   3.844   2.416
    1C        C  672   2.581   3.921   2.533
    1C        C  673   2.514   3.719   2.658
    1C        C  674   2.556   3.854   2.654
    1C        C  675   2.506   3.650   2.781
    1C        C  676   2.523   3.721   2.902
    1C        C  677   2.504   3.513   3.028
    1C        C  678   2.510   3.655   3.026
    1C        C  679   2.509   3.444   3.151
    1C        C  680   2.507   3.517   3.272
    1C        C  681   2.527   3.308   3.397
    1C        C  682   2.509   3.448   3.395
    1C        C  683   2.550   3.242   3.520
    1C        C  684   2.532   3.310   3.643
    1C        C  685   2.601   3.113   3.769
    1C        C  686   2.550   3.244   3.767
    1C        C  687   2.630   3.051   3.893
    1C        C  688   2.594   3.114   4.014
    1C        C  689   2.711   2.937   4.137
    1C        C  690   2.628   3.051   4.135
    1C        C  691   2.758   2.887   4.260
    1C        C  692   2.714   2.940   4.383
    1C        C  693   2.754   2.881   4.505
    1C        C  694   2.629   3.894   2.058
    1C        C  695   2.525   3.703   2.173
    1C        C  696   2.574   3.835   2.173
    1C        C  697   2.502   3.637   2.296
    1C        C  698   2.521   3.709   2.416
    1C        C  699   2.493   3.502   2.540
    1C        C  700   2.503   3.643   2.539
    1C        C  701   2.499   3.435   2.664
    1C        C  702   2.498   3.509   2.784
    1C        C  703   2.521   3.300   2.908
    1C        C  704   2.500   3.439   2.907
    1C        C  705   2.539   3.234   3.032
    1C        C  706   2.528   3.305   3.154
    1C        C  707   2.593   3.104   3.275
    1C        C  708   2.541   3.236   3.277
    1C        C  709   2.629   3.049   3.400
    1C        C  710   2.601   3.111   3.524
    1C        C  711   2.714   2.933   3.648
    1C        C  712   2.632   3.048   3.647
    1C        C  713   2.758   2.879   3.771
    1C        C  714   2.711   2.935   3.892
    1C        C  715   2.754   2.881   4.015
    1C        C  716   2.450   3.498   2.059
    1C        C  717   2.496   3.630   2.057
    1C        C  718   2.463   3.421   2.180
    1C        C  719   2.478   3.497   2.299
    1C        C  720   2.508   3.286   2.425
    1C        C  721   2.487   3.426   2.421
    1C        C  722   2.535   3.221   2.547
    1C        C  723   2.520   3.295   2.666
    1C        C  724   2.589   3.095   2.790
    1C        C  725   2.540   3.227   2.788
    1C        C  726   2.622   3.037   2.915
    1C        C  727   2.588   3.102   3.036
    1C        C  728   2.705   2.921   3.158
    1C        C  729   2.620   3.034   3.155
    1C        C  730   2.753   2.874   3.282
    1C        C  731   2.707   2.931   3.403
    1C        C  732   2.754   2.876   3.525
    1C        C  733   2.490   3.196   2.071
    1C        C  734   2.487   3.280   2.183
    1C        C  735   2.581   3.085   2.304
    1C        C  736   2.522   3.214   2.304
    1C        C  737   2.614   3.021   2.426
    1C        C  738   2.582   3.088   2.546
    1C        C  739   2.698   2.912   2.670
    1C        C  740   2.617   3.028   2.669
    1C        C  741   2.742   2.858   2.793
    1C        C  742   2.703   2.921   2.913
    1C        C  743   2.754   2.872   3.035
    1C        C  744   2.551   3.071   2.070
    1C        C  745   2.681   2.894   2.185
    1C        C  746   2.608   3.015   2.185
    1C        C  747   2.727   2.838   2.306
    1C        C  748   2.686   2.900   2.427
    1C        C  749   2.738   2.851   2.549
    1C        C  750   2.732   2.836   2.068
    1C        C  751   3.655   2.302   1.999
    1C        O  752   3.662   2.193   2.062
    1C        O  753   3.643   2.306   1.859
    1C        C  754   4.606   3.049   1.964
    1C        O  755   4.571   3.033   1.844
    1C        O  756   4.741   3.022   1.990
    1C        C  757   4.462   4.212   1.961
    1C        O  758   4.522   4.311   2.010
    1C        O  759   4.443   4.215   1.822
    1C        C  760   3.587   4.666   1.947
    1C        O  761   3.592   4.788   1.980
    1C        O  762   3.601   4.658   1.808
    1C        C  763   2.891   4.482   1.930
    1C        O  764   2.919   4.445   1.813
    1C        O  765   2.806   4.593   1.931
    1C        C  766   2.327   3.485   1.978
    1C        O  767   2.332   3.483   1.853
    1C        O  768   2.205   3.518   2.040
    1C        C  769   4.702   3.584   5.047
    1C        O  770   4.684   3.605   5.170
    1C        O  771   4.833   3.621   5.016
    1C        C  772   4.270   4.471   5.025
    1C        O  773   4.312   4.425   5.135
    1C        O  774   4.373   4.543   4.964
    1C        C  775   4.148   2.495   5.045
    1C        O  776   4.165   2.382   4.992
    1C        O  777   4.140   2.481   5.184
    1C        C  778   2.920   4.489   5.091
    1C        O  779   2.846   4.587   5.119
    1C        O  780   2.928   4.414   5.209
    1C        C  781   2.471   3.029   5.065
    1C        O  782   2.347   3.034   5.045
    1C        O  783   2.491   3.015   5.202
    1C        C  784   2.413   3.998   5.051
    1C        O  785   2.317   4.069   5.013
    1C        O  786   2.417   4.006   5.191
    1C        C  787   2.948   2.422   2.001
    1C        O  788   2.958   2.419   1.875
    1C        O  789   2.911   2.299   2.056
    1C        C  790   3.173   2.356   5.047
    1C        O  791   3.093   2.271   5.001
    1C        O  792   3.200   2.345   5.184
    1C        H  793   4.291   3.006   5.067
    1C        H  794   4.205   2.793   5.071
    1C        H  795   4.471   3.137   5.071
    1C        H  796   4.512   3.369   5.060
    1C        H  797   4.547   3.804   5.053
    1C        H  798   4.403   3.961   5.054
    1C        H  799   4.310   4.192   5.042
    1C        H  800   4.026   4.548   5.016
    1C        H  801   3.815   4.594   5.041
    1C        H  802   3.590   4.651   5.025
    1C        H  803   3.397   4.450   5.026
    1C        H  804   3.157   4.477   5.051
    1C        H  805   3.868   2.541   5.071
    1C        H  806   3.678   2.429   5.064
    1C        H  807   2.991   2.539   5.056
    1C        H  808   3.443   2.497   5.074
    1C        H  809   2.880   2.739   5.077
    1C        H  810   2.737   2.929   5.074
    1C        H  811   2.543   3.299   5.069
    1C        H  812   2.505   3.503   5.074
    1C        H  813   2.508   3.732   5.067
    1C        H  814   2.563   4.185   5.035
    1C        H  815   2.723   4.345   5.033
    1C        H  816   2.674   2.848   1.979
    1C        H  817   2.869   2.700   1.979
    1C        H  818   3.209   2.440   1.984
    1C        H  819   3.424   2.428   1.973
    1C        H  820   3.856   2.506   1.968
    1C        H  821   4.034   2.665   1.973
    1C        H  822   4.272   2.705   1.980
    1C        H  823   4.330   2.952   1.977
    1C        H  824   4.567   3.310   1.962
    1C        H  825   4.446   3.513   1.980
    1C        H  826   4.537   3.753   1.960
    1C        H  827   3.808   4.536   1.956
    1C        H  828   3.976   4.402   1.946
    1C        H  829   4.159   4.249   1.945
    1C        H  830   4.494   3.962   1.964
    1C        H  831   2.644   3.830   1.973
    1C        H  832   2.725   4.058   1.962
    1C        H  833   2.718   4.298   1.964
    1C        H  834   3.384   4.457   1.953
    1C        H  835   3.158   4.397   1.948
    1C        H  836   2.517   3.004   1.994
    1C        H  837   2.434   3.226   1.985
    1C        H  838   2.505   3.676   1.961
    2V3OU   H29  839   2.802   3.550   5.113
    2V3OU   C27  840   2.779   3.506   5.214
    2V3OU   H27  841   2.721   3.574   5.281
    2V3OU   H28  842   2.728   3.407   5.203
    2V3OU   O11  843   2.905   3.480   5.277
    2V3OU   C15  844   2.917   3.394   5.384
    2V3OU   C13  845   3.050   3.374   5.427
    2V3OU   C14  846   3.074   3.266   5.512
    2V3OU   C16  847   2.971   3.186   5.560
    2V3OU    H6  848   2.992   3.097   5.620
    2V3OU   C12  849   3.213   3.235   5.553
    2V3OU    O2  850   3.238   3.122   5.600
    2V3OU   C10  851   3.327   3.311   5.499
    2V3OU    C8  852   3.458   3.268   5.520
    2V3OU   O10  853   3.489   3.150   5.579
    2V3OU   H26  854   3.400   3.118   5.601
    2V3OU    C6  855   3.564   3.344   5.462
    2V3OU    C5  856   3.538   3.463   5.394
    2V3OU    C4  857   3.703   3.291   5.467
    2V3OU    H4  858   3.726   3.230   5.560
    2V3OU    H5  859   3.702   3.224   5.375
    2V3OU    C2  860   3.816   3.394   5.458
    2V3OU    O6  861   3.808   3.475   5.576
    2V3OU   H21  862   3.759   3.555   5.552
    2V3OU    C3  863   3.781   3.489   5.344
    2V3OU    H2  864   3.858   3.570   5.338
    2V3OU    H3  865   3.786   3.441   5.243
    2V3OU   C25  866   3.951   3.325   5.443
    2V3OU    O7  867   3.994   3.292   5.332
    2V3OU   C26  868   4.027   3.289   5.569
    2V3OU   H22  869   4.057   3.381   5.625
    2V3OU   H23  870   4.118   3.227   5.544
    2V3OU    O8  871   3.952   3.212   5.661
    2V3OU   H24  872   3.928   3.268   5.736
    2V3OU    C1  873   3.647   3.560   5.356
    2V3OU    H1  874   3.624   3.612   5.259
    2V3OU    O3  875   3.659   3.653   5.464
    2V3OU   C19  876   3.617   3.789   5.453
    2V3OU    H9  877   3.515   3.802   5.406
    2V3OU    O4  878   3.711   3.849   5.367
    2V3OU   C20  879   3.844   3.871   5.414
    2V3OU   H10  880   3.897   3.772   5.421
    2V3OU   C24  881   3.611   3.851   5.593
    2V3OU   H16  882   3.546   3.792   5.662
    2V3OU   H17  883   3.562   3.950   5.572
    2V3OU   C23  884   3.752   3.874   5.647
    2V3OU   H15  885   3.798   3.773   5.673
    2V3OU    N1  886   3.736   3.959   5.764
    2V3OU   H19  887   3.799   3.926   5.835
    2V3OU   H20  888   3.649   3.929   5.803
    2V3OU   C21  889   3.848   3.946   5.547
    2V3OU   H11  890   3.953   3.926   5.584
    2V3OU    O5  891   3.822   4.085   5.554
    2V3OU   H18  892   3.785   4.099   5.642
    2V3OU   C22  893   3.911   3.946   5.300
    2V3OU   H12  894   3.861   4.046   5.286
    2V3OU   H13  895   3.907   3.887   5.205
    2V3OU   H14  896   4.018   3.963   5.328
    2V3OU   C11  897   3.158   3.472   5.406
    2V3OU    O1  898   3.129   3.583   5.357
    2V3OU    C9  899   3.298   3.426   5.422
    2V3OU    C7  900   3.403   3.505   5.376
    2V3OU    O9  901   3.385   3.619   5.301
    2V3OU   H25  902   3.289   3.633   5.303
    2V3OU   C17  903   2.813   3.314   5.438
    2V3OU    H7  904   2.711   3.350   5.423
    2V3OU   C18  905   2.838   3.209   5.526
    2V3OU    H8  906   2.753   3.153   5.566
    3SOL     OW  907   3.888   3.908   4.196
    3SOL    HW1  908   3.887   3.971   4.274
    3SOL    HW2  909   3.861   3.956   4.113
    4SOL     OW  910   6.681   0.444   0.503
    4SOL    HW1  911   6.658   0.450   0.600
    4SOL    HW2  912   6.638   0.519   0.454
    5SOL     OW  913   4.934   1.453   1.273
    5SOL    HW1  914   4.997   1.438   1.349
    5SOL    HW2  915   4.967   1.405   1.192
    6SOL     OW  916   5.955   0.487   2.741
    6SOL    HW1  917   5.884   0.417   2.737
    6SOL    HW2  918   6.016   0.468   2.818
    7SOL     OW  919   2.066   4.481   3.763
    7SOL    HW1  920   2.070   4.422   3.844
    7SOL    HW2  921   2.158   4.490   3.725
    8SOL     OW  922   1.793   3.213   5.667
    8SOL    HW1  923   1.882   3.177   5.697
    8SOL    HW2  924   1.750   3.263   5.742
    9SOL     OW  925   6.555   0.956   6.663
    9SOL    HW1  926   6.488   0.901   6.615
    9SOL    HW2  927   6.646   0.940   6.624
   10SOL     OW  928   4.618   4.517   2.956
   10SOL    HW1  929   4.579   4.425   2.949
   10SOL    HW2  930   4.707   4.512   3.001
   11SOL     OW  931   2.838   0.975   0.504
   11SOL    HW1  932   2.870   0.883   0.484
   11SOL    HW2  933   2.764   0.999   0.441
   12SOL     OW  934   3.016   4.967   3.112
   12SOL    HW1  935   3.100   4.951   3.164
   12SOL    HW2  936   2.941   4.988   3.176
   13SOL     OW  937   4.902   6.305   1.291
   13SOL    HW1  938   4.998   6.283   1.269
   13SOL    HW2  939   4.898   6.351   1.379
   14SOL     OW  940   4.380   5.329   4.975
   14SOL    HW1  941   4.444   5.369   5.041
   14SOL    HW2  942   4.371   5.231   4.993
   15SOL     OW  943   6.556   5.895   6.249
   15SOL    HW1  944   6.503   5.825   6.202
   15SOL    HW2  945   6.653   5.868   6.251
   16SOL     OW  946   0.904   4.185   5.048
   16SOL    HW1  947   1.002   4.207   5.048
   16SOL    HW2  948   0.885   4.116   4.979
   17SOL     OW  949   6.051   1.618   5.107
   17SOL    HW1  950   5.990   1.614   5.186
   17SOL    HW2  951   6.064   1.526   5.070
   18SOL     OW  952   2.772   1.143   5.686
   18SOL    HW1  953   2.680   1.106   5.682
   18SOL    HW2  954   2.779   1.208   5.761
   19SOL     OW  955   1.926   1.104   2.765
   19SOL    HW1  956   1.949   1.184   2.709
   19SOL    HW2  957   1.901   1.028   2.706
   20SOL     OW  958   6.406   1.664   5.376
   20SOL    HW1  959   6.358   1.606   5.442
   20SOL    HW2  960   6.348   1.678   5.296
   21SOL     OW  961   2.756   4.705   2.920
   21SOL    HW1  962   2.748   4.753   2.833
   21SOL    HW2  963   2.678   4.644   2.932
   22SOL     OW  964   1.773   6.311   6.197
   22SOL    HW1  965   1.842   6.239   6.206
   22SOL    HW2  966   1.814   6.399   6.218
   23SOL     OW  967   5.273   4.388   1.224
   23SOL    HW1  968   5.303   4.442   1.303
   23SOL    HW2  969   5.353   4.359   1.172
   24SOL     OW  970   4.399   0.974   1.160
   24SOL    HW1  971   4.428   0.965   1.255
   24SOL    HW2  972   4.429   1.063   1.124
   25SOL     OW  973   1.641   1.257   4.687
   25SOL    HW1  974   1.656   1.270   4.785
   25SOL    HW2  975   1.729   1.254   4.640
   26SOL     OW  976   1.639   2.760   6.854
   26SOL    HW1  977   1.666   2.829   6.922
   26SOL    HW2  978   1.557   2.712   6.887
   27SOL     OW  979   6.422   0.893   1.149
   27SOL    HW1  980   6.440   0.832   1.072
   27SOL    HW2  981   6.385   0.840   1.226
   28SOL     OW  982   2.454   0.952   5.245
   28SOL    HW1  983   2.362   0.986   5.263
   28SOL    HW2  984   2.460   0.920   5.151
   29SOL     OW  985   0.416   0.573   1.315
   29SOL    HW1  986   0.462   0.603   1.232
   29SOL    HW2  987   0.412   0.473   1.317
   30SOL     OW  988   4.034   0.522   4.952
   30SOL    HW1  989   3.956   0.489   5.006
   30SOL    HW2  990   4.054   0.455   4.880
   31SOL     OW  991   1.053   3.815   5.210
   31SOL    HW1  992   1.058   3.896   5.268
   31SOL    HW2  993   1.061   3.733   5.266
   32SOL     OW  994   3.037   0.700   0.843
   32SOL    HW1  995   3.106   0.698   0.915
   32SOL    HW2  996   2.946   0.703   0.884
   33SOL     OW  997   0.764   5.240   5.446
   33SOL    HW1  998   0.819   5.216   5.527
   33SOL    HW2  999   0.709   5.161   5.419
   34SOL     OW 1000   2.185   5.600   5.245
   34SOL    HW1 1001   2.283   5.588   5.230
   34SOL    HW2 1002   2.171   5.655   5.328
   35SOL     OW 1003   2.790   3.249   0.195
   35SOL    HW1 1004   2.768   3.346   0.208
   35SOL    HW2 1005   2.715   3.192   0.230
   36SOL     OW 1006   4.378   1.006   4.622
   36SOL    HW1 1007   4.449   0.945   4.588
   36SOL    HW2 1008   4.415   1.099   4.632
   37SOL     OW 1009   2.851   0.779   4.268
   37SOL    HW1 1010   2.785   0.723   4.219
   37SOL    HW2 1011   2.921   0.720   4.308
   38SOL     OW 1012   6.939   4.220   2.617
   38SOL    HW1 1013   7.017   4.158   2.625
   38SOL    HW2 1014   6.856   4.171   2.644
   39SOL     OW 1015   7.017   5.290   6.659
   39SOL    HW1 1016   0.088   5.325   6.677
   39SOL    HW2 1017   6.949   5.354   6.696
   40SOL     OW 1018   4.100   0.586   6.228
   40SOL    HW1 1019   4.008   0.578   6.265
   40SOL    HW2 1020   4.108   0.670   6.174
   41SOL     OW 1021   5.693   4.653   1.611
   41SOL    HW1 1022   5.680   4.669   1.513
   41SOL    HW2 1023   5.759   4.719   1.647
   42SOL     OW 1024   2.435   5.324   6.355
   42SOL    HW1 1025   2.480   5.327   6.444
   42SOL    HW2 1026   2.501   5.296   6.285
   43SOL     OW 1027   3.963   6.785   4.579
   43SOL    HW1 1028   3.962   6.688   4.557
   43SOL    HW2 1029   3.879   6.828   4.544
   44SOL     OW 1030   6.877   1.565   6.351
   44SOL    HW1 1031   6.943   1.570   6.426
   44SOL    HW2 1032   6.838   1.656   6.335
   45SOL     OW 1033   3.368   5.271   7.014
   45SOL    HW1 1034   3.363   5.202   0.065
   45SOL    HW2 1035   3.277   5.283   6.973
   46SOL     OW 1036   0.407   2.514   4.143
   46SOL    HW1 1037   0.347   2.559   4.077
   46SOL    HW2 1038   0.353   2.453   4.201
   47SOL     OW 1039   5.575   3.073   1.254
   47SOL    HW1 1040   5.603   3.047   1.347
   47SOL    HW2 1041   5.481   3.043   1.237
   48SOL     OW 1042   6.637   3.598   0.761
   48SOL    HW1 1043   6.690   3.584   0.845
   48SOL    HW2 1044   6.540   3.582   0.780
   49SOL     OW 1045   4.345   3.614   6.775
   49SOL    HW1 1046   4.309   3.683   6.713
   49SOL    HW2 1047   4.368   3.658   6.863
   50SOL     OW 1048   6.092   3.090   6.859
   50SOL    HW1 1049   6.022   3.092   6.788
   50SOL    HW2 1050   6.086   3.173   6.914
   51SOL     OW 1051   2.522   6.101   2.622
   51SOL    HW1 1052   2.614   6.138   2.637
   51SOL    HW2 1053   2.499   6.039   2.697
   52SOL     OW 1054   5.682   2.674   1.097
   52SOL    HW1 1055   5.640   2.583   1.091
   52SOL    HW2 1056   5.777   2.663   1.126
   53SOL     OW 1057   4.176   0.342   2.626
   53SOL    HW1 1058   4.274   0.356   2.615
   53SOL    HW2 1059   4.138   0.309   2.539
   54SOL     OW 1060   5.690   6.614   6.954
   54SOL    HW1 1061   5.764   6.624   7.020
   54SOL    HW2 1062   5.621   6.685   6.971
   55SOL     OW 1063   0.659   3.545   6.824
   55SOL    HW1 1064   0.636   3.448   6.815
   55SOL    HW2 1065   0.725   3.570   6.754
   56SOL     OW 1066   0.842   2.712   6.928
   56SOL    HW1 1067   0.764   2.660   6.963
   56SOL    HW2 1068   0.814   2.807   6.912
   57SOL     OW 1069   4.644   0.129   6.858
   57SOL    HW1 1070   4.680   0.051   6.807
   57SOL    HW2 1071   4.717   0.197   6.872
   58SOL     OW 1072   0.903   0.075   6.228
   58SOL    HW1 1073   0.853   7.016   6.263
   58SOL    HW2 1074   0.885   0.154   6.287
   59SOL     OW 1075   5.173   3.213   5.738
   59SOL    HW1 1076   5.164   3.118   5.711
   59SOL    HW2 1077   5.131   3.272   5.669
   60SOL     OW 1078   5.576   0.970   2.672
   60SOL    HW1 1079   5.600   0.885   2.718
   60SOL    HW2 1080   5.496   0.956   2.614
   61SOL     OW 1081   6.325   5.888   5.113
   61SOL    HW1 1082   6.344   5.976   5.071
   61SOL    HW2 1083   6.288   5.902   5.205
   62SOL     OW 1084   6.369   2.336   2.105
   62SOL    HW1 1085   6.290   2.348   2.046
   62SOL    HW2 1086   6.412   2.248   2.087
   63SOL     OW 1087   4.657   6.145   5.281
   63SOL    HW1 1088   4.680   6.053   5.250
   63SOL    HW2 1089   4.565   6.145   5.319
   64SOL     OW 1090   0.008   4.443   6.675
   64SOL    HW1 1091   0.062   4.518   6.637
   64SOL    HW2 1092   0.006   4.450   6.775
   65SOL     OW 1093   0.766   0.030   5.515
   65SOL    HW1 1094   0.821   6.970   5.538
   65SOL    HW2 1095   0.815   0.112   5.545
   66SOL     OW 1096   4.446   1.057   2.365
   66SOL    HW1 1097   4.521   1.028   2.306
   66SOL    HW2 1098   4.450   1.156   2.378
   67SOL     OW 1099   1.094   2.540   1.247
   67SOL    HW1 1100   1.120   2.611   1.182
   67SOL    HW2 1101   1.000   2.556   1.278
   68SOL     OW 1102   0.198   2.020   5.215
   68SOL    HW1 1103   0.160   1.943   5.266
   68SOL    HW2 1104   0.176   2.106   5.262
   69SOL     OW 1105   1.208   6.198   6.209
   69SOL    HW1 1106   1.266   6.223   6.286
   69SOL    HW2 1107   1.120   6.164   6.244
   70SOL     OW 1108   4.853   3.652   3.964
   70SOL    HW1 1109   4.893   3.608   4.045
   70SOL    HW2 1110   4.872   3.750   3.966
   71SOL     OW 1111   4.634   1.489   4.764
   71SOL    HW1 1112   4.661   1.421   4.695
   71SOL    HW2 1113   4.581   1.444   4.836
   72SOL     OW 1114   0.254   0.680   3.817
   72SOL    HW1 1115   0.172   0.651   3.767
   72SOL    HW2 1116   0.320   0.719   3.754
   73SOL     OW 1117   2.929   1.020   1.000
   73SOL    HW1 1118   3.005   0.997   1.060
   73SOL    HW2 1119   2.874   0.938   0.982
   74SOL     OW 1120   1.867   2.477   0.650
   74SOL    HW1 1121   1.902   2.424   0.726
   74SOL    HW2 1122   1.914   2.565   0.644
   75SOL     OW 1123   3.630   3.385   0.165
   75SOL    HW1 1124   3.683   3.300   0.163
   75SOL    HW2 1125   3.662   3.442   0.241
   76SOL     OW 1126   3.346   4.843   5.096
   76SOL    HW1 1127   3.293   4.764   5.125
   76SOL    HW2 1128   3.291   4.926   5.106
   77SOL     OW 1129   1.301   4.543   4.676
   77SOL    HW1 1130   1.260   4.586   4.596
   77SOL    HW2 1131   1.291   4.443   4.669
   78SOL     OW 1132   5.011   1.744   0.978
   78SOL    HW1 1133   4.934   1.794   1.018
   78SOL    HW2 1134   5.056   1.690   1.050
   79SOL     OW 1135   1.457   4.764   2.947
   79SOL    HW1 1136   1.522   4.718   2.886
   79SOL    HW2 1137   1.506   4.825   3.008
   80SOL     OW 1138   4.527   1.488   5.015
   80SOL    HW1 1139   4.559   1.560   5.077
   80SOL    HW2 1140   4.427   1.495   5.006
   81SOL     OW 1141   4.120   5.887   1.477
   81SOL    HW1 1142   4.176   5.929   1.405
   81SOL    HW2 1143   4.029   5.866   1.440
   82SOL     OW 1144   2.328   6.142   1.674
   82SOL    HW1 1145   2.242   6.193   1.670
   82SOL    HW2 1146   2.316   6.062   1.734
   83SOL     OW 1147   5.265   0.961   4.870
   83SOL    HW1 1148   5.233   0.924   4.783
   83SOL    HW2 1149   5.315   1.045   4.855
   84SOL     OW 1150   5.196   2.113   2.121
   84SOL    HW1 1151   5.107   2.157   2.122
   84SOL    HW2 1152   5.185   2.014   2.114
   85SOL     OW 1153   1.864   0.532   3.853
   85SOL    HW1 1154   1.922   0.598   3.901
   85SOL    HW2 1155   1.888   0.439   3.884
   86SOL     OW 1156   5.651   0.412   6.439
   86SOL    HW1 1157   5.749   0.396   6.446
   86SOL    HW2 1158   5.602   0.349   6.499
   87SOL     OW 1159   2.756   4.503   6.996
   87SOL    HW1 1160   2.822   4.428   6.991
   87SOL    HW2 1161   2.776   4.560   0.056
   88SOL     OW 1162   3.183   4.071   6.873
   88SOL    HW1 1163   3.103   4.016   6.899
   88SOL    HW2 1164   3.263   4.039   6.924
   89SOL     OW 1165   3.180   3.985   3.363
   89SOL    HW1 1166   3.134   3.953   3.445
   89SOL    HW2 1167   3.185   3.911   3.296
   90SOL     OW 1168   5.081   4.219   3.079
   90SOL    HW1 1169   5.179   4.236   3.088
   90SOL    HW2 1170   5.046   4.179   3.163
   91SOL     OW 1171   4.550   5.182   5.512
   91SOL    HW1 1172   4.482   5.242   5.555
   91SOL    HW2 1173   4.541   5.089   5.547
   92SOL     OW 1174   6.011   3.965   6.639
   92SOL    HW1 1175   6.103   3.996   6.662
   92SOL    HW2 1176   6.012   3.868   6.619
   93SOL     OW 1177   2.906   3.772   1.813
   93SOL    HW1 1178   2.842   3.696   1.797
   93SOL    HW2 1179   2.929   3.776   1.910
   94SOL     OW 1180   2.769   1.801   5.117
   94SOL    HW1 1181   2.845   1.785   5.054
   94SOL    HW2 1182   2.746   1.716   5.165
   95SOL     OW 1183   0.676   0.787   4.349
   95SOL    HW1 1184   0.776   0.793   4.354
   95SOL    HW2 1185   0.650   0.737   4.266
   96SOL     OW 1186   5.896   5.028   0.607
   96SOL    HW1 1187   5.812   4.989   0.570
   96SOL    HW2 1188   5.882   5.050   0.704
   97SOL     OW 1189   2.570   5.255   6.056
   97SOL    HW1 1190   2.576   5.241   5.957
   97SOL    HW2 1191   2.484   5.217   6.090
   98SOL     OW 1192   1.460   2.317   3.462
   98SOL    HW1 1193   1.497   2.380   3.531
   98SOL    HW2 1194   1.399   2.367   3.401
   99SOL     OW 1195   4.105   3.380   5.097
   99SOL    HW1 1196   4.114   3.478   5.117
   99SOL    HW2 1197   4.071   3.333   5.178
  100SOL     OW 1198   6.960   0.934   4.262
  100SOL    HW1 1199   6.967   0.884   4.176
  100SOL    HW2 1200   6.994   1.027   4.250
  101SOL     OW 1201   6.672   3.966   2.634
  101SOL    HW1 1202   6.643   4.022   2.712
  101SOL    HW2 1203   6.749   3.908   2.662
  102SOL     OW 1204   3.408   0.680   6.981
  102SOL    HW1 1205   3.414   0.603   6.917
  102SOL    HW2 1206   3.500   0.717   6.996
  103SOL     OW 1207   2.720   0.996   2.081
  103SOL    HW1 1208   2.796   0.935   2.060
  103SOL    HW2 1209   2.750   1.091   2.072
  104SOL     OW 1210   0.488   4.437   1.420
  104SOL    HW1 1211   0.393   4.406   1.423
  104SOL    HW2 1212   0.493   4.524   1.371
  105SOL     OW 1213   5.884   1.190   5.687
  105SOL    HW1 1214   5.964   1.199   5.627
  105SOL    HW2 1215   5.805   1.161   5.632
  106SOL     OW 1216   5.498   4.684   1.935
  106SOL    HW1 1217   5.455   4.702   2.024
  106SOL    HW2 1218   5.589   4.645   1.949
  107SOL     OW 1219   5.688   6.980   1.221
  107SOL    HW1 1220   5.626   7.020   1.289
  107SOL    HW2 1221   5.754   6.920   1.268
  108SOL     OW 1222   2.013   0.857   5.558
  108SOL    HW1 1223   2.110   0.852   5.583
  108SOL    HW2 1224   1.998   0.804   5.474
  109SOL     OW 1225   1.722   1.080   3.767
  109SOL    HW1 1226   1.668   1.132   3.832
  109SOL    HW2 1227   1.697   1.105   3.674
  110SOL     OW 1228   3.240   4.157   5.153
  110SOL    HW1 1229   3.287   4.159   5.065
  110SOL    HW2 1230   3.278   4.228   5.213
  111SOL     OW 1231   6.782   1.853   1.249
  111SOL    HW1 1232   6.684   1.834   1.242
  111SOL    HW2 1233   6.805   1.872   1.345
  112SOL     OW 1234   4.937   6.515   6.517
  112SOL    HW1 1235   5.036   6.500   6.517
  112SOL    HW2 1236   4.890   6.427   6.519
  113SOL     OW 1237   7.005   5.945   2.158
  113SOL    HW1 1238   6.996   5.845   2.161
  113SOL    HW2 1239   7.020   5.979   2.251
  114SOL     OW 1240   0.268   3.686   3.350
  114SOL    HW1 1241   0.245   3.773   3.307
  114SOL    HW2 1242   0.186   3.630   3.358
  115SOL     OW 1243   5.777   0.570   4.051
  115SOL    HW1 1244   5.734   0.493   4.003
  115SOL    HW2 1245   5.835   0.620   3.987
  116SOL     OW 1246   0.620   4.784   0.204
  116SOL    HW1 1247   0.615   4.727   0.286
  116SOL    HW2 1248   0.697   4.755   0.147
  117SOL     OW 1249   2.780   2.259   0.068
  117SOL    HW1 1250   2.754   2.299   0.156
  117SOL    HW2 1251   2.698   2.246   0.012
  118SOL     OW 1252   1.269   1.958   4.013
  118SOL    HW1 1253   1.229   2.049   4.005
  118SOL    HW2 1254   1.366   1.962   3.990
  119SOL     OW 1255   6.371   6.465   6.573
  119SOL    HW1 1256   6.315   6.394   6.616
  119SOL    HW2 1257   6.464   6.431   6.560
  120SOL     OW 1258   4.758   2.008   4.818
  120SOL    HW1 1259   4.709   2.069   4.756
  120SOL    HW2 1260   4.790   2.060   4.897
  121SOL     OW 1261   1.685   4.847   6.936
  121SOL    HW1 1262   1.674   4.789   7.017
  121SOL    HW2 1263   1.596   4.860   6.892
  122SOL     OW 1264   0.153   3.803   6.475
  122SOL    HW1 1265   0.215   3.876   6.501
  122SOL    HW2 1266   0.082   3.793   6.545
  123SOL     OW 1267   1.274   1.443   1.650
  123SOL    HW1 1268   1.287   1.354   1.606
  123SOL    HW2 1269   1.359   1.470   1.695
  124SOL     OW 1270   2.436   2.541   0.797
  124SOL    HW1 1271   2.435   2.456   0.848
  124SOL    HW2 1272   2.518   2.545   0.739
  125SOL     OW 1273   3.853   3.765   6.942
  125SOL    HW1 1274   3.947   3.767   6.977
  125SOL    HW2 1275   3.852   3.797   6.847
  126SOL     OW 1276   4.069   3.571   4.474
  126SOL    HW1 1277   4.084   3.600   4.379
  126SOL    HW2 1278   4.047   3.473   4.476
  127SOL     OW 1279   0.568   5.817   5.595
  127SOL    HW1 1280   0.503   5.754   5.638
  127SOL    HW2 1281   0.609   5.876   5.665
  128SOL     OW 1282   4.515   3.532   0.368
  128SOL    HW1 1283   4.461   3.600   0.317
  128SOL    HW2 1284   4.507   3.443   0.323
  129SOL     OW 1285   1.298   5.623   1.295
  129SOL    HW1 1286   1.328   5.714   1.266
  129SOL    HW2 1287   1.378   5.568   1.322
  130SOL     OW 1288   5.814   2.366   5.278
  130SOL    HW1 1289   5.808   2.394   5.374
  130SOL    HW2 1290   5.871   2.284   5.272
  131SOL     OW 1291   0.179   2.089   3.810
  131SOL    HW1 1292   0.103   2.112   3.751
  131SOL    HW2 1293   0.251   2.158   3.802
  132SOL     OW 1294   4.089   3.808   2.108
  132SOL    HW1 1295   4.029   3.886   2.090
  132SOL    HW2 1296   4.161   3.805   2.039
  133SOL     OW 1297   5.471   6.372   6.078
  133SOL    HW1 1298   5.498   6.443   6.143
  133SOL    HW2 1299   5.436   6.293   6.127
  134SOL     OW 1300   4.981   1.113   1.689
  134SOL    HW1 1301   4.883   1.091   1.691
  134SOL    HW2 1302   5.005   1.164   1.771
  135SOL     OW 1303   4.838   3.276   3.232
  135SOL    HW1 1304   4.834   3.176   3.232
  135SOL    HW2 1305   4.905   3.307   3.300
  136SOL     OW 1306   3.415   6.908   5.943
  136SOL    HW1 1307   3.439   6.835   6.007
  136SOL    HW2 1308   3.498   6.957   5.916
  137SOL     OW 1309   3.490   2.501   5.828
  137SOL    HW1 1310   3.555   2.575   5.847
  137SOL    HW2 1311   3.433   2.525   5.750
  138SOL     OW 1312   0.855   5.768   6.255
  138SOL    HW1 1313   0.924   5.836   6.232
  138SOL    HW2 1314   0.784   5.766   6.184
  139SOL     OW 1315   2.266   5.741   0.349
  139SOL    HW1 1316   2.177   5.776   0.320
  139SOL    HW2 1317   2.258   5.700   0.440
  140SOL     OW 1318   2.848   0.241   1.471
  140SOL    HW1 1319   2.751   0.262   1.485
  140SOL    HW2 1320   2.899   0.258   1.555
  141SOL     OW 1321   6.611   3.148   0.411
  141SOL    HW1 1322   6.537   3.089   0.442
  141SOL    HW2 1323   6.640   3.207   0.486
  142SOL     OW 1324   1.447   4.132   2.307
  142SOL    HW1 1325   1.448   4.204   2.239
  142SOL    HW2 1326   1.541   4.109   2.332
  143SOL     OW 1327   4.830   6.442   2.293
  143SOL    HW1 1328   4.820   6.425   2.391
  143SOL    HW2 1329   4.860   6.536   2.279
  144SOL     OW 1330   3.601   5.288   3.537
  144SOL    HW1 1331   3.626   5.268   3.632
  144SOL    HW2 1332   3.518   5.343   3.534
  145SOL     OW 1333   6.783   4.984   3.224
  145SOL    HW1 1334   6.842   5.043   3.168
  145SOL    HW2 1335   6.824   4.973   3.315
  146SOL     OW 1336   5.565   1.295   6.479
  146SOL    HW1 1337   5.627   1.353   6.533
  146SOL    HW2 1338   5.612   1.261   6.398
  147SOL     OW 1339   5.124   0.823   5.367
  147SOL    HW1 1340   5.165   0.913   5.353
  147SOL    HW2 1341   5.152   0.762   5.293
  148SOL     OW 1342   0.958   5.311   0.693
  148SOL    HW1 1343   0.997   5.320   0.784
  148SOL    HW2 1344   0.903   5.391   0.671
  149SOL     OW 1345   2.273   2.596   5.758
  149SOL    HW1 1346   2.341   2.532   5.721
  149SOL    HW2 1347   2.264   2.674   5.697
  150SOL     OW 1348   4.126   1.762   4.902
  150SOL    HW1 1349   4.193   1.831   4.875
  150SOL    HW2 1350   4.173   1.678   4.930
  151SOL     OW 1351   3.850   2.939   0.454
  151SOL    HW1 1352   3.948   2.959   0.462
  151SOL    HW2 1353   3.804   2.967   0.538
  152SOL     OW 1354   1.139   2.378   0.717
  152SOL    HW1 1355   1.185   2.353   0.802
  152SOL    HW2 1356   1.205   2.417   0.653
  153SOL     OW 1357   3.251   1.208   3.388
  153SOL    HW1 1358   3.299   1.178   3.305
  153SOL    HW2 1359   3.308   1.186   3.468
  154SOL     OW 1360   6.250   1.624   1.857
  154SOL    HW1 1361   6.301   1.565   1.794
  154SOL    HW2 1362   6.315   1.680   1.909
  155SOL     OW 1363   1.438   6.723   2.168
  155SOL    HW1 1364   1.357   6.669   2.141
  155SOL    HW2 1365   1.491   6.671   2.234
  156SOL     OW 1366   4.976   2.062   0.444
  156SOL    HW1 1367   4.916   2.076   0.523
  156SOL    HW2 1368   5.032   2.143   0.429
  157SOL     OW 1369   4.217   5.263   6.856
  157SOL    HW1 1370   4.135   5.225   6.813
  157SOL    HW2 1371   4.267   5.190   6.903
  158SOL     OW 1372   6.886   2.967   2.858
  158SOL    HW1 1373   6.844   3.029   2.792
  158SOL    HW2 1374   6.879   2.873   2.826
  159SOL     OW 1375   5.946   5.422   0.616
  159SOL    HW1 1376   5.966   5.520   0.621
  159SOL    HW2 1377   5.988   5.383   0.534
  160SOL     OW 1378   6.483   6.991   1.576
  160SOL    HW1 1379   6.453   6.899   1.549
  160SOL    HW2 1380   6.562   7.018   1.521
  161SOL     OW 1381   0.070   6.663   0.362
  161SOL    HW1 1382   7.013   6.622   0.315
  161SOL    HW2 1383   0.142   6.595   0.373
  162SOL     OW 1384   4.568   0.193   0.404
  162SOL    HW1 1385   4.503   0.116   0.409
  162SOL    HW2 1386   4.517   0.279   0.397
  163SOL     OW 1387   6.805   3.777   3.145
  163SOL    HW1 1388   6.810   3.853   3.081
  163SOL    HW2 1389   6.862   3.796   3.225
  164SOL     OW 1390   2.223   2.127   3.724
  164SOL    HW1 1391   2.322   2.135   3.711
  164SOL    HW2 1392   2.186   2.064   3.655
  165SOL     OW 1393   0.655   6.185   3.513
  165SOL    HW1 1394   0.699   6.210   3.600
  165SOL    HW2 1395   0.558   6.206   3.517
  166SOL     OW 1396   6.925   3.837   3.380
  166SOL    HW1 1397   6.896   3.800   3.468
  166SOL    HW2 1398   6.881   3.926   3.365
  167SOL     OW 1399   4.084   2.281   0.200
  167SOL    HW1 1400   4.015   2.209   0.210
  167SOL    HW2 1401   4.065   2.333   0.116
  168SOL     OW 1402   5.091   4.187   1.830
  168SOL    HW1 1403   5.185   4.161   1.807
  168SOL    HW2 1404   5.069   4.152   1.921
  169SOL     OW 1405   5.398   2.344   1.371
  169SOL    HW1 1406   5.399   2.322   1.274
  169SOL    HW2 1407   5.308   2.320   1.409
  170SOL     OW 1408   0.596   5.803   2.785
  170SOL    HW1 1409   0.522   5.804   2.718
  170SOL    HW2 1410   0.559   5.798   2.877
  171SOL     OW 1411   3.208   4.243   0.625
  171SOL    HW1 1412   3.202   4.242   0.525
  171SOL    HW2 1413   3.118   4.221   0.664
  172SOL     OW 1414   6.887   2.307   6.877
  172SOL    HW1 1415   6.794   2.328   6.845
  172SOL    HW2 1416   6.949   2.379   6.846
  173SOL     OW 1417   0.086   1.789   4.384
  173SOL    HW1 1418   0.143   1.808   4.304
  173SOL    HW2 1419   0.015   1.859   4.391
  174SOL     OW 1420   5.770   5.272   5.357
  174SOL    HW1 1421   5.781   5.372   5.359
  174SOL    HW2 1422   5.677   5.249   5.328
  175SOL     OW 1423   0.729   0.220   1.154
  175SOL    HW1 1424   0.803   0.270   1.110
  175SOL    HW2 1425   0.764   0.171   1.233
  176SOL     OW 1426   5.542   4.379   1.980
  176SOL    HW1 1427   5.592   4.389   1.894
  176SOL    HW2 1428   5.481   4.458   1.992
  177SOL     OW 1429   5.861   2.577   4.561
  177SOL    HW1 1430   5.797   2.652   4.579
  177SOL    HW2 1431   5.954   2.605   4.585
  178SOL     OW 1432   1.782   6.244   5.045
  178SOL    HW1 1433   1.872   6.203   5.032
  178SOL    HW2 1434   1.791   6.343   5.058
  179SOL     OW 1435   3.547   4.832   1.444
  179SOL    HW1 1436   3.497   4.775   1.509
  179SOL    HW2 1437   3.493   4.914   1.425
  180SOL     OW 1438   4.028   1.604   0.651
  180SOL    HW1 1439   4.015   1.547   0.570
  180SOL    HW2 1440   4.100   1.672   0.634
  181SOL     OW 1441   3.041   2.515   5.683
  181SOL    HW1 1442   3.105   2.439   5.683
  181SOL    HW2 1443   3.032   2.551   5.590
  182SOL     OW 1444   4.662   2.195   6.899
  182SOL    HW1 1445   4.593   2.267   6.891
  182SOL    HW2 1446   4.625   2.110   6.860
  183SOL     OW 1447   3.431   1.556   3.456
  183SOL    HW1 1448   3.405   1.620   3.528
  183SOL    HW2 1449   3.465   1.472   3.497
  184SOL     OW 1450   5.625   6.150   3.712
  184SOL    HW1 1451   5.556   6.220   3.728
  184SOL    HW2 1452   5.583   6.071   3.669
  185SOL     OW 1453   6.582   1.202   4.067
  185SOL    HW1 1454   6.629   1.269   4.010
  185SOL    HW2 1455   6.483   1.207   4.050
  186SOL     OW 1456   4.531   6.100   3.880
  186SOL    HW1 1457   4.544   6.197   3.861
  186SOL    HW2 1458   4.560   6.046   3.801
  187SOL     OW 1459   4.483   6.227   1.909
  187SOL    HW1 1460   4.522   6.264   1.994
  187SOL    HW2 1461   4.555   6.219   1.840
  188SOL     OW 1462   1.511   3.437   3.255
  188SOL    HW1 1463   1.543   3.344   3.236
  188SOL    HW2 1464   1.542   3.465   3.346
  189SOL     OW 1465   6.154   5.097   6.553
  189SOL    HW1 1466   6.074   5.147   6.587
  189SOL    HW2 1467   6.145   5.083   6.454
  190SOL     OW 1468   6.186   0.384   0.341
  190SOL    HW1 1469   6.263   0.417   0.287
  190SOL    HW2 1470   6.203   0.403   0.438
  191SOL     OW 1471   6.931   1.227   5.724
  191SOL    HW1 1472   6.927   1.327   5.726
  191SOL    HW2 1473   6.906   1.190   5.813
  192SOL     OW 1474   0.588   5.538   1.082
  192SOL    HW1 1475   0.565   5.485   1.164
  192SOL    HW2 1476   0.536   5.502   1.004
  193SOL     OW 1477   2.511   6.025   6.717
  193SOL    HW1 1478   2.418   5.990   6.726
  193SOL    HW2 1479   2.508   6.120   6.686
  194SOL     OW 1480   4.302   6.626   2.415
  194SOL    HW1 1481   4.212   6.642   2.455
  194SOL    HW2 1482   4.332   6.707   2.365
  195SOL     OW 1483   3.951   0.813   1.486
  195SOL    HW1 1484   3.984   0.808   1.581
  195SOL    HW2 1485   4.002   0.746   1.431
  196SOL     OW 1486   2.607   1.542   0.561
  196SOL    HW1 1487   2.671   1.607   0.603
  196SOL    HW2 1488   2.627   1.534   0.463
  197SOL     OW 1489   2.053   6.564   0.530
  197SOL    HW1 1490   2.126   6.608   0.582
  197SOL    HW2 1491   1.964   6.598   0.561
  198SOL     OW 1492   4.569   0.223   6.539
  198SOL    HW1 1493   4.595   0.174   6.456
  198SOL    HW2 1494   4.592   0.169   6.619
  199SOL     OW 1495   0.096   6.835   3.248
  199SOL    HW1 1496   0.007   6.793   3.261
  199SOL    HW2 1497   0.142   6.792   3.170
  200SOL     OW 1498   0.250   3.833   3.573
  200SOL    HW1 1499   0.253   3.762   3.643
  200SOL    HW2 1500   0.258   3.791   3.483
  201SOL     OW 1501   3.740   1.066   6.280
  201SOL    HW1 1502   3.720   0.984   6.335
  201SOL    HW2 1503   3.694   1.058   6.192
  202SOL     OW 1504   3.219   0.390   2.976
  202SOL    HW1 1505   3.289   0.318   2.981
  202SOL    HW2 1506   3.128   0.348   2.972
  203SOL     OW 1507   5.523   3.383   6.376
  203SOL    HW1 1508   5.490   3.474   6.350
  203SOL    HW2 1509   5.469   3.348   6.452
  204SOL     OW 1510   2.460   6.859   1.085
  204SOL    HW1 1511   2.378   6.806   1.105
  204SOL    HW2 1512   2.540   6.813   1.124
  205SOL     OW 1513   6.391   1.708   0.416
  205SOL    HW1 1514   6.461   1.637   0.418
  205SOL    HW2 1515   6.351   1.712   0.325
  206SOL     OW 1516   0.957   4.263   2.029
  206SOL    HW1 1517   0.879   4.218   1.987
  206SOL    HW2 1518   0.974   4.350   1.983
  207SOL     OW 1519   4.489   0.580   5.559
  207SOL    HW1 1520   4.508   0.521   5.480
  207SOL    HW2 1521   4.575   0.622   5.590
  208SOL     OW 1522   4.431   5.579   6.348
  208SOL    HW1 1523   4.348   5.545   6.393
  208SOL    HW2 1524   4.472   5.507   6.294
  209SOL     OW 1525   6.723   5.734   5.692
  209SOL    HW1 1526   6.701   5.638   5.713
  209SOL    HW2 1527   6.812   5.757   5.732
  210SOL     OW 1528   4.044   3.470   0.889
  210SOL    HW1 1529   4.010   3.376   0.896
  210SOL    HW2 1530   4.049   3.496   0.792
  211SOL     OW 1531   1.959   1.370   1.111
  211SOL    HW1 1532   1.992   1.438   1.047
  211SOL    HW2 1533   1.903   1.302   1.063
  212SOL     OW 1534   0.186   4.987   4.049
  212SOL    HW1 1535   0.141   5.076   4.042
  212SOL    HW2 1536   0.284   5.000   4.060
  213SOL     OW 1537   4.940   1.923   0.200
  213SOL    HW1 1538   4.855   1.875   0.221
  213SOL    HW2 1539   4.972   1.972   0.281
  214SOL     OW 1540   1.397   0.290   2.776
  214SOL    HW1 1541   1.484   0.336   2.793
  214SOL    HW2 1542   1.401   0.244   2.687
  215SOL     OW 1543   3.746   3.495   2.670
  215SOL    HW1 1544   3.709   3.421   2.613
  215SOL    HW2 1545   3.729   3.475   2.766
  216SOL     OW 1546   0.935   6.923   5.854
  216SOL    HW1 1547   0.956   7.019   5.873
  216SOL    HW2 1548   0.940   6.906   5.755
  217SOL     OW 1549   0.678   2.569   2.949
  217SOL    HW1 1550   0.701   2.609   3.037
  217SOL    HW2 1551   0.607   2.623   2.905
  218SOL     OW 1552   1.057   4.036   5.402
  218SOL    HW1 1553   1.065   4.041   5.502
  218SOL    HW2 1554   1.091   4.122   5.362
  219SOL     OW 1555   4.605   5.342   6.988
  219SOL    HW1 1556   4.611   5.253   0.014
  219SOL    HW2 1557   4.595   5.414   0.035
  220SOL     OW 1558   3.028   5.385   0.665
  220SOL    HW1 1559   3.102   5.383   0.597
  220SOL    HW2 1560   2.955   5.445   0.632
  221SOL     OW 1561   5.797   2.086   4.672
  221SOL    HW1 1562   5.792   2.036   4.586
  221SOL    HW2 1563   5.705   2.112   4.701
  222SOL     OW 1564   0.709   6.463   5.398
  222SOL    HW1 1565   0.751   6.452   5.308
  222SOL    HW2 1566   0.619   6.504   5.389
  223SOL     OW 1567   6.772   3.823   1.640
  223SOL    HW1 1568   6.813   3.875   1.566
  223SOL    HW2 1569   6.678   3.855   1.655
  224SOL     OW 1570   3.162   2.280   1.760
  224SOL    HW1 1571   3.091   2.316   1.820
  224SOL    HW2 1572   3.121   2.223   1.690
  225SOL     OW 1573   6.447   0.540   6.784
  225SOL    HW1 1574   6.538   0.509   6.813
  225SOL    HW2 1575   6.452   0.569   6.688
  226SOL     OW 1576   0.047   5.926   0.829
  226SOL    HW1 1577   0.128   5.874   0.854
  226SOL    HW2 1578   6.998   5.917   0.900
  227SOL     OW 1579   1.324   3.435   3.657
  227SOL    HW1 1580   1.247   3.431   3.593
  227SOL    HW2 1581   1.290   3.439   3.751
  228SOL     OW 1582   4.452   6.773   3.844
  228SOL    HW1 1583   4.422   6.701   3.907
  228SOL    HW2 1584   4.379   6.841   3.836
  229SOL     OW 1585   5.916   5.726   2.396
  229SOL    HW1 1586   5.884   5.820   2.386
  229SOL    HW2 1587   5.865   5.680   2.469
  230SOL     OW 1588   2.249   4.306   4.928
  230SOL    HW1 1589   2.202   4.299   4.840
  230SOL    HW2 1590   2.248   4.216   4.973
  231SOL     OW 1591   0.474   2.137   6.095
  231SOL    HW1 1592   0.456   2.225   6.140
  231SOL    HW2 1593   0.572   2.115   6.104
  232SOL     OW 1594   2.011   5.002   6.129
  232SOL    HW1 1595   1.957   5.020   6.047
  232SOL    HW2 1596   1.958   5.030   6.210
  233SOL     OW 1597   1.739   0.714   6.409
  233SOL    HW1 1598   1.646   0.712   6.446
  233SOL    HW2 1599   1.736   0.706   6.309
  234SOL     OW 1600   2.600   5.470   6.883
  234SOL    HW1 1601   2.638   5.455   6.974
  234SOL    HW2 1602   2.659   5.534   6.833
  235SOL     OW 1603   2.981   3.252   4.844
  235SOL    HW1 1604   2.991   3.308   4.926
  235SOL    HW2 1605   2.969   3.311   4.764
  236SOL     OW 1606   6.610   2.060   5.263
  236SOL    HW1 1607   6.698   2.104   5.276
  236SOL    HW2 1608   6.621   1.960   5.269
  237SOL     OW 1609   0.719   0.410   1.490
  237SOL    HW1 1610   0.804   0.382   1.445
  237SOL    HW2 1611   0.643   0.404   1.424
  238SOL     OW 1612   5.975   2.372   2.661
  238SOL    HW1 1613   6.011   2.283   2.688
  238SOL    HW2 1614   5.884   2.385   2.700
  239SOL     OW 1615   0.093   5.909   0.476
  239SOL    HW1 1616   0.174   5.953   0.438
  239SOL    HW2 1617   0.095   5.913   0.576
  240SOL     OW 1618   0.256   3.768   5.848
  240SOL    HW1 1619   0.201   3.851   5.839
  240SOL    HW2 1620   0.207   3.691   5.805
  241SOL     OW 1621   0.571   0.850   3.121
  241SOL    HW1 1622   0.592   0.916   3.194
  241SOL    HW2 1623   0.622   0.765   3.137
  242SOL     OW 1624   1.771   3.870   4.316
  242SOL    HW1 1625   1.709   3.812   4.264
  242SOL    HW2 1626   1.724   3.906   4.397
  243SOL     OW 1627   5.301   6.882   5.281
  243SOL    HW1 1628   5.376   6.841   5.229
  243SOL    HW2 1629   5.233   6.812   5.302
  244SOL     OW 1630   6.123   2.229   6.077
  244SOL    HW1 1631   6.210   2.224   6.125
  244SOL    HW2 1632   6.137   2.215   5.980
  245SOL     OW 1633   5.797   1.907   4.204
  245SOL    HW1 1634   5.761   1.815   4.189
  245SOL    HW2 1635   5.841   1.939   4.120
  246SOL     OW 1636   5.186   2.869   3.321
  246SOL    HW1 1637   5.224   2.962   3.321
  246SOL    HW2 1638   5.112   2.864   3.387
  247SOL     OW 1639   2.364   1.662   3.599
  247SOL    HW1 1640   2.286   1.599   3.595
  247SOL    HW2 1641   2.446   1.614   3.569
  248SOL     OW 1642   6.226   1.222   3.371
  248SOL    HW1 1643   6.217   1.123   3.358
  248SOL    HW2 1644   6.162   1.269   3.310
  249SOL     OW 1645   2.763   0.088   3.895
  249SOL    HW1 1646   2.842   0.102   3.955
  249SOL    HW2 1647   2.779   0.007   3.838
  250SOL     OW 1648   5.098   2.654   5.982
  250SOL    HW1 1649   5.063   2.646   6.076
  250SOL    HW2 1650   5.033   2.708   5.928
  251SOL     OW 1651   3.590   2.462   0.696
  251SOL    HW1 1652   3.567   2.495   0.788
  251SOL    HW2 1653   3.558   2.369   0.685
  252SOL     OW 1654   0.222   0.844   5.740
  252SOL    HW1 1655   0.200   0.921   5.801
  252SOL    HW2 1656   0.197   0.758   5.785
  253SOL     OW 1657   2.841   3.414   6.529
  253SOL    HW1 1658   2.923   3.445   6.481
  253SOL    HW2 1659   2.770   3.392   6.461
  254SOL     OW 1660   5.951   3.397   5.282
  254SOL    HW1 1661   5.913   3.305   5.283
  254SOL    HW2 1662   5.894   3.457   5.225
  255SOL     OW 1663   2.741   1.855   3.740
  255SOL    HW1 1664   2.648   1.830   3.766
  255SOL    HW2 1665   2.783   1.910   3.813
  256SOL     OW 1666   5.980   4.852   6.769
  256SOL    HW1 1667   6.001   4.805   6.854
  256SOL    HW2 1668   5.939   4.941   6.790
  257SOL     OW 1669   3.180   6.546   6.158
  257SOL    HW1 1670   3.258   6.485   6.166
  257SOL    HW2 1671   3.098   6.501   6.192
  258SOL     OW 1672   5.525   4.168   4.148
  258SOL    HW1 1673   5.593   4.213   4.206
  258SOL    HW2 1674   5.472   4.103   4.204
  259SOL     OW 1675   1.180   2.348   2.388
  259SOL    HW1 1676   1.119   2.422   2.361
  259SOL    HW2 1677   1.201   2.357   2.486
  260SOL     OW 1678   5.677   0.534   5.777
  260SOL    HW1 1679   5.605   0.603   5.778
  260SOL    HW2 1680   5.655   0.465   5.707
  261SOL     OW 1681   0.580   3.406   2.597
  261SOL    HW1 1682   0.523   3.486   2.616
  261SOL    HW2 1683   0.664   3.411   2.652
  262SOL     OW 1684   0.626   4.810   2.013
  262SOL    HW1 1685   0.541   4.862   2.001
  262SOL    HW2 1686   0.690   4.863   2.068
  263SOL     OW 1687   1.165   2.233   3.977
  263SOL    HW1 1688   1.077   2.217   4.021
  263SOL    HW2 1689   1.151   2.262   3.883
  264SOL     OW 1690   2.681   4.424   6.450
  264SOL    HW1 1691   2.592   4.448   6.488
  264SOL    HW2 1692   2.714   4.339   6.490
  265SOL     OW 1693   5.479   3.947   4.838
  265SOL    HW1 1694   5.495   3.995   4.752
  265SOL    HW2 1695   5.394   3.894   4.831
  266SOL     OW 1696   3.999   1.628   0.235
  266SOL    HW1 1697   3.918   1.678   0.204
  266SOL    HW2 1698   4.053   1.687   0.296
  267SOL     OW 1699   1.041   2.527   5.868
  267SOL    HW1 1700   1.131   2.567   5.886
  267SOL    HW2 1701   0.985   2.534   5.950
  268SOL     OW 1702   3.732   4.912   4.424
  268SOL    HW1 1703   3.795   4.968   4.478
  268SOL    HW2 1704   3.638   4.933   4.450
  269SOL     OW 1705   0.733   1.291   5.433
  269SOL    HW1 1706   0.788   1.298   5.351
  269SOL    HW2 1707   0.638   1.269   5.409
  270SOL     OW 1708   4.966   0.963   3.905
  270SOL    HW1 1709   5.049   0.936   3.856
  270SOL    HW2 1710   4.887   0.915   3.867
  271SOL     OW 1711   1.620   1.098   0.382
  271SOL    HW1 1712   1.537   1.153   0.391
  271SOL    HW2 1713   1.645   1.059   0.471
  272SOL     OW 1714   3.088   5.315   3.496
  272SOL    HW1 1715   3.062   5.400   3.541
  272SOL    HW2 1716   3.024   5.295   3.422
  273SOL     OW 1717   2.731   6.267   5.481
  273SOL    HW1 1718   2.750   6.353   5.527
  273SOL    HW2 1719   2.757   6.191   5.541
  274SOL     OW 1720   6.254   2.236   1.184
  274SOL    HW1 1721   6.270   2.289   1.102
  274SOL    HW2 1722   6.255   2.138   1.162
  275SOL     OW 1723   6.015   5.809   5.169
  275SOL    HW1 1724   5.980   5.751   5.096
  275SOL    HW2 1725   6.042   5.753   5.247
  276SOL     OW 1726   6.483   6.307   3.610
  276SOL    HW1 1727   6.509   6.357   3.693
  276SOL    HW2 1728   6.519   6.355   3.530
  277SOL     OW 1729   4.775   1.013   5.388
  277SOL    HW1 1730   4.827   1.049   5.464
  277SOL    HW2 1731   4.798   0.917   5.374
  278SOL     OW 1732   5.899   3.253   2.676
  278SOL    HW1 1733   5.896   3.331   2.739
  278SOL    HW2 1734   5.906   3.168   2.728
  279SOL     OW 1735   6.947   2.827   4.329
  279SOL    HW1 1736   6.905   2.844   4.239
  279SOL    HW2 1737   6.994   2.738   4.327
  280SOL     OW 1738   3.171   0.586   3.820
  280SOL    HW1 1739   3.268   0.562   3.816
  280SOL    HW2 1740   3.119   0.509   3.858
  281SOL     OW 1741   5.236   6.237   3.850
  281SOL    HW1 1742   5.299   6.301   3.893
  281SOL    HW2 1743   5.237   6.150   3.900
  282SOL     OW 1744   3.493   1.591   0.541
  282SOL    HW1 1745   3.494   1.544   0.629
  282SOL    HW2 1746   3.561   1.550   0.481
  283SOL     OW 1747   6.522   1.503   4.949
  283SOL    HW1 1748   6.604   1.449   4.928
  283SOL    HW2 1749   6.486   1.476   5.039
  284SOL     OW 1750   5.522   5.931   3.638
  284SOL    HW1 1751   5.596   5.907   3.575
  284SOL    HW2 1752   5.505   5.854   3.700
  285SOL     OW 1753   4.473   0.412   5.819
  285SOL    HW1 1754   4.466   0.451   5.727
  285SOL    HW2 1755   4.385   0.417   5.865
  286SOL     OW 1756   2.664   4.955   5.111
  286SOL    HW1 1757   2.687   4.873   5.058
  286SOL    HW2 1758   2.647   4.929   5.206
  287SOL     OW 1759   3.306   0.244   5.926
  287SOL    HW1 1760   3.298   0.330   5.977
  287SOL    HW2 1761   3.251   0.174   5.971
  288SOL     OW 1762   3.902   1.192   1.211
  288SOL    HW1 1763   3.825   1.222   1.156
  288SOL    HW2 1764   3.905   1.092   1.213
  289SOL     OW 1765   5.812   6.034   3.885
  289SOL    HW1 1766   5.745   6.082   3.828
  289SOL    HW2 1767   5.894   6.091   3.895
  290SOL     OW 1768   3.605   1.154   5.156
  290SOL    HW1 1769   3.623   1.220   5.084
  290SOL    HW2 1770   3.684   1.148   5.217
  291SOL     OW 1771   3.658   6.768   5.073
  291SOL    HW1 1772   3.655   6.813   5.162
  291SOL    HW2 1773   3.672   6.670   5.085
  292SOL     OW 1774   4.776   7.008   3.809
  292SOL    HW1 1775   4.722   6.925   3.803
  292SOL    HW2 1776   4.763   0.042   3.726
  293SOL     OW 1777   5.609   6.576   2.482
  293SOL    HW1 1778   5.666   6.648   2.522
  293SOL    HW2 1779   5.591   6.506   2.551
  294SOL     OW 1780   6.263   1.002   5.700
  294SOL    HW1 1781   6.214   0.929   5.748
  294SOL    HW2 1782   6.235   1.003   5.604
  295SOL     OW 1783   1.799   1.485   4.868
  295SOL    HW1 1784   1.806   1.390   4.899
  295SOL    HW2 1785   1.832   1.546   4.941
  296SOL     OW 1786   6.954   2.601   1.016
  296SOL    HW1 1787   6.948   2.504   0.994
  296SOL    HW2 1788   6.864   2.633   1.047
  297SOL     OW 1789   5.371   3.564   4.040
  297SOL    HW1 1790   5.298   3.572   3.971
  297SOL    HW2 1791   5.422   3.480   4.025
  298SOL     OW 1792   3.869   0.632   6.689
  298SOL    HW1 1793   3.807   0.581   6.630
  298SOL    HW2 1794   3.962   0.627   6.652
  299SOL     OW 1795   2.158   0.681   6.634
  299SOL    HW1 1796   2.246   0.706   6.674
  299SOL    HW2 1797   2.086   0.737   6.673
  300SOL     OW 1798   4.161   6.975   3.380
  300SOL    HW1 1799   4.094   6.915   3.425
  300SOL    HW2 1800   4.135   6.987   3.284
  301SOL     OW 1801   6.656   5.295   1.097
  301SOL    HW1 1802   6.592   5.362   1.135
  301SOL    HW2 1803   6.717   5.263   1.169
  302SOL     OW 1804   6.467   6.061   1.716
  302SOL    HW1 1805   6.385   6.084   1.768
  302SOL    HW2 1806   6.540   6.033   1.779
  303SOL     OW 1807   5.338   5.510   2.219
  303SOL    HW1 1808   5.321   5.587   2.157
  303SOL    HW2 1809   5.434   5.510   2.246
  304SOL     OW 1810   2.616   6.221   4.924
  304SOL    HW1 1811   2.576   6.299   4.971
  304SOL    HW2 1812   2.546   6.151   4.910
  305SOL     OW 1813   1.105   2.927   2.099
  305SOL    HW1 1814   1.028   2.893   2.153
  305SOL    HW2 1815   1.126   3.020   2.126
  306SOL     OW 1816   6.682   0.052   2.838
  306SOL    HW1 1817   6.651   6.992   2.787
  306SOL    HW2 1818   6.689   0.130   2.776
  307SOL     OW 1819   3.242   3.030   3.181
  307SOL    HW1 1820   3.243   3.023   3.081
  307SOL    HW2 1821   3.321   2.982   3.219
  308SOL     OW 1822   5.411   2.098   3.613
  308SOL    HW1 1823   5.492   2.047   3.640
  308SOL    HW2 1824   5.430   2.150   3.530
  309SOL     OW 1825   1.407   6.217   6.017
  309SOL    HW1 1826   1.367   6.249   6.103
  309SOL    HW2 1827   1.420   6.295   5.956
  310SOL     OW 1828   5.457   6.159   4.898
  310SOL    HW1 1829   5.475   6.221   4.975
  310SOL    HW2 1830   5.432   6.213   4.818
  311SOL     OW 1831   1.972   5.374   2.723
  311SOL    HW1 1832   1.943   5.457   2.771
  311SOL    HW2 1833   2.065   5.350   2.751
  312SOL     OW 1834   4.431   2.192   3.104
  312SOL    HW1 1835   4.458   2.253   3.179
  312SOL    HW2 1836   4.420   2.099   3.138
  313SOL     OW 1837   4.018   3.179   2.966
  313SOL    HW1 1838   4.029   3.132   3.053
  313SOL    HW2 1839   4.052   3.272   2.974
  314SOL     OW 1840   2.838   6.376   5.926
  314SOL    HW1 1841   2.754   6.332   5.894
  314SOL    HW2 1842   2.816   6.461   5.973
  315SOL     OW 1843   6.311   1.603   3.550
  315SOL    HW1 1844   6.242   1.540   3.585
  315SOL    HW2 1845   6.402   1.575   3.581
  316SOL     OW 1846   3.812   1.274   5.325
  316SOL    HW1 1847   3.866   1.356   5.341
  316SOL    HW2 1848   3.822   1.211   5.402
  317SOL     OW 1849   1.499   1.558   1.778
  317SOL    HW1 1850   1.577   1.593   1.726
  317SOL    HW2 1851   1.530   1.482   1.836
  318SOL     OW 1852   0.746   0.965   5.585
  318SOL    HW1 1853   0.650   0.993   5.590
  318SOL    HW2 1854   0.802   1.027   5.641
  319SOL     OW 1855   1.437   1.809   2.648
  319SOL    HW1 1856   1.477   1.892   2.688
  319SOL    HW2 1857   1.338   1.822   2.639
  320SOL     OW 1858   5.831   2.175   6.411
  320SOL    HW1 1859   5.744   2.147   6.453
  320SOL    HW2 1860   5.850   2.270   6.434
  321SOL     OW 1861   4.378   3.079   0.533
  321SOL    HW1 1862   4.279   3.073   0.518
  321SOL    HW2 1863   4.397   3.147   0.604
  322SOL     OW 1864   3.510   3.158   5.936
  322SOL    HW1 1865   3.566   3.229   5.979
  322SOL    HW2 1866   3.415   3.168   5.966
  323SOL     OW 1867   0.112   3.058   2.959
  323SOL    HW1 1868   0.068   3.146   2.977
  323SOL    HW2 1869   0.045   2.996   2.918
  324SOL     OW 1870   0.110   6.677   4.096
  324SOL    HW1 1871   0.179   6.732   4.144
  324SOL    HW2 1872   0.149   6.588   4.072
  325SOL     OW 1873   0.397   4.144   2.710
  325SOL    HW1 1874   0.434   4.060   2.668
  325SOL    HW2 1875   0.473   4.203   2.737
  326SOL     OW 1876   0.596   6.295   6.552
  326SOL    HW1 1877   0.690   6.301   6.521
  326SOL    HW2 1878   0.550   6.383   6.537
  327SOL     OW 1879   4.155   5.234   3.646
  327SOL    HW1 1880   4.232   5.286   3.683
  327SOL    HW2 1881   4.123   5.169   3.715
  328SOL     OW 1882   2.102   3.684   2.805
  328SOL    HW1 1883   2.066   3.592   2.822
  328SOL    HW2 1884   2.109   3.733   2.892
  329SOL     OW 1885   3.211   3.899   2.185
  329SOL    HW1 1886   3.241   3.807   2.210
  329SOL    HW2 1887   3.273   3.937   2.117
  330SOL     OW 1888   3.530   5.134   0.824
  330SOL    HW1 1889   3.577   5.068   0.764
  330SOL    HW2 1890   3.433   5.138   0.799
  331SOL     OW 1891   5.370   5.129   6.907
  331SOL    HW1 1892   5.336   5.042   6.943
  331SOL    HW2 1893   5.333   5.204   6.961
  332SOL     OW 1894   5.092   2.283   3.114
  332SOL    HW1 1895   5.075   2.369   3.067
  332SOL    HW2 1896   5.191   2.268   3.120
  333SOL     OW 1897   3.477   1.076   5.813
  333SOL    HW1 1898   3.468   1.175   5.816
  333SOL    HW2 1899   3.497   1.047   5.719
  334SOL     OW 1900   3.497   3.310   2.960
  334SOL    HW1 1901   3.411   3.332   2.914
  334SOL    HW2 1902   3.553   3.393   2.967
  335SOL     OW 1903   3.290   0.432   6.138
  335SOL    HW1 1904   3.249   0.368   6.204
  335SOL    HW2 1905   3.231   0.512   6.130
  336SOL     OW 1906   2.926   1.846   3.369
  336SOL    HW1 1907   2.917   1.925   3.429
  336SOL    HW2 1908   2.919   1.875   3.274
  337SOL     OW 1909   2.372   7.002   6.037
  337SOL    HW1 1910   2.435   0.055   6.014
  337SOL    HW2 1911   2.324   0.004   6.121
  338SOL     OW 1912   4.641   1.937   1.392
  338SOL    HW1 1913   4.564   1.892   1.439
  338SOL    HW2 1914   4.614   1.960   1.298
  339SOL     OW 1915   4.251   5.058   4.990
  339SOL    HW1 1916   4.182   5.008   5.042
  339SOL    HW2 1917   4.226   5.060   4.893
  340SOL     OW 1918   4.772   1.987   3.416
  340SOL    HW1 1919   4.824   1.930   3.353
  340SOL    HW2 1920   4.836   2.032   3.480
  341SOL     OW 1921   5.646   0.046   3.481
  341SOL    HW1 1922   5.559   0.004   3.509
  341SOL    HW2 1923   5.634   0.144   3.470
  342SOL     OW 1924   4.669   2.304   1.822
  342SOL    HW1 1925   4.706   2.396   1.813
  342SOL    HW2 1926   4.681   2.254   1.736
  343SOL     OW 1927   0.472   5.571   3.113
  343SOL    HW1 1928   0.532   5.647   3.091
  343SOL    HW2 1929   0.424   5.590   3.199
  344SOL     OW 1930   2.279   1.448   1.668
  344SOL    HW1 1931   2.251   1.526   1.612
  344SOL    HW2 1932   2.367   1.469   1.712
  345SOL     OW 1933   6.064   3.548   4.507
  345SOL    HW1 1934   6.114   3.478   4.557
  345SOL    HW2 1935   6.037   3.621   4.570
  346SOL     OW 1936   1.833   6.850   3.138
  346SOL    HW1 1937   1.893   6.770   3.136
  346SOL    HW2 1938   1.774   6.848   3.058
  347SOL     OW 1939   2.907   5.187   0.837
  347SOL    HW1 1940   2.938   5.261   0.777
  347SOL    HW2 1941   2.809   5.195   0.853
  348SOL     OW 1942   4.821   5.415   2.138
  348SOL    HW1 1943   4.775   5.358   2.206
  348SOL    HW2 1944   4.856   5.497   2.181
  349SOL     OW 1945   5.968   4.534   1.108
  349SOL    HW1 1946   5.985   4.444   1.148
  349SOL    HW2 1947   6.047   4.562   1.054
  350SOL     OW 1948   3.329   3.281   0.098
  350SOL    HW1 1949   3.266   3.357   0.117
  350SOL    HW2 1950   3.415   3.297   0.146
  351SOL     OW 1951   2.924   4.369   1.160
  351SOL    HW1 1952   2.965   4.282   1.190
  351SOL    HW2 1953   2.922   4.432   1.237
  352SOL     OW 1954   3.554   6.532   3.080
  352SOL    HW1 1955   3.490   6.574   3.016
  352SOL    HW2 1956   3.595   6.451   3.038
  353SOL     OW 1957   2.347   6.286   6.842
  353SOL    HW1 1958   2.405   6.233   6.904
  353SOL    HW2 1959   2.321   6.372   6.886
  354SOL     OW 1960   6.796   2.469   0.116
  354SOL    HW1 1961   6.811   2.387   0.061
  354SOL    HW2 1962   6.873   2.484   0.178
  355SOL     OW 1963   2.013   2.131   2.585
  355SOL    HW1 1964   2.083   2.060   2.592
  355SOL    HW2 1965   2.051   2.218   2.614
  356SOL     OW 1966   1.071   6.734   6.019
  356SOL    HW1 1967   1.008   6.659   6.040
  356SOL    HW2 1968   1.034   6.788   5.944
  357SOL     OW 1969   5.871   6.367   4.731
  357SOL    HW1 1970   5.822   6.309   4.666
  357SOL    HW2 1971   5.876   6.460   4.694
  358SOL     OW 1972   4.966   5.894   0.413
  358SOL    HW1 1973   5.007   5.873   0.325
  358SOL    HW2 1974   4.899   5.968   0.402
  359SOL     OW 1975   3.072   2.066   2.095
  359SOL    HW1 1976   3.154   2.072   2.039
  359SOL    HW2 1977   3.021   2.152   2.090
  360SOL     OW 1978   1.590   4.927   4.306
  360SOL    HW1 1979   1.567   5.023   4.290
  360SOL    HW2 1980   1.550   4.871   4.233
  361SOL     OW 1981   6.683   6.633   2.863
  361SOL    HW1 1982   6.659   6.722   2.900
  361SOL    HW2 1983   6.682   6.636   2.763
  362SOL     OW 1984   3.778   4.485   1.237
  362SOL    HW1 1985   3.871   4.484   1.199
  362SOL    HW2 1986   3.756   4.394   1.272
  363SOL     OW 1987   5.592   5.393   2.489
  363SOL    HW1 1988   5.562   5.317   2.547
  363SOL    HW2 1989   5.618   5.357   2.399
  364SOL     OW 1990   0.547   5.801   6.527
  364SOL    HW1 1991   0.568   5.859   6.606
  364SOL    HW2 1992   0.449   5.779   6.526
  365SOL     OW 1993   4.016   1.797   2.878
  365SOL    HW1 1994   3.936   1.858   2.873
  365SOL    HW2 1995   4.081   1.823   2.807
  366SOL     OW 1996   5.836   2.368   0.450
  366SOL    HW1 1997   5.859   2.458   0.487
  366SOL    HW2 1998   5.892   2.350   0.369
  367SOL     OW 1999   4.443   1.975   5.591
  367SOL    HW1 2000   4.355   2.020   5.601
  367SOL    HW2 2001   4.509   2.038   5.550
  368SOL     OW 2002   6.577   2.446   6.001
  368SOL    HW1 2003   6.495   2.453   5.944
  368SOL    HW2 2004   6.655   2.420   5.945
  369SOL     OW 2005   5.540   3.327   2.327
  369SOL    HW1 2006   5.612   3.350   2.394
  369SOL    HW2 2007   5.583   3.296   2.242
  370SOL     OW 2008   2.026   3.255   4.288
  370SOL    HW1 2009   2.058   3.192   4.360
  370SOL    HW2 2010   1.928   3.242   4.273
  371SOL     OW 2011   1.613   4.479   6.513
  371SOL    HW1 2012   1.543   4.445   6.577
  371SOL    HW2 2013   1.584   4.458   6.419
  372SOL     OW 2014   2.990   6.417   6.328
  372SOL    HW1 2015   2.990   6.330   6.378
  372SOL    HW2 2016   2.898   6.456   6.329
  373SOL     OW 2017   6.176   6.244   4.465
  373SOL    HW1 2018   6.185   6.210   4.372
  373SOL    HW2 2019   6.237   6.194   4.526
  374SOL     OW 2020   2.626   1.652   2.811
  374SOL    HW1 2021   2.695   1.580   2.820
  374SOL    HW2 2022   2.656   1.717   2.741
  375SOL     OW 2023   0.934   4.456   5.191
  375SOL    HW1 2024   0.884   4.378   5.229
  375SOL    HW2 2025   1.032   4.440   5.199
  376SOL     OW 2026   2.414   0.675   4.345
  376SOL    HW1 2027   2.374   0.589   4.315
  376SOL    HW2 2028   2.394   0.690   4.441
  377SOL     OW 2029   1.463   2.745   6.466
  377SOL    HW1 2030   1.538   2.688   6.432
  377SOL    HW2 2031   1.406   2.692   6.528
  378SOL     OW 2032   3.057   1.787   1.662
  378SOL    HW1 2033   3.143   1.836   1.647
  378SOL    HW2 2034   3.041   1.725   1.585
  379SOL     OW 2035   6.052   2.469   6.195
  379SOL    HW1 2036   6.047   2.397   6.126
  379SOL    HW2 2037   6.067   2.557   6.150
  380SOL     OW 2038   3.955   1.440   1.336
  380SOL    HW1 2039   3.981   1.345   1.321
  380SOL    HW2 2040   3.963   1.491   1.250
  381SOL     OW 2041   1.579   4.403   3.593
  381SOL    HW1 2042   1.653   4.344   3.626
  381SOL    HW2 2043   1.613   4.497   3.586
  382SOL     OW 2044   5.986   0.375   0.591
  382SOL    HW1 2045   6.064   0.319   0.620
  382SOL    HW2 2046   5.994   0.466   0.631
  383SOL     OW 2047   4.037   2.621   1.134
  383SOL    HW1 2048   4.072   2.659   1.220
  383SOL    HW2 2049   4.108   2.565   1.091
  384SOL     OW 2050   6.309   4.279   4.389
  384SOL    HW1 2051   6.385   4.217   4.369
  384SOL    HW2 2052   6.346   4.369   4.416
  385SOL     OW 2053   4.905   4.961   6.718
  385SOL    HW1 2054   4.977   5.030   6.725
  385SOL    HW2 2055   4.946   4.870   6.720
  386SOL     OW 2056   3.390   6.805   3.944
  386SOL    HW1 2057   3.463   6.865   3.976
  386SOL    HW2 2058   3.428   6.717   3.917
  387SOL     OW 2059   2.241   5.609   3.776
  387SOL    HW1 2060   2.218   5.646   3.866
  387SOL    HW2 2061   2.170   5.545   3.747
  388SOL     OW 2062   2.406   2.614   6.729
  388SOL    HW1 2063   2.424   2.711   6.709
  388SOL    HW2 2064   2.411   2.599   6.827
  389SOL     OW 2065   2.918   3.589   3.743
  389SOL    HW1 2066   2.904   3.602   3.645
  389SOL    HW2 2067   2.926   3.492   3.763
  390SOL     OW 2068   2.102   1.818   4.251
  390SOL    HW1 2069   2.049   1.752   4.197
  390SOL    HW2 2070   2.187   1.838   4.204
  391SOL     OW 2071   1.003   2.600   6.745
  391SOL    HW1 2072   1.058   2.519   6.768
  391SOL    HW2 2073   0.943   2.622   6.822
  392SOL     OW 2074   2.646   5.311   2.245
  392SOL    HW1 2075   2.721   5.291   2.308
  392SOL    HW2 2076   2.564   5.333   2.296
  393SOL     OW 2077   5.886   4.513   5.231
  393SOL    HW1 2078   5.953   4.572   5.274
  393SOL    HW2 2079   5.879   4.427   5.282
  394SOL     OW 2080   0.296   6.432   0.177
  394SOL    HW1 2081   0.201   6.454   0.158
  394SOL    HW2 2082   0.339   6.508   0.226
  395SOL     OW 2083   5.312   3.941   2.067
  395SOL    HW1 2084   5.315   3.875   2.142
  395SOL    HW2 2085   5.254   3.906   1.993
  396SOL     OW 2086   3.253   4.041   3.713
  396SOL    HW1 2087   3.213   3.968   3.658
  396SOL    HW2 2088   3.283   4.115   3.652
  397SOL     OW 2089   4.373   2.228   5.422
  397SOL    HW1 2090   4.319   2.163   5.476
  397SOL    HW2 2091   4.354   2.213   5.324
  398SOL     OW 2092   1.181   5.232   2.300
  398SOL    HW1 2093   1.278   5.256   2.292
  398SOL    HW2 2094   1.163   5.150   2.246
  399SOL     OW 2095   5.177   5.581   1.300
  399SOL    HW1 2096   5.121   5.663   1.311
  399SOL    HW2 2097   5.155   5.515   1.372
  400SOL     OW 2098   0.159   6.379   5.376
  400SOL    HW1 2099   0.110   6.444   5.317
  400SOL    HW2 2100   0.222   6.325   5.321
  401SOL     OW 2101   4.825   1.288   6.249
  401SOL    HW1 2102   4.786   1.319   6.163
  401SOL    HW2 2103   4.844   1.190   6.244
  402SOL     OW 2104   6.314   5.859   2.804
  402SOL    HW1 2105   6.304   5.895   2.896
  402SOL    HW2 2106   6.402   5.810   2.796
  403SOL     OW 2107   4.890   2.355   5.768
  403SOL    HW1 2108   4.936   2.394   5.688
  403SOL    HW2 2109   4.895   2.419   5.844
  404SOL     OW 2110   1.203   6.963   3.920
  404SOL    HW1 2111   1.167   6.878   3.882
  404SOL    HW2 2112   1.131   7.012   3.968
  405SOL     OW 2113   1.874   2.324   0.384
  405SOL    HW1 2114   1.964   2.307   0.426
  405SOL    HW2 2115   1.810   2.353   0.455
  406SOL     OW 2116   1.499   2.010   4.306
  406SOL    HW1 2117   1.525   2.085   4.366
  406SOL    HW2 2118   1.574   1.989   4.244
  407SOL     OW 2119   3.062   0.082   4.801
  407SOL    HW1 2120   3.098   0.001   4.754
  407SOL    HW2 2121   3.091   0.165   4.753
  408SOL     OW 2122   1.540   0.046   3.711
  408SOL    HW1 2123   1.558   7.003   3.636
  408SOL    HW2 2124   1.540   0.140   3.676
  409SOL     OW 2125   6.556   2.803   3.526
  409SOL    HW1 2126   6.582   2.707   3.530
  409SOL    HW2 2127   6.473   2.813   3.473
  410SOL     OW 2128   1.976   0.132   6.875
  410SOL    HW1 2129   2.002   0.148   6.971
  410SOL    HW2 2130   1.987   0.217   6.824
  411SOL     OW 2131   5.858   4.997   5.912
  411SOL    HW1 2132   5.837   4.955   5.824
  411SOL    HW2 2133   5.910   4.932   5.968
  412SOL     OW 2134   3.623   6.290   2.774
  412SOL    HW1 2135   3.630   6.302   2.873
  412SOL    HW2 2136   3.700   6.235   2.742
  413SOL     OW 2137   3.378   5.797   0.726
  413SOL    HW1 2138   3.461   5.853   0.725
  413SOL    HW2 2139   3.365   5.759   0.817
  414SOL     OW 2140   4.677   5.008   1.495
  414SOL    HW1 2141   4.689   4.926   1.438
  414SOL    HW2 2142   4.725   5.085   1.452
  415SOL     OW 2143   1.726   5.732   1.040
  415SOL    HW1 2144   1.784   5.805   1.078
  415SOL    HW2 2145   1.686   5.763   0.954
  416SOL     OW 2146   3.804   5.934   5.036
  416SOL    HW1 2147   3.757   5.847   5.021
  416SOL    HW2 2148   3.877   5.945   4.969
  417SOL     OW 2149   3.251   6.131   2.500
  417SOL    HW1 2150   3.178   6.080   2.453
  417SOL    HW2 2151   3.211   6.210   2.547
  418SOL     OW 2152   4.785   6.337   0.589
  418SOL    HW1 2153   4.785   6.265   0.659
  418SOL    HW2 2154   4.872   6.386   0.593
  419SOL     OW 2155   0.167   0.352   1.072
  419SOL    HW1 2156   0.201   0.270   1.026
  419SOL    HW2 2157   0.221   0.431   1.043
  420SOL     OW 2158   5.447   3.807   0.754
  420SOL    HW1 2159   5.542   3.822   0.779
  420SOL    HW2 2160   5.433   3.711   0.731
  421SOL     OW 2161   1.884   5.411   6.347
  421SOL    HW1 2162   1.934   5.410   6.261
  421SOL    HW2 2163   1.793   5.372   6.333
  422SOL     OW 2164   6.152   4.858   0.153
  422SOL    HW1 2165   6.098   4.794   0.097
  422SOL    HW2 2166   6.096   4.890   0.230
  423SOL     OW 2167   5.836   2.977   6.969
  423SOL    HW1 2168   5.761   3.013   6.913
  423SOL    HW2 2169   5.924   3.006   6.930
  424SOL     OW 2170   2.948   4.254   7.018
  424SOL    HW1 2171   3.041   4.287   7.003
  424SOL    HW2 2172   2.945   4.155   7.003
  425SOL     OW 2173   5.333   1.786   1.054
  425SOL    HW1 2174   5.288   1.706   1.094
  425SOL    HW2 2175   5.271   1.865   1.059
  426SOL     OW 2176   5.000   2.566   5.589
  426SOL    HW1 2177   4.958   2.518   5.512
  426SOL    HW2 2178   4.959   2.656   5.600
  427SOL     OW 2179   5.442   4.340   1.607
  427SOL    HW1 2180   5.517   4.358   1.670
  427SOL    HW2 2181   5.414   4.425   1.562
  428SOL     OW 2182   3.678   0.595   5.276
  428SOL    HW1 2183   3.591   0.605   5.326
  428SOL    HW2 2184   3.750   0.645   5.324
  429SOL     OW 2185   1.507   5.217   0.902
  429SOL    HW1 2186   1.578   5.168   0.952
  429SOL    HW2 2187   1.547   5.296   0.855
  430SOL     OW 2188   1.328   6.797   4.117
  430SOL    HW1 2189   1.291   6.882   4.079
  430SOL    HW2 2190   1.303   6.790   4.213
  431SOL     OW 2191   3.717   1.201   6.809
  431SOL    HW1 2192   3.691   1.274   6.872
  431SOL    HW2 2193   3.634   1.158   6.773
  432SOL     OW 2194   6.811   1.849   0.187
  432SOL    HW1 2195   6.853   1.940   0.193
  432SOL    HW2 2196   6.741   1.849   0.115
  433SOL     OW 2197   2.697   6.745   4.333
  433SOL    HW1 2198   2.773   6.733   4.268
  433SOL    HW2 2199   2.723   6.814   4.401
  434SOL     OW 2200   5.910   4.068   0.702
  434SOL    HW1 2201   5.988   4.095   0.645
  434SOL    HW2 2202   5.926   3.977   0.740
  435SOL     OW 2203   3.150   3.417   5.809
  435SOL    HW1 2204   3.050   3.429   5.805
  435SOL    HW2 2205   3.171   3.347   5.878
  436SOL     OW 2206   1.392   0.256   1.239
  436SOL    HW1 2207   1.467   0.206   1.196
  436SOL    HW2 2208   1.424   0.346   1.269
  437SOL     OW 2209   6.917   0.153   6.376
  437SOL    HW1 2210   6.858   0.115   6.448
  437SOL    HW2 2211   6.967   0.079   6.331
  438SOL     OW 2212   1.682   2.705   2.045
  438SOL    HW1 2213   1.585   2.694   2.067
  438SOL    HW2 2214   1.737   2.651   2.108
  439SOL     OW 2215   6.460   4.317   2.637
  439SOL    HW1 2216   6.543   4.284   2.683
  439SOL    HW2 2217   6.485   4.369   2.556
  440SOL     OW 2218   0.977   2.483   4.603
  440SOL    HW1 2219   0.972   2.577   4.569
  440SOL    HW2 2220   0.885   2.444   4.607
  441SOL     OW 2221   1.600   1.550   3.376
  441SOL    HW1 2222   1.678   1.495   3.348
  441SOL    HW2 2223   1.547   1.577   3.296
  442SOL     OW 2224   0.478   4.193   6.923
  442SOL    HW1 2225   0.510   4.102   6.946
  442SOL    HW2 2226   0.473   4.202   6.823
  443SOL     OW 2227   1.309   4.636   4.936
  443SOL    HW1 2228   1.285   4.592   4.850
  443SOL    HW2 2229   1.306   4.735   4.926
  444SOL     OW 2230   4.382   2.567   6.090
  444SOL    HW1 2231   4.350   2.640   6.029
  444SOL    HW2 2232   4.307   2.540   6.150
  445SOL     OW 2233   1.953   5.827   3.217
  445SOL    HW1 2234   1.988   5.897   3.278
  445SOL    HW2 2235   2.023   5.758   3.201
  446SOL     OW 2236   3.621   4.933   3.797
  446SOL    HW1 2237   3.586   4.941   3.891
  446SOL    HW2 2238   3.679   4.852   3.791
  447SOL     OW 2239   6.694   3.966   6.666
  447SOL    HW1 2240   6.746   4.001   6.588
  447SOL    HW2 2241   6.716   3.869   6.679
  448SOL     OW 2242   3.691   0.845   4.726
  448SOL    HW1 2243   3.594   0.843   4.749
  448SOL    HW2 2244   3.742   0.887   4.801
  449SOL     OW 2245   5.484   1.113   4.793
  449SOL    HW1 2246   5.527   1.187   4.845
  449SOL    HW2 2247   5.548   1.078   4.725
  450SOL     OW 2248   0.046   5.826   3.558
  450SOL    HW1 2249   6.993   5.852   3.496
  450SOL    HW2 2250   0.040   5.880   3.642
  451SOL     OW 2251   0.620   2.460   2.260
  451SOL    HW1 2252   0.632   2.464   2.160
  451SOL    HW2 2253   0.547   2.523   2.287
  452SOL     OW 2254   6.774   5.376   0.262
  452SOL    HW1 2255   6.762   5.435   0.182
  452SOL    HW2 2256   6.812   5.429   0.337
  453SOL     OW 2257   3.367   1.042   6.548
  453SOL    HW1 2258   3.390   0.969   6.483
  453SOL    HW2 2259   3.336   1.123   6.497
  454SOL     OW 2260   0.154   6.228   5.904
  454SOL    HW1 2261   0.065   6.244   5.947
  454SOL    HW2 2262   0.166   6.290   5.827
  455SOL     OW 2263   5.762   0.035   4.389
  455SOL    HW1 2264   5.771   6.960   4.417
  455SOL    HW2 2265   5.696   0.081   4.448
  456SOL     OW 2266   3.809   5.915   5.953
  456SOL    HW1 2267   3.780   6.009   5.973
  456SOL    HW2 2268   3.866   5.914   5.872
  457SOL     OW 2269   1.814   4.232   3.370
  457SOL    HW1 2270   1.829   4.325   3.404
  457SOL    HW2 2271   1.739   4.233   3.304
  458SOL     OW 2272   5.212   5.442   5.447
  458SOL    HW1 2273   5.134   5.404   5.398
  458SOL    HW2 2274   5.179   5.499   5.523
  459SOL     OW 2275   1.336   0.038   2.912
  459SOL    HW1 2276   1.311   0.128   2.877
  459SOL    HW2 2277   1.393   0.049   2.994
  460SOL     OW 2278   0.537   1.623   2.076
  460SOL    HW1 2279   0.539   1.605   1.978
  460SOL    HW2 2280   0.630   1.616   2.114
  461SOL     OW 2281   4.345   6.885   4.874
  461SOL    HW1 2282   4.342   6.834   4.788
  461SOL    HW2 2283   4.440   6.903   4.899
  462SOL     OW 2284   4.011   2.524   5.805
  462SOL    HW1 2285   4.023   2.505   5.903
  462SOL    HW2 2286   3.918   2.498   5.778
  463SOL     OW 2287   6.264   5.424   2.738
  463SOL    HW1 2288   6.299   5.517   2.744
  463SOL    HW2 2289   6.302   5.379   2.657
  464SOL     OW 2290   2.704   1.521   6.552
  464SOL    HW1 2291   2.707   1.532   6.652
  464SOL    HW2 2292   2.728   1.608   6.508
  465SOL     OW 2293   1.129   1.631   4.565
  465SOL    HW1 2294   1.101   1.700   4.498
  465SOL    HW2 2295   1.204   1.667   4.620
  466SOL     OW 2296   6.954   6.412   3.658
  466SOL    HW1 2297   6.940   6.406   3.560
  466SOL    HW2 2298   6.921   6.328   3.702
  467SOL     OW 2299   1.371   6.816   6.337
  467SOL    HW1 2300   1.387   6.775   6.247
  467SOL    HW2 2301   1.283   6.787   6.372
  468SOL     OW 2302   3.862   5.830   0.728
  468SOL    HW1 2303   3.803   5.795   0.655
  468SOL    HW2 2304   3.809   5.842   0.812
  469SOL     OW 2305   2.480   5.128   0.053
  469SOL    HW1 2306   2.455   5.105   0.147
  469SOL    HW2 2307   2.577   5.105   0.038
  470SOL     OW 2308   3.749   0.432   2.172
  470SOL    HW1 2309   3.803   0.481   2.240
  470SOL    HW2 2310   3.653   0.429   2.202
  471SOL     OW 2311   1.440   2.558   4.280
  471SOL    HW1 2312   1.537   2.534   4.272
  471SOL    HW2 2313   1.385   2.489   4.231
  472SOL     OW 2314   4.962   3.933   6.503
  472SOL    HW1 2315   5.037   3.942   6.438
  472SOL    HW2 2316   4.882   3.895   6.456
  473SOL     OW 2317   0.550   2.717   1.588
  473SOL    HW1 2318   0.475   2.782   1.575
  473SOL    HW2 2319   0.534   2.635   1.533
  474SOL     OW 2320   4.201   5.197   3.943
  474SOL    HW1 2321   4.261   5.125   3.907
  474SOL    HW2 2322   4.167   5.170   4.033
  475SOL     OW 2323   6.992   0.157   6.829
  475SOL    HW1 2324   6.970   0.126   6.922
  475SOL    HW2 2325   0.026   0.087   6.783
  476SOL     OW 2326   6.891   4.092   2.340
  476SOL    HW1 2327   6.841   4.172   2.307
  476SOL    HW2 2328   6.986   4.117   2.357
  477SOL     OW 2329   2.253   4.871   4.512
  477SOL    HW1 2330   2.294   4.923   4.587
  477SOL    HW2 2331   2.248   4.774   4.538
  478SOL     OW 2332   2.897   6.399   2.309
  478SOL    HW1 2333   2.974   6.379   2.249
  478SOL    HW2 2334   2.825   6.445   2.258
  479SOL     OW 2335   3.592   1.833   0.492
  479SOL    HW1 2336   3.537   1.750   0.504
  479SOL    HW2 2337   3.532   1.913   0.493
  480SOL     OW 2338   1.419   6.887   0.913
  480SOL    HW1 2339   1.424   6.846   1.004
  480SOL    HW2 2340   1.380   6.979   0.920
  481SOL     OW 2341   2.274   0.573   0.768
  481SOL    HW1 2342   2.300   0.554   0.863
  481SOL    HW2 2343   2.242   0.489   0.725
  482SOL     OW 2344   4.704   4.829   2.209
  482SOL    HW1 2345   4.639   4.866   2.143
  482SOL    HW2 2346   4.667   4.745   2.249
  483SOL     OW 2347   5.763   2.098   1.552
  483SOL    HW1 2348   5.706   2.106   1.633
  483SOL    HW2 2349   5.707   2.074   1.473
  484SOL     OW 2350   1.207   2.955   5.229
  484SOL    HW1 2351   1.247   2.936   5.140
  484SOL    HW2 2352   1.258   2.907   5.301
  485SOL     OW 2353   3.950   5.066   2.219
  485SOL    HW1 2354   4.013   5.016   2.278
  485SOL    HW2 2355   3.892   5.001   2.170
  486SOL     OW 2356   0.982   1.691   1.279
  486SOL    HW1 2357   0.895   1.687   1.328
  486SOL    HW2 2358   0.985   1.772   1.222
  487SOL     OW 2359   0.889   1.645   0.046
  487SOL    HW1 2360   0.797   1.683   0.051
  487SOL    HW2 2361   0.888   1.561   7.012
  488SOL     OW 2362   1.280   0.731   1.319
  488SOL    HW1 2363   1.239   0.716   1.229
  488SOL    HW2 2364   1.318   0.823   1.323
  489SOL     OW 2365   3.766   5.725   0.201
  489SOL    HW1 2366   3.670   5.735   0.226
  489SOL    HW2 2367   3.779   5.751   0.105
  490SOL     OW 2368   6.456   6.069   4.309
  490SOL    HW1 2369   6.490   5.981   4.345
  490SOL    HW2 2370   6.433   6.129   4.386
  491SOL     OW 2371   6.923   2.485   3.175
  491SOL    HW1 2372   0.001   2.483   3.191
  491SOL    HW2 2373   6.882   2.558   3.228
  492SOL     OW 2374   3.052   0.231   5.265
  492SOL    HW1 2375   3.070   0.161   5.196
  492SOL    HW2 2376   2.959   0.221   5.300
  493SOL     OW 2377   5.664   4.746   6.347
  493SOL    HW1 2378   5.586   4.757   6.285
  493SOL    HW2 2379   5.633   4.755   6.441
  494SOL     OW 2380   0.249   6.158   6.944
  494SOL    HW1 2381   0.236   6.102   0.005
  494SOL    HW2 2382   0.317   6.229   6.963
  495SOL     OW 2383   5.220   5.456   2.783
  495SOL    HW1 2384   5.191   5.420   2.694
  495SOL    HW2 2385   5.139   5.476   2.839
  496SOL     OW 2386   5.507   2.477   2.750
  496SOL    HW1 2387   5.496   2.530   2.666
  496SOL    HW2 2388   5.432   2.411   2.758
  497SOL     OW 2389   3.435   1.489   5.176
  497SOL    HW1 2390   3.380   1.440   5.109
  497SOL    HW2 2391   3.510   1.537   5.130
  498SOL     OW 2392   1.478   3.918   1.794
  498SOL    HW1 2393   1.479   3.929   1.695
  498SOL    HW2 2394   1.572   3.911   1.828
  499SOL     OW 2395   2.933   0.557   4.063
  499SOL    HW1 2396   2.958   0.476   4.010
  499SOL    HW2 2397   2.838   0.549   4.094
  500SOL     OW 2398   0.907   4.184   3.544
  500SOL    HW1 2399   0.937   4.091   3.567
  500SOL    HW2 2400   0.818   4.201   3.585
  501SOL     OW 2401   3.242   1.252   0.647
  501SOL    HW1 2402   3.321   1.241   0.587
  501SOL    HW2 2403   3.169   1.190   0.618
  502SOL     OW 2404   5.552   3.926   6.078
  502SOL    HW1 2405   5.576   3.867   6.156
  502SOL    HW2 2406   5.459   3.906   6.049
  503SOL     OW 2407   6.016   4.751   5.819
  503SOL    HW1 2408   6.059   4.679   5.873
  503SOL    HW2 2409   5.935   4.714   5.773
  504SOL     OW 2410   2.557   6.596   3.821
  504SOL    HW1 2411   2.631   6.548   3.868
  504SOL    HW2 2412   2.472   6.585   3.872
  505SOL     OW 2413   3.668   0.356   5.455
  505SOL    HW1 2414   3.650   0.436   5.399
  505SOL    HW2 2415   3.586   0.333   5.508
  506SOL     OW 2416   2.011   5.291   4.652
  506SOL    HW1 2417   2.021   5.343   4.567
  506SOL    HW2 2418   1.962   5.206   4.634
  507SOL     OW 2419   2.996   0.496   4.422
  507SOL    HW1 2420   2.987   0.561   4.498
  507SOL    HW2 2421   3.057   0.535   4.353
  508SOL     OW 2422   6.074   3.646   2.471
  508SOL    HW1 2423   6.141   3.718   2.451
  508SOL    HW2 2424   6.120   3.557   2.468
  509SOL     OW 2425   3.332   1.203   1.836
  509SOL    HW1 2426   3.408   1.266   1.823
  509SOL    HW2 2427   3.315   1.190   1.934
  510SOL     OW 2428   6.896   4.441   5.816
  510SOL    HW1 2429   6.841   4.393   5.748
  510SOL    HW2 2430   6.837   4.473   5.890
  511SOL     OW 2431   6.884   6.696   6.418
  511SOL    HW1 2432   6.864   6.681   6.321
  511SOL    HW2 2433   6.982   6.681   6.434
  512SOL     OW 2434   6.783   3.322   6.959
  512SOL    HW1 2435   6.739   3.284   0.020
  512SOL    HW2 2436   6.717   3.324   6.884
  513SOL     OW 2437   5.810   6.335   3.081
  513SOL    HW1 2438   5.856   6.318   3.169
  513SOL    HW2 2439   5.719   6.296   3.083
  514SOL     OW 2440   6.497   2.272   4.257
  514SOL    HW1 2441   6.587   2.273   4.301
  514SOL    HW2 2442   6.438   2.340   4.300
  515SOL     OW 2443   2.088   6.507   6.140
  515SOL    HW1 2444   2.113   6.444   6.214
  515SOL    HW2 2445   2.040   6.457   6.069
  516SOL     OW 2446   2.767   4.575   1.634
  516SOL    HW1 2447   2.815   4.527   1.708
  516SOL    HW2 2448   2.751   4.512   1.558
  517SOL     OW 2449   5.119   6.091   2.434
  517SOL    HW1 2450   5.204   6.045   2.460
  517SOL    HW2 2451   5.089   6.149   2.510
  518SOL     OW 2452   2.968   2.154   1.582
  518SOL    HW1 2453   2.910   2.114   1.511
  518SOL    HW2 2454   2.938   2.120   1.672
  519SOL     OW 2455   0.073   0.463   4.664
  519SOL    HW1 2456   0.019   0.544   4.690
  519SOL    HW2 2457   0.022   0.410   4.597
  520SOL     OW 2458   5.586   4.527   6.548
  520SOL    HW1 2459   5.531   4.601   6.586
  520SOL    HW2 2460   5.669   4.514   6.603
  521SOL     OW 2461   6.315   2.045   6.458
  521SOL    HW1 2462   6.235   2.079   6.506
  521SOL    HW2 2463   6.354   1.967   6.508
  522SOL     OW 2464   3.979   3.010   5.302
  522SOL    HW1 2465   3.944   3.103   5.316
  522SOL    HW2 2466   3.928   2.967   5.227
  523SOL     OW 2467   6.727   5.515   3.586
  523SOL    HW1 2468   6.671   5.470   3.517
  523SOL    HW2 2469   6.819   5.531   3.551
  524SOL     OW 2470   2.617   1.044   6.935
  524SOL    HW1 2471   2.631   1.143   6.930
  524SOL    HW2 2472   2.525   1.024   6.970
  525SOL     OW 2473   2.464   3.633   6.392
  525SOL    HW1 2474   2.364   3.632   6.386
  525SOL    HW2 2475   2.500   3.546   6.360
  526SOL     OW 2476   2.418   6.051   4.879
  526SOL    HW1 2477   2.395   5.998   4.798
  526SOL    HW2 2478   2.338   6.055   4.939
  527SOL     OW 2479   6.268   2.654   6.042
  527SOL    HW1 2480   6.329   2.612   6.109
  527SOL    HW2 2481   6.302   2.745   6.019
  528SOL     OW 2482   1.555   1.259   3.906
  528SOL    HW1 2483   1.472   1.228   3.861
  528SOL    HW2 2484   1.536   1.283   4.001
  529SOL     OW 2485   0.785   5.021   4.932
  529SOL    HW1 2486   0.753   4.972   4.850
  529SOL    HW2 2487   0.884   5.031   4.929
  530SOL     OW 2488   2.780   3.030   5.290
  530SOL    HW1 2489   2.691   3.005   5.250
  530SOL    HW2 2490   2.778   3.126   5.319
  531SOL     OW 2491   0.379   1.005   1.697
  531SOL    HW1 2492   0.317   1.067   1.745
  531SOL    HW2 2493   0.324   0.939   1.645
  532SOL     OW 2494   1.197   2.594   6.215
  532SOL    HW1 2495   1.219   2.691   6.204
  532SOL    HW2 2496   1.172   2.576   6.310
  533SOL     OW 2497   4.845   6.215   4.312
  533SOL    HW1 2498   4.806   6.204   4.221
  533SOL    HW2 2499   4.843   6.311   4.339
  534SOL     OW 2500   5.110   5.475   3.745
  534SOL    HW1 2501   5.055   5.460   3.827
  534SOL    HW2 2502   5.169   5.554   3.759
  535SOL     OW 2503   0.808   4.600   4.414
  535SOL    HW1 2504   0.852   4.628   4.329
  535SOL    HW2 2505   0.721   4.556   4.393
  536SOL     OW 2506   7.014   5.515   1.519
  536SOL    HW1 2507   7.016   5.595   1.578
  536SOL    HW2 2508   0.084   5.473   1.515
  537SOL     OW 2509   2.415   6.422   3.511
  537SOL    HW1 2510   2.372   6.470   3.588
  537SOL    HW2 2511   2.474   6.486   3.462
  538SOL     OW 2512   1.233   5.722   3.067
  538SOL    HW1 2513   1.256   5.629   3.037
  538SOL    HW2 2514   1.171   5.764   3.001
  539SOL     OW 2515   0.383   5.519   0.874
  539SOL    HW1 2516   0.410   5.507   0.778
  539SOL    HW2 2517   0.297   5.472   0.891
  540SOL     OW 2518   0.425   2.271   2.061
  540SOL    HW1 2519   0.344   2.315   2.101
  540SOL    HW2 2520   0.467   2.212   2.130
  541SOL     OW 2521   3.239   6.837   4.551
  541SOL    HW1 2522   3.258   6.934   4.532
  541SOL    HW2 2523   3.188   6.798   4.475
  542SOL     OW 2524   6.661   6.779   0.175
  542SOL    HW1 2525   6.681   6.816   0.266
  542SOL    HW2 2526   6.562   6.781   0.160
  543SOL     OW 2527   0.659   5.167   6.139
  543SOL    HW1 2528   0.703   5.079   6.116
  543SOL    HW2 2529   0.689   5.237   6.074
  544SOL     OW 2530   1.042   4.405   1.204
  544SOL    HW1 2531   1.132   4.375   1.169
  544SOL    HW2 2532   1.007   4.478   1.146
  545SOL     OW 2533   3.406   1.760   3.623
  545SOL    HW1 2534   3.327   1.779   3.681
  545SOL    HW2 2535   3.444   1.846   3.590
  546SOL     OW 2536   1.469   3.503   1.639
  546SOL    HW1 2537   1.466   3.429   1.706
  546SOL    HW2 2538   1.492   3.588   1.685
  547SOL     OW 2539   2.371   1.811   6.794
  547SOL    HW1 2540   2.388   1.749   6.871
  547SOL    HW2 2541   2.273   1.833   6.790
  548SOL     OW 2542   3.825   2.999   3.141
  548SOL    HW1 2543   3.744   3.047   3.174
  548SOL    HW2 2544   3.803   2.947   3.059
  549SOL     OW 2545   4.577   3.583   1.684
  549SOL    HW1 2546   4.617   3.506   1.734
  549SOL    HW2 2547   4.492   3.554   1.640
  550SOL     OW 2548   6.691   3.186   2.697
  550SOL    HW1 2549   6.618   3.206   2.763
  550SOL    HW2 2550   6.653   3.183   2.605
  551SOL     OW 2551   6.921   1.961   0.563
  551SOL    HW1 2552   6.827   1.930   0.548
  551SOL    HW2 2553   6.920   2.045   0.616
  552SOL     OW 2554   4.002   5.358   0.667
  552SOL    HW1 2555   4.101   5.342   0.675
  552SOL    HW2 2556   3.953   5.279   0.704
  553SOL     OW 2557   1.968   0.075   2.533
  553SOL    HW1 2558   1.978   7.012   2.480
  553SOL    HW2 2559   1.877   0.077   2.575
  554SOL     OW 2560   5.212   6.470   6.450
  554SOL    HW1 2561   5.267   6.547   6.420
  554SOL    HW2 2562   5.146   6.446   6.379
  555SOL     OW 2563   2.016   5.217   4.169
  555SOL    HW1 2564   2.038   5.302   4.122
  555SOL    HW2 2565   2.101   5.177   4.205
  556SOL     OW 2566   6.142   2.214   4.440
  556SOL    HW1 2567   6.194   2.164   4.508
  556SOL    HW2 2568   6.071   2.269   4.485
  557SOL     OW 2569   6.821   6.081   6.526
  557SOL    HW1 2570   6.737   6.033   6.498
  557SOL    HW2 2571   6.825   6.085   6.626
  558SOL     OW 2572   4.132   3.666   4.943
  558SOL    HW1 2573   4.151   3.752   4.896
  558SOL    HW2 2574   4.134   3.591   4.878
  559SOL     OW 2575   6.941   6.061   6.975
  559SOL    HW1 2576   6.982   6.117   6.902
  559SOL    HW2 2577   7.010   6.043   0.024
  560SOL     OW 2578   4.086   6.424   0.601
  560SOL    HW1 2579   4.008   6.410   0.539
  560SOL    HW2 2580   4.161   6.467   0.550
  561SOL     OW 2581   5.646   6.881   0.308
  561SOL    HW1 2582   5.739   6.882   0.272
  561SOL    HW2 2583   5.632   6.961   0.366
  562SOL     OW 2584   4.945   0.997   5.887
  562SOL    HW1 2585   5.012   1.035   5.952
  562SOL    HW2 2586   4.887   0.931   5.934
  563SOL     OW 2587   2.698   6.668   3.610
  563SOL    HW1 2588   2.787   6.624   3.626
  563SOL    HW2 2589   2.629   6.626   3.669
  564SOL     OW 2590   2.316   2.140   6.055
  564SOL    HW1 2591   2.355   2.226   6.021
  564SOL    HW2 2592   2.226   2.126   6.015
  565SOL     OW 2593   4.441   3.332   6.053
  565SOL    HW1 2594   4.386   3.266   6.104
  565SOL    HW2 2595   4.388   3.364   5.974
  566SOL     OW 2596   4.412   4.515   3.251
  566SOL    HW1 2597   4.405   4.610   3.218
  566SOL    HW2 2598   4.333   4.463   3.219
  567SOL     OW 2599   3.481   3.506   4.191
  567SOL    HW1 2600   3.427   3.509   4.275
  567SOL    HW2 2601   3.559   3.568   4.200
  568SOL     OW 2602   3.498   2.378   0.222
  568SOL    HW1 2603   3.574   2.315   0.204
  568SOL    HW2 2604   3.518   2.466   0.180
  569SOL     OW 2605   1.313   2.904   0.460
  569SOL    HW1 2606   1.308   2.804   0.469
  569SOL    HW2 2607   1.226   2.944   0.489
  570SOL     OW 2608   1.426   6.657   0.468
  570SOL    HW1 2609   1.490   6.590   0.431
  570SOL    HW2 2610   1.431   6.656   0.568
  571SOL     OW 2611   3.751   5.690   2.767
  571SOL    HW1 2612   3.808   5.620   2.810
  571SOL    HW2 2613   3.658   5.684   2.803
  572SOL     OW 2614   2.140   4.384   5.694
  572SOL    HW1 2615   2.204   4.405   5.620
  572SOL    HW2 2616   2.191   4.369   5.779
  573SOL     OW 2617   3.769   1.286   6.020
  573SOL    HW1 2618   3.867   1.307   6.012
  573SOL    HW2 2619   3.738   1.307   6.113
  574SOL     OW 2620   1.890   1.985   4.316
  574SOL    HW1 2621   1.822   1.921   4.281
  574SOL    HW2 2622   1.981   1.958   4.283
  575SOL     OW 2623   6.289   3.354   0.465
  575SOL    HW1 2624   6.197   3.344   0.426
  575SOL    HW2 2625   6.356   3.357   0.391
  576SOL     OW 2626   1.573   2.441   1.668
  576SOL    HW1 2627   1.525   2.435   1.756
  576SOL    HW2 2628   1.653   2.381   1.670
  577SOL     OW 2629   2.298   1.834   4.081
  577SOL    HW1 2630   2.284   1.929   4.054
  577SOL    HW2 2631   2.249   1.774   4.018
  578SOL     OW 2632   0.480   3.290   2.937
  578SOL    HW1 2633   0.535   3.372   2.924
  578SOL    HW2 2634   0.386   3.316   2.962
  579SOL     OW 2635   4.132   1.824   1.172
  579SOL    HW1 2636   4.169   1.802   1.262
  579SOL    HW2 2637   4.074   1.748   1.141
  580SOL     OW 2638   1.147   5.015   6.457
  580SOL    HW1 2639   1.214   5.077   6.418
  580SOL    HW2 2640   1.061   5.064   6.473
  581SOL     OW 2641   3.574   3.145   3.224
  581SOL    HW1 2642   3.562   3.200   3.141
  581SOL    HW2 2643   3.500   3.079   3.231
  582SOL     OW 2644   5.876   4.019   2.579
  582SOL    HW1 2645   5.904   3.954   2.509
  582SOL    HW2 2646   5.867   3.972   2.667
  583SOL     OW 2647   2.670   4.843   0.062
  583SOL    HW1 2648   2.586   4.788   0.056
  583SOL    HW2 2649   2.734   4.798   0.124
  584SOL     OW 2650   0.405   4.876   5.109
  584SOL    HW1 2651   0.452   4.860   5.196
  584SOL    HW2 2652   0.364   4.790   5.078
  585SOL     OW 2653   0.327   2.435   5.562
  585SOL    HW1 2654   0.361   2.350   5.602
  585SOL    HW2 2655   0.389   2.466   5.490
  586SOL     OW 2656   2.601   6.908   0.355
  586SOL    HW1 2657   2.625   6.923   0.451
  586SOL    HW2 2658   2.506   6.878   0.349
  587SOL     OW 2659   1.542   2.751   5.582
  587SOL    HW1 2660   1.480   2.761   5.660
  587SOL    HW2 2661   1.530   2.660   5.542
  588SOL     OW 2662   3.903   0.100   1.699
  588SOL    HW1 2663   3.807   0.073   1.708
  588SOL    HW2 2664   3.908   0.190   1.655
  589SOL     OW 2665   3.684   5.099   2.052
  589SOL    HW1 2666   3.737   5.169   2.003
  589SOL    HW2 2667   3.599   5.082   2.003
  590SOL     OW 2668   6.841   2.851   2.297
  590SOL    HW1 2669   6.761   2.894   2.256
  590SOL    HW2 2670   6.920   2.911   2.287
  591SOL     OW 2671   3.972   0.286   4.017
  591SOL    HW1 2672   4.066   0.255   4.036
  591SOL    HW2 2673   3.945   0.255   3.926
  592SOL     OW 2674   4.936   0.885   0.521
  592SOL    HW1 2675   4.945   0.804   0.580
  592SOL    HW2 2676   5.027   0.912   0.489
  593SOL     OW 2677   4.463   2.451   4.265
  593SOL    HW1 2678   4.435   2.417   4.174
  593SOL    HW2 2679   4.510   2.538   4.255
  594SOL     OW 2680   4.164   3.985   6.933
  594SOL    HW1 2681   4.092   4.004   6.867
  594SOL    HW2 2682   4.166   3.887   6.953
  595SOL     OW 2683   3.860   6.473   4.344
  595SOL    HW1 2684   3.781   6.433   4.296
  595SOL    HW2 2685   3.913   6.401   4.388
  596SOL     OW 2686   0.867   4.087   2.601
  596SOL    HW1 2687   0.804   4.144   2.652
  596SOL    HW2 2688   0.956   4.085   2.647
  597SOL     OW 2689   3.942   0.241   0.098
  597SOL    HW1 2690   4.018   0.244   0.162
  597SOL    HW2 2691   3.974   0.266   0.007
  598SOL     OW 2692   4.205   4.723   0.450
  598SOL    HW1 2693   4.134   4.786   0.421
  598SOL    HW2 2694   4.165   4.649   0.504
  599SOL     OW 2695   0.093   0.335   3.122
  599SOL    HW1 2696   0.051   0.415   3.166
  599SOL    HW2 2697   0.036   0.254   3.139
  600SOL     OW 2698   0.998   6.967   0.633
  600SOL    HW1 2699   0.980   6.986   0.730
  600SOL    HW2 2700   0.919   6.921   0.593
  601SOL     OW 2701   2.565   5.818   3.023
  601SOL    HW1 2702   2.647   5.794   3.074
  601SOL    HW2 2703   2.498   5.858   3.086
  602SOL     OW 2704   1.283   0.111   0.883
  602SOL    HW1 2705   1.266   0.202   0.845
  602SOL    HW2 2706   1.198   0.075   0.921
  603SOL     OW 2707   4.068   1.879   3.422
  603SOL    HW1 2708   4.077   1.887   3.322
  603SOL    HW2 2709   4.039   1.967   3.459
  604SOL     OW 2710   1.278   3.527   6.349
  604SOL    HW1 2711   1.366   3.489   6.376
  604SOL    HW2 2712   1.224   3.456   6.303
  605SOL     OW 2713   6.878   5.824   3.349
  605SOL    HW1 2714   6.887   5.761   3.271
  605SOL    HW2 2715   6.943   5.899   3.338
  606SOL     OW 2716   3.916   0.150   4.569
  606SOL    HW1 2717   3.938   0.176   4.476
  606SOL    HW2 2718   4.000   0.125   4.618
  607SOL     OW 2719   5.039   1.658   4.235
  607SOL    HW1 2720   5.067   1.683   4.328
  607SOL    HW2 2721   4.939   1.666   4.227
  608SOL     OW 2722   3.186   0.608   0.120
  608SOL    HW1 2723   3.270   0.620   0.068
  608SOL    HW2 2724   3.112   0.579   0.059
  609SOL     OW 2725   3.641   2.874   3.886
  609SOL    HW1 2726   3.616   2.900   3.979
  609SOL    HW2 2727   3.622   2.777   3.872
  610SOL     OW 2728   5.218   2.189   3.933
  610SOL    HW1 2729   5.228   2.244   3.850
  610SOL    HW2 2730   5.174   2.102   3.910
  611SOL     OW 2731   0.643   0.429   0.051
  611SOL    HW1 2732   0.687   0.481   0.125
  611SOL    HW2 2733   0.564   0.480   0.017
  612SOL     OW 2734   3.317   5.460   6.323
  612SOL    HW1 2735   3.345   5.475   6.228
  612SOL    HW2 2736   3.296   5.548   6.365
  613SOL     OW 2737   4.201   1.586   6.114
  613SOL    HW1 2738   4.178   1.532   6.195
  613SOL    HW2 2739   4.142   1.557   6.038
  614SOL     OW 2740   6.439   4.943   0.522
  614SOL    HW1 2741   6.500   4.993   0.584
  614SOL    HW2 2742   6.388   5.009   0.466
  615SOL     OW 2743   0.700   0.048   0.395
  615SOL    HW1 2744   0.639   7.008   0.343
  615SOL    HW2 2745   0.757   0.100   0.332
  616SOL     OW 2746   5.684   1.727   4.555
  616SOL    HW1 2747   5.601   1.710   4.502
  616SOL    HW2 2748   5.730   1.808   4.520
  617SOL     OW 2749   0.189   4.900   5.437
  617SOL    HW1 2750   0.109   4.863   5.484
  617SOL    HW2 2751   0.160   4.940   5.350
  618SOL     OW 2752   5.717   3.868   0.820
  618SOL    HW1 2753   5.713   3.967   0.802
  618SOL    HW2 2754   5.812   3.839   0.824
  619SOL     OW 2755   3.223   0.460   0.349
  619SOL    HW1 2756   3.243   0.517   0.269
  619SOL    HW2 2757   3.280   0.487   0.426
  620SOL     OW 2758   5.312   3.204   2.118
  620SOL    HW1 2759   5.309   3.269   2.194
  620SOL    HW2 2760   5.311   3.255   2.031
  621SOL     OW 2761   2.463   0.563   6.618
  621SOL    HW1 2762   2.426   0.633   6.679
  621SOL    HW2 2763   2.412   0.478   6.629
  622SOL     OW 2764   1.075   2.182   5.533
  622SOL    HW1 2765   1.125   2.100   5.561
  622SOL    HW2 2766   1.094   2.201   5.437
  623SOL     OW 2767   6.389   6.864   4.175
  623SOL    HW1 2768   6.460   6.795   4.188
  623SOL    HW2 2769   6.380   6.919   4.258
  624SOL     OW 2770   6.419   1.270   0.074
  624SOL    HW1 2771   6.420   1.209   0.154
  624SOL    HW2 2772   6.433   1.216   7.012
  625SOL     OW 2773   2.669   1.070   0.292
  625SOL    HW1 2774   2.679   1.143   0.224
  625SOL    HW2 2775   2.695   0.983   0.251
  626SOL     OW 2776   1.164   5.587   3.713
  626SOL    HW1 2777   1.129   5.681   3.719
  626SOL    HW2 2778   1.194   5.570   3.619
  627SOL     OW 2779   6.366   6.978   0.104
  627SOL    HW1 2780   6.411   7.007   0.188
  627SOL    HW2 2781   6.286   0.015   0.088
  628SOL     OW 2782   5.174   4.231   5.500
  628SOL    HW1 2783   5.265   4.233   5.459
  628SOL    HW2 2784   5.158   4.317   5.549
  629SOL     OW 2785   6.786   0.702   0.305
  629SOL    HW1 2786   6.809   0.733   0.213
  629SOL    HW2 2787   6.771   0.603   0.304
  630SOL     OW 2788   7.016   1.543   1.332
  630SOL    HW1 2789   6.941   1.607   1.345
  630SOL    HW2 2790   0.081   1.593   1.321
  631SOL     OW 2791   2.347   2.785   4.852
  631SOL    HW1 2792   2.285   2.777   4.773
  631SOL    HW2 2793   2.369   2.882   4.867
  632SOL     OW 2794   4.144   3.337   0.231
  632SOL    HW1 2795   4.066   3.350   0.170
  632SOL    HW2 2796   4.221   3.393   0.200
  633SOL     OW 2797   1.513   5.474   1.431
  633SOL    HW1 2798   1.529   5.376   1.424
  633SOL    HW2 2799   1.575   5.522   1.369
  634SOL     OW 2800   3.107   3.346   4.105
  634SOL    HW1 2801   3.067   3.434   4.129
  634SOL    HW2 2802   3.179   3.359   4.037
  635SOL     OW 2803   5.538   1.008   6.580
  635SOL    HW1 2804   5.596   0.981   6.657
  635SOL    HW2 2805   5.565   1.100   6.549
  636SOL     OW 2806   3.288   0.192   6.453
  636SOL    HW1 2807   3.294   0.284   6.491
  636SOL    HW2 2808   3.210   0.186   6.391
  637SOL     OW 2809   6.842   1.277   1.675
  637SOL    HW1 2810   6.803   1.202   1.729
  637SOL    HW2 2811   6.817   1.265   1.579
  638SOL     OW 2812   5.979   3.626   4.056
  638SOL    HW1 2813   5.887   3.663   4.069
  638SOL    HW2 2814   5.998   3.558   4.127
  639SOL     OW 2815   5.202   5.151   3.417
  639SOL    HW1 2816   5.251   5.211   3.479
  639SOL    HW2 2817   5.143   5.089   3.469
  640SOL     OW 2818   0.388   2.835   2.668
  640SOL    HW1 2819   0.298   2.815   2.630
  640SOL    HW2 2820   0.395   2.933   2.689
  641SOL     OW 2821   1.947   4.598   5.159
  641SOL    HW1 2822   2.000   4.573   5.078
  641SOL    HW2 2823   1.900   4.518   5.195
  642SOL     OW 2824   0.822   3.635   4.646
  642SOL    HW1 2825   0.832   3.544   4.604
  642SOL    HW2 2826   0.886   3.642   4.723
  643SOL     OW 2827   4.471   6.041   6.578
  643SOL    HW1 2828   4.394   5.986   6.545
  643SOL    HW2 2829   4.546   6.038   6.513
  644SOL     OW 2830   6.917   7.006   4.805
  644SOL    HW1 2831   6.862   0.033   4.873
  644SOL    HW2 2832   6.887   0.012   4.713
  645SOL     OW 2833   3.566   4.915   2.697
  645SOL    HW1 2834   3.621   4.886   2.775
  645SOL    HW2 2835   3.471   4.885   2.710
  646SOL     OW 2836   3.906   0.940   5.185
  646SOL    HW1 2837   3.888   0.846   5.212
  646SOL    HW2 2838   3.846   0.966   5.110
  647SOL     OW 2839   4.952   1.845   4.748
  647SOL    HW1 2840   4.898   1.760   4.756
  647SOL    HW2 2841   4.894   1.923   4.769
  648SOL     OW 2842   6.191   1.903   2.681
  648SOL    HW1 2843   6.205   1.996   2.646
  648SOL    HW2 2844   6.112   1.902   2.741
  649SOL     OW 2845   2.785   4.926   0.438
  649SOL    HW1 2846   2.780   5.018   0.399
  649SOL    HW2 2847   2.716   4.918   0.511
  650SOL     OW 2848   6.746   5.737   0.781
  650SOL    HW1 2849   6.809   5.753   0.704
  650SOL    HW2 2850   6.761   5.645   0.817
  651SOL     OW 2851   1.460   0.337   5.708
  651SOL    HW1 2852   1.528   0.408   5.725
  651SOL    HW2 2853   1.396   0.334   5.785
  652SOL     OW 2854   4.387   0.684   2.259
  652SOL    HW1 2855   4.423   0.718   2.172
  652SOL    HW2 2856   4.332   0.755   2.303
  653SOL     OW 2857   0.019   6.916   1.209
  653SOL    HW1 2858   7.008   6.828   1.244
  653SOL    HW2 2859   7.009   6.989   1.270
  654SOL     OW 2860   6.697   6.618   5.767
  654SOL    HW1 2861   6.688   6.528   5.811
  654SOL    HW2 2862   6.675   6.610   5.670
  655SOL     OW 2863   6.991   5.096   1.820
  655SOL    HW1 2864   6.904   5.118   1.864
  655SOL    HW2 2865   0.022   5.180   1.803
  656SOL     OW 2866   3.152   6.515   0.833
  656SOL    HW1 2867   3.201   6.529   0.747
  656SOL    HW2 2868   3.079   6.448   0.819
  657SOL     OW 2869   3.451   2.829   1.894
  657SOL    HW1 2870   3.447   2.735   1.930
  657SOL    HW2 2871   3.452   2.826   1.794
  658SOL     OW 2872   1.895   4.593   4.449
  658SOL    HW1 2873   1.877   4.653   4.371
  658SOL    HW2 2874   1.836   4.512   4.444
  659SOL     OW 2875   3.372   6.338   6.140
  659SOL    HW1 2876   3.335   6.276   6.209
  659SOL    HW2 2877   3.471   6.338   6.145
  660SOL     OW 2878   4.928   4.564   2.346
  660SOL    HW1 2879   4.843   4.563   2.399
  660SOL    HW2 2880   4.943   4.474   2.305
  661SOL     OW 2881   4.824   4.893   4.030
  661SOL    HW1 2882   4.891   4.832   3.988
  661SOL    HW2 2883   4.865   4.938   4.109
  662SOL     OW 2884   5.023   3.026   0.328
  662SOL    HW1 2885   4.940   2.977   0.300
  662SOL    HW2 2886   4.997   3.108   0.380
  663SOL     OW 2887   0.063   4.371   0.100
  663SOL    HW1 2888   0.094   4.465   0.110
  663SOL    HW2 2889   0.001   4.364   0.022
  664SOL     OW 2890   1.463   5.986   6.318
  664SOL    HW1 2891   1.430   5.976   6.223
  664SOL    HW2 2892   1.509   5.902   6.346
  665SOL     OW 2893   4.137   5.375   1.251
  665SOL    HW1 2894   4.069   5.442   1.282
  665SOL    HW2 2895   4.090   5.293   1.219
  666SOL     OW 2896   4.086   1.420   0.096
  666SOL    HW1 2897   4.178   1.441   0.064
  666SOL    HW2 2898   4.047   1.500   0.141
  667SOL     OW 2899   0.527   3.646   3.341
  667SOL    HW1 2900   0.428   3.653   3.338
  667SOL    HW2 2901   0.555   3.554   3.311
  668SOL     OW 2902   5.026   6.847   6.998
  668SOL    HW1 2903   5.081   6.766   7.019
  668SOL    HW2 2904   5.051   6.882   6.908
  669SOL     OW 2905   0.796   6.699   3.642
  669SOL    HW1 2906   0.707   6.674   3.681
  669SOL    HW2 2907   0.836   6.772   3.697
  670SOL     OW 2908   3.254   3.516   3.326
  670SOL    HW1 2909   3.280   3.612   3.337
  670SOL    HW2 2910   3.157   3.505   3.347
  671SOL     OW 2911   1.766   6.687   6.063
  671SOL    HW1 2912   1.735   6.665   5.971
  671SOL    HW2 2913   1.729   6.776   6.090
  672SOL     OW 2914   1.396   3.403   4.372
  672SOL    HW1 2915   1.440   3.314   4.359
  672SOL    HW2 2916   1.315   3.392   4.430
  673SOL     OW 2917   5.131   0.879   0.108
  673SOL    HW1 2918   5.060   0.809   0.113
  673SOL    HW2 2919   5.178   0.873   0.019
  674SOL     OW 2920   0.629   2.503   3.391
  674SOL    HW1 2921   0.686   2.486   3.472
  674SOL    HW2 2922   0.601   2.416   3.351
  675SOL     OW 2923   0.466   2.210   4.644
  675SOL    HW1 2924   0.504   2.274   4.577
  675SOL    HW2 2925   0.539   2.155   4.684
  676SOL     OW 2926   2.563   4.705   4.466
  676SOL    HW1 2927   2.535   4.785   4.413
  676SOL    HW2 2928   2.537   4.622   4.418
  677SOL     OW 2929   6.225   0.776   0.841
  677SOL    HW1 2930   6.169   0.854   0.868
  677SOL    HW2 2931   6.197   0.743   0.751
  678SOL     OW 2932   2.405   0.560   6.116
  678SOL    HW1 2933   2.466   0.625   6.161
  678SOL    HW2 2934   2.324   0.546   6.173
  679SOL     OW 2935   3.814   0.275   2.957
  679SOL    HW1 2936   3.811   0.257   2.859
  679SOL    HW2 2937   3.870   0.356   2.974
  680SOL     OW 2938   4.882   3.768   5.686
  680SOL    HW1 2939   4.815   3.696   5.667
  680SOL    HW2 2940   4.943   3.777   5.607
  681SOL     OW 2941   0.183   6.621   1.316
  681SOL    HW1 2942   0.219   6.542   1.265
  681SOL    HW2 2943   0.086   6.631   1.296
  682SOL     OW 2944   1.697   5.968   0.165
  682SOL    HW1 2945   1.769   5.932   0.106
  682SOL    HW2 2946   1.738   6.003   0.249
  683SOL     OW 2947   3.984   1.154   6.394
  683SOL    HW1 2948   3.894   1.123   6.363
  683SOL    HW2 2949   3.975   1.193   6.486
  684SOL     OW 2950   0.408   6.898   6.002
  684SOL    HW1 2951   0.504   6.877   5.983
  684SOL    HW2 2952   0.349   6.845   5.941
  685SOL     OW 2953   4.860   0.151   6.404
  685SOL    HW1 2954   4.925   0.165   6.330
  685SOL    HW2 2955   4.772   0.191   6.378
  686SOL     OW 2956   5.446   3.364   3.095
  686SOL    HW1 2957   5.398   3.439   3.142
  686SOL    HW2 2958   5.379   3.307   3.047
  687SOL     OW 2959   6.726   2.976   5.806
  687SOL    HW1 2960   6.702   3.073   5.801
  687SOL    HW2 2961   6.813   2.966   5.856
  688SOL     OW 2962   1.425   4.220   6.645
  688SOL    HW1 2963   1.358   4.238   6.572
  688SOL    HW2 2964   1.453   4.307   6.686
  689SOL     OW 2965   6.906   3.924   6.097
  689SOL    HW1 2966   6.917   3.849   6.162
  689SOL    HW2 2967   6.818   3.916   6.051
  690SOL     OW 2968   1.642   1.949   3.738
  690SOL    HW1 2969   1.595   1.944   3.826
  690SOL    HW2 2970   1.738   1.974   3.753
  691SOL     OW 2971   0.968   2.308   6.338
  691SOL    HW1 2972   0.964   2.390   6.394
  691SOL    HW2 2973   1.039   2.319   6.269
  692SOL     OW 2974   2.411   0.328   2.874
  692SOL    HW1 2975   2.389   0.264   2.800
  692SOL    HW2 2976   2.439   0.416   2.834
  693SOL     OW 2977   6.742   2.544   2.360
  693SOL    HW1 2978   6.807   2.561   2.435
  693SOL    HW2 2979   6.649   2.562   2.393
  694SOL     OW 2980   2.517   5.844   1.200
  694SOL    HW1 2981   2.436   5.798   1.163
  694SOL    HW2 2982   2.492   5.935   1.232
  695SOL     OW 2983   4.903   5.295   5.115
  695SOL    HW1 2984   4.935   5.302   5.210
  695SOL    HW2 2985   4.823   5.235   5.111
  696SOL     OW 2986   4.056   4.888   2.577
  696SOL    HW1 2987   4.052   4.841   2.665
  696SOL    HW2 2988   4.111   4.971   2.586
  697SOL     OW 2989   0.770   3.379   4.571
  697SOL    HW1 2990   0.782   3.308   4.641
  697SOL    HW2 2991   0.672   3.395   4.556
  698SOL     OW 2992   4.217   0.481   3.862
  698SOL    HW1 2993   4.123   0.509   3.843
  698SOL    HW2 2994   4.268   0.477   3.776
  699SOL     OW 2995   1.235   4.134   1.208
  699SOL    HW1 2996   1.189   4.062   1.156
  699SOL    HW2 2997   1.280   4.198   1.145
  700SOL     OW 2998   2.576   2.527   4.313
  700SOL    HW1 2999   2.550   2.571   4.228
  700SOL    HW2 3000   2.671   2.496   4.307
  701SOL     OW 3001   0.474   4.478   6.795
  701SOL    HW1 3002   0.397   4.531   6.831
  701SOL    HW2 3003   0.515   4.424   6.869
  702SOL     OW 3004   5.108   6.712   4.948
  702SOL    HW1 3005   5.196   6.704   4.996
  702SOL    HW2 3006   5.124   6.741   4.854
  703SOL     OW 3007   4.514   3.643   6.146
  703SOL    HW1 3008   4.549   3.650   6.052
  703SOL    HW2 3009   4.552   3.561   6.189
  704SOL     OW 3010   1.439   0.455   6.780
  704SOL    HW1 3011   1.484   0.393   6.716
  704SOL    HW2 3012   1.352   0.486   6.740
  705SOL     OW 3013   5.180   1.032   3.605
  705SOL    HW1 3014   5.185   1.117   3.657
  705SOL    HW2 3015   5.176   1.053   3.507
  706SOL     OW 3016   3.673   2.123   4.007
  706SOL    HW1 3017   3.626   2.163   3.929
  706SOL    HW2 3018   3.771   2.143   4.001
  707SOL     OW 3019   5.127   0.911   1.601
  707SOL    HW1 3020   5.065   0.977   1.644
  707SOL    HW2 3021   5.111   0.910   1.503
  708SOL     OW 3022   4.240   0.516   1.179
  708SOL    HW1 3023   4.216   0.429   1.222
  708SOL    HW2 3024   4.291   0.499   1.095
  709SOL     OW 3025   1.179   5.004   0.991
  709SOL    HW1 3026   1.256   5.014   0.928
  709SOL    HW2 3027   1.095   5.037   0.947
  710SOL     OW 3028   3.136   4.027   2.698
  710SOL    HW1 3029   3.105   4.044   2.604
  710SOL    HW2 3030   3.232   4.053   2.706
  711SOL     OW 3031   6.353   1.663   4.532
  711SOL    HW1 3032   6.431   1.601   4.521
  711SOL    HW2 3033   6.283   1.619   4.588
  712SOL     OW 3034   0.954   3.750   1.702
  712SOL    HW1 3035   0.919   3.779   1.791
  712SOL    HW2 3036   1.050   3.721   1.712
  713SOL     OW 3037   3.523   3.366   2.424
  713SOL    HW1 3038   3.537   3.432   2.351
  713SOL    HW2 3039   3.425   3.355   2.441
  714SOL     OW 3040   5.791   4.824   5.175
  714SOL    HW1 3041   5.840   4.848   5.259
  714SOL    HW2 3042   5.849   4.765   5.119
  715SOL     OW 3043   3.887   6.053   6.321
  715SOL    HW1 3044   3.932   6.108   6.251
  715SOL    HW2 3045   3.931   6.069   6.410
  716SOL     OW 3046   0.362   5.357   1.786
  716SOL    HW1 3047   0.313   5.336   1.870
  716SOL    HW2 3048   0.444   5.300   1.780
  717SOL     OW 3049   6.255   4.216   6.800
  717SOL    HW1 3050   6.347   4.250   6.817
  717SOL    HW2 3051   6.228   4.155   6.874
  718SOL     OW 3052   3.238   3.217   6.004
  718SOL    HW1 3053   3.225   3.200   6.102
  718SOL    HW2 3054   3.183   3.153   5.951
  719SOL     OW 3055   6.769   3.288   1.402
  719SOL    HW1 3056   6.717   3.368   1.373
  719SOL    HW2 3057   6.749   3.268   1.498
  720SOL     OW 3058   2.501   2.096   5.623
  720SOL    HW1 3059   2.510   1.998   5.603
  720SOL    HW2 3060   2.588   2.131   5.656
  721SOL     OW 3061   1.467   0.119   5.580
  721SOL    HW1 3062   1.452   0.204   5.630
  721SOL    HW2 3063   1.457   0.042   5.642
  722SOL     OW 3064   4.068   6.852   4.855
  722SOL    HW1 3065   4.166   6.871   4.862
  722SOL    HW2 3066   4.049   6.810   4.767
  723SOL     OW 3067   1.818   2.506   2.248
  723SOL    HW1 3068   1.819   2.567   2.326
  723SOL    HW2 3069   1.891   2.438   2.257
  724SOL     OW 3070   0.641   1.645   4.824
  724SOL    HW1 3071   0.575   1.572   4.806
  724SOL    HW2 3072   0.615   1.693   4.908
  725SOL     OW 3073   2.832   5.079   2.327
  725SOL    HW1 3074   2.858   5.094   2.232
  725SOL    HW2 3075   2.762   5.008   2.332
  726SOL     OW 3076   3.149   5.580   6.936
  726SOL    HW1 3077   3.244   5.592   6.965
  726SOL    HW2 3078   3.099   5.666   6.946
  727SOL     OW 3079   3.214   5.192   4.106
  727SOL    HW1 3080   3.179   5.217   4.016
  727SOL    HW2 3081   3.140   5.195   4.173
  728SOL     OW 3082   0.176   3.920   5.227
  728SOL    HW1 3083   0.266   3.910   5.270
  728SOL    HW2 3084   0.116   3.974   5.286
  729SOL     OW 3085   2.292   0.982   0.333
  729SOL    HW1 3086   2.330   0.890   0.345
  729SOL    HW2 3087   2.360   1.050   0.359
  730SOL     OW 3088   6.345   0.690   4.035
  730SOL    HW1 3089   6.340   0.677   4.134
  730SOL    HW2 3090   6.317   0.606   3.988
  731SOL     OW 3091   5.268   2.809   4.816
  731SOL    HW1 3092   5.220   2.754   4.884
  731SOL    HW2 3093   5.230   2.790   4.725
  732SOL     OW 3094   0.561   2.614   0.923
  732SOL    HW1 3095   0.659   2.631   0.933
  732SOL    HW2 3096   0.547   2.524   0.881
  733SOL     OW 3097   4.813   4.249   3.648
  733SOL    HW1 3098   4.797   4.193   3.567
  733SOL    HW2 3099   4.908   4.240   3.677
  734SOL     OW 3100   6.531   4.247   1.281
  734SOL    HW1 3101   6.507   4.341   1.254
  734SOL    HW2 3102   6.569   4.199   1.202
  735SOL     OW 3103   1.605   3.386   0.149
  735SOL    HW1 3104   1.673   3.361   0.219
  735SOL    HW2 3105   1.517   3.347   0.173
  736SOL     OW 3106   6.540   0.313   3.532
  736SOL    HW1 3107   6.508   0.219   3.530
  736SOL    HW2 3108   6.591   0.333   3.448
  737SOL     OW 3109   4.798   3.469   1.371
  737SOL    HW1 3110   4.760   3.557   1.398
  737SOL    HW2 3111   4.800   3.463   1.271
  738SOL     OW 3112   0.219   4.018   4.322
  738SOL    HW1 3113   0.189   3.991   4.414
  738SOL    HW2 3114   0.314   4.048   4.326
  739SOL     OW 3115   4.553   6.847   5.657
  739SOL    HW1 3116   4.545   6.807   5.749
  739SOL    HW2 3117   4.494   6.927   5.650
  740SOL     OW 3118   5.766   0.229   1.166
  740SOL    HW1 3119   5.695   0.279   1.116
  740SOL    HW2 3120   5.729   0.142   1.199
  741SOL     OW 3121   1.314   6.603   3.150
  741SOL    HW1 3122   1.242   6.670   3.173
  741SOL    HW2 3123   1.276   6.511   3.152
  742SOL     OW 3124   1.601   6.614   3.659
  742SOL    HW1 3125   1.690   6.638   3.622
  742SOL    HW2 3126   1.550   6.698   3.679
  743SOL     OW 3127   1.465   4.515   4.060
  743SOL    HW1 3128   1.550   4.521   4.007
  743SOL    HW2 3129   1.442   4.419   4.076
  744SOL     OW 3130   6.750   6.264   6.966
  744SOL    HW1 3131   6.659   6.224   6.963
  744SOL    HW2 3132   6.815   6.196   7.000
  745SOL     OW 3133   1.239   5.360   3.444
  745SOL    HW1 3134   1.147   5.380   3.480
  745SOL    HW2 3135   1.281   5.444   3.411
  746SOL     OW 3136   0.280   6.884   5.127
  746SOL    HW1 3137   0.349   6.883   5.055
  746SOL    HW2 3138   0.193   6.852   5.090
  747SOL     OW 3139   4.560   4.922   3.353
  747SOL    HW1 3140   4.612   4.956   3.431
  747SOL    HW2 3141   4.482   4.982   3.336
  748SOL     OW 3142   4.762   4.230   0.506
  748SOL    HW1 3143   4.835   4.214   0.572
  748SOL    HW2 3144   4.744   4.328   0.500
  749SOL     OW 3145   0.251   2.314   5.002
  749SOL    HW1 3146   0.227   2.248   5.072
  749SOL    HW2 3147   0.349   2.306   4.981
  750SOL     OW 3148   2.704   2.885   0.739
  750SOL    HW1 3149   2.725   2.972   0.694
  750SOL    HW2 3150   2.706   2.897   0.838
  751SOL     OW 3151   4.533   0.977   0.680
  751SOL    HW1 3152   4.532   1.072   0.646
  751SOL    HW2 3153   4.440   0.941   0.679
  752SOL     OW 3154   4.237   2.244   2.015
  752SOL    HW1 3155   4.159   2.195   2.055
  752SOL    HW2 3156   4.203   2.314   1.952
  753SOL     OW 3157   1.925   3.669   4.991
  753SOL    HW1 3158   1.997   3.657   5.059
  753SOL    HW2 3159   1.836   3.650   5.033
  754SOL     OW 3160   4.992   4.160   6.810
  754SOL    HW1 3161   5.073   4.112   6.777
  754SOL    HW2 3162   4.960   4.222   6.738
  755SOL     OW 3163   0.554   5.713   6.899
  755SOL    HW1 3164   0.537   5.796   6.846
  755SOL    HW2 3165   0.653   5.703   6.915
  756SOL     OW 3166   5.133   0.552   2.175
  756SOL    HW1 3167   5.205   0.586   2.235
  756SOL    HW2 3168   5.072   0.491   2.227
  757SOL     OW 3169   0.241   6.463   4.046
  757SOL    HW1 3170   0.337   6.441   4.067
  757SOL    HW2 3171   0.217   6.426   3.956
  758SOL     OW 3172   3.692   2.362   1.429
  758SOL    HW1 3173   3.596   2.373   1.406
  758SOL    HW2 3174   3.709   2.401   1.520
  759SOL     OW 3175   1.142   1.614   0.138
  759SOL    HW1 3176   1.210   1.562   0.087
  759SOL    HW2 3177   1.061   1.627   0.081
  760SOL     OW 3178   5.017   1.603   6.940
  760SOL    HW1 3179   5.002   1.527   7.003
  760SOL    HW2 3180   5.010   1.690   6.989
  761SOL     OW 3181   5.931   3.058   0.213
  761SOL    HW1 3182   5.840   3.033   0.181
  761SOL    HW2 3183   6.000   3.018   0.152
  762SOL     OW 3184   2.473   5.960   3.669
  762SOL    HW1 3185   2.421   5.981   3.586
  762SOL    HW2 3186   2.506   6.046   3.710
  763SOL     OW 3187   4.190   5.957   6.988
  763SOL    HW1 3188   4.251   5.998   6.921
  763SOL    HW2 3189   4.237   5.882   0.014
  764SOL     OW 3190   3.276   1.555   2.938
  764SOL    HW1 3191   3.184   1.518   2.951
  764SOL    HW2 3192   3.298   1.615   3.015
  765SOL     OW 3193   1.026   6.422   2.219
  765SOL    HW1 3194   0.988   6.361   2.289
  765SOL    HW2 3195   0.956   6.445   2.152
  766SOL     OW 3196   7.003   0.415   6.777
  766SOL    HW1 3197   6.987   0.323   6.811
  766SOL    HW2 3198   7.002   0.414   6.677
  767SOL     OW 3199   0.296   6.431   2.358
  767SOL    HW1 3200   0.295   6.438   2.258
  767SOL    HW2 3201   0.203   6.437   2.392
  768SOL     OW 3202   2.459   0.331   2.452
  768SOL    HW1 3203   2.541   0.306   2.504
  768SOL    HW2 3204   2.433   0.254   2.393
  769SOL     OW 3205   3.917   0.131   5.261
  769SOL    HW1 3206   3.875   0.176   5.339
  769SOL    HW2 3207   3.846   0.090   5.204
  770SOL     OW 3208   3.013   5.569   3.580
  770SOL    HW1 3209   2.916   5.563   3.556
  770SOL    HW2 3210   3.062   5.620   3.509
  771SOL     OW 3211   1.992   5.681   2.764
  771SOL    HW1 3212   1.949   5.741   2.831
  771SOL    HW2 3213   2.079   5.646   2.800
  772SOL     OW 3214   0.305   4.153   0.388
  772SOL    HW1 3215   0.308   4.134   0.290
  772SOL    HW2 3216   0.232   4.219   0.407
  773SOL     OW 3217   6.848   2.997   3.362
  773SOL    HW1 3218   6.926   2.952   3.405
  773SOL    HW2 3219   6.827   2.950   3.276
  774SOL     OW 3220   1.958   1.971   1.736
  774SOL    HW1 3221   1.894   1.991   1.810
  774SOL    HW2 3222   2.035   1.919   1.773
  775SOL     OW 3223   0.970   2.044   3.873
  775SOL    HW1 3224   0.934   2.041   3.966
  775SOL    HW2 3225   1.062   2.082   3.874
  776SOL     OW 3226   1.632   6.581   5.794
  776SOL    HW1 3227   1.675   6.587   5.704
  776SOL    HW2 3228   1.624   6.484   5.820
  777SOL     OW 3229   4.194   0.939   1.355
  777SOL    HW1 3230   4.270   0.970   1.299
  777SOL    HW2 3231   4.161   1.015   1.411
  778SOL     OW 3232   4.043   0.906   3.666
  778SOL    HW1 3233   3.965   0.920   3.726
  778SOL    HW2 3234   4.119   0.964   3.694
  779SOL     OW 3235   0.877   1.954   2.085
  779SOL    HW1 3236   0.785   1.975   2.117
  779SOL    HW2 3237   0.886   1.983   1.989
  780SOL     OW 3238   6.298   2.707   4.373
  780SOL    HW1 3239   6.256   2.773   4.434
  780SOL    HW2 3240   6.386   2.741   4.341
  781SOL     OW 3241   6.214   1.411   6.395
  781SOL    HW1 3242   6.155   1.376   6.323
  781SOL    HW2 3243   6.261   1.493   6.363
  782SOL     OW 3244   0.879   3.358   1.095
  782SOL    HW1 3245   0.934   3.358   1.011
  782SOL    HW2 3246   0.787   3.324   1.074
  783SOL     OW 3247   2.743   5.569   0.252
  783SOL    HW1 3248   2.705   5.489   0.206
  783SOL    HW2 3249   2.697   5.581   0.340
  784SOL     OW 3250   4.127   0.677   5.455
  784SOL    HW1 3251   4.182   0.696   5.536
  784SOL    HW2 3252   4.155   0.591   5.414
  785SOL     OW 3253   6.369   1.937   2.408
  785SOL    HW1 3254   6.317   2.019   2.433
  785SOL    HW2 3255   6.447   1.963   2.350
  786SOL     OW 3256   0.053   0.501   0.432
  786SOL    HW1 3257   0.130   0.516   0.370
  786SOL    HW2 3258   7.006   0.442   0.388
  787SOL     OW 3259   2.390   1.009   5.992
  787SOL    HW1 3260   2.332   0.971   6.064
  787SOL    HW2 3261   2.486   0.995   6.016
  788SOL     OW 3262   2.092   3.533   4.583
  788SOL    HW1 3263   2.001   3.542   4.542
  788SOL    HW2 3264   2.126   3.440   4.568
  789SOL     OW 3265   6.037   4.160   1.831
  789SOL    HW1 3266   6.122   4.161   1.778
  789SOL    HW2 3267   5.960   4.184   1.770
  790SOL     OW 3268   2.190   1.194   4.294
  790SOL    HW1 3269   2.204   1.189   4.195
  790SOL    HW2 3270   2.110   1.252   4.313
  791SOL     OW 3271   3.670   0.348   3.828
  791SOL    HW1 3272   3.654   0.446   3.839
  791SOL    HW2 3273   3.753   0.334   3.774
  792SOL     OW 3274   6.442   0.584   2.543
  792SOL    HW1 3275   6.515   0.568   2.609
  792SOL    HW2 3276   6.473   0.648   2.473
  793SOL     OW 3277   4.904   6.327   1.630
  793SOL    HW1 3278   4.923   6.417   1.592
  793SOL    HW2 3279   4.990   6.287   1.663
  794SOL     OW 3280   2.660   4.807   5.452
  794SOL    HW1 3281   2.726   4.738   5.422
  794SOL    HW2 3282   2.606   4.770   5.528
  795SOL     OW 3283   3.601   4.970   6.068
  795SOL    HW1 3284   3.699   4.985   6.077
  795SOL    HW2 3285   3.579   4.943   5.974
  796SOL     OW 3286   0.163   2.270   5.331
  796SOL    HW1 3287   0.153   2.262   5.430
  796SOL    HW2 3288   0.155   2.366   5.305
  797SOL     OW 3289   5.464   1.971   3.204
  797SOL    HW1 3290   5.431   2.057   3.166
  797SOL    HW2 3291   5.429   1.895   3.149
  798SOL     OW 3292   4.784   0.493   0.471
  798SOL    HW1 3293   4.806   0.411   0.523
  798SOL    HW2 3294   4.691   0.521   0.492
  799SOL     OW 3295   6.271   2.090   3.397
  799SOL    HW1 3296   6.253   2.062   3.302
  799SOL    HW2 3297   6.259   2.011   3.457
  800SOL     OW 3298   5.329   0.613   2.344
  800SOL    HW1 3299   5.383   0.687   2.305
  800SOL    HW2 3300   5.383   0.529   2.347
  801SOL     OW 3301   1.101   2.900   3.041
  801SOL    HW1 3302   1.052   2.969   3.095
  801SOL    HW2 3303   1.040   2.824   3.020
  802SOL     OW 3304   5.339   1.590   0.174
  802SOL    HW1 3305   5.411   1.597   0.243
  802SOL    HW2 3306   5.260   1.645   0.203
  803SOL     OW 3307   6.085   5.809   4.207
  803SOL    HW1 3308   5.990   5.776   4.200
  803SOL    HW2 3309   6.105   5.869   4.130
  804SOL     OW 3310   0.080   6.856   0.109
  804SOL    HW1 3311   0.085   6.812   0.199
  804SOL    HW2 3312   7.011   6.899   0.099
  805SOL     OW 3313   4.113   2.817   5.720
  805SOL    HW1 3314   4.036   2.881   5.727
  805SOL    HW2 3315   4.084   2.727   5.753
  806SOL     OW 3316   4.424   1.317   6.102
  806SOL    HW1 3317   4.458   1.282   6.190
  806SOL    HW2 3318   4.422   1.417   6.104
  807SOL     OW 3319   0.835   0.553   3.596
  807SOL    HW1 3320   0.861   0.647   3.572
  807SOL    HW2 3321   0.802   0.506   3.514
  808SOL     OW 3322   5.565   2.888   5.848
  808SOL    HW1 3323   5.532   2.979   5.821
  808SOL    HW2 3324   5.573   2.884   5.948
  809SOL     OW 3325   1.170   4.838   1.437
  809SOL    HW1 3326   1.217   4.755   1.468
  809SOL    HW2 3327   1.205   4.917   1.487
  810SOL     OW 3328   4.549   3.747   1.153
  810SOL    HW1 3329   4.611   3.738   1.232
  810SOL    HW2 3330   4.463   3.699   1.172
  811SOL     OW 3331   5.112   5.805   3.178
  811SOL    HW1 3332   5.187   5.792   3.243
  811SOL    HW2 3333   5.026   5.774   3.219
  812SOL     OW 3334   0.094   0.561   1.556
  812SOL    HW1 3335   0.101   0.661   1.551
  812SOL    HW2 3336   0.093   0.523   1.464
  813SOL     OW 3337   4.203   6.144   3.439
  813SOL    HW1 3338   4.181   6.134   3.342
  813SOL    HW2 3339   4.152   6.221   3.477
  814SOL     OW 3340   5.235   6.636   2.719
  814SOL    HW1 3341   5.196   6.544   2.712
  814SOL    HW2 3342   5.322   6.632   2.768
  815SOL     OW 3343   5.767   2.630   1.740
  815SOL    HW1 3344   5.696   2.559   1.742
  815SOL    HW2 3345   5.850   2.595   1.784
  816SOL     OW 3346   6.766   6.581   0.629
  816SOL    HW1 3347   6.707   6.575   0.548
  816SOL    HW2 3348   6.831   6.506   0.629
  817SOL     OW 3349   1.747   3.871   1.862
  817SOL    HW1 3350   1.828   3.924   1.836
  817SOL    HW2 3351   1.766   3.819   1.945
  818SOL     OW 3352   5.949   2.081   0.942
  818SOL    HW1 3353   5.950   2.126   1.032
  818SOL    HW2 3354   5.897   2.137   0.877
  819SOL     OW 3355   6.693   2.557   4.459
  819SOL    HW1 3356   6.761   2.608   4.512
  819SOL    HW2 3357   6.737   2.479   4.414
  820SOL     OW 3358   1.250   2.937   4.874
  820SOL    HW1 3359   1.158   2.899   4.880
  820SOL    HW2 3360   1.279   2.939   4.778
  821SOL     OW 3361   1.610   4.318   0.883
  821SOL    HW1 3362   1.521   4.273   0.876
  821SOL    HW2 3363   1.602   4.414   0.857
  822SOL     OW 3364   0.610   4.090   4.900
  822SOL    HW1 3365   0.710   4.079   4.898
  822SOL    HW2 3366   0.576   4.064   4.991
  823SOL     OW 3367   5.354   4.114   5.836
  823SOL    HW1 3368   5.344   4.205   5.795
  823SOL    HW2 3369   5.265   4.070   5.843
  824SOL     OW 3370   4.715   1.748   5.067
  824SOL    HW1 3371   4.773   1.677   5.025
  824SOL    HW2 3372   4.698   1.820   5.001
  825SOL     OW 3373   2.122   3.456   2.275
  825SOL    HW1 3374   2.166   3.524   2.333
  825SOL    HW2 3375   2.168   3.452   2.186
  826SOL     OW 3376   5.762   3.324   0.445
  826SOL    HW1 3377   5.855   3.315   0.410
  826SOL    HW2 3378   5.749   3.261   0.522
  827SOL     OW 3379   2.947   5.235   6.501
  827SOL    HW1 3380   2.911   5.167   6.565
  827SOL    HW2 3381   3.000   5.303   6.551
  828SOL     OW 3382   6.242   0.975   5.171
  828SOL    HW1 3383   6.162   0.935   5.127
  828SOL    HW2 3384   6.293   1.030   5.104
  829SOL     OW 3385   2.958   3.330   3.855
  829SOL    HW1 3386   2.934   3.239   3.823
  829SOL    HW2 3387   3.010   3.324   3.940
  830SOL     OW 3388   4.672   4.623   6.057
  830SOL    HW1 3389   4.625   4.565   5.990
  830SOL    HW2 3390   4.628   4.712   6.061
  831SOL     OW 3391   6.185   0.236   4.598
  831SOL    HW1 3392   6.246   0.174   4.648
  831SOL    HW2 3393   6.184   0.211   4.501
  832SOL     OW 3394   2.838   1.645   0.098
  832SOL    HW1 3395   2.917   1.587   0.079
  832SOL    HW2 3396   2.768   1.629   0.028
  833SOL     OW 3397   6.160   6.643   6.479
  833SOL    HW1 3398   6.133   6.611   6.388
  833SOL    HW2 3399   6.249   6.604   6.503
  834SOL     OW 3400   3.404   3.270   3.695
  834SOL    HW1 3401   3.496   3.242   3.722
  834SOL    HW2 3402   3.396   3.263   3.595
  835SOL     OW 3403   3.860   6.926   4.014
  835SOL    HW1 3404   3.825   6.856   4.076
  835SOL    HW2 3405   3.943   6.966   4.053
  836SOL     OW 3406   3.442   6.662   6.925
  836SOL    HW1 3407   3.360   6.648   6.981
  836SOL    HW2 3408   3.514   6.703   6.980
  837SOL     OW 3409   5.543   0.290   6.799
  837SOL    HW1 3410   5.587   0.352   6.864
  837SOL    HW2 3411   5.444   0.292   6.813
  838SOL     OW 3412   1.309   6.155   4.807
  838SOL    HW1 3413   1.392   6.101   4.821
  838SOL    HW2 3414   1.299   6.176   4.710
  839SOL     OW 3415   3.017   1.179   3.575
  839SOL    HW1 3416   3.092   1.222   3.525
  839SOL    HW2 3417   2.949   1.248   3.600
  840SOL     OW 3418   1.154   1.197   6.921
  840SOL    HW1 3419   1.250   1.186   6.947
  840SOL    HW2 3420   1.108   1.109   6.927
  841SOL     OW 3421   6.319   3.676   0.076
  841SOL    HW1 3422   6.288   3.590   0.034
  841SOL    HW2 3423   6.276   3.753   0.028
  842SOL     OW 3424   3.712   5.314   3.133
  842SOL    HW1 3425   3.669   5.381   3.071
  842SOL    HW2 3426   3.748   5.361   3.213
  843SOL     OW 3427   5.980   2.289   1.493
  843SOL    HW1 3428   5.917   2.215   1.518
  843SOL    HW2 3429   5.942   2.376   1.521
  844SOL     OW 3430   5.037   6.486   0.583
  844SOL    HW1 3431   5.033   6.569   0.528
  844SOL    HW2 3432   5.072   6.509   0.675
  845SOL     OW 3433   6.292   3.400   5.111
  845SOL    HW1 3434   6.387   3.408   5.082
  845SOL    HW2 3435   6.279   3.448   5.198
  846SOL     OW 3436   5.730   1.255   0.291
  846SOL    HW1 3437   5.793   1.318   0.338
  846SOL    HW2 3438   5.670   1.307   0.230
  847SOL     OW 3439   6.240   3.321   0.736
  847SOL    HW1 3440   6.150   3.358   0.714
  847SOL    HW2 3441   6.281   3.280   0.655
  848SOL     OW 3442   6.650   0.426   5.979
  848SOL    HW1 3443   6.554   0.439   5.956
  848SOL    HW2 3444   6.677   0.493   6.048
  849SOL     OW 3445   0.153   5.617   4.834
  849SOL    HW1 3446   0.069   5.641   4.881
  849SOL    HW2 3447   0.132   5.588   4.740
  850SOL     OW 3448   4.612   1.038   3.293
  850SOL    HW1 3449   4.540   1.108   3.289
  850SOL    HW2 3450   4.700   1.082   3.310
  851SOL     OW 3451   0.394   1.031   0.214
  851SOL    HW1 3452   0.422   1.125   0.197
  851SOL    HW2 3453   0.342   1.027   0.300
  852SOL     OW 3454   2.312   3.003   6.879
  852SOL    HW1 3455   2.255   3.070   6.832
  852SOL    HW2 3456   2.263   2.967   6.958
  853SOL     OW 3457   1.090   2.469   2.006
  853SOL    HW1 3458   1.183   2.499   2.025
  853SOL    HW2 3459   1.075   2.469   1.907
  854SOL     OW 3460   5.411   6.209   2.790
  854SOL    HW1 3461   5.430   6.205   2.887
  854SOL    HW2 3462   5.424   6.119   2.749
  855SOL     OW 3463   5.826   0.054   1.506
  855SOL    HW1 3464   5.914   0.099   1.520
  855SOL    HW2 3465   5.772   0.058   1.590
  856SOL     OW 3466   1.798   6.517   5.045
  856SOL    HW1 3467   1.714   6.562   5.075
  856SOL    HW2 3468   1.857   6.583   4.998
  857SOL     OW 3469   6.173   3.917   0.930
  857SOL    HW1 3470   6.192   3.886   1.023
  857SOL    HW2 3471   6.140   4.011   0.932
  858SOL     OW 3472   3.000   5.129   1.787
  858SOL    HW1 3473   2.919   5.187   1.794
  858SOL    HW2 3474   2.989   5.049   1.846
  859SOL     OW 3475   6.808   4.779   6.421
  859SOL    HW1 3476   6.765   4.835   6.492
  859SOL    HW2 3477   6.829   4.689   6.458
  860SOL     OW 3478   3.286   4.701   0.397
  860SOL    HW1 3479   3.324   4.632   0.458
  860SOL    HW2 3480   3.187   4.706   0.411
  861SOL     OW 3481   2.930   6.491   5.193
  861SOL    HW1 3482   2.969   6.408   5.155
  861SOL    HW2 3483   2.957   6.500   5.289
  862SOL     OW 3484   5.584   4.563   4.940
  862SOL    HW1 3485   5.510   4.496   4.933
  862SOL    HW2 3486   5.552   4.641   4.994
  863SOL     OW 3487   0.546   0.895   1.136
  863SOL    HW1 3488   0.590   0.932   1.055
  863SOL    HW2 3489   0.612   0.893   1.212
  864SOL     OW 3490   5.191   4.436   2.858
  864SOL    HW1 3491   5.126   4.499   2.815
  864SOL    HW2 3492   5.153   4.403   2.944
  865SOL     OW 3493   1.248   0.143   3.738
  865SOL    HW1 3494   1.338   0.153   3.695
  865SOL    HW2 3495   1.248   0.062   3.797
  866SOL     OW 3496   2.863   1.859   2.009
  866SOL    HW1 3497   2.955   1.825   1.992
  866SOL    HW2 3498   2.864   1.959   2.011
  867SOL     OW 3499   2.925   3.131   6.939
  867SOL    HW1 3500   2.957   3.195   6.869
  867SOL    HW2 3501   2.967   3.154   0.006
  868SOL     OW 3502   6.165   0.340   2.946
  868SOL    HW1 3503   6.228   0.267   2.918
  868SOL    HW2 3504   6.217   0.418   2.980
  869SOL     OW 3505   6.383   5.853   2.508
  869SOL    HW1 3506   6.296   5.867   2.459
  869SOL    HW2 3507   6.364   5.838   2.605
  870SOL     OW 3508   0.129   2.654   1.447
  870SOL    HW1 3509   0.124   2.666   1.348
  870SOL    HW2 3510   0.193   2.722   1.485
  871SOL     OW 3511   5.956   2.498   1.925
  871SOL    HW1 3512   6.023   2.448   1.981
  871SOL    HW2 3513   5.941   2.589   1.964
  872SOL     OW 3514   6.480   2.538   4.602
  872SOL    HW1 3515   6.563   2.545   4.547
  872SOL    HW2 3516   6.406   2.500   4.546
  873SOL     OW 3517   3.630   6.804   3.641
  873SOL    HW1 3518   3.619   6.903   3.631
  873SOL    HW2 3519   3.612   6.778   3.736
  874SOL     OW 3520   1.489   4.388   5.175
  874SOL    HW1 3521   1.518   4.312   5.233
  874SOL    HW2 3522   1.532   4.381   5.085
  875SOL     OW 3523   5.449   3.902   0.353
  875SOL    HW1 3524   5.434   3.983   0.297
  875SOL    HW2 3525   5.434   3.924   0.449
  876SOL     OW 3526   6.522   3.603   2.675
  876SOL    HW1 3527   6.493   3.513   2.641
  876SOL    HW2 3528   6.521   3.669   2.600
  877SOL     OW 3529   4.911   5.381   6.940
  877SOL    HW1 3530   4.852   5.335   6.874
  877SOL    HW2 3531   4.880   5.361   0.012
  878SOL     OW 3532   2.982   5.293   1.085
  878SOL    HW1 3533   2.896   5.299   1.136
  878SOL    HW2 3534   2.966   5.252   0.996
  879SOL     OW 3535   4.126   2.122   2.584
  879SOL    HW1 3536   4.060   2.119   2.509
  879SOL    HW2 3537   4.206   2.176   2.556
  880SOL     OW 3538   3.664   4.983   0.645
  880SOL    HW1 3539   3.628   4.970   0.552
  880SOL    HW2 3540   3.663   4.896   0.694
  881SOL     OW 3541   4.220   4.748   4.100
  881SOL    HW1 3542   4.259   4.702   4.179
  881SOL    HW2 3543   4.159   4.685   4.052
  882SOL     OW 3544   1.062   0.529   4.710
  882SOL    HW1 3545   1.098   0.440   4.740
  882SOL    HW2 3546   1.138   0.589   4.686
  883SOL     OW 3547   3.266   5.204   6.635
  883SOL    HW1 3548   3.233   5.168   6.548
  883SOL    HW2 3549   3.308   5.294   6.620
  884SOL     OW 3550   5.899   3.451   1.625
  884SOL    HW1 3551   5.856   3.488   1.543
  884SOL    HW2 3552   5.855   3.364   1.650
  885SOL     OW 3553   6.000   6.190   0.358
  885SOL    HW1 3554   6.015   6.289   0.362
  885SOL    HW2 3555   5.931   6.169   0.289
  886SOL     OW 3556   4.191   1.027   6.939
  886SOL    HW1 3557   4.243   0.943   6.922
  886SOL    HW2 3558   4.094   1.007   6.940
  887SOL     OW 3559   3.935   7.005   5.956
  887SOL    HW1 3560   4.005   0.001   5.887
  887SOL    HW2 3561   3.935   0.059   6.022
  888SOL     OW 3562   6.635   6.412   3.140
  888SOL    HW1 3563   6.732   6.435   3.132
  888SOL    HW2 3564   6.624   6.332   3.199
  889SOL     OW 3565   0.155   6.616   5.233
  889SOL    HW1 3566   0.092   6.639   5.158
  889SOL    HW2 3567   0.241   6.665   5.221
  890SOL     OW 3568   2.659   4.687   2.132
  890SOL    HW1 3569   2.690   4.634   2.211
  890SOL    HW2 3570   2.716   4.666   2.053
  891SOL     OW 3571   5.259   2.503   0.740
  891SOL    HW1 3572   5.171   2.456   0.746
  891SOL    HW2 3573   5.265   2.572   0.813
  892SOL     OW 3574   2.879   3.688   1.064
  892SOL    HW1 3575   2.878   3.786   1.048
  892SOL    HW2 3576   2.864   3.670   1.161
  893SOL     OW 3577   1.207   0.818   0.316
  893SOL    HW1 3578   1.280   0.827   0.383
  893SOL    HW2 3579   1.240   0.767   0.237
  894SOL     OW 3580   1.144   5.884   4.215
  894SOL    HW1 3581   1.060   5.936   4.234
  894SOL    HW2 3582   1.220   5.927   4.262
  895SOL     OW 3583   2.223   0.024   4.226
  895SOL    HW1 3584   2.213   6.945   4.230
  895SOL    HW2 3585   2.142   0.067   4.265
  896SOL     OW 3586   5.815   6.754   3.275
  896SOL    HW1 3587   5.888   6.798   3.328
  896SOL    HW2 3588   5.827   6.775   3.178
  897SOL     OW 3589   4.681   2.971   6.606
  897SOL    HW1 3590   4.609   2.954   6.538
  897SOL    HW2 3591   4.650   2.939   6.696
  898SOL     OW 3592   5.590   6.719   3.422
  898SOL    HW1 3593   5.683   6.729   3.386
  898SOL    HW2 3594   5.536   6.665   3.358
  899SOL     OW 3595   0.441   4.454   6.320
  899SOL    HW1 3596   0.443   4.492   6.227
  899SOL    HW2 3597   0.516   4.388   6.331
  900SOL     OW 3598   0.319   6.170   3.520
  900SOL    HW1 3599   0.345   6.255   3.473
  900SOL    HW2 3600   0.346   6.092   3.464
  901SOL     OW 3601   6.177   1.353   4.015
  901SOL    HW1 3602   6.124   1.280   3.971
  901SOL    HW2 3603   6.129   1.383   4.098
  902SOL     OW 3604   7.002   6.883   6.679
  902SOL    HW1 3605   0.048   6.839   6.739
  902SOL    HW2 3606   6.990   6.828   6.596
  903SOL     OW 3607   0.944   5.047   0.808
  903SOL    HW1 3608   0.989   5.133   0.782
  903SOL    HW2 3609   0.845   5.063   0.817
  904SOL     OW 3610   1.903   1.673   3.644
  904SOL    HW1 3611   1.830   1.716   3.592
  904SOL    HW2 3612   1.928   1.587   3.600
  905SOL     OW 3613   5.333   1.472   5.762
  905SOL    HW1 3614   5.271   1.546   5.786
  905SOL    HW2 3615   5.311   1.390   5.815
  906SOL     OW 3616   0.076   3.893   5.676
  906SOL    HW1 3617   0.162   3.892   5.624
  906SOL    HW2 3618   0.026   3.808   5.659
  907SOL     OW 3619   5.896   2.216   2.439
  907SOL    HW1 3620   5.901   2.287   2.509
  907SOL    HW2 3621   5.881   2.127   2.482
  908SOL     OW 3622   1.944   0.270   3.925
  908SOL    HW1 3623   1.979   0.264   3.831
  908SOL    HW2 3624   1.999   0.212   3.985
  909SOL     OW 3625   3.874   1.166   1.530
  909SOL    HW1 3626   3.830   1.082   1.563
  909SOL    HW2 3627   3.808   1.220   1.477
  910SOL     OW 3628   2.027   1.559   0.566
  910SOL    HW1 3629   2.063   1.630   0.505
  910SOL    HW2 3630   1.946   1.518   0.525
  911SOL     OW 3631   0.297   4.841   1.387
  911SOL    HW1 3632   0.380   4.799   1.351
  911SOL    HW2 3633   0.244   4.879   1.311
  912SOL     OW 3634   0.117   0.316   5.940
  912SOL    HW1 3635   0.156   0.227   5.912
  912SOL    HW2 3636   0.071   0.306   6.028
  913SOL     OW 3637   2.695   0.882   2.387
  913SOL    HW1 3638   2.774   0.862   2.444
  913SOL    HW2 3639   2.678   0.980   2.387
  914SOL     OW 3640   2.835   5.736   3.091
  914SOL    HW1 3641   2.837   5.835   3.098
  914SOL    HW2 3642   2.891   5.706   3.013
  915SOL     OW 3643   0.909   2.429   0.370
  915SOL    HW1 3644   0.927   2.349   0.313
  915SOL    HW2 3645   0.821   2.469   0.344
  916SOL     OW 3646   2.429   2.493   2.929
  916SOL    HW1 3647   2.503   2.458   2.872
  916SOL    HW2 3648   2.416   2.590   2.910
  917SOL     OW 3649   4.175   1.494   1.537
  917SOL    HW1 3650   4.257   1.480   1.480
  917SOL    HW2 3651   4.093   1.480   1.482
  918SOL     OW 3652   2.521   6.137   6.351
  918SOL    HW1 3653   2.612   6.101   6.331
  918SOL    HW2 3654   2.529   6.222   6.404
  919SOL     OW 3655   1.779   5.984   1.580
  919SOL    HW1 3656   1.723   5.918   1.630
  919SOL    HW2 3657   1.728   6.069   1.569
  920SOL     OW 3658   2.686   0.894   3.732
  920SOL    HW1 3659   2.785   0.905   3.721
  920SOL    HW2 3660   2.662   0.899   3.828
  921SOL     OW 3661   5.821   5.478   4.313
  921SOL    HW1 3662   5.895   5.416   4.338
  921SOL    HW2 3663   5.734   5.429   4.316
  922SOL     OW 3664   3.195   3.723   6.760
  922SOL    HW1 3665   3.135   3.747   6.683
  922SOL    HW2 3666   3.268   3.791   6.767
  923SOL     OW 3667   2.989   6.747   6.472
  923SOL    HW1 3668   2.995   6.809   6.394
  923SOL    HW2 3669   3.060   6.772   6.539
  924SOL     OW 3670   5.955   3.636   2.707
  924SOL    HW1 3671   5.992   3.646   2.615
  924SOL    HW2 3672   6.016   3.576   2.760
  925SOL     OW 3673   0.416   1.491   4.427
  925SOL    HW1 3674   0.377   1.428   4.494
  925SOL    HW2 3675   0.498   1.450   4.386
  926SOL     OW 3676   5.265   6.002   0.317
  926SOL    HW1 3677   5.311   6.087   0.294
  926SOL    HW2 3678   5.233   6.005   0.411
  927SOL     OW 3679   4.420   4.620   4.276
  927SOL    HW1 3680   4.434   4.574   4.364
  927SOL    HW2 3681   4.509   4.639   4.235
  928SOL     OW 3682   2.308   1.020   1.235
  928SOL    HW1 3683   2.355   1.040   1.150
  928SOL    HW2 3684   2.256   1.101   1.265
  929SOL     OW 3685   6.511   2.855   2.791
  929SOL    HW1 3686   6.444   2.801   2.842
  929SOL    HW2 3687   6.595   2.801   2.778
  930SOL     OW 3688   5.174   4.873   4.108
  930SOL    HW1 3689   5.116   4.930   4.051
  930SOL    HW2 3690   5.255   4.845   4.057
  931SOL     OW 3691   1.347   2.076   2.609
  931SOL    HW1 3692   1.309   2.157   2.655
  931SOL    HW2 3693   1.332   2.084   2.511
  932SOL     OW 3694   4.458   6.194   0.998
  932SOL    HW1 3695   4.468   6.249   0.915
  932SOL    HW2 3696   4.518   6.231   1.069
  933SOL     OW 3697   1.730   5.608   2.979
  933SOL    HW1 3698   1.802   5.545   3.011
  933SOL    HW2 3699   1.646   5.591   3.030
  934SOL     OW 3700   2.970   1.455   5.354
  934SOL    HW1 3701   3.058   1.492   5.382
  934SOL    HW2 3702   2.956   1.365   5.396
  935SOL     OW 3703   3.762   3.186   6.266
  935SOL    HW1 3704   3.798   3.098   6.235
  935SOL    HW2 3705   3.663   3.187   6.254
  936SOL     OW 3706   0.353   0.574   0.999
  936SOL    HW1 3707   0.449   0.556   1.023
  936SOL    HW2 3708   0.333   0.670   1.015
  937SOL     OW 3709   3.998   1.625   4.602
  937SOL    HW1 3710   3.929   1.585   4.542
  937SOL    HW2 3711   4.003   1.572   4.687
  938SOL     OW 3712   0.485   2.561   6.536
  938SOL    HW1 3713   0.580   2.562   6.567
  938SOL    HW2 3714   0.427   2.604   6.605
  939SOL     OW 3715   5.598   1.533   5.973
  939SOL    HW1 3716   5.584   1.490   5.884
  939SOL    HW2 3717   5.690   1.512   6.007
  940SOL     OW 3718   6.967   1.448   3.898
  940SOL    HW1 3719   0.012   1.394   3.951
  940SOL    HW2 3720   6.964   1.541   3.935
  941SOL     OW 3721   5.491   1.917   4.047
  941SOL    HW1 3722   5.428   1.839   4.043
  941SOL    HW2 3723   5.509   1.950   3.954
  942SOL     OW 3724   4.798   6.580   5.378
  942SOL    HW1 3725   4.799   6.484   5.405
  942SOL    HW2 3726   4.834   6.588   5.285
  943SOL     OW 3727   5.973   1.873   1.574
  943SOL    HW1 3728   5.900   1.937   1.549
  943SOL    HW2 3729   6.007   1.827   1.492
  944SOL     OW 3730   5.668   3.997   4.361
  944SOL    HW1 3731   5.681   3.917   4.419
  944SOL    HW2 3732   5.735   3.995   4.287
  945SOL     OW 3733   5.139   4.456   4.408
  945SOL    HW1 3734   5.171   4.464   4.502
  945SOL    HW2 3735   5.044   4.424   4.407
  946SOL     OW 3736   5.898   2.469   5.788
  946SOL    HW1 3737   5.952   2.427   5.715
  946SOL    HW2 3738   5.816   2.414   5.805
  947SOL     OW 3739   2.649   2.557   6.381
  947SOL    HW1 3740   2.672   2.588   6.474
  947SOL    HW2 3741   2.637   2.636   6.322
  948SOL     OW 3742   4.050   1.954   0.566
  948SOL    HW1 3743   4.096   1.878   0.518
  948SOL    HW2 3744   3.959   1.926   0.593
  949SOL     OW 3745   6.196   5.496   6.242
  949SOL    HW1 3746   6.190   5.472   6.338
  949SOL    HW2 3747   6.285   5.469   6.206
  950SOL     OW 3748   4.246   5.603   0.835
  950SOL    HW1 3749   4.227   5.598   0.933
  950SOL    HW2 3750   4.240   5.511   0.795
  951SOL     OW 3751   1.136   1.101   1.875
  951SOL    HW1 3752   1.181   1.074   1.960
  951SOL    HW2 3753   1.204   1.108   1.802
  952SOL     OW 3754   5.436   0.440   3.349
  952SOL    HW1 3755   5.518   0.396   3.382
  952SOL    HW2 3756   5.454   0.482   3.260
  953SOL     OW 3757   4.054   6.203   6.117
  953SOL    HW1 3758   4.126   6.215   6.185
  953SOL    HW2 3759   4.086   6.234   6.027
  954SOL     OW 3760   6.187   0.375   1.411
  954SOL    HW1 3761   6.169   0.309   1.484
  954SOL    HW2 3762   6.204   0.465   1.452
  955SOL     OW 3763   0.959   6.104   2.957
  955SOL    HW1 3764   0.863   6.122   2.980
  955SOL    HW2 3765   1.017   6.127   3.036
  956SOL     OW 3766   2.104   1.979   1.046
  956SOL    HW1 3767   2.181   1.983   1.109
  956SOL    HW2 3768   2.138   1.975   0.952
  957SOL     OW 3769   1.497   5.051   4.710
  957SOL    HW1 3770   1.538   4.969   4.671
  957SOL    HW2 3771   1.414   5.074   4.659
  958SOL     OW 3772   5.316   1.733   1.593
  958SOL    HW1 3773   5.352   1.696   1.679
  958SOL    HW2 3774   5.279   1.824   1.609
  959SOL     OW 3775   2.759   4.729   3.212
  959SOL    HW1 3776   2.699   4.652   3.234
  959SOL    HW2 3777   2.788   4.723   3.116
  960SOL     OW 3778   2.038   5.743   4.746
  960SOL    HW1 3779   2.071   5.698   4.663
  960SOL    HW2 3780   2.115   5.766   4.805
  961SOL     OW 3781   4.328   6.628   1.861
  961SOL    HW1 3782   4.251   6.691   1.870
  961SOL    HW2 3783   4.368   6.637   1.770
  962SOL     OW 3784   1.561   0.709   3.252
  962SOL    HW1 3785   1.469   0.706   3.290
  962SOL    HW2 3786   1.558   0.747   3.159
  963SOL     OW 3787   6.592   0.611   1.589
  963SOL    HW1 3788   6.635   0.530   1.549
  963SOL    HW2 3789   6.494   0.607   1.575
  964SOL     OW 3790   5.183   3.553   1.520
  964SOL    HW1 3791   5.259   3.487   1.516
  964SOL    HW2 3792   5.208   3.635   1.467
  965SOL     OW 3793   0.567   1.820   0.415
  965SOL    HW1 3794   0.662   1.846   0.435
  965SOL    HW2 3795   0.506   1.894   0.441
  966SOL     OW 3796   6.700   1.796   2.515
  966SOL    HW1 3797   6.798   1.804   2.532
  966SOL    HW2 3798   6.666   1.714   2.561
  967SOL     OW 3799   0.868   5.565   1.071
  967SOL    HW1 3800   0.919   5.647   1.046
  967SOL    HW2 3801   0.770   5.583   1.064
  968SOL     OW 3802   4.743   2.689   2.418
  968SOL    HW1 3803   4.809   2.644   2.358
  968SOL    HW2 3804   4.731   2.784   2.390
  969SOL     OW 3805   4.703   6.280   5.761
  969SOL    HW1 3806   4.695   6.328   5.674
  969SOL    HW2 3807   4.683   6.343   5.836
  970SOL     OW 3808   4.325   2.174   5.138
  970SOL    HW1 3809   4.265   2.098   5.115
  970SOL    HW2 3810   4.274   2.260   5.130
  971SOL     OW 3811   6.938   1.793   1.559
  971SOL    HW1 3812   6.926   1.847   1.643
  971SOL    HW2 3813   0.014   1.792   1.534
  972SOL     OW 3814   6.535   5.428   0.610
  972SOL    HW1 3815   6.444   5.433   0.652
  972SOL    HW2 3816   6.552   5.512   0.558
  973SOL     OW 3817   6.603   4.548   5.884
  973SOL    HW1 3818   6.528   4.611   5.905
  973SOL    HW2 3819   6.592   4.464   5.938
  974SOL     OW 3820   2.776   0.972   3.440
  974SOL    HW1 3821   2.780   0.969   3.539
  974SOL    HW2 3822   2.866   0.949   3.403
  975SOL     OW 3823   2.752   5.736   5.782
  975SOL    HW1 3824   2.655   5.711   5.788
  975SOL    HW2 3825   2.791   5.740   5.874
  976SOL     OW 3826   6.511   3.401   3.196
  976SOL    HW1 3827   6.464   3.402   3.284
  976SOL    HW2 3828   6.482   3.322   3.142
  977SOL     OW 3829   1.648   1.174   3.523
  977SOL    HW1 3830   1.549   1.183   3.535
  977SOL    HW2 3831   1.677   1.226   3.443
  978SOL     OW 3832   5.546   4.136   4.633
  978SOL    HW1 3833   5.554   4.084   4.548
  978SOL    HW2 3834   5.602   4.218   4.627
  979SOL     OW 3835   6.215   0.985   3.224
  979SOL    HW1 3836   6.302   1.002   3.179
  979SOL    HW2 3837   6.214   0.893   3.262
  980SOL     OW 3838   5.267   1.983   4.439
  980SOL    HW1 3839   5.354   2.000   4.391
  980SOL    HW2 3840   5.208   2.063   4.428
  981SOL     OW 3841   1.745   1.464   4.388
  981SOL    HW1 3842   1.767   1.538   4.452
  981SOL    HW2 3843   1.661   1.419   4.417
  982SOL     OW 3844   1.067   2.479   1.735
  982SOL    HW1 3845   1.052   2.418   1.657
  982SOL    HW2 3846   1.037   2.572   1.712
  983SOL     OW 3847   5.909   2.021   3.169
  983SOL    HW1 3848   5.929   2.109   3.212
  983SOL    HW2 3849   5.843   2.034   3.096
  984SOL     OW 3850   4.966   1.345   5.193
  984SOL    HW1 3851   4.885   1.313   5.144
  984SOL    HW2 3852   4.946   1.347   5.291
  985SOL     OW 3853   3.142   5.497   0.919
  985SOL    HW1 3854   3.107   5.460   0.833
  985SOL    HW2 3855   3.175   5.422   0.977
  986SOL     OW 3856   4.987   5.300   6.484
  986SOL    HW1 3857   4.901   5.251   6.472
  986SOL    HW2 3858   5.050   5.244   6.538
  987SOL     OW 3859   3.274   6.353   1.819
  987SOL    HW1 3860   3.311   6.436   1.860
  987SOL    HW2 3861   3.206   6.313   1.880
  988SOL     OW 3862   3.987   3.217   0.887
  988SOL    HW1 3863   4.081   3.203   0.854
  988SOL    HW2 3864   3.942   3.128   0.896
  989SOL     OW 3865   0.590   0.572   5.475
  989SOL    HW1 3866   0.535   0.655   5.486
  989SOL    HW2 3867   0.684   0.597   5.453
  990SOL     OW 3868   4.147   0.645   4.303
  990SOL    HW1 3869   4.148   0.728   4.360
  990SOL    HW2 3870   4.184   0.569   4.356
  991SOL     OW 3871   0.771   2.172   4.614
  991SOL    HW1 3872   0.717   2.099   4.655
  991SOL    HW2 3873   0.867   2.144   4.608
  992SOL     OW 3874   0.598   3.328   0.129
  992SOL    HW1 3875   0.679   3.271   0.124
  992SOL    HW2 3876   0.569   3.354   0.037
  993SOL     OW 3877   2.968   4.999   2.616
  993SOL    HW1 3878   3.001   4.949   2.696
  993SOL    HW2 3879   2.993   4.949   2.533
  994SOL     OW 3880   3.662   3.496   2.204
  994SOL    HW1 3881   3.703   3.585   2.221
  994SOL    HW2 3882   3.627   3.492   2.110
  995SOL     OW 3883   1.990   2.417   6.312
  995SOL    HW1 3884   1.910   2.459   6.270
  995SOL    HW2 3885   1.979   2.318   6.313
  996SOL     OW 3886   1.998   3.433   2.807
  996SOL    HW1 3887   1.987   3.435   2.708
  996SOL    HW2 3888   2.035   3.345   2.835
  997SOL     OW 3889   0.647   0.893   1.639
  997SOL    HW1 3890   0.638   0.800   1.675
  997SOL    HW2 3891   0.557   0.937   1.637
  998SOL     OW 3892   4.452   6.788   2.246
  998SOL    HW1 3893   4.522   6.794   2.175
  998SOL    HW2 3894   4.461   6.865   2.308
  999SOL     OW 3895   6.236   5.549   1.319
  999SOL    HW1 3896   6.184   5.490   1.381
  999SOL    HW2 3897   6.220   5.645   1.344
 1000SOL     OW 3898   2.474   2.463   3.682
 1000SOL    HW1 3899   2.568   2.453   3.647
 1000SOL    HW2 3900   2.409   2.451   3.606
 1001SOL     OW 3901   4.602   6.496   6.374
 1001SOL    HW1 3902   4.583   6.572   6.436
 1001SOL    HW2 3903   4.654   6.529   6.296
 1002SOL     OW 3904   5.993   1.629   6.959
 1002SOL    HW1 3905   5.894   1.623   6.974
 1002SOL    HW2 3906   6.012   1.698   6.889
 1003SOL     OW 3907   2.998   6.591   2.450
 1003SOL    HW1 3908   2.962   6.532   2.378
 1003SOL    HW2 3909   2.956   6.567   2.537
 1004SOL     OW 3910   0.363   0.106   6.751
 1004SOL    HW1 3911   0.330   0.126   6.843
 1004SOL    HW2 3912   0.303   0.147   6.684
 1005SOL     OW 3913   0.961   0.259   2.782
 1005SOL    HW1 3914   0.930   0.353   2.766
 1005SOL    HW2 3915   0.987   0.217   2.695
 1006SOL     OW 3916   2.562   5.334   1.387
 1006SOL    HW1 3917   2.565   5.429   1.418
 1006SOL    HW2 3918   2.500   5.282   1.446
 1007SOL     OW 3919   6.551   1.501   3.568
 1007SOL    HW1 3920   6.638   1.548   3.552
 1007SOL    HW2 3921   6.558   1.446   3.652
 1008SOL     OW 3922   0.989   3.157   4.162
 1008SOL    HW1 3923   0.967   3.223   4.090
 1008SOL    HW2 3924   1.064   3.193   4.218
 1009SOL     OW 3925   0.064   5.880   4.238
 1009SOL    HW1 3926   0.081   5.802   4.177
 1009SOL    HW2 3927   0.110   5.961   4.202
 1010SOL     OW 3928   4.386   1.584   0.590
 1010SOL    HW1 3929   4.471   1.570   0.641
 1010SOL    HW2 3930   4.346   1.496   0.566
 1011SOL     OW 3931   2.610   5.224   3.740
 1011SOL    HW1 3932   2.710   5.218   3.736
 1011SOL    HW2 3933   2.575   5.243   3.648
 1012SOL     OW 3934   5.970   5.303   0.333
 1012SOL    HW1 3935   5.879   5.276   0.302
 1012SOL    HW2 3936   6.027   5.221   0.344
 1013SOL     OW 3937   0.956   0.864   0.439
 1013SOL    HW1 3938   1.033   0.840   0.380
 1013SOL    HW2 3939   0.894   0.925   0.390
 1014SOL     OW 3940   3.952   5.772   6.195
 1014SOL    HW1 3941   3.964   5.846   6.262
 1014SOL    HW2 3942   3.891   5.803   6.122
 1015SOL     OW 3943   3.625   6.483   5.040
 1015SOL    HW1 3944   3.585   6.396   5.010
 1015SOL    HW2 3945   3.724   6.471   5.053
 1016SOL     OW 3946   3.699   2.950   1.151
 1016SOL    HW1 3947   3.687   3.049   1.148
 1016SOL    HW2 3948   3.764   2.922   1.079
 1017SOL     OW 3949   4.564   2.728   0.717
 1017SOL    HW1 3950   4.538   2.631   0.726
 1017SOL    HW2 3951   4.522   2.766   0.635
 1018SOL     OW 3952   1.134   3.002   3.705
 1018SOL    HW1 3953   1.083   2.916   3.711
 1018SOL    HW2 3954   1.070   3.078   3.695
 1019SOL     OW 3955   0.075   1.286   0.459
 1019SOL    HW1 3956   0.101   1.323   0.370
 1019SOL    HW2 3957   0.000   1.220   0.448
 1020SOL     OW 3958   3.135   0.773   0.319
 1020SOL    HW1 3959   3.173   0.724   0.398
 1020SOL    HW2 3960   3.141   0.716   0.238
 1021SOL     OW 3961   6.957   1.291   1.205
 1021SOL    HW1 3962   6.989   1.375   1.250
 1021SOL    HW2 3963   6.860   1.279   1.222
 1022SOL     OW 3964   4.693   3.199   5.940
 1022SOL    HW1 3965   4.626   3.252   5.992
 1022SOL    HW2 3966   4.648   3.119   5.900
 1023SOL     OW 3967   5.506   0.506   2.690
 1023SOL    HW1 3968   5.504   0.424   2.747
 1023SOL    HW2 3969   5.600   0.526   2.663
 1024SOL     OW 3970   6.596   1.762   4.173
 1024SOL    HW1 3971   6.505   1.723   4.192
 1024SOL    HW2 3972   6.596   1.860   4.194
 1025SOL     OW 3973   3.362   4.686   0.812
 1025SOL    HW1 3974   3.337   4.590   0.799
 1025SOL    HW2 3975   3.282   4.743   0.797
 1026SOL     OW 3976   2.282   1.933   0.094
 1026SOL    HW1 3977   2.251   1.839   0.102
 1026SOL    HW2 3978   2.381   1.935   0.081
 1027SOL     OW 3979   2.752   5.246   1.813
 1027SOL    HW1 3980   2.714   5.173   1.756
 1027SOL    HW2 3981   2.730   5.335   1.773
 1028SOL     OW 3982   1.835   6.005   0.405
 1028SOL    HW1 3983   1.794   6.095   0.396
 1028SOL    HW2 3984   1.839   5.979   0.501
 1029SOL     OW 3985   1.581   0.678   0.088
 1029SOL    HW1 3986   1.488   0.654   0.061
 1029SOL    HW2 3987   1.644   0.608   0.056
 1030SOL     OW 3988   3.832   3.661   4.679
 1030SOL    HW1 3989   3.877   3.572   4.685
 1030SOL    HW2 3990   3.846   3.699   4.588
 1031SOL     OW 3991   3.149   5.342   1.559
 1031SOL    HW1 3992   3.067   5.286   1.546
 1031SOL    HW2 3993   3.176   5.382   1.471
 1032SOL     OW 3994   1.999   1.790   5.043
 1032SOL    HW1 3995   2.008   1.810   5.141
 1032SOL    HW2 3996   1.928   1.848   5.003
 1033SOL     OW 3997   2.334   5.510   1.619
 1033SOL    HW1 3998   2.355   5.413   1.629
 1033SOL    HW2 3999   2.272   5.524   1.542
 1034SOL     OW 4000   2.582   5.673   3.837
 1034SOL    HW1 4001   2.501   5.643   3.787
 1034SOL    HW2 4002   2.567   5.766   3.871
 1035SOL     OW 4003   2.997   1.574   4.455
 1035SOL    HW1 4004   2.962   1.481   4.467
 1035SOL    HW2 4005   3.072   1.572   4.389
 1036SOL     OW 4006   4.510   1.998   1.159
 1036SOL    HW1 4007   4.551   1.910   1.136
 1036SOL    HW2 4008   4.412   1.995   1.140
 1037SOL     OW 4009   1.931   1.103   0.603
 1037SOL    HW1 4010   1.983   1.140   0.680
 1037SOL    HW2 4011   1.957   1.008   0.588
 1038SOL     OW 4012   1.327   1.070   5.496
 1038SOL    HW1 4013   1.273   1.032   5.421
 1038SOL    HW2 4014   1.286   1.044   5.583
 1039SOL     OW 4015   3.787   1.559   4.429
 1039SOL    HW1 4016   3.715   1.629   4.430
 1039SOL    HW2 4017   3.746   1.470   4.408
 1040SOL     OW 4018   5.839   3.603   2.274
 1040SOL    HW1 4019   5.755   3.610   2.327
 1040SOL    HW2 4020   5.918   3.612   2.336
 1041SOL     OW 4021   6.706   0.572   4.081
 1041SOL    HW1 4022   6.783   0.636   4.086
 1041SOL    HW2 4023   6.622   0.622   4.059
 1042SOL     OW 4024   5.024   5.112   0.507
 1042SOL    HW1 4025   4.937   5.156   0.487
 1042SOL    HW2 4026   5.051   5.055   0.429
 1043SOL     OW 4027   3.574   1.652   6.529
 1043SOL    HW1 4028   3.489   1.674   6.576
 1043SOL    HW2 4029   3.578   1.703   6.442
 1044SOL     OW 4030   3.608   2.743   1.288
 1044SOL    HW1 4031   3.652   2.818   1.239
 1044SOL    HW2 4032   3.640   2.743   1.383
 1045SOL     OW 4033   2.968   1.247   2.919
 1045SOL    HW1 4034   3.007   1.310   2.987
 1045SOL    HW2 4035   2.991   1.153   2.943
 1046SOL     OW 4036   3.225   6.930   0.574
 1046SOL    HW1 4037   3.283   6.942   0.655
 1046SOL    HW2 4038   3.191   6.836   0.571
 1047SOL     OW 4039   0.970   5.096   2.956
 1047SOL    HW1 4040   0.971   5.030   3.032
 1047SOL    HW2 4041   0.913   5.174   2.981
 1048SOL     OW 4042   5.206   5.007   4.734
 1048SOL    HW1 4043   5.294   5.048   4.760
 1048SOL    HW2 4044   5.148   5.078   4.694
 1049SOL     OW 4045   6.978   3.616   4.856
 1049SOL    HW1 4046   6.991   3.670   4.939
 1049SOL    HW2 4047   6.891   3.641   4.813
 1050SOL     OW 4048   3.984   0.258   6.833
 1050SOL    HW1 4049   4.043   0.338   6.841
 1050SOL    HW2 4050   4.018   0.199   6.760
 1051SOL     OW 4051   4.974   4.676   0.547
 1051SOL    HW1 4052   5.073   4.671   0.553
 1051SOL    HW2 4053   4.935   4.685   0.639
 1052SOL     OW 4054   3.715   0.109   5.049
 1052SOL    HW1 4055   3.703   0.113   4.950
 1052SOL    HW2 4056   3.649   0.045   5.089
 1053SOL     OW 4057   4.597   5.041   3.611
 1053SOL    HW1 4058   4.524   5.110   3.615
 1053SOL    HW2 4059   4.558   4.951   3.633
 1054SOL     OW 4060   3.358   5.223   5.028
 1054SOL    HW1 4061   3.419   5.240   5.106
 1054SOL    HW2 4062   3.302   5.142   5.047
 1055SOL     OW 4063   4.611   5.777   5.074
 1055SOL    HW1 4064   4.676   5.701   5.073
 1055SOL    HW2 4065   4.577   5.790   5.167
 1056SOL     OW 4066   1.609   6.040   5.097
 1056SOL    HW1 4067   1.662   5.960   5.124
 1056SOL    HW2 4068   1.668   6.121   5.097
 1057SOL     OW 4069   2.981   3.582   3.104
 1057SOL    HW1 4070   3.014   3.492   3.076
 1057SOL    HW2 4071   2.931   3.624   3.028
 1058SOL     OW 4072   3.474   1.135   2.411
 1058SOL    HW1 4073   3.522   1.137   2.324
 1058SOL    HW2 4074   3.445   1.228   2.435
 1059SOL     OW 4075   4.273   0.900   2.024
 1059SOL    HW1 4076   4.187   0.880   2.070
 1059SOL    HW2 4077   4.321   0.815   2.004
 1060SOL     OW 4078   0.964   3.170   5.477
 1060SOL    HW1 4079   0.930   3.131   5.391
 1060SOL    HW2 4080   1.053   3.213   5.461
 1061SOL     OW 4081   3.253   5.219   1.801
 1061SOL    HW1 4082   3.175   5.157   1.808
 1061SOL    HW2 4083   3.251   5.264   1.712
 1062SOL     OW 4084   6.441   5.488   5.617
 1062SOL    HW1 4085   6.366   5.486   5.683
 1062SOL    HW2 4086   6.453   5.581   5.583
 1063SOL     OW 4087   1.692   3.369   0.737
 1063SOL    HW1 4088   1.688   3.412   0.647
 1063SOL    HW2 4089   1.618   3.302   0.745
 1064SOL     OW 4090   0.998   3.408   2.181
 1064SOL    HW1 4091   0.983   3.427   2.277
 1064SOL    HW2 4092   0.990   3.492   2.128
 1065SOL     OW 4093   5.262   0.170   4.046
 1065SOL    HW1 4094   5.179   0.158   4.100
 1065SOL    HW2 4095   5.255   0.115   3.963
 1066SOL     OW 4096   4.938   0.306   3.747
 1066SOL    HW1 4097   4.924   0.264   3.657
 1066SOL    HW2 4098   5.011   0.374   3.741
 1067SOL     OW 4099   1.886   2.619   1.873
 1067SOL    HW1 4100   1.967   2.672   1.899
 1067SOL    HW2 4101   1.804   2.660   1.913
 1068SOL     OW 4102   0.391   3.194   2.544
 1068SOL    HW1 4103   0.462   3.264   2.555
 1068SOL    HW2 4104   0.364   3.161   2.635
 1069SOL     OW 4105   4.281   4.656   0.802
 1069SOL    HW1 4106   4.362   4.597   0.805
 1069SOL    HW2 4107   4.309   4.749   0.778
 1070SOL     OW 4108   2.070   1.121   0.351
 1070SOL    HW1 4109   2.147   1.059   0.367
 1070SOL    HW2 4110   1.999   1.104   0.420
 1071SOL     OW 4111   4.076   6.600   2.578
 1071SOL    HW1 4112   3.990   6.561   2.611
 1071SOL    HW2 4113   4.139   6.612   2.654
 1072SOL     OW 4114   3.233   6.676   2.364
 1072SOL    HW1 4115   3.150   6.646   2.412
 1072SOL    HW2 4116   3.311   6.624   2.397
 1073SOL     OW 4117   2.556   4.701   2.496
 1073SOL    HW1 4118   2.546   4.609   2.458
 1073SOL    HW2 4119   2.467   4.746   2.498
 1074SOL     OW 4120   0.754   4.809   1.776
 1074SOL    HW1 4121   0.706   4.816   1.864
 1074SOL    HW2 4122   0.693   4.766   1.709
 1075SOL     OW 4123   5.348   4.161   3.667
 1075SOL    HW1 4124   5.348   4.135   3.570
 1075SOL    HW2 4125   5.415   4.235   3.680
 1076SOL     OW 4126   0.483   4.097   4.325
 1076SOL    HW1 4127   0.569   4.094   4.275
 1076SOL    HW2 4128   0.471   4.188   4.365
 1077SOL     OW 4129   5.263   6.993   1.023
 1077SOL    HW1 4130   5.354   6.961   1.050
 1077SOL    HW2 4131   5.193   6.933   1.062
 1078SOL     OW 4132   1.707   2.081   1.218
 1078SOL    HW1 4133   1.623   2.027   1.212
 1078SOL    HW2 4134   1.686   2.171   1.255
 1079SOL     OW 4135   2.725   5.622   3.541
 1079SOL    HW1 4136   2.778   5.688   3.487
 1079SOL    HW2 4137   2.644   5.667   3.577
 1080SOL     OW 4138   2.426   5.660   3.552
 1080SOL    HW1 4139   2.419   5.759   3.541
 1080SOL    HW2 4140   2.364   5.630   3.624
 1081SOL     OW 4141   1.752   0.580   6.778
 1081SOL    HW1 4142   1.723   0.541   6.865
 1081SOL    HW2 4143   1.745   0.511   6.706
 1082SOL     OW 4144   1.552   0.231   6.045
 1082SOL    HW1 4145   1.513   0.147   6.084
 1082SOL    HW2 4146   1.480   0.282   5.997
 1083SOL     OW 4147   3.906   3.325   1.871
 1083SOL    HW1 4148   3.875   3.334   1.966
 1083SOL    HW2 4149   3.829   3.297   1.814
 1084SOL     OW 4150   5.885   4.608   0.719
 1084SOL    HW1 4151   5.788   4.585   0.715
 1084SOL    HW2 4152   5.935   4.534   0.763
 1085SOL     OW 4153   1.635   5.039   4.024
 1085SOL    HW1 4154   1.622   4.946   4.056
 1085SOL    HW2 4155   1.727   5.048   3.985
 1086SOL     OW 4156   4.956   5.662   2.736
 1086SOL    HW1 4157   4.983   5.624   2.647
 1086SOL    HW2 4158   4.862   5.695   2.730
 1087SOL     OW 4159   4.711   3.018   5.354
 1087SOL    HW1 4160   4.620   2.985   5.330
 1087SOL    HW2 4161   4.708   3.115   5.374
 1088SOL     OW 4162   5.010   4.751   3.893
 1088SOL    HW1 4163   5.080   4.760   3.822
 1088SOL    HW2 4164   5.007   4.656   3.924
 1089SOL     OW 4165   0.213   0.291   4.858
 1089SOL    HW1 4166   0.167   0.256   4.939
 1089SOL    HW2 4167   0.145   0.330   4.795
 1090SOL     OW 4168   1.967   1.421   6.137
 1090SOL    HW1 4169   1.950   1.409   6.039
 1090SOL    HW2 4170   1.922   1.504   6.169
 1091SOL     OW 4171   1.523   1.531   4.846
 1091SOL    HW1 4172   1.511   1.559   4.941
 1091SOL    HW2 4173   1.621   1.522   4.827
 1092SOL     OW 4174   2.137   4.068   1.251
 1092SOL    HW1 4175   2.133   4.150   1.308
 1092SOL    HW2 4176   2.102   3.990   1.302
 1093SOL     OW 4177   1.056   2.589   2.268
 1093SOL    HW1 4178   0.975   2.536   2.291
 1093SOL    HW2 4179   1.080   2.573   2.172
 1094SOL     OW 4180   0.751   6.737   1.759
 1094SOL    HW1 4181   0.697   6.761   1.840
 1094SOL    HW2 4182   0.717   6.651   1.721
 1095SOL     OW 4183   6.192   3.066   6.386
 1095SOL    HW1 4184   6.104   3.021   6.370
 1095SOL    HW2 4185   6.176   3.155   6.429
 1096SOL     OW 4186   3.171   4.738   1.727
 1096SOL    HW1 4187   3.106   4.661   1.725
 1096SOL    HW2 4188   3.253   4.713   1.676
 1097SOL     OW 4189   1.136   4.977   4.979
 1097SOL    HW1 4190   1.190   5.057   4.954
 1097SOL    HW2 4191   1.197   4.905   5.012
 1098SOL     OW 4192   4.732   2.295   2.385
 1098SOL    HW1 4193   4.652   2.354   2.396
 1098SOL    HW2 4194   4.736   2.229   2.460
 1099SOL     OW 4195   4.116   2.206   4.296
 1099SOL    HW1 4196   4.191   2.191   4.231
 1099SOL    HW2 4197   4.150   2.259   4.374
 1100SOL     OW 4198   1.260   0.887   6.521
 1100SOL    HW1 4199   1.161   0.876   6.520
 1100SOL    HW2 4200   1.285   0.974   6.479
 1101SOL     OW 4201   4.905   3.243   0.834
 1101SOL    HW1 4202   4.903   3.325   0.777
 1101SOL    HW2 4203   4.812   3.206   0.842
 1102SOL     OW 4204   0.420   3.912   4.552
 1102SOL    HW1 4205   0.347   3.974   4.580
 1102SOL    HW2 4206   0.444   3.931   4.456
 1103SOL     OW 4207   2.075   1.685   1.231
 1103SOL    HW1 4208   1.993   1.740   1.244
 1103SOL    HW2 4209   2.085   1.661   1.135
 1104SOL     OW 4210   3.171   4.600   6.361
 1104SOL    HW1 4211   3.158   4.507   6.396
 1104SOL    HW2 4212   3.089   4.654   6.379
 1105SOL     OW 4213   4.963   4.183   6.314
 1105SOL    HW1 4214   4.886   4.133   6.274
 1105SOL    HW2 4215   5.020   4.221   6.240
 1106SOL     OW 4216   6.823   2.364   5.292
 1106SOL    HW1 4217   6.852   2.269   5.280
 1106SOL    HW2 4218   6.899   2.418   5.329
 1107SOL     OW 4219   1.010   0.614   0.570
 1107SOL    HW1 4220   0.965   0.695   0.532
 1107SOL    HW2 4221   0.991   0.608   0.668
 1108SOL     OW 4222   1.623   0.698   6.147
 1108SOL    HW1 4223   1.523   0.702   6.139
 1108SOL    HW2 4224   1.655   0.607   6.120
 1109SOL     OW 4225   4.324   6.067   4.059
 1109SOL    HW1 4226   4.399   6.074   3.994
 1109SOL    HW2 4227   4.357   6.089   4.151
 1110SOL     OW 4228   3.005   3.330   2.036
 1110SOL    HW1 4229   3.083   3.270   2.054
 1110SOL    HW2 4230   3.036   3.411   1.987
 1111SOL     OW 4231   5.658   0.496   0.243
 1111SOL    HW1 4232   5.745   0.545   0.243
 1111SOL    HW2 4233   5.586   0.556   0.278
 1112SOL     OW 4234   6.571   0.984   2.372
 1112SOL    HW1 4235   6.543   0.936   2.289
 1112SOL    HW2 4236   6.620   1.068   2.347
 1113SOL     OW 4237   6.556   3.377   2.902
 1113SOL    HW1 4238   6.563   3.466   2.856
 1113SOL    HW2 4239   6.470   3.334   2.875
 1114SOL     OW 4240   4.711   0.857   5.943
 1114SOL    HW1 4241   4.648   0.830   6.015
 1114SOL    HW2 4242   4.660   0.875   5.859
 1115SOL     OW 4243   3.290   3.605   0.816
 1115SOL    HW1 4244   3.350   3.579   0.892
 1115SOL    HW2 4245   3.247   3.693   0.837
 1116SOL     OW 4246   4.385   6.142   4.319
 1116SOL    HW1 4247   4.479   6.136   4.353
 1116SOL    HW2 4248   4.327   6.079   4.371
 1117SOL     OW 4249   2.592   2.881   1.469
 1117SOL    HW1 4250   2.663   2.810   1.460
 1117SOL    HW2 4251   2.563   2.887   1.564
 1118SOL     OW 4252   2.283   4.602   3.117
 1118SOL    HW1 4253   2.234   4.657   3.049
 1118SOL    HW2 4254   2.232   4.600   3.202
 1119SOL     OW 4255   4.282   4.081   1.647
 1119SOL    HW1 4256   4.342   4.024   1.591
 1119SOL    HW2 4257   4.336   4.123   1.720
 1120SOL     OW 4258   4.807   6.840   6.082
 1120SOL    HW1 4259   4.904   6.850   6.059
 1120SOL    HW2 4260   4.772   6.927   6.118
 1121SOL     OW 4261   4.970   3.008   1.824
 1121SOL    HW1 4262   4.884   2.998   1.873
 1121SOL    HW2 4263   4.952   3.031   1.729
 1122SOL     OW 4264   5.562   3.034   6.504
 1122SOL    HW1 4265   5.524   2.945   6.480
 1122SOL    HW2 4266   5.499   3.081   6.566
 1123SOL     OW 4267   4.681   0.980   2.212
 1123SOL    HW1 4268   4.677   1.001   2.114
 1123SOL    HW2 4269   4.752   1.036   2.255
 1124SOL     OW 4270   6.693   3.587   5.162
 1124SOL    HW1 4271   6.698   3.665   5.099
 1124SOL    HW2 4272   6.648   3.616   5.247
 1125SOL     OW 4273   3.277   3.267   5.087
 1125SOL    HW1 4274   3.206   3.337   5.078
 1125SOL    HW2 4275   3.240   3.178   5.058
 1126SOL     OW 4276   4.899   0.055   1.388
 1126SOL    HW1 4277   4.803   0.079   1.376
 1126SOL    HW2 4278   4.951   0.082   1.307
 1127SOL     OW 4279   2.503   4.748   0.777
 1127SOL    HW1 4280   2.407   4.760   0.806
 1127SOL    HW2 4281   2.561   4.744   0.858
 1128SOL     OW 4282   3.354   1.851   4.025
 1128SOL    HW1 4283   3.425   1.833   3.958
 1128SOL    HW2 4284   3.375   1.803   4.110
 1129SOL     OW 4285   5.013   0.608   6.810
 1129SOL    HW1 4286   4.979   0.693   6.769
 1129SOL    HW2 4287   4.946   0.535   6.795
 1130SOL     OW 4288   0.921   3.932   0.019
 1130SOL    HW1 4289   0.839   3.987   0.001
 1130SOL    HW2 4290   0.905   3.838   7.009
 1131SOL     OW 4291   0.375   6.129   5.593
 1131SOL    HW1 4292   0.429   6.056   5.550
 1131SOL    HW2 4293   0.280   6.099   5.601
 1132SOL     OW 4294   4.985   6.864   5.397
 1132SOL    HW1 4295   4.924   6.785   5.389
 1132SOL    HW2 4296   4.941   6.944   5.355
 1133SOL     OW 4297   0.727   3.104   1.529
 1133SOL    HW1 4298   0.779   3.175   1.482
 1133SOL    HW2 4299   0.629   3.118   1.513
 1134SOL     OW 4300   5.291   2.402   6.872
 1134SOL    HW1 4301   5.247   2.475   6.925
 1134SOL    HW2 4302   5.239   2.317   6.883
 1135SOL     OW 4303   2.810   2.220   3.742
 1135SOL    HW1 4304   2.747   2.190   3.814
 1135SOL    HW2 4305   2.785   2.312   3.712
 1136SOL     OW 4306   2.554   5.381   3.497
 1136SOL    HW1 4307   2.586   5.457   3.554
 1136SOL    HW2 4308   2.604   5.381   3.410
 1137SOL     OW 4309   1.386   1.791   6.302
 1137SOL    HW1 4310   1.473   1.769   6.258
 1137SOL    HW2 4311   1.347   1.707   6.341
 1138SOL     OW 4312   2.109   3.386   5.866
 1138SOL    HW1 4313   2.083   3.313   5.929
 1138SOL    HW2 4314   2.032   3.449   5.855
 1139SOL     OW 4315   1.540   6.513   2.750
 1139SOL    HW1 4316   1.595   6.460   2.815
 1139SOL    HW2 4317   1.492   6.586   2.799
 1140SOL     OW 4318   3.198   1.923   3.414
 1140SOL    HW1 4319   3.144   1.895   3.493
 1140SOL    HW2 4320   3.157   2.006   3.373
 1141SOL     OW 4321   5.987   5.905   4.695
 1141SOL    HW1 4322   6.048   5.866   4.764
 1141SOL    HW2 4323   6.035   5.912   4.608
 1142SOL     OW 4324   5.462   6.907   4.453
 1142SOL    HW1 4325   5.553   6.867   4.461
 1142SOL    HW2 4326   5.433   6.942   4.542
 1143SOL     OW 4327   3.844   2.064   3.200
 1143SOL    HW1 4328   3.906   2.140   3.218
 1143SOL    HW2 4329   3.809   2.070   3.107
 1144SOL     OW 4330   0.623   4.486   4.213
 1144SOL    HW1 4331   0.703   4.472   4.156
 1144SOL    HW2 4332   0.561   4.551   4.169
 1145SOL     OW 4333   6.709   5.464   4.601
 1145SOL    HW1 4334   6.720   5.501   4.693
 1145SOL    HW2 4335   6.716   5.364   4.604
 1146SOL     OW 4336   5.915   2.171   1.193
 1146SOL    HW1 4337   5.837   2.109   1.206
 1146SOL    HW2 4338   5.943   2.208   1.281
 1147SOL     OW 4339   0.142   4.071   2.367
 1147SOL    HW1 4340   0.171   3.988   2.415
 1147SOL    HW2 4341   0.204   4.146   2.388
 1148SOL     OW 4342   3.856   6.863   6.579
 1148SOL    HW1 4343   3.841   6.769   6.548
 1148SOL    HW2 4344   3.921   6.863   6.655
 1149SOL     OW 4345   6.290   3.614   3.073
 1149SOL    HW1 4346   6.283   3.663   2.986
 1149SOL    HW2 4347   6.387   3.600   3.096
 1150SOL     OW 4348   2.027   5.109   0.788
 1150SOL    HW1 4349   2.110   5.164   0.776
 1150SOL    HW2 4350   1.970   5.119   0.706
 1151SOL     OW 4351   5.940   5.279   6.481
 1151SOL    HW1 4352   5.972   5.260   6.388
 1151SOL    HW2 4353   5.841   5.295   6.480
 1152SOL     OW 4354   1.478   0.268   5.117
 1152SOL    HW1 4355   1.465   0.218   5.202
 1152SOL    HW2 4356   1.561   0.325   5.123
 1153SOL     OW 4357   2.221   5.296   2.782
 1153SOL    HW1 4358   2.290   5.281   2.711
 1153SOL    HW2 4359   2.223   5.392   2.810
 1154SOL     OW 4360   0.400   3.840   2.186
 1154SOL    HW1 4361   0.345   3.920   2.160
 1154SOL    HW2 4362   0.359   3.758   2.147
 1155SOL     OW 4363   4.137   6.261   1.634
 1155SOL    HW1 4364   4.151   6.177   1.686
 1155SOL    HW2 4365   4.215   6.277   1.574
 1156SOL     OW 4366   2.101   0.301   4.308
 1156SOL    HW1 4367   2.159   0.313   4.389
 1156SOL    HW2 4368   2.114   0.380   4.248
 1157SOL     OW 4369   6.963   2.561   4.020
 1157SOL    HW1 4370   6.905   2.494   3.974
 1157SOL    HW2 4371   7.017   2.611   3.952
 1158SOL     OW 4372   5.991   5.155   5.724
 1158SOL    HW1 4373   5.933   5.114   5.794
 1158SOL    HW2 4374   5.972   5.112   5.635
 1159SOL     OW 4375   4.104   5.218   2.821
 1159SOL    HW1 4376   4.073   5.308   2.789
 1159SOL    HW2 4377   4.026   5.166   2.855
 1160SOL     OW 4378   4.138   3.407   2.343
 1160SOL    HW1 4379   4.133   3.315   2.303
 1160SOL    HW2 4380   4.180   3.401   2.433
 1161SOL     OW 4381   6.056   0.603   3.702
 1161SOL    HW1 4382   6.115   0.572   3.627
 1161SOL    HW2 4383   5.962   0.575   3.684
 1162SOL     OW 4384   3.565   4.192   2.148
 1162SOL    HW1 4385   3.623   4.152   2.219
 1162SOL    HW2 4386   3.617   4.262   2.098
 1163SOL     OW 4387   5.042   2.465   2.000
 1163SOL    HW1 4388   5.124   2.477   1.944
 1163SOL    HW2 4389   4.961   2.474   1.941
 1164SOL     OW 4390   5.585   2.921   3.422
 1164SOL    HW1 4391   5.535   2.866   3.356
 1164SOL    HW2 4392   5.659   2.866   3.462
 1165SOL     OW 4393   1.001   3.307   3.693
 1165SOL    HW1 4394   1.047   3.356   3.620
 1165SOL    HW2 4395   1.053   3.316   3.778
 1166SOL     OW 4396   4.290   2.225   6.244
 1166SOL    HW1 4397   4.386   2.212   6.270
 1166SOL    HW2 4398   4.274   2.185   6.154
 1167SOL     OW 4399   4.845   0.920   5.014
 1167SOL    HW1 4400   4.770   0.939   5.078
 1167SOL    HW2 4401   4.883   1.006   4.981
 1168SOL     OW 4402   7.007   6.681   3.651
 1168SOL    HW1 4403   6.969   6.589   3.642
 1168SOL    HW2 4404   0.085   6.676   3.663
 1169SOL     OW 4405   1.172   3.508   1.512
 1169SOL    HW1 4406   1.177   3.527   1.414
 1169SOL    HW2 4407   1.077   3.507   1.541
 1170SOL     OW 4408   3.354   1.400   2.119
 1170SOL    HW1 4409   3.443   1.445   2.112
 1170SOL    HW2 4410   3.285   1.467   2.149
 1171SOL     OW 4411   2.985   5.757   1.414
 1171SOL    HW1 4412   2.937   5.688   1.468
 1171SOL    HW2 4413   2.918   5.813   1.364
 1172SOL     OW 4414   2.961   3.767   4.445
 1172SOL    HW1 4415   2.959   3.667   4.447
 1172SOL    HW2 4416   2.986   3.797   4.353
 1173SOL     OW 4417   2.884   0.778   5.983
 1173SOL    HW1 4418   2.879   0.720   6.064
 1173SOL    HW2 4419   2.817   0.748   5.915
 1174SOL     OW 4420   2.778   5.988   0.517
 1174SOL    HW1 4421   2.865   6.033   0.537
 1174SOL    HW2 4422   2.766   5.983   0.417
 1175SOL     OW 4423   6.251   4.771   6.221
 1175SOL    HW1 4424   6.288   4.684   6.251
 1175SOL    HW2 4425   6.163   4.788   6.265
 1176SOL     OW 4426   5.529   4.619   1.033
 1176SOL    HW1 4427   5.553   4.596   1.127
 1176SOL    HW2 4428   5.454   4.560   1.003
 1177SOL     OW 4429   6.919   3.243   5.703
 1177SOL    HW1 4430   6.835   3.231   5.756
 1177SOL    HW2 4431   6.897   3.286   5.616
 1178SOL     OW 4432   5.114   3.821   1.916
 1178SOL    HW1 4433   5.071   3.855   1.832
 1178SOL    HW2 4434   5.153   3.731   1.899
 1179SOL     OW 4435   1.887   5.040   6.958
 1179SOL    HW1 4436   1.828   4.960   6.967
 1179SOL    HW2 4437   1.982   5.013   6.972
 1180SOL     OW 4438   1.885   1.652   4.117
 1180SOL    HW1 4439   1.909   1.555   4.122
 1180SOL    HW2 4440   1.878   1.679   4.021
 1181SOL     OW 4441   1.819   4.242   4.028
 1181SOL    HW1 4442   1.832   4.338   4.055
 1181SOL    HW2 4443   1.747   4.201   4.084
 1182SOL     OW 4444   2.264   4.161   3.676
 1182SOL    HW1 4445   2.199   4.086   3.676
 1182SOL    HW2 4446   2.243   4.223   3.752
 1183SOL     OW 4447   4.345   6.354   1.493
 1183SOL    HW1 4448   4.325   6.379   1.398
 1183SOL    HW2 4449   4.408   6.276   1.494
 1184SOL     OW 4450   3.112   2.929   5.207
 1184SOL    HW1 4451   3.132   2.834   5.232
 1184SOL    HW2 4452   3.018   2.951   5.234
 1185SOL     OW 4453   1.651   0.194   0.025
 1185SOL    HW1 4454   1.734   0.194   0.081
 1185SOL    HW2 4455   1.656   0.120   6.978
 1186SOL     OW 4456   5.756   0.447   4.656
 1186SOL    HW1 4457   5.847   0.454   4.615
 1186SOL    HW2 4458   5.765   0.435   4.755
 1187SOL     OW 4459   6.098   6.649   5.262
 1187SOL    HW1 4460   6.137   6.625   5.173
 1187SOL    HW2 4461   6.051   6.570   5.300
 1188SOL     OW 4462   2.058   6.586   5.781
 1188SOL    HW1 4463   2.107   6.639   5.851
 1188SOL    HW2 4464   2.022   6.502   5.821
 1189SOL     OW 4465   5.726   1.180   1.407
 1189SOL    HW1 4466   5.691   1.130   1.327
 1189SOL    HW2 4467   5.809   1.229   1.382
 1190SOL     OW 4468   5.020   5.244   2.660
 1190SOL    HW1 4469   4.990   5.235   2.565
 1190SOL    HW2 4470   4.944   5.275   2.717
 1191SOL     OW 4471   3.027   5.407   6.001
 1191SOL    HW1 4472   3.045   5.309   6.009
 1191SOL    HW2 4473   3.099   5.450   5.946
 1192SOL     OW 4474   5.958   5.347   3.162
 1192SOL    HW1 4475   6.005   5.389   3.084
 1192SOL    HW2 4476   5.879   5.295   3.128
 1193SOL     OW 4477   4.816   0.460   4.054
 1193SOL    HW1 4478   4.755   0.489   3.981
 1193SOL    HW2 4479   4.843   0.365   4.039
 1194SOL     OW 4480   6.549   0.947   0.672
 1194SOL    HW1 4481   6.616   0.995   0.728
 1194SOL    HW2 4482   6.582   0.854   0.653
 1195SOL     OW 4483   5.258   0.693   6.338
 1195SOL    HW1 4484   5.347   0.708   6.382
 1195SOL    HW2 4485   5.242   0.595   6.328
 1196SOL     OW 4486   0.182   5.492   2.616
 1196SOL    HW1 4487   0.175   5.584   2.578
 1196SOL    HW2 4488   0.264   5.448   2.581
 1197SOL     OW 4489   3.836   5.837   5.433
 1197SOL    HW1 4490   3.799   5.929   5.419
 1197SOL    HW2 4491   3.764   5.770   5.418
 1198SOL     OW 4492   3.073   2.171   3.344
 1198SOL    HW1 4493   3.106   2.258   3.379
 1198SOL    HW2 4494   2.994   2.140   3.398
 1199SOL     OW 4495   3.295   4.265   1.695
 1199SOL    HW1 4496   3.382   4.240   1.738
 1199SOL    HW2 4497   3.223   4.204   1.727
 1200SOL     OW 4498   4.101   4.514   6.517
 1200SOL    HW1 4499   4.188   4.466   6.530
 1200SOL    HW2 4500   4.042   4.460   6.458
 1201SOL     OW 4501   1.351   1.716   4.717
 1201SOL    HW1 4502   1.391   1.632   4.752
 1201SOL    HW2 4503   1.393   1.739   4.629
 1202SOL     OW 4504   5.630   0.186   4.601
 1202SOL    HW1 4505   5.611   0.133   4.684
 1202SOL    HW2 4506   5.683   0.267   4.625
 1203SOL     OW 4507   5.387   0.216   1.023
 1203SOL    HW1 4508   5.341   0.127   1.026
 1203SOL    HW2 4509   5.388   0.256   1.115
 1204SOL     OW 4510   3.618   0.798   0.471
 1204SOL    HW1 4511   3.549   0.860   0.507
 1204SOL    HW2 4512   3.698   0.850   0.441
 1205SOL     OW 4513   6.085   1.820   5.487
 1205SOL    HW1 4514   6.031   1.808   5.570
 1205SOL    HW2 4515   6.079   1.737   5.431
 1206SOL     OW 4516   2.058   1.325   4.999
 1206SOL    HW1 4517   2.078   1.378   4.916
 1206SOL    HW2 4518   1.967   1.284   4.992
 1207SOL     OW 4519   5.733   0.137   0.158
 1207SOL    HW1 4520   5.721   0.120   0.060
 1207SOL    HW2 4521   5.790   0.065   0.197
 1208SOL     OW 4522   3.751   4.018   2.659
 1208SOL    HW1 4523   3.748   3.925   2.621
 1208SOL    HW2 4524   3.713   4.019   2.751
 1209SOL     OW 4525   5.839   5.561   4.578
 1209SOL    HW1 4526   5.862   5.533   4.485
 1209SOL    HW2 4527   5.777   5.493   4.619
 1210SOL     OW 4528   4.296   0.120   3.090
 1210SOL    HW1 4529   4.259   0.211   3.072
 1210SOL    HW2 4530   4.389   0.128   3.125
 1211SOL     OW 4531   1.413   4.120   4.308
 1211SOL    HW1 4532   1.331   4.072   4.338
 1211SOL    HW2 4533   1.420   4.208   4.356
 1212SOL     OW 4534   1.304   3.949   4.730
 1212SOL    HW1 4535   1.238   3.921   4.799
 1212SOL    HW2 4536   1.394   3.960   4.771
 1213SOL     OW 4537   6.352   2.593   5.327
 1213SOL    HW1 4538   6.347   2.648   5.243
 1213SOL    HW2 4539   6.259   2.566   5.353
 1214SOL     OW 4540   1.435   3.566   3.966
 1214SOL    HW1 4541   1.495   3.500   4.011
 1214SOL    HW2 4542   1.459   3.573   3.869
 1215SOL     OW 4543   1.465   3.881   3.172
 1215SOL    HW1 4544   1.518   3.797   3.159
 1215SOL    HW2 4545   1.417   3.877   3.259
 1216SOL     OW 4546   1.239   0.408   1.741
 1216SOL    HW1 4547   1.328   0.363   1.740
 1216SOL    HW2 4548   1.189   0.387   1.658
 1217SOL     OW 4549   1.511   6.733   1.180
 1217SOL    HW1 4550   1.538   6.638   1.161
 1217SOL    HW2 4551   1.424   6.734   1.229
 1218SOL     OW 4552   0.072   3.290   4.474
 1218SOL    HW1 4553   7.006   3.338   4.483
 1218SOL    HW2 4554   0.128   3.306   4.555
 1219SOL     OW 4555   3.626   6.188   1.386
 1219SOL    HW1 4556   3.724   6.186   1.408
 1219SOL    HW2 4557   3.575   6.223   1.464
 1220SOL     OW 4558   5.916   2.642   3.271
 1220SOL    HW1 4559   5.825   2.600   3.270
 1220SOL    HW2 4560   5.923   2.705   3.348
 1221SOL     OW 4561   4.790   3.510   0.381
 1221SOL    HW1 4562   4.831   3.571   0.449
 1221SOL    HW2 4563   4.690   3.517   0.385
 1222SOL     OW 4564   0.239   6.908   1.063
 1222SOL    HW1 4565   0.159   6.902   1.123
 1222SOL    HW2 4566   0.311   6.848   1.098
 1223SOL     OW 4567   6.186   0.233   5.837
 1223SOL    HW1 4568   6.264   0.292   5.859
 1223SOL    HW2 4569   6.102   0.278   5.867
 1224SOL     OW 4570   4.220   5.687   1.110
 1224SOL    HW1 4571   4.260   5.773   1.075
 1224SOL    HW2 4572   4.265   5.662   1.195
 1225SOL     OW 4573   4.968   1.834   0.709
 1225SOL    HW1 4574   4.993   1.793   0.797
 1225SOL    HW2 4575   5.039   1.815   0.642
 1226SOL     OW 4576   6.164   6.223   1.202
 1226SOL    HW1 4577   6.197   6.187   1.115
 1226SOL    HW2 4578   6.238   6.224   1.268
 1227SOL     OW 4579   5.587   3.821   5.537
 1227SOL    HW1 4580   5.627   3.761   5.606
 1227SOL    HW2 4581   5.508   3.776   5.496
 1228SOL     OW 4582   3.666   3.152   2.350
 1228SOL    HW1 4583   3.615   3.231   2.383
 1228SOL    HW2 4584   3.614   3.105   2.279
 1229SOL     OW 4585   1.696   6.038   2.519
 1229SOL    HW1 4586   1.670   6.112   2.580
 1229SOL    HW2 4587   1.743   6.076   2.439
 1230SOL     OW 4588   5.125   5.172   1.342
 1230SOL    HW1 4589   5.070   5.213   1.269
 1230SOL    HW2 4590   5.090   5.081   1.363
 1231SOL     OW 4591   1.744   2.126   6.689
 1231SOL    HW1 4592   1.742   2.119   6.589
 1231SOL    HW2 4593   1.692   2.206   6.718
 1232SOL     OW 4594   3.083   0.740   5.285
 1232SOL    HW1 4595   3.058   0.682   5.208
 1232SOL    HW2 4596   3.009   0.738   5.353
 1233SOL     OW 4597   0.237   5.357   4.032
 1233SOL    HW1 4598   0.187   5.438   4.000
 1233SOL    HW2 4599   0.242   5.359   4.132
 1234SOL     OW 4600   6.645   3.272   6.689
 1234SOL    HW1 4601   6.652   3.174   6.706
 1234SOL    HW2 4602   6.733   3.307   6.656
 1235SOL     OW 4603   6.310   5.143   0.355
 1235SOL    HW1 4604   6.400   5.185   0.368
 1235SOL    HW2 4605   6.292   5.133   0.257
 1236SOL     OW 4606   2.417   0.771   1.313
 1236SOL    HW1 4607   2.379   0.863   1.318
 1236SOL    HW2 4608   2.467   0.752   1.398
 1237SOL     OW 4609   1.171   0.295   4.786
 1237SOL    HW1 4610   1.140   0.223   4.723
 1237SOL    HW2 4611   1.150   0.268   4.880
 1238SOL     OW 4612   6.999   0.051   3.853
 1238SOL    HW1 4613   0.050   0.042   3.785
 1238SOL    HW2 4614   6.924   0.107   3.816
 1239SOL     OW 4615   5.832   5.166   4.259
 1239SOL    HW1 4616   5.902   5.181   4.329
 1239SOL    HW2 4617   5.748   5.213   4.286
 1240SOL     OW 4618   5.574   4.859   2.909
 1240SOL    HW1 4619   5.523   4.926   2.963
 1240SOL    HW2 4620   5.516   4.780   2.890
 1241SOL     OW 4621   5.604   5.282   4.324
 1241SOL    HW1 4622   5.582   5.335   4.406
 1241SOL    HW2 4623   5.527   5.286   4.260
 1242SOL     OW 4624   1.682   4.523   0.060
 1242SOL    HW1 4625   1.732   4.438   0.077
 1242SOL    HW2 4626   1.659   4.567   0.147
 1243SOL     OW 4627   0.920   4.437   4.809
 1243SOL    HW1 4628   0.936   4.353   4.860
 1243SOL    HW2 4629   0.929   4.420   4.711
 1244SOL     OW 4630   5.465   6.244   4.623
 1244SOL    HW1 4631   5.481   6.337   4.590
 1244SOL    HW2 4632   5.547   6.188   4.608
 1245SOL     OW 4633   5.388   6.189   2.277
 1245SOL    HW1 4634   5.320   6.251   2.316
 1245SOL    HW2 4635   5.342   6.106   2.244
 1246SOL     OW 4636   4.581   1.731   1.091
 1246SOL    HW1 4637   4.594   1.632   1.089
 1246SOL    HW2 4638   4.502   1.756   1.034
 1247SOL     OW 4639   6.555   6.657   3.245
 1247SOL    HW1 4640   6.588   6.581   3.189
 1247SOL    HW2 4641   6.540   6.626   3.339
 1248SOL     OW 4642   0.472   6.841   4.940
 1248SOL    HW1 4643   0.555   6.839   4.996
 1248SOL    HW2 4644   0.493   6.882   4.851
 1249SOL     OW 4645   6.913   4.659   0.280
 1249SOL    HW1 4646   6.945   4.729   0.344
 1249SOL    HW2 4647   6.833   4.613   0.318
 1250SOL     OW 4648   5.819   2.747   5.381
 1250SOL    HW1 4649   5.788   2.652   5.393
 1250SOL    HW2 4650   5.835   2.788   5.471
 1251SOL     OW 4651   2.709   0.453   2.686
 1251SOL    HW1 4652   2.746   0.365   2.655
 1251SOL    HW2 4653   2.741   0.526   2.626
 1252SOL     OW 4654   2.290   5.148   0.626
 1252SOL    HW1 4655   2.373   5.203   0.615
 1252SOL    HW2 4656   2.239   5.147   0.540
 1253SOL     OW 4657   3.282   0.900   1.403
 1253SOL    HW1 4658   3.366   0.934   1.444
 1253SOL    HW2 4659   3.280   0.800   1.406
 1254SOL     OW 4660   6.646   1.595   2.263
 1254SOL    HW1 4661   6.695   1.680   2.283
 1254SOL    HW2 4662   6.683   1.521   2.320
 1255SOL     OW 4663   5.420   1.624   4.678
 1255SOL    HW1 4664   5.403   1.572   4.594
 1255SOL    HW2 4665   5.404   1.566   4.757
 1256SOL     OW 4666   0.344   6.193   4.389
 1256SOL    HW1 4667   0.442   6.178   4.403
 1256SOL    HW2 4668   0.314   6.271   4.444
 1257SOL     OW 4669   0.663   5.097   3.743
 1257SOL    HW1 4670   0.596   5.036   3.786
 1257SOL    HW2 4671   0.707   5.152   3.814
 1258SOL     OW 4672   3.308   6.329   4.791
 1258SOL    HW1 4673   3.236   6.265   4.763
 1258SOL    HW2 4674   3.307   6.409   4.730
 1259SOL     OW 4675   5.383   7.013   4.687
 1259SOL    HW1 4676   5.423   6.997   4.777
 1259SOL    HW2 4677   5.333   0.078   4.688
 1260SOL     OW 4678   1.798   0.488   1.571
 1260SOL    HW1 4679   1.869   0.502   1.641
 1260SOL    HW2 4680   1.767   0.577   1.537
 1261SOL     OW 4681   6.917   4.527   6.200
 1261SOL    HW1 4682   7.012   4.516   6.230
 1261SOL    HW2 4683   6.863   4.449   6.230
 1262SOL     OW 4684   5.667   5.520   0.608
 1262SOL    HW1 4685   5.757   5.477   0.597
 1262SOL    HW2 4686   5.596   5.449   0.606
 1263SOL     OW 4687   0.556   2.374   1.315
 1263SOL    HW1 4688   0.651   2.400   1.299
 1263SOL    HW2 4689   0.500   2.456   1.328
 1264SOL     OW 4690   0.936   3.601   3.567
 1264SOL    HW1 4691   0.995   3.682   3.574
 1264SOL    HW2 4692   0.860   3.609   3.631
 1265SOL     OW 4693   6.809   4.623   4.879
 1265SOL    HW1 4694   6.851   4.711   4.900
 1265SOL    HW2 4695   6.744   4.599   4.951
 1266SOL     OW 4696   2.796   1.574   5.503
 1266SOL    HW1 4697   2.846   1.647   5.550
 1266SOL    HW2 4698   2.851   1.540   5.427
 1267SOL     OW 4699   0.065   5.486   3.260
 1267SOL    HW1 4700   7.013   5.534   3.212
 1267SOL    HW2 4701   0.084   5.399   3.215
 1268SOL     OW 4702   5.149   2.752   6.458
 1268SOL    HW1 4703   5.176   2.838   6.502
 1268SOL    HW2 4704   5.188   2.675   6.508
 1269SOL     OW 4705   6.762   5.603   5.458
 1269SOL    HW1 4706   6.677   5.551   5.453
 1269SOL    HW2 4707   6.762   5.660   5.540
 1270SOL     OW 4708   2.034   3.975   4.331
 1270SOL    HW1 4709   1.949   4.020   4.302
 1270SOL    HW2 4710   2.016   3.878   4.347
 1271SOL     OW 4711   3.260   1.797   2.619
 1271SOL    HW1 4712   3.261   1.822   2.522
 1271SOL    HW2 4713   3.240   1.877   2.674
 1272SOL     OW 4714   6.727   5.254   1.383
 1272SOL    HW1 4715   6.757   5.159   1.367
 1272SOL    HW2 4716   6.655   5.254   1.452
 1273SOL     OW 4717   2.422   4.587   6.564
 1273SOL    HW1 4718   2.362   4.580   6.484
 1273SOL    HW2 4719   2.395   4.665   6.620
 1274SOL     OW 4720   6.769   2.867   1.964
 1274SOL    HW1 4721   6.789   2.961   1.992
 1274SOL    HW2 4722   6.764   2.863   1.864
 1275SOL     OW 4723   4.533   1.177   4.810
 1275SOL    HW1 4724   4.614   1.219   4.770
 1275SOL    HW2 4725   4.559   1.099   4.867
 1276SOL     OW 4726   0.422   0.706   2.532
 1276SOL    HW1 4727   0.367   0.718   2.614
 1276SOL    HW2 4728   0.396   0.773   2.464
 1277SOL     OW 4729   6.735   0.816   4.383
 1277SOL    HW1 4730   6.811   0.879   4.363
 1277SOL    HW2 4731   6.648   0.864   4.372
 1278SOL     OW 4732   2.169   1.610   5.150
 1278SOL    HW1 4733   2.203   1.670   5.222
 1278SOL    HW2 4734   2.108   1.661   5.090
 1279SOL     OW 4735   2.729   5.920   0.245
 1279SOL    HW1 4736   2.695   5.934   0.151
 1279SOL    HW2 4737   2.685   5.839   0.283
 1280SOL     OW 4738   2.163   0.242   3.252
 1280SOL    HW1 4739   2.211   0.294   3.182
 1280SOL    HW2 4740   2.138   0.152   3.216
 1281SOL     OW 4741   1.482   6.366   3.279
 1281SOL    HW1 4742   1.549   6.439   3.266
 1281SOL    HW2 4743   1.430   6.383   3.363
 1282SOL     OW 4744   0.849   1.304   1.190
 1282SOL    HW1 4745   0.874   1.390   1.235
 1282SOL    HW2 4746   0.930   1.265   1.145
 1283SOL     OW 4747   5.306   4.441   5.188
 1283SOL    HW1 4748   5.406   4.449   5.194
 1283SOL    HW2 4749   5.264   4.499   5.257
 1284SOL     OW 4750   3.070   2.674   1.713
 1284SOL    HW1 4751   3.115   2.618   1.644
 1284SOL    HW2 4752   2.996   2.620   1.756
 1285SOL     OW 4753   4.850   2.498   5.988
 1285SOL    HW1 4754   4.771   2.480   6.047
 1285SOL    HW2 4755   4.859   2.597   5.975
 1286SOL     OW 4756   5.562   4.163   2.166
 1286SOL    HW1 4757   5.531   4.073   2.136
 1286SOL    HW2 4758   5.553   4.228   2.091
 1287SOL     OW 4759   5.927   5.765   0.186
 1287SOL    HW1 4760   5.972   5.682   0.220
 1287SOL    HW2 4761   5.846   5.739   0.133
 1288SOL     OW 4762   0.241   3.185   6.915
 1288SOL    HW1 4763   0.157   3.207   6.866
 1288SOL    HW2 4764   0.236   3.221   7.008
 1289SOL     OW 4765   6.675   6.176   2.426
 1289SOL    HW1 4766   6.604   6.111   2.402
 1289SOL    HW2 4767   6.643   6.269   2.410
 1290SOL     OW 4768   0.935   6.883   6.734
 1290SOL    HW1 4769   0.974   6.974   6.751
 1290SOL    HW2 4770   1.009   6.816   6.728
 1291SOL     OW 4771   1.127   5.934   6.269
 1291SOL    HW1 4772   1.209   5.992   6.270
 1291SOL    HW2 4773   1.144   5.854   6.211
 1292SOL     OW 4774   0.456   4.817   0.833
 1292SOL    HW1 4775   0.381   4.882   0.819
 1292SOL    HW2 4776   0.543   4.866   0.833
 1293SOL     OW 4777   1.603   1.687   6.920
 1293SOL    HW1 4778   1.635   1.601   6.960
 1293SOL    HW2 4779   1.682   1.745   6.900
 1294SOL     OW 4780   1.037   3.291   2.463
 1294SOL    HW1 4781   1.111   3.243   2.509
 1294SOL    HW2 4782   0.990   3.228   2.401
 1295SOL     OW 4783   5.571   3.246   2.050
 1295SOL    HW1 4784   5.483   3.202   2.064
 1295SOL    HW2 4785   5.641   3.177   2.031
 1296SOL     OW 4786   3.597   2.444   6.586
 1296SOL    HW1 4787   3.664   2.398   6.646
 1296SOL    HW2 4788   3.574   2.533   6.625
 1297SOL     OW 4789   6.578   1.436   5.707
 1297SOL    HW1 4790   6.646   1.486   5.653
 1297SOL    HW2 4791   6.618   1.351   5.741
 1298SOL     OW 4792   5.659   2.951   2.602
 1298SOL    HW1 4793   5.707   2.907   2.526
 1298SOL    HW2 4794   5.586   3.010   2.566
 1299SOL     OW 4795   1.144   4.494   4.012
 1299SOL    HW1 4796   1.148   4.510   3.913
 1299SOL    HW2 4797   1.234   4.510   4.052
 1300SOL     OW 4798   2.722   3.584   1.717
 1300SOL    HW1 4799   2.792   3.527   1.674
 1300SOL    HW2 4800   2.633   3.540   1.708
 1301SOL     OW 4801   0.554   6.631   3.761
 1301SOL    HW1 4802   0.535   6.538   3.793
 1301SOL    HW2 4803   0.468   6.675   3.734
 1302SOL     OW 4804   2.907   6.808   5.466
 1302SOL    HW1 4805   2.941   6.902   5.465
 1302SOL    HW2 4806   2.827   6.802   5.527
 1303SOL     OW 4807   3.967   1.588   1.112
 1303SOL    HW1 4808   3.939   1.537   1.030
 1303SOL    HW2 4809   3.907   1.668   1.122
 1304SOL     OW 4810   1.860   0.252   6.309
 1304SOL    HW1 4811   1.896   0.211   6.393
 1304SOL    HW2 4812   1.931   0.251   6.238
 1305SOL     OW 4813   4.735   6.455   4.449
 1305SOL    HW1 4814   4.786   6.540   4.432
 1305SOL    HW2 4815   4.648   6.458   4.400
 1306SOL     OW 4816   0.633   4.082   4.626
 1306SOL    HW1 4817   0.598   4.000   4.580
 1306SOL    HW2 4818   0.601   4.082   4.721
 1307SOL     OW 4819   1.339   3.529   5.190
 1307SOL    HW1 4820   1.246   3.503   5.166
 1307SOL    HW2 4821   1.388   3.450   5.227
 1308SOL     OW 4822   4.126   5.469   4.300
 1308SOL    HW1 4823   4.072   5.547   4.269
 1308SOL    HW2 4824   4.212   5.501   4.340
 1309SOL     OW 4825   5.538   2.821   4.967
 1309SOL    HW1 4826   5.497   2.735   4.998
 1309SOL    HW2 4827   5.471   2.872   4.913
 1310SOL     OW 4828   5.799   4.433   4.063
 1310SOL    HW1 4829   5.729   4.407   4.129
 1310SOL    HW2 4830   5.804   4.364   3.991
 1311SOL     OW 4831   6.096   6.978   4.718
 1311SOL    HW1 4832   6.096   6.878   4.709
 1311SOL    HW2 4833   6.190   7.011   4.715
 1312SOL     OW 4834   0.876   6.864   0.062
 1312SOL    HW1 4835   0.937   6.913   0.123
 1312SOL    HW2 4836   0.912   6.867   6.989
 1313SOL     OW 4837   3.484   5.571   5.145
 1313SOL    HW1 4838   3.482   5.491   5.205
 1313SOL    HW2 4839   3.399   5.576   5.093
 1314SOL     OW 4840   1.395   1.527   5.646
 1314SOL    HW1 4841   1.417   1.431   5.660
 1314SOL    HW2 4842   1.438   1.559   5.561
 1315SOL     OW 4843   2.249   1.572   0.735
 1315SOL    HW1 4844   2.163   1.564   0.685
 1315SOL    HW2 4845   2.315   1.506   0.698
 1316SOL     OW 4846   2.285   0.147   3.495
 1316SOL    HW1 4847   2.324   0.055   3.481
 1316SOL    HW2 4848   2.240   0.177   3.411
 1317SOL     OW 4849   0.500   4.360   4.396
 1317SOL    HW1 4850   0.565   4.353   4.472
 1317SOL    HW2 4851   0.544   4.409   4.320
 1318SOL     OW 4852   0.181   0.898   0.742
 1318SOL    HW1 4853   0.145   0.820   0.793
 1318SOL    HW2 4854   0.186   0.978   0.803
 1319SOL     OW 4855   0.283   1.095   0.922
 1319SOL    HW1 4856   0.210   1.149   0.881
 1319SOL    HW2 4857   0.361   1.154   0.943
 1320SOL     OW 4858   5.870   4.519   6.367
 1320SOL    HW1 4859   5.789   4.558   6.323
 1320SOL    HW2 4860   5.884   4.425   6.335
 1321SOL     OW 4861   4.006   3.692   6.467
 1321SOL    HW1 4862   3.957   3.609   6.496
 1321SOL    HW2 4863   4.034   3.743   6.548
 1322SOL     OW 4864   5.945   1.214   3.661
 1322SOL    HW1 4865   5.924   1.159   3.579
 1322SOL    HW2 4866   6.004   1.161   3.722
 1323SOL     OW 4867   0.230   1.317   5.257
 1323SOL    HW1 4868   0.149   1.280   5.211
 1323SOL    HW2 4869   0.208   1.338   5.352
 1324SOL     OW 4870   1.444   2.828   1.641
 1324SOL    HW1 4871   1.370   2.783   1.691
 1324SOL    HW2 4872   1.452   2.788   1.549
 1325SOL     OW 4873   1.570   6.174   3.432
 1325SOL    HW1 4874   1.546   6.081   3.405
 1325SOL    HW2 4875   1.535   6.239   3.364
 1326SOL     OW 4876   5.338   2.503   4.799
 1326SOL    HW1 4877   5.287   2.588   4.781
 1326SOL    HW2 4878   5.383   2.510   4.888
 1327SOL     OW 4879   2.668   4.905   2.697
 1327SOL    HW1 4880   2.757   4.946   2.676
 1327SOL    HW2 4881   2.647   4.834   2.630
 1328SOL     OW 4882   2.011   1.876   6.261
 1328SOL    HW1 4883   1.986   1.782   6.235
 1328SOL    HW2 4884   2.059   1.875   6.348
 1329SOL     OW 4885   0.721   1.433   0.546
 1329SOL    HW1 4886   0.742   1.464   0.638
 1329SOL    HW2 4887   0.752   1.501   0.480
 1330SOL     OW 4888   6.628   1.008   1.078
 1330SOL    HW1 4889   6.537   0.975   1.103
 1330SOL    HW2 4890   6.698   0.951   1.122
 1331SOL     OW 4891   6.077   0.747   2.079
 1331SOL    HW1 4892   6.139   0.763   2.155
 1331SOL    HW2 4893   6.002   0.813   2.082
 1332SOL     OW 4894   4.180   2.065   1.540
 1332SOL    HW1 4895   4.095   2.072   1.592
 1332SOL    HW2 4896   4.257   2.088   1.599
 1333SOL     OW 4897   3.581   4.176   4.754
 1333SOL    HW1 4898   3.621   4.118   4.826
 1333SOL    HW2 4899   3.646   4.247   4.728
 1334SOL     OW 4900   1.412   4.203   4.889
 1334SOL    HW1 4901   1.485   4.268   4.909
 1334SOL    HW2 4902   1.447   4.110   4.896
 1335SOL     OW 4903   2.245   6.347   3.218
 1335SOL    HW1 4904   2.287   6.333   3.307
 1335SOL    HW2 4905   2.222   6.444   3.207
 1336SOL     OW 4906   1.298   1.510   6.336
 1336SOL    HW1 4907   1.353   1.458   6.402
 1336SOL    HW2 4908   1.209   1.532   6.377
 1337SOL     OW 4909   2.046   2.159   6.357
 1337SOL    HW1 4910   2.084   2.179   6.447
 1337SOL    HW2 4911   2.107   2.097   6.308
 1338SOL     OW 4912   4.017   4.767   6.252
 1338SOL    HW1 4913   4.112   4.799   6.253
 1338SOL    HW2 4914   4.015   4.672   6.220
 1339SOL     OW 4915   0.158   4.449   6.275
 1339SOL    HW1 4916   0.238   4.474   6.221
 1339SOL    HW2 4917   0.100   4.388   6.221
 1340SOL     OW 4918   1.214   2.255   6.980
 1340SOL    HW1 4919   1.243   2.169   6.939
 1340SOL    HW2 4920   1.235   2.253   0.057
 1341SOL     OW 4921   3.463   0.800   3.997
 1341SOL    HW1 4922   3.394   0.872   4.003
 1341SOL    HW2 4923   3.554   0.841   4.002
 1342SOL     OW 4924   0.663   5.969   5.809
 1342SOL    HW1 4925   0.732   6.040   5.796
 1342SOL    HW2 4926   0.574   6.011   5.825
 1343SOL     OW 4927   3.652   5.902   2.506
 1343SOL    HW1 4928   3.683   5.991   2.474
 1343SOL    HW2 4929   3.602   5.856   2.433
 1344SOL     OW 4930   6.333   1.462   3.151
 1344SOL    HW1 4931   6.270   1.539   3.159
 1344SOL    HW2 4932   6.364   1.435   3.241
 1345SOL     OW 4933   0.663   0.926   3.380
 1345SOL    HW1 4934   0.575   0.937   3.426
 1345SOL    HW2 4935   0.731   0.892   3.445
 1346SOL     OW 4936   0.352   6.921   3.701
 1346SOL    HW1 4937   0.294   6.841   3.682
 1346SOL    HW2 4938   0.297   7.004   3.692
 1347SOL     OW 4939   6.354   6.342   3.108
 1347SOL    HW1 4940   6.324   6.296   3.192
 1347SOL    HW2 4941   6.451   6.367   3.117
 1348SOL     OW 4942   5.487   4.393   3.753
 1348SOL    HW1 4943   5.536   4.477   3.730
 1348SOL    HW2 4944   5.442   4.403   3.842
 1349SOL     OW 4945   4.159   2.672   0.025
 1349SOL    HW1 4946   4.086   2.625   0.075
 1349SOL    HW2 4947   4.121   2.716   6.965
 1350SOL     OW 4948   3.076   6.561   0.025
 1350SOL    HW1 4949   2.993   6.519   0.061
 1350SOL    HW2 4950   3.156   6.528   0.076
 1351SOL     OW 4951   0.391   0.912   4.514
 1351SOL    HW1 4952   0.363   0.869   4.428
 1351SOL    HW2 4953   0.408   1.009   4.498
 1352SOL     OW 4954   6.656   0.910   2.938
 1352SOL    HW1 4955   6.611   0.874   3.020
 1352SOL    HW2 4956   6.604   0.987   2.902
 1353SOL     OW 4957   0.125   4.280   5.192
 1353SOL    HW1 4958   0.058   4.316   5.127
 1353SOL    HW2 4959   0.085   4.201   5.239
 1354SOL     OW 4960   0.494   0.577   1.632
 1354SOL    HW1 4961   0.466   0.607   1.541
 1354SOL    HW2 4962   0.512   0.478   1.631
 1355SOL     OW 4963   5.360   3.886   6.823
 1355SOL    HW1 4964   5.311   3.805   6.854
 1355SOL    HW2 4965   5.295   3.954   6.789
 1356SOL     OW 4966   3.500   3.856   2.473
 1356SOL    HW1 4967   3.467   3.793   2.403
 1356SOL    HW2 4968   3.479   3.950   2.446
 1357SOL     OW 4969   2.393   3.211   6.124
 1357SOL    HW1 4970   2.385   3.112   6.111
 1357SOL    HW2 4971   2.478   3.244   6.084
 1358SOL     OW 4972   2.131   2.564   6.684
 1358SOL    HW1 4973   2.224   2.591   6.708
 1358SOL    HW2 4974   2.066   2.630   6.722
 1359SOL     OW 4975   6.161   3.786   1.211
 1359SOL    HW1 4976   6.200   3.860   1.267
 1359SOL    HW2 4977   6.110   3.724   1.270
 1360SOL     OW 4978   3.626   3.552   2.934
 1360SOL    HW1 4979   3.536   3.592   2.949
 1360SOL    HW2 4980   3.680   3.558   3.018
 1361SOL     OW 4981   0.845   6.276   6.179
 1361SOL    HW1 4982   0.780   6.201   6.168
 1361SOL    HW2 4983   0.797   6.359   6.205
 1362SOL     OW 4984   2.864   3.455   5.782
 1362SOL    HW1 4985   2.845   3.359   5.802
 1362SOL    HW2 4986   2.805   3.486   5.708
 1363SOL     OW 4987   6.627   6.098   2.986
 1363SOL    HW1 4988   6.670   6.015   2.950
 1363SOL    HW2 4989   6.630   6.170   2.917
 1364SOL     OW 4990   6.710   3.250   0.887
 1364SOL    HW1 4991   6.753   3.190   0.954
 1364SOL    HW2 4992   6.624   3.210   0.855
 1365SOL     OW 4993   0.764   3.126   6.024
 1365SOL    HW1 4994   0.723   3.057   5.964
 1365SOL    HW2 4995   0.705   3.206   6.029
 1366SOL     OW 4996   6.934   2.774   0.454
 1366SOL    HW1 4997   6.979   2.863   0.453
 1366SOL    HW2 4998   6.860   2.773   0.386
 1367SOL     OW 4999   0.422   4.659   4.077
 1367SOL    HW1 5000   0.371   4.656   4.163
 1367SOL    HW2 5001   0.358   4.654   4.000
 1368SOL     OW 5002   6.787   0.378   4.253
 1368SOL    HW1 5003   6.791   0.291   4.205
 1368SOL    HW2 5004   6.746   0.448   4.194
 1369SOL     OW 5005   1.939   5.969   2.319
 1369SOL    HW1 5006   1.971   5.899   2.383
 1369SOL    HW2 5007   1.840   5.961   2.306
 1370SOL     OW 5008   6.920   2.122   4.199
 1370SOL    HW1 5009   6.859   2.137   4.121
 1370SOL    HW2 5010   7.015   2.127   4.169
 1371SOL     OW 5011   5.617   1.254   4.451
 1371SOL    HW1 5012   5.541   1.315   4.475
 1371SOL    HW2 5013   5.692   1.267   4.515
 1372SOL     OW 5014   6.688   2.697   0.284
 1372SOL    HW1 5015   6.711   2.606   0.252
 1372SOL    HW2 5016   6.597   2.722   0.251
 1373SOL     OW 5017   4.595   2.791   1.734
 1373SOL    HW1 5018   4.588   2.885   1.769
 1373SOL    HW2 5019   4.691   2.769   1.717
 1374SOL     OW 5020   4.914   3.520   0.120
 1374SOL    HW1 5021   4.843   3.514   0.190
 1374SOL    HW2 5022   4.923   3.616   0.091
 1375SOL     OW 5023   6.477   6.210   5.249
 1375SOL    HW1 5024   6.437   6.190   5.338
 1375SOL    HW2 5025   6.492   6.309   5.241
 1376SOL     OW 5026   2.845   5.159   6.089
 1376SOL    HW1 5027   2.752   5.183   6.060
 1376SOL    HW2 5028   2.840   5.087   6.158
 1377SOL     OW 5029   1.309   2.736   3.130
 1377SOL    HW1 5030   1.237   2.805   3.121
 1377SOL    HW2 5031   1.395   2.781   3.155
 1378SOL     OW 5032   3.744   2.119   4.698
 1378SOL    HW1 5033   3.766   2.165   4.612
 1378SOL    HW2 5034   3.817   2.055   4.721
 1379SOL     OW 5035   5.354   5.293   1.386
 1379SOL    HW1 5036   5.349   5.275   1.484
 1379SOL    HW2 5037   5.266   5.272   1.344
 1380SOL     OW 5038   6.682   6.013   1.874
 1380SOL    HW1 5039   6.737   6.095   1.882
 1380SOL    HW2 5040   6.628   6.000   1.957
 1381SOL     OW 5041   6.187   2.201   5.822
 1381SOL    HW1 5042   6.094   2.164   5.815
 1381SOL    HW2 5043   6.251   2.139   5.777
 1382SOL     OW 5044   4.433   2.513   1.396
 1382SOL    HW1 5045   4.439   2.414   1.383
 1382SOL    HW2 5046   4.380   2.553   1.322
 1383SOL     OW 5047   1.567   0.556   2.025
 1383SOL    HW1 5048   1.667   0.551   2.035
 1383SOL    HW2 5049   1.525   0.482   2.077
 1384SOL     OW 5050   5.287   0.438   0.159
 1384SOL    HW1 5051   5.214   0.441   0.227
 1384SOL    HW2 5052   5.369   0.398   0.200
 1385SOL     OW 5053   1.752   5.118   3.687
 1385SOL    HW1 5054   1.700   5.186   3.737
 1385SOL    HW2 5055   1.803   5.061   3.752
 1386SOL     OW 5056   2.749   6.199   3.995
 1386SOL    HW1 5057   2.847   6.189   4.009
 1386SOL    HW2 5058   2.701   6.178   4.080
 1387SOL     OW 5059   3.755   5.687   1.567
 1387SOL    HW1 5060   3.659   5.709   1.546
 1387SOL    HW2 5061   3.809   5.694   1.484
 1388SOL     OW 5062   5.942   0.697   1.574
 1388SOL    HW1 5063   5.945   0.748   1.488
 1388SOL    HW2 5064   5.935   0.760   1.651
 1389SOL     OW 5065   6.518   1.425   2.983
 1389SOL    HW1 5066   6.443   1.422   3.049
 1389SOL    HW2 5067   6.550   1.519   2.971
 1390SOL     OW 5068   0.923   3.223   6.337
 1390SOL    HW1 5069   0.888   3.133   6.311
 1390SOL    HW2 5070   1.004   3.244   6.283
 1391SOL     OW 5071   6.996   1.701   3.956
 1391SOL    HW1 5072   6.978   1.706   4.055
 1391SOL    HW2 5073   0.063   1.745   3.936
 1392SOL     OW 5074   5.504   4.934   5.531
 1392SOL    HW1 5075   5.457   4.884   5.604
 1392SOL    HW2 5076   5.455   5.019   5.512
 1393SOL     OW 5077   5.870   5.814   5.466
 1393SOL    HW1 5078   5.943   5.873   5.501
 1393SOL    HW2 5079   5.818   5.863   5.397
 1394SOL     OW 5080   3.011   5.840   5.411
 1394SOL    HW1 5081   2.959   5.923   5.397
 1394SOL    HW2 5082   3.005   5.812   5.507
 1395SOL     OW 5083   3.076   4.432   5.864
 1395SOL    HW1 5084   3.027   4.507   5.909
 1395SOL    HW2 5085   3.149   4.399   5.924
 1396SOL     OW 5086   0.700   0.250   3.971
 1396SOL    HW1 5087   0.698   0.271   4.068
 1396SOL    HW2 5088   0.669   0.329   3.918
 1397SOL     OW 5089   6.195   0.432   4.808
 1397SOL    HW1 5090   6.205   0.375   4.726
 1397SOL    HW2 5091   6.267   0.501   4.809
 1398SOL     OW 5092   1.437   0.799   4.814
 1398SOL    HW1 5093   1.524   0.776   4.770
 1398SOL    HW2 5094   1.411   0.724   4.875
 1399SOL     OW 5095   3.659   6.638   1.575
 1399SOL    HW1 5096   3.617   6.661   1.487
 1399SOL    HW2 5097   3.667   6.538   1.583
 1400SOL     OW 5098   7.010   1.813   2.973
 1400SOL    HW1 5099   0.064   1.832   3.037
 1400SOL    HW2 5100   0.009   1.728   2.924
 1401SOL     OW 5101   0.605   1.768   5.134
 1401SOL    HW1 5102   0.508   1.762   5.112
 1401SOL    HW2 5103   0.620   1.839   5.203
 1402SOL     OW 5104   6.752   3.686   6.694
 1402SOL    HW1 5105   6.700   3.680   6.779
 1402SOL    HW2 5106   6.848   3.668   6.712
 1403SOL     OW 5107   3.448   0.728   2.010
 1403SOL    HW1 5108   3.536   0.681   1.996
 1403SOL    HW2 5109   3.448   0.773   2.099
 1404SOL     OW 5110   5.482   0.344   0.451
 1404SOL    HW1 5111   5.577   0.369   0.435
 1404SOL    HW2 5112   5.471   0.314   0.546
 1405SOL     OW 5113   2.074   3.812   1.004
 1405SOL    HW1 5114   2.015   3.893   1.004
 1405SOL    HW2 5115   2.164   3.836   0.967
 1406SOL     OW 5116   1.331   5.111   1.772
 1406SOL    HW1 5117   1.350   5.197   1.820
 1406SOL    HW2 5118   1.417   5.068   1.746
 1407SOL     OW 5119   0.309   1.439   2.130
 1407SOL    HW1 5120   0.392   1.493   2.137
 1407SOL    HW2 5121   0.289   1.419   2.035
 1408SOL     OW 5122   5.446   0.586   5.980
 1408SOL    HW1 5123   5.353   0.622   5.972
 1408SOL    HW2 5124   5.470   0.579   6.077
 1409SOL     OW 5125   0.524   0.111   5.397
 1409SOL    HW1 5126   0.598   0.118   5.464
 1409SOL    HW2 5127   0.539   0.178   5.324
 1410SOL     OW 5128   1.892   3.386   6.451
 1410SOL    HW1 5129   1.796   3.400   6.472
 1410SOL    HW2 5130   1.916   3.434   6.366
 1411SOL     OW 5131   2.605   6.462   2.996
 1411SOL    HW1 5132   2.669   6.397   2.953
 1411SOL    HW2 5133   2.511   6.433   2.979
 1412SOL     OW 5134   0.616   2.586   0.006
 1412SOL    HW1 5135   0.618   2.499   6.978
 1412SOL    HW2 5136   0.529   2.633   7.009
 1413SOL     OW 5137   1.950   0.819   5.166
 1413SOL    HW1 5138   1.968   0.798   5.070
 1413SOL    HW2 5139   1.991   0.749   5.224
 1414SOL     OW 5140   2.773   1.062   1.746
 1414SOL    HW1 5141   2.753   1.085   1.650
 1414SOL    HW2 5142   2.774   1.145   1.801
 1415SOL     OW 5143   2.572   0.093   4.525
 1415SOL    HW1 5144   2.653   0.083   4.582
 1415SOL    HW2 5145   2.595   0.073   4.430
 1416SOL     OW 5146   4.584   4.562   3.448
 1416SOL    HW1 5147   4.679   4.567   3.420
 1416SOL    HW2 5148   4.527   4.532   3.371
 1417SOL     OW 5149   2.380   2.455   7.010
 1417SOL    HW1 5150   2.403   2.543   0.031
 1417SOL    HW2 5151   2.292   2.424   0.025
 1418SOL     OW 5152   3.004   3.179   3.272
 1418SOL    HW1 5153   3.042   3.115   3.204
 1418SOL    HW2 5154   3.046   3.162   3.361
 1419SOL     OW 5155   3.312   6.596   4.678
 1419SOL    HW1 5156   3.386   6.630   4.620
 1419SOL    HW2 5157   3.259   6.673   4.713
 1420SOL     OW 5158   1.581   6.305   1.756
 1420SOL    HW1 5159   1.541   6.386   1.800
 1420SOL    HW2 5160   1.557   6.224   1.809
 1421SOL     OW 5161   1.652   2.734   2.860
 1421SOL    HW1 5162   1.709   2.729   2.942
 1421SOL    HW2 5163   1.622   2.829   2.846
 1422SOL     OW 5164   2.556   4.471   1.862
 1422SOL    HW1 5165   2.546   4.441   1.767
 1422SOL    HW2 5166   2.646   4.512   1.875
 1423SOL     OW 5167   5.204   6.383   2.283
 1423SOL    HW1 5168   5.160   6.345   2.201
 1423SOL    HW2 5169   5.204   6.483   2.278
 1424SOL     OW 5170   5.807   4.559   4.498
 1424SOL    HW1 5171   5.811   4.464   4.530
 1424SOL    HW2 5172   5.750   4.612   4.559
 1425SOL     OW 5173   1.425   6.088   3.877
 1425SOL    HW1 5174   1.512   6.040   3.878
 1425SOL    HW2 5175   1.426   6.156   3.803
 1426SOL     OW 5176   1.365   2.816   5.794
 1426SOL    HW1 5177   1.296   2.876   5.833
 1426SOL    HW2 5178   1.352   2.723   5.830
 1427SOL     OW 5179   0.050   6.887   2.625
 1427SOL    HW1 5180   6.977   6.898   2.592
 1427SOL    HW2 5181   0.049   6.836   2.711
 1428SOL     OW 5182   5.568   2.447   1.040
 1428SOL    HW1 5183   5.575   2.478   0.946
 1428SOL    HW2 5184   5.545   2.350   1.042
 1429SOL     OW 5185   6.367   2.002   0.327
 1429SOL    HW1 5186   6.321   2.030   0.411
 1429SOL    HW2 5187   6.347   1.906   0.309
 1430SOL     OW 5188   1.546   4.199   4.085
 1430SOL    HW1 5189   1.497   4.176   4.169
 1430SOL    HW2 5190   1.505   4.151   4.008
 1431SOL     OW 5191   2.508   2.156   1.281
 1431SOL    HW1 5192   2.438   2.084   1.281
 1431SOL    HW2 5193   2.484   2.225   1.349
 1432SOL     OW 5194   2.610   1.562   3.617
 1432SOL    HW1 5195   2.684   1.493   3.616
 1432SOL    HW2 5196   2.636   1.638   3.677
 1433SOL     OW 5197   4.468   1.369   4.473
 1433SOL    HW1 5198   4.401   1.301   4.444
 1433SOL    HW2 5199   4.429   1.461   4.462
 1434SOL     OW 5200   6.807   0.976   5.310
 1434SOL    HW1 5201   6.742   1.014   5.245
 1434SOL    HW2 5202   6.854   0.898   5.269
 1435SOL     OW 5203   5.974   1.178   2.402
 1435SOL    HW1 5204   6.026   1.098   2.431
 1435SOL    HW2 5205   5.974   1.246   2.476
 1436SOL     OW 5206   5.110   4.021   0.111
 1436SOL    HW1 5207   5.203   4.040   0.078
 1436SOL    HW2 5208   5.044   4.070   0.053
 1437SOL     OW 5209   2.327   2.428   3.962
 1437SOL    HW1 5210   2.358   2.421   3.867
 1437SOL    HW2 5211   2.246   2.485   3.967
 1438SOL     OW 5212   3.519   6.406   1.182
 1438SOL    HW1 5213   3.449   6.379   1.116
 1438SOL    HW2 5214   3.563   6.325   1.220
 1439SOL     OW 5215   6.753   5.732   2.147
 1439SOL    HW1 5216   6.788   5.671   2.077
 1439SOL    HW2 5217   6.693   5.800   2.105
 1440SOL     OW 5218   3.092   3.829   1.390
 1440SOL    HW1 5219   3.075   3.911   1.336
 1440SOL    HW2 5220   3.008   3.775   1.396
 1441SOL     OW 5221   6.237   0.795   2.297
 1441SOL    HW1 5222   6.320   0.811   2.244
 1441SOL    HW2 5223   6.216   0.876   2.352
 1442SOL     OW 5224   6.514   6.102   7.013
 1442SOL    HW1 5225   6.436   6.160   6.990
 1442SOL    HW2 5226   6.489   6.043   0.069
 1443SOL     OW 5227   0.366   2.603   2.312
 1443SOL    HW1 5228   0.335   2.690   2.274
 1443SOL    HW2 5229   0.383   2.614   2.410
 1444SOL     OW 5230   5.212   0.073   0.753
 1444SOL    HW1 5231   5.154   0.001   0.715
 1444SOL    HW2 5232   5.231   0.054   0.849
 1445SOL     OW 5233   0.839   3.156   2.783
 1445SOL    HW1 5234   0.923   3.102   2.782
 1445SOL    HW2 5235   0.780   3.129   2.707
 1446SOL     OW 5236   6.709   0.461   0.159
 1446SOL    HW1 5237   6.766   0.489   0.082
 1446SOL    HW2 5238   6.644   0.391   0.128
 1447SOL     OW 5239   5.540   5.259   3.292
 1447SOL    HW1 5240   5.444   5.255   3.265
 1447SOL    HW2 5241   5.583   5.340   3.253
 1448SOL     OW 5242   6.915   2.601   4.686
 1448SOL    HW1 5243   6.885   2.545   4.763
 1448SOL    HW2 5244   7.013   2.586   4.670
 1449SOL     OW 5245   1.357   3.898   5.671
 1449SOL    HW1 5246   1.425   3.931   5.605
 1449SOL    HW2 5247   1.286   3.968   5.682
 1450SOL     OW 5248   0.900   2.677   6.103
 1450SOL    HW1 5249   0.806   2.713   6.108
 1450SOL    HW2 5250   0.948   2.697   6.188
 1451SOL     OW 5251   1.096   6.111   2.155
 1451SOL    HW1 5252   1.009   6.147   2.120
 1451SOL    HW2 5253   1.137   6.052   2.087
 1452SOL     OW 5254   4.673   2.462   5.518
 1452SOL    HW1 5255   4.574   2.470   5.526
 1452SOL    HW2 5256   4.714   2.454   5.609
 1453SOL     OW 5257   0.574   4.404   5.319
 1453SOL    HW1 5258   0.598   4.420   5.415
 1453SOL    HW2 5259   0.635   4.336   5.280
 1454SOL     OW 5260   2.259   1.882   3.050
 1454SOL    HW1 5261   2.173   1.832   3.042
 1454SOL    HW2 5262   2.295   1.901   2.958
 1455SOL     OW 5263   1.371   6.104   2.566
 1455SOL    HW1 5264   1.293   6.105   2.504
 1455SOL    HW2 5265   1.428   6.024   2.547
 1456SOL     OW 5266   6.464   6.367   6.175
 1456SOL    HW1 5267   6.429   6.348   6.266
 1456SOL    HW2 5268   6.534   6.298   6.151
 1457SOL     OW 5269   0.433   4.446   0.694
 1457SOL    HW1 5270   0.494   4.505   0.747
 1457SOL    HW2 5271   0.472   4.428   0.604
 1458SOL     OW 5272   5.372   4.814   5.297
 1458SOL    HW1 5273   5.459   4.824   5.248
 1458SOL    HW2 5274   5.389   4.810   5.395
 1459SOL     OW 5275   4.378   6.699   6.054
 1459SOL    HW1 5276   4.289   6.732   6.024
 1459SOL    HW2 5277   4.367   6.614   6.106
 1460SOL     OW 5278   1.334   6.724   4.814
 1460SOL    HW1 5279   1.376   6.641   4.776
 1460SOL    HW2 5280   1.392   6.803   4.792
 1461SOL     OW 5281   0.262   3.446   3.034
 1461SOL    HW1 5282   0.302   3.425   3.123
 1461SOL    HW2 5283   0.306   3.527   2.996
 1462SOL     OW 5284   0.960   1.040   6.734
 1462SOL    HW1 5285   1.026   0.976   6.774
 1462SOL    HW2 5286   0.875   1.038   6.786
 1463SOL     OW 5287   1.270   4.982   5.843
 1463SOL    HW1 5288   1.263   4.927   5.760
 1463SOL    HW2 5289   1.320   4.931   5.913
 1464SOL     OW 5290   6.775   4.077   3.437
 1464SOL    HW1 5291   6.697   4.106   3.492
 1464SOL    HW2 5292   6.805   4.153   3.379
 1465SOL     OW 5293   1.541   1.917   3.984
 1465SOL    HW1 5294   1.502   1.843   3.929
 1465SOL    HW2 5295   1.593   1.878   4.060
 1466SOL     OW 5296   3.920   2.160   2.008
 1466SOL    HW1 5297   3.939   2.131   1.914
 1466SOL    HW2 5298   3.823   2.181   2.018
 1467SOL     OW 5299   2.004   1.375   4.358
 1467SOL    HW1 5300   2.065   1.449   4.383
 1467SOL    HW2 5301   1.909   1.404   4.370
 1468SOL     OW 5302   2.032   5.227   1.653
 1468SOL    HW1 5303   1.982   5.285   1.717
 1468SOL    HW2 5304   2.121   5.204   1.691
 1469SOL     OW 5305   6.963   6.065   3.249
 1469SOL    HW1 5306   6.876   6.106   3.276
 1469SOL    HW2 5307   7.004   6.120   3.176
 1470SOL     OW 5308   6.937   2.894   0.899
 1470SOL    HW1 5309   6.863   2.909   0.834
 1470SOL    HW2 5310   6.949   2.796   0.913
 1471SOL     OW 5311   0.641   0.140   0.653
 1471SOL    HW1 5312   0.654   0.083   0.572
 1471SOL    HW2 5313   0.681   0.230   0.638
 1472SOL     OW 5314   2.522   6.297   6.597
 1472SOL    HW1 5315   2.541   6.388   6.560
 1472SOL    HW2 5316   2.458   6.304   6.673
 1473SOL     OW 5317   2.999   5.468   4.773
 1473SOL    HW1 5318   3.029   5.398   4.838
 1473SOL    HW2 5319   2.992   5.556   4.819
 1474SOL     OW 5320   3.999   5.107   1.666
 1474SOL    HW1 5321   3.948   5.113   1.580
 1474SOL    HW2 5322   4.070   5.177   1.667
 1475SOL     OW 5323   5.275   1.235   0.350
 1475SOL    HW1 5324   5.248   1.232   0.254
 1475SOL    HW2 5325   5.235   1.157   0.398
 1476SOL     OW 5326   3.016   1.006   1.479
 1476SOL    HW1 5327   3.030   1.100   1.509
 1476SOL    HW2 5328   3.104   0.959   1.474
 1477SOL     OW 5329   4.134   0.089   0.532
 1477SOL    HW1 5330   4.223   0.044   0.530
 1477SOL    HW2 5331   4.064   0.023   0.562
 1478SOL     OW 5332   5.913   6.530   5.417
 1478SOL    HW1 5333   5.855   6.585   5.477
 1478SOL    HW2 5334   5.897   6.433   5.435
 1479SOL     OW 5335   3.547   3.752   2.091
 1479SOL    HW1 5336   3.512   3.841   2.063
 1479SOL    HW2 5337   3.558   3.694   2.010
 1480SOL     OW 5338   2.269   6.669   6.362
 1480SOL    HW1 5339   2.346   6.732   6.373
 1480SOL    HW2 5340   2.205   6.706   6.294
 1481SOL     OW 5341   5.687   2.267   5.812
 1481SOL    HW1 5342   5.621   2.274   5.887
 1481SOL    HW2 5343   5.638   2.257   5.726
 1482SOL     OW 5344   4.546   0.373   0.754
 1482SOL    HW1 5345   4.494   0.361   0.839
 1482SOL    HW2 5346   4.496   0.330   0.678
 1483SOL     OW 5347   5.057   1.698   5.483
 1483SOL    HW1 5348   5.143   1.731   5.521
 1483SOL    HW2 5349   5.041   1.741   5.394
 1484SOL     OW 5350   3.493   5.206   4.077
 1484SOL    HW1 5351   3.400   5.204   4.113
 1484SOL    HW2 5352   3.500   5.275   4.005
 1485SOL     OW 5353   5.096   0.754   3.720
 1485SOL    HW1 5354   4.999   0.739   3.702
 1485SOL    HW2 5355   5.130   0.828   3.663
 1486SOL     OW 5356   4.670   6.714   3.700
 1486SOL    HW1 5357   4.699   6.786   3.637
 1486SOL    HW2 5358   4.590   6.744   3.752
 1487SOL     OW 5359   0.476   0.708   6.789
 1487SOL    HW1 5360   0.438   0.644   6.855
 1487SOL    HW2 5361   0.424   0.793   6.792
 1488SOL     OW 5362   5.916   0.867   2.781
 1488SOL    HW1 5363   5.875   0.857   2.871
 1488SOL    HW2 5364   5.892   0.788   2.724
 1489SOL     OW 5365   3.713   4.976   6.873
 1489SOL    HW1 5366   3.639   5.010   6.814
 1489SOL    HW2 5367   3.750   5.053   6.926
 1490SOL     OW 5368   0.364   3.052   1.139
 1490SOL    HW1 5369   0.278   3.038   1.090
 1490SOL    HW2 5370   0.411   2.965   1.150
 1491SOL     OW 5371   6.697   3.890   2.207
 1491SOL    HW1 5372   6.773   3.825   2.214
 1491SOL    HW2 5373   6.729   3.982   2.228
 1492SOL     OW 5374   6.772   0.360   2.356
 1492SOL    HW1 5375   6.807   0.434   2.412
 1492SOL    HW2 5376   6.699   0.394   2.297
 1493SOL     OW 5377   4.176   0.967   6.322
 1493SOL    HW1 5378   4.114   1.044   6.338
 1493SOL    HW2 5379   4.194   0.920   6.409
 1494SOL     OW 5380   5.816   2.370   6.725
 1494SOL    HW1 5381   5.738   2.392   6.784
 1494SOL    HW2 5382   5.818   2.432   6.647
 1495SOL     OW 5383   6.427   3.469   3.450
 1495SOL    HW1 5384   6.492   3.544   3.465
 1495SOL    HW2 5385   6.342   3.488   3.501
 1496SOL     OW 5386   0.288   0.217   6.979
 1496SOL    HW1 5387   0.322   0.145   0.018
 1496SOL    HW2 5388   0.200   0.250   7.012
 1497SOL     OW 5389   5.016   2.794   2.626
 1497SOL    HW1 5390   4.959   2.875   2.611
 1497SOL    HW2 5391   4.969   2.731   2.688
 1498SOL     OW 5392   2.716   4.605   1.223
 1498SOL    HW1 5393   2.784   4.679   1.216
 1498SOL    HW2 5394   2.649   4.628   1.293
 1499SOL     OW 5395   0.661   3.651   5.588
 1499SOL    HW1 5396   0.630   3.719   5.655
 1499SOL    HW2 5397   0.601   3.571   5.591
 1500SOL     OW 5398   1.174   6.036   6.904
 1500SOL    HW1 5399   1.110   6.056   6.978
 1500SOL    HW2 5400   1.241   6.109   6.896
 1501SOL     OW 5401   6.166   1.884   7.009
 1501SOL    HW1 5402   6.215   1.854   6.927
 1501SOL    HW2 5403   6.068   1.887   6.989
 1502SOL     OW 5404   5.864   1.486   6.158
 1502SOL    HW1 5405   5.904   1.514   6.071
 1502SOL    HW2 5406   5.862   1.563   6.221
 1503SOL     OW 5407   1.161   2.865   2.552
 1503SOL    HW1 5408   1.179   2.786   2.612
 1503SOL    HW2 5409   1.078   2.848   2.499
 1504SOL     OW 5410   0.596   0.038   3.707
 1504SOL    HW1 5411   0.518   6.996   3.718
 1504SOL    HW2 5412   0.634   0.060   3.797
 1505SOL     OW 5413   5.915   6.219   5.386
 1505SOL    HW1 5414   5.973   6.200   5.308
 1505SOL    HW2 5415   5.959   6.187   5.470
 1506SOL     OW 5416   1.146   0.342   0.808
 1506SOL    HW1 5417   1.170   0.439   0.799
 1506SOL    HW2 5418   1.106   0.310   0.722
 1507SOL     OW 5419   0.901   1.468   4.436
 1507SOL    HW1 5420   0.949   1.513   4.511
 1507SOL    HW2 5421   0.836   1.401   4.473
 1508SOL     OW 5422   0.946   1.630   0.855
 1508SOL    HW1 5423   0.981   1.600   0.944
 1508SOL    HW2 5424   0.846   1.630   0.857
 1509SOL     OW 5425   5.163   1.273   5.013
 1509SOL    HW1 5426   5.101   1.308   5.083
 1509SOL    HW2 5427   5.186   1.178   5.034
 1510SOL     OW 5428   4.096   6.978   4.171
 1510SOL    HW1 5429   4.192   7.007   4.176
 1510SOL    HW2 5430   4.092   6.883   4.142
 1511SOL     OW 5431   3.078   3.943   4.208
 1511SOL    HW1 5432   3.128   3.942   4.122
 1511SOL    HW2 5433   3.105   4.023   4.261
 1512SOL     OW 5434   5.921   5.544   0.975
 1512SOL    HW1 5435   5.931   5.531   1.074
 1512SOL    HW2 5436   5.887   5.460   0.934
 1513SOL     OW 5437   3.214   6.802   5.500
 1513SOL    HW1 5438   3.150   6.877   5.516
 1513SOL    HW2 5439   3.223   6.748   5.584
 1514SOL     OW 5440   3.471   2.636   5.374
 1514SOL    HW1 5441   3.459   2.670   5.467
 1514SOL    HW2 5442   3.567   2.647   5.347
 1515SOL     OW 5443   6.683   1.918   2.271
 1515SOL    HW1 5444   6.668   1.871   2.358
 1515SOL    HW2 5445   6.663   2.016   2.282
 1516SOL     OW 5446   5.689   5.540   4.990
 1516SOL    HW1 5447   5.783   5.565   4.969
 1516SOL    HW2 5448   5.652   5.603   5.059
 1517SOL     OW 5449   4.017   6.807   3.524
 1517SOL    HW1 5450   4.033   6.829   3.620
 1517SOL    HW2 5451   3.925   6.770   3.513
 1518SOL     OW 5452   6.176   2.888   0.182
 1518SOL    HW1 5453   6.234   2.849   0.254
 1518SOL    HW2 5454   6.195   2.842   0.095
 1519SOL     OW 5455   0.023   5.214   1.071
 1519SOL    HW1 5456   0.052   5.128   1.114
 1519SOL    HW2 5457   6.999   5.272   1.139
 1520SOL     OW 5458   0.566   4.645   1.620
 1520SOL    HW1 5459   0.532   4.728   1.577
 1520SOL    HW2 5460   0.496   4.607   1.680
 1521SOL     OW 5461   2.457   4.775   0.478
 1521SOL    HW1 5462   2.387   4.711   0.447
 1521SOL    HW2 5463   2.463   4.772   0.578
 1522SOL     OW 5464   5.348   5.598   4.258
 1522SOL    HW1 5465   5.433   5.582   4.308
 1522SOL    HW2 5466   5.275   5.542   4.296
 1523SOL     OW 5467   3.717   0.290   6.712
 1523SOL    HW1 5468   3.680   0.200   6.688
 1523SOL    HW2 5469   3.806   0.277   6.758
 1524SOL     OW 5470   2.780   2.271   2.272
 1524SOL    HW1 5471   2.769   2.171   2.269
 1524SOL    HW2 5472   2.835   2.301   2.193
 1525SOL     OW 5473   5.775   2.939   1.025
 1525SOL    HW1 5474   5.741   2.860   1.077
 1525SOL    HW2 5475   5.711   3.015   1.033
 1526SOL     OW 5476   0.401   1.305   0.176
 1526SOL    HW1 5477   0.441   1.390   0.140
 1526SOL    HW2 5478   0.420   1.300   0.274
 1527SOL     OW 5479   3.974   1.128   4.598
 1527SOL    HW1 5480   3.883   1.118   4.559
 1527SOL    HW2 5481   4.027   1.045   4.581
 1528SOL     OW 5482   4.384   4.953   1.080
 1528SOL    HW1 5483   4.389   4.862   1.120
 1528SOL    HW2 5484   4.438   5.017   1.135
 1529SOL     OW 5485   5.192   1.129   0.067
 1529SOL    HW1 5486   5.255   1.098   7.016
 1529SOL    HW2 5487   5.120   1.061   0.080
 1530SOL     OW 5488   3.707   0.717   1.563
 1530SOL    HW1 5489   3.790   0.756   1.524
 1530SOL    HW2 5490   3.730   0.662   1.643
 1531SOL     OW 5491   4.167   0.484   4.560
 1531SOL    HW1 5492   4.075   0.463   4.592
 1531SOL    HW2 5493   4.233   0.461   4.631
 1532SOL     OW 5494   3.575   4.900   5.803
 1532SOL    HW1 5495   3.553   4.804   5.822
 1532SOL    HW2 5496   3.655   4.904   5.743
 1533SOL     OW 5497   5.601   6.015   0.584
 1533SOL    HW1 5498   5.551   6.101   0.576
 1533SOL    HW2 5499   5.638   6.007   0.677
 1534SOL     OW 5500   3.872   5.505   0.057
 1534SOL    HW1 5501   3.859   5.590   0.107
 1534SOL    HW2 5502   3.812   5.504   6.998
 1535SOL     OW 5503   5.735   6.097   4.629
 1535SOL    HW1 5504   5.804   6.088   4.557
 1535SOL    HW2 5505   5.684   6.012   4.637
 1536SOL     OW 5506   4.403   4.892   0.367
 1536SOL    HW1 5507   4.356   4.979   0.351
 1536SOL    HW2 5508   4.341   4.829   0.413
 1537SOL     OW 5509   3.914   5.849   3.861
 1537SOL    HW1 5510   3.848   5.897   3.803
 1537SOL    HW2 5511   3.903   5.751   3.850
 1538SOL     OW 5512   3.345   1.434   6.998
 1538SOL    HW1 5513   3.441   1.453   6.975
 1538SOL    HW2 5514   3.317   1.349   6.955
 1539SOL     OW 5515   4.915   3.237   2.028
 1539SOL    HW1 5516   4.851   3.162   2.014
 1539SOL    HW2 5517   4.939   3.243   2.125
 1540SOL     OW 5518   1.167   0.023   5.124
 1540SOL    HW1 5519   1.109   0.098   5.093
 1540SOL    HW2 5520   1.246   0.015   5.063
 1541SOL     OW 5521   3.562   3.198   4.425
 1541SOL    HW1 5522   3.518   3.286   4.443
 1541SOL    HW2 5523   3.572   3.186   4.326
 1542SOL     OW 5524   6.479   6.926   1.850
 1542SOL    HW1 5525   6.451   6.966   1.763
 1542SOL    HW2 5526   6.426   6.967   1.924
 1543SOL     OW 5527   3.690   5.330   6.412
 1543SOL    HW1 5528   3.633   5.290   6.340
 1543SOL    HW2 5529   3.750   5.400   6.373
 1544SOL     OW 5530   3.392   3.696   3.908
 1544SOL    HW1 5531   3.333   3.639   3.967
 1544SOL    HW2 5532   3.483   3.654   3.903
 1545SOL     OW 5533   6.182   1.007   2.488
 1545SOL    HW1 5534   6.200   0.957   2.574
 1545SOL    HW2 5535   6.224   1.097   2.492
 1546SOL     OW 5536   5.323   5.698   6.161
 1546SOL    HW1 5537   5.378   5.770   6.204
 1546SOL    HW2 5538   5.368   5.668   6.076
 1547SOL     OW 5539   1.780   3.996   0.774
 1547SOL    HW1 5540   1.835   4.014   0.856
 1547SOL    HW2 5541   1.688   4.034   0.787
 1548SOL     OW 5542   6.306   3.742   0.335
 1548SOL    HW1 5543   6.326   3.721   0.239
 1548SOL    HW2 5544   6.207   3.756   0.346
 1549SOL     OW 5545   4.165   1.745   3.983
 1549SOL    HW1 5546   4.084   1.704   3.942
 1549SOL    HW2 5547   4.243   1.683   3.973
 1550SOL     OW 5548   3.310   3.043   1.695
 1550SOL    HW1 5549   3.358   3.099   1.762
 1550SOL    HW2 5550   3.215   3.030   1.723
 1551SOL     OW 5551   1.242   5.112   6.759
 1551SOL    HW1 5552   1.224   5.172   6.837
 1551SOL    HW2 5553   1.314   5.152   6.703
 1552SOL     OW 5554   2.631   4.784   1.024
 1552SOL    HW1 5555   2.699   4.849   0.991
 1552SOL    HW2 5556   2.677   4.706   1.067
 1553SOL     OW 5557   0.130   1.088   6.365
 1553SOL    HW1 5558   0.112   1.171   6.313
 1553SOL    HW2 5559   0.049   1.029   6.362
 1554SOL     OW 5560   2.853   1.935   4.008
 1554SOL    HW1 5561   2.898   1.850   4.036
 1554SOL    HW2 5562   2.755   1.927   4.022
 1555SOL     OW 5563   5.875   3.074   6.687
 1555SOL    HW1 5564   5.797   3.118   6.731
 1555SOL    HW2 5565   5.871   3.091   6.588
 1556SOL     OW 5566   1.648   0.967   6.166
 1556SOL    HW1 5567   1.643   0.869   6.148
 1556SOL    HW2 5568   1.700   1.013   6.094
 1557SOL     OW 5569   1.965   4.219   5.876
 1557SOL    HW1 5570   1.871   4.222   5.909
 1557SOL    HW2 5571   1.975   4.145   5.810
 1558SOL     OW 5572   6.025   0.663   4.372
 1558SOL    HW1 5573   6.015   0.578   4.425
 1558SOL    HW2 5574   6.081   0.728   4.424
 1559SOL     OW 5575   1.326   3.258   6.448
 1559SOL    HW1 5576   1.409   3.292   6.403
 1559SOL    HW2 5577   1.327   3.158   6.449
 1560SOL     OW 5578   0.122   0.617   6.929
 1560SOL    HW1 5579   0.106   0.551   6.856
 1560SOL    HW2 5580   0.121   0.710   6.891
 1561SOL     OW 5581   4.662   6.114   3.327
 1561SOL    HW1 5582   4.620   6.148   3.411
 1561SOL    HW2 5583   4.706   6.026   3.345
 1562SOL     OW 5584   4.505   6.241   2.254
 1562SOL    HW1 5585   4.555   6.183   2.317
 1562SOL    HW2 5586   4.568   6.279   2.185
 1563SOL     OW 5587   3.199   0.688   5.834
 1563SOL    HW1 5588   3.208   0.770   5.778
 1563SOL    HW2 5589   3.277   0.628   5.818
 1564SOL     OW 5590   1.566   0.485   2.897
 1564SOL    HW1 5591   1.481   0.513   2.942
 1564SOL    HW2 5592   1.640   0.482   2.965
 1565SOL     OW 5593   4.883   4.319   2.815
 1565SOL    HW1 5594   4.920   4.285   2.729
 1565SOL    HW2 5595   4.939   4.285   2.891
 1566SOL     OW 5596   5.617   3.187   3.241
 1566SOL    HW1 5597   5.618   3.241   3.325
 1566SOL    HW2 5598   5.562   3.234   3.172
 1567SOL     OW 5599   5.754   6.085   0.228
 1567SOL    HW1 5600   5.703   6.151   0.283
 1567SOL    HW2 5601   5.726   6.093   0.132
 1568SOL     OW 5602   1.504   0.501   0.317
 1568SOL    HW1 5603   1.419   0.451   0.334
 1568SOL    HW2 5604   1.484   0.582   0.262
 1569SOL     OW 5605   4.658   5.971   3.667
 1569SOL    HW1 5606   4.584   5.968   3.600
 1569SOL    HW2 5607   4.745   5.957   3.621
 1570SOL     OW 5608   2.524   1.334   1.064
 1570SOL    HW1 5609   2.433   1.295   1.070
 1570SOL    HW2 5610   2.526   1.421   1.114
 1571SOL     OW 5611   5.932   3.353   0.729
 1571SOL    HW1 5612   5.859   3.286   0.711
 1571SOL    HW2 5613   5.921   3.390   0.821
 1572SOL     OW 5614   0.242   0.419   2.933
 1572SOL    HW1 5615   0.187   0.383   3.009
 1572SOL    HW2 5616   0.251   0.349   2.862
 1573SOL     OW 5617   5.089   0.341   1.689
 1573SOL    HW1 5618   4.997   0.320   1.723
 1573SOL    HW2 5619   5.140   0.389   1.760
 1574SOL     OW 5620   0.394   2.201   1.159
 1574SOL    HW1 5621   0.351   2.116   1.188
 1574SOL    HW2 5622   0.445   2.241   1.235
 1575SOL     OW 5623   3.148   2.236   0.603
 1575SOL    HW1 5624   3.225   2.204   0.546
 1575SOL    HW2 5625   3.062   2.207   0.561
 1576SOL     OW 5626   5.568   5.667   3.788
 1576SOL    HW1 5627   5.553   5.620   3.875
 1576SOL    HW2 5628   5.661   5.703   3.786
 1577SOL     OW 5629   2.480   1.638   5.133
 1577SOL    HW1 5630   2.478   1.566   5.063
 1577SOL    HW2 5631   2.473   1.727   5.088
 1578SOL     OW 5632   5.857   3.098   5.623
 1578SOL    HW1 5633   5.953   3.098   5.649
 1578SOL    HW2 5634   5.818   3.008   5.640
 1579SOL     OW 5635   0.229   1.375   3.397
 1579SOL    HW1 5636   0.192   1.352   3.307
 1579SOL    HW2 5637   0.166   1.436   3.445
 1580SOL     OW 5638   2.605   4.075   5.395
 1580SOL    HW1 5639   2.567   4.076   5.302
 1580SOL    HW2 5640   2.676   4.005   5.401
 1581SOL     OW 5641   6.307   4.810   4.069
 1581SOL    HW1 5642   6.335   4.723   4.111
 1581SOL    HW2 5643   6.240   4.792   3.997
 1582SOL     OW 5644   0.709   4.855   4.684
 1582SOL    HW1 5645   0.691   4.901   4.597
 1582SOL    HW2 5646   0.647   4.777   4.693
 1583SOL     OW 5647   1.917   2.823   3.844
 1583SOL    HW1 5648   1.933   2.883   3.923
 1583SOL    HW2 5649   1.919   2.877   3.760
 1584SOL     OW 5650   2.253   6.767   5.214
 1584SOL    HW1 5651   2.256   6.713   5.299
 1584SOL    HW2 5652   2.291   6.713   5.139
 1585SOL     OW 5653   5.167   2.030   3.357
 1585SOL    HW1 5654   5.157   1.992   3.265
 1585SOL    HW2 5655   5.120   2.118   3.362
 1586SOL     OW 5656   4.059   3.989   1.804
 1586SOL    HW1 5657   4.077   3.891   1.803
 1586SOL    HW2 5658   4.133   4.037   1.756
 1587SOL     OW 5659   2.675   5.463   6.465
 1587SOL    HW1 5660   2.766   5.487   6.430
 1587SOL    HW2 5661   2.681   5.375   6.513
 1588SOL     OW 5662   4.783   1.548   2.811
 1588SOL    HW1 5663   4.816   1.500   2.729
 1588SOL    HW2 5664   4.693   1.514   2.836
 1589SOL     OW 5665   5.682   3.495   3.403
 1589SOL    HW1 5666   5.687   3.556   3.324
 1589SOL    HW2 5667   5.743   3.529   3.475
 1590SOL     OW 5668   1.876   6.504   6.874
 1590SOL    HW1 5669   1.836   6.494   6.965
 1590SOL    HW2 5670   1.904   6.414   6.840
 1591SOL     OW 5671   1.015   4.566   2.599
 1591SOL    HW1 5672   0.916   4.552   2.596
 1591SOL    HW2 5673   1.035   4.647   2.655
 1592SOL     OW 5674   3.289   3.282   1.446
 1592SOL    HW1 5675   3.274   3.252   1.540
 1592SOL    HW2 5676   3.387   3.280   1.425
 1593SOL     OW 5677   0.851   6.378   5.179
 1593SOL    HW1 5678   0.856   6.291   5.129
 1593SOL    HW2 5679   0.943   6.415   5.191
 1594SOL     OW 5680   0.133   5.300   3.059
 1594SOL    HW1 5681   0.167   5.333   2.970
 1594SOL    HW2 5682   0.208   5.258   3.110
 1595SOL     OW 5683   0.343   4.866   6.773
 1595SOL    HW1 5684   0.250   4.883   6.740
 1595SOL    HW2 5685   0.397   4.951   6.767
 1596SOL     OW 5686   1.540   4.162   5.355
 1596SOL    HW1 5687   1.594   4.110   5.288
 1596SOL    HW2 5688   1.589   4.163   5.443
 1597SOL     OW 5689   2.246   6.038   1.014
 1597SOL    HW1 5690   2.197   6.056   0.929
 1597SOL    HW2 5691   2.181   6.040   1.091
 1598SOL     OW 5692   1.132   4.172   0.324
 1598SOL    HW1 5693   1.060   4.103   0.319
 1598SOL    HW2 5694   1.200   4.155   0.253
 1599SOL     OW 5695   4.026   4.149   6.504
 1599SOL    HW1 5696   4.124   4.159   6.490
 1599SOL    HW2 5697   4.009   4.117   6.598
 1600SOL     OW 5698   5.344   1.446   4.936
 1600SOL    HW1 5699   5.361   1.522   4.999
 1600SOL    HW2 5700   5.264   1.395   4.965
 1601SOL     OW 5701   2.238   4.619   4.614
 1601SOL    HW1 5702   2.306   4.577   4.673
 1601SOL    HW2 5703   2.147   4.587   4.639
 1602SOL     OW 5704   1.533   5.963   3.207
 1602SOL    HW1 5705   1.601   5.890   3.210
 1602SOL    HW2 5706   1.573   6.045   3.166
 1603SOL     OW 5707   1.352   6.617   1.847
 1603SOL    HW1 5708   1.283   6.638   1.916
 1603SOL    HW2 5709   1.430   6.572   1.891
 1604SOL     OW 5710   5.879   5.368   6.741
 1604SOL    HW1 5711   5.869   5.269   6.744
 1604SOL    HW2 5712   5.946   5.393   6.670
 1605SOL     OW 5713   6.735   0.203   2.608
 1605SOL    HW1 5714   6.786   0.289   2.603
 1605SOL    HW2 5715   6.663   0.203   2.539
 1606SOL     OW 5716   4.351   0.203   5.464
 1606SOL    HW1 5717   4.423   0.271   5.453
 1606SOL    HW2 5718   4.262   0.247   5.452
 1607SOL     OW 5719   4.373   2.529   0.728
 1607SOL    HW1 5720   4.323   2.489   0.805
 1607SOL    HW2 5721   4.309   2.558   0.658
 1608SOL     OW 5722   1.967   6.871   6.457
 1608SOL    HW1 5723   2.002   6.837   6.370
 1608SOL    HW2 5724   1.949   6.794   6.518
 1609SOL     OW 5725   6.646   2.543   6.486
 1609SOL    HW1 5726   6.721   2.487   6.450
 1609SOL    HW2 5727   6.590   2.488   6.548
 1610SOL     OW 5728   5.619   4.729   4.723
 1610SOL    HW1 5729   5.525   4.755   4.703
 1610SOL    HW2 5730   5.619   4.657   4.792
 1611SOL     OW 5731   3.549   3.023   2.089
 1611SOL    HW1 5732   3.645   3.032   2.065
 1611SOL    HW2 5733   3.502   2.968   2.020
 1612SOL     OW 5734   2.298   1.766   5.339
 1612SOL    HW1 5735   2.309   1.850   5.285
 1612SOL    HW2 5736   2.382   1.749   5.391
 1613SOL     OW 5737   2.100   6.305   0.618
 1613SOL    HW1 5738   2.124   6.398   0.589
 1613SOL    HW2 5739   2.001   6.299   0.632
 1614SOL     OW 5740   6.529   3.058   6.900
 1614SOL    HW1 5741   6.466   3.088   6.828
 1614SOL    HW2 5742   6.614   3.028   6.859
 1615SOL     OW 5743   0.017   4.712   0.041
 1615SOL    HW1 5744   6.965   4.697   6.996
 1615SOL    HW2 5745   7.005   4.688   0.133
 1616SOL     OW 5746   4.589   2.191   6.553
 1616SOL    HW1 5747   4.523   2.263   6.573
 1616SOL    HW2 5748   4.541   2.110   6.520
 1617SOL     OW 5749   6.613   1.174   2.602
 1617SOL    HW1 5750   6.707   1.165   2.570
 1617SOL    HW2 5751   6.550   1.137   2.533
 1618SOL     OW 5752   7.016   3.710   1.813
 1618SOL    HW1 5753   7.019   3.627   1.757
 1618SOL    HW2 5754   6.960   3.779   1.767
 1619SOL     OW 5755   0.584   3.432   4.089
 1619SOL    HW1 5756   0.617   3.483   4.010
 1619SOL    HW2 5757   0.640   3.349   4.100
 1620SOL     OW 5758   1.742   6.099   0.817
 1620SOL    HW1 5759   1.741   6.000   0.809
 1620SOL    HW2 5760   1.652   6.131   0.847
 1621SOL     OW 5761   0.873   0.514   6.937
 1621SOL    HW1 5762   0.788   0.477   6.975
 1621SOL    HW2 5763   0.852   0.590   6.876
 1622SOL     OW 5764   1.677   2.262   4.548
 1622SOL    HW1 5765   1.592   2.276   4.599
 1622SOL    HW2 5766   1.673   2.311   4.461
 1623SOL     OW 5767   2.193   3.334   6.511
 1623SOL    HW1 5768   2.208   3.424   6.552
 1623SOL    HW2 5769   2.099   3.328   6.477
 1624SOL     OW 5770   3.140   0.588   6.411
 1624SOL    HW1 5771   3.088   0.503   6.424
 1624SOL    HW2 5772   3.160   0.600   6.313
 1625SOL     OW 5773   0.922   4.732   2.113
 1625SOL    HW1 5774   0.972   4.669   2.172
 1625SOL    HW2 5775   0.901   4.688   2.026
 1626SOL     OW 5776   2.670   2.725   7.005
 1626SOL    HW1 5777   2.574   2.750   6.990
 1626SOL    HW2 5778   2.691   2.733   0.082
 1627SOL     OW 5779   6.200   1.982   4.270
 1627SOL    HW1 5780   6.173   2.072   4.305
 1627SOL    HW2 5781   6.291   1.988   4.230
 1628SOL     OW 5782   3.216   5.161   1.021
 1628SOL    HW1 5783   3.149   5.227   1.056
 1628SOL    HW2 5784   3.244   5.099   1.095
 1629SOL     OW 5785   3.118   2.057   4.557
 1629SOL    HW1 5786   3.150   2.095   4.470
 1629SOL    HW2 5787   3.175   1.980   4.584
 1630SOL     OW 5788   0.653   5.754   5.146
 1630SOL    HW1 5789   0.569   5.805   5.129
 1630SOL    HW2 5790   0.672   5.754   5.245
 1631SOL     OW 5791   6.870   0.407   5.558
 1631SOL    HW1 5792   6.888   0.495   5.601
 1631SOL    HW2 5793   6.894   0.333   5.621
 1632SOL     OW 5794   0.693   1.008   6.904
 1632SOL    HW1 5795   0.777   0.997   6.957
 1632SOL    HW2 5796   0.662   1.103   6.909
 1633SOL     OW 5797   5.723   2.318   2.773
 1633SOL    HW1 5798   5.684   2.248   2.714
 1633SOL    HW2 5799   5.656   2.390   2.789
 1634SOL     OW 5800   3.769   5.415   6.653
 1634SOL    HW1 5801   3.723   5.374   6.574
 1634SOL    HW2 5802   3.770   5.514   6.643
 1635SOL     OW 5803   6.613   5.217   4.802
 1635SOL    HW1 5804   6.645   5.308   4.826
 1635SOL    HW2 5805   6.682   5.149   4.828
 1636SOL     OW 5806   2.403   5.259   1.669
 1636SOL    HW1 5807   2.412   5.232   1.765
 1636SOL    HW2 5808   2.367   5.182   1.616
 1637SOL     OW 5809   0.153   2.838   2.478
 1637SOL    HW1 5810   0.149   2.937   2.492
 1637SOL    HW2 5811   0.161   2.818   2.380
 1638SOL     OW 5812   0.118   3.046   3.890
 1638SOL    HW1 5813   0.065   3.019   3.970
 1638SOL    HW2 5814   0.069   3.116   3.839
 1639SOL     OW 5815   5.436   5.471   2.957
 1639SOL    HW1 5816   5.401   5.538   3.023
 1639SOL    HW2 5817   5.362   5.445   2.894
 1640SOL     OW 5818   6.018   1.993   0.580
 1640SOL    HW1 5819   5.994   1.931   0.505
 1640SOL    HW2 5820   5.938   2.007   0.638
 1641SOL     OW 5821   5.349   2.925   3.633
 1641SOL    HW1 5822   5.413   2.974   3.573
 1641SOL    HW2 5823   5.256   2.958   3.614
 1642SOL     OW 5824   6.857   2.965   0.219
 1642SOL    HW1 5825   6.819   2.873   0.203
 1642SOL    HW2 5826   6.933   2.982   0.156
 1643SOL     OW 5827   3.888   6.503   5.080
 1643SOL    HW1 5828   3.975   6.528   5.123
 1643SOL    HW2 5829   3.905   6.437   5.007
 1644SOL     OW 5830   3.302   1.890   1.563
 1644SOL    HW1 5831   3.323   1.854   1.471
 1644SOL    HW2 5832   3.387   1.910   1.611
 1645SOL     OW 5833   2.768   6.082   5.931
 1645SOL    HW1 5834   2.778   5.989   5.966
 1645SOL    HW2 5835   2.815   6.090   5.843
 1646SOL     OW 5836   2.746   5.220   1.223
 1646SOL    HW1 5837   2.678   5.254   1.288
 1646SOL    HW2 5838   2.733   5.122   1.210
 1647SOL     OW 5839   5.816   2.365   3.248
 1647SOL    HW1 5840   5.884   2.348   3.320
 1647SOL    HW2 5841   5.862   2.374   3.160
 1648SOL     OW 5842   5.389   6.968   1.841
 1648SOL    HW1 5843   5.427   6.929   1.924
 1648SOL    HW2 5844   5.328   6.902   1.798
 1649SOL     OW 5845   2.974   0.599   2.786
 1649SOL    HW1 5846   2.908   0.524   2.790
 1649SOL    HW2 5847   2.968   0.644   2.697
 1650SOL     OW 5848   2.570   0.260   3.980
 1650SOL    HW1 5849   2.626   0.190   3.935
 1650SOL    HW2 5850   2.603   0.273   4.074
 1651SOL     OW 5851   0.267   0.480   0.262
 1651SOL    HW1 5852   0.341   0.543   0.286
 1651SOL    HW2 5853   0.307   0.392   0.233
 1652SOL     OW 5854   3.172   2.094   0.904
 1652SOL    HW1 5855   3.140   2.188   0.891
 1652SOL    HW2 5856   3.221   2.064   0.822
 1653SOL     OW 5857   6.928   5.549   1.006
 1653SOL    HW1 5858   6.963   5.629   1.054
 1653SOL    HW2 5859   6.878   5.491   1.070
 1654SOL     OW 5860   6.391   3.105   2.891
 1654SOL    HW1 5861   6.438   3.027   2.849
 1654SOL    HW2 5862   6.296   3.081   2.908
 1655SOL     OW 5863   5.427   4.836   5.807
 1655SOL    HW1 5864   5.359   4.852   5.879
 1655SOL    HW2 5865   5.511   4.801   5.848
 1656SOL     OW 5866   1.371   4.702   3.629
 1656SOL    HW1 5867   1.409   4.661   3.546
 1656SOL    HW2 5868   1.438   4.765   3.669
 1657SOL     OW 5869   1.480   1.250   5.734
 1657SOL    HW1 5870   1.545   1.194   5.683
 1657SOL    HW2 5871   1.429   1.193   5.798
 1658SOL     OW 5872   5.951   6.452   3.333
 1658SOL    HW1 5873   5.854   6.440   3.356
 1658SOL    HW2 5874   6.006   6.392   3.391
 1659SOL     OW 5875   3.488   1.983   6.705
 1659SOL    HW1 5876   3.556   2.003   6.775
 1659SOL    HW2 5877   3.498   2.048   6.630
 1660SOL     OW 5878   1.007   5.500   3.469
 1660SOL    HW1 5879   0.967   5.527   3.557
 1660SOL    HW2 5880   0.955   5.424   3.431
 1661SOL     OW 5881   3.556   1.700   2.663
 1661SOL    HW1 5882   3.583   1.608   2.691
 1661SOL    HW2 5883   3.457   1.702   2.645
 1662SOL     OW 5884   6.461   2.293   3.445
 1662SOL    HW1 5885   6.389   2.224   3.434
 1662SOL    HW2 5886   6.550   2.248   3.447
 1663SOL     OW 5887   3.075   6.725   3.179
 1663SOL    HW1 5888   3.054   6.777   3.262
 1663SOL    HW2 5889   3.170   6.696   3.180
 1664SOL     OW 5890   1.938   0.106   4.234
 1664SOL    HW1 5891   1.970   0.195   4.263
 1664SOL    HW2 5892   1.839   0.101   4.243
 1665SOL     OW 5893   0.804   1.583   2.685
 1665SOL    HW1 5894   0.894   1.615   2.655
 1665SOL    HW2 5895   0.810   1.488   2.714
 1666SOL     OW 5896   5.751   2.677   6.566
 1666SOL    HW1 5897   5.839   2.715   6.594
 1666SOL    HW2 5898   5.766   2.609   6.494
 1667SOL     OW 5899   6.078   6.609   6.905
 1667SOL    HW1 5900   6.107   6.703   6.889
 1667SOL    HW2 5901   6.067   6.562   6.817
 1668SOL     OW 5902   4.609   0.141   4.635
 1668SOL    HW1 5903   4.680   0.080   4.670
 1668SOL    HW2 5904   4.537   0.088   4.591
 1669SOL     OW 5905   5.786   6.366   0.091
 1669SOL    HW1 5906   5.865   6.418   0.059
 1669SOL    HW2 5907   5.720   6.357   0.017
 1670SOL     OW 5908   6.254   5.225   5.750
 1670SOL    HW1 5909   6.169   5.174   5.760
 1670SOL    HW2 5910   6.314   5.205   5.829
 1671SOL     OW 5911   4.248   3.151   0.828
 1671SOL    HW1 5912   4.267   3.054   0.846
 1671SOL    HW2 5913   4.307   3.208   0.885
 1672SOL     OW 5914   2.046   4.212   2.706
 1672SOL    HW1 5915   2.036   4.115   2.727
 1672SOL    HW2 5916   2.143   4.237   2.709
 1673SOL     OW 5917   6.134   3.062   5.240
 1673SOL    HW1 5918   6.226   3.047   5.203
 1673SOL    HW2 5919   6.067   3.056   5.167
 1674SOL     OW 5920   1.369   4.237   0.760
 1674SOL    HW1 5921   1.274   4.213   0.739
 1674SOL    HW2 5922   1.392   4.323   0.714
 1675SOL     OW 5923   4.919   1.086   6.514
 1675SOL    HW1 5924   4.840   1.129   6.558
 1675SOL    HW2 5925   4.892   1.051   6.424
 1676SOL     OW 5926   2.431   1.557   2.512
 1676SOL    HW1 5927   2.399   1.570   2.418
 1676SOL    HW2 5928   2.355   1.571   2.576
 1677SOL     OW 5929   5.924   1.861   5.711
 1677SOL    HW1 5930   5.846   1.816   5.753
 1677SOL    HW2 5931   5.924   1.958   5.736
 1678SOL     OW 5932   5.528   5.655   2.769
 1678SOL    HW1 5933   5.487   5.578   2.817
 1678SOL    HW2 5934   5.484   5.740   2.797
 1679SOL     OW 5935   1.188   3.295   5.408
 1679SOL    HW1 5936   1.285   3.299   5.381
 1679SOL    HW2 5937   1.167   3.374   5.466
 1680SOL     OW 5938   0.648   1.371   4.320
 1680SOL    HW1 5939   0.689   1.279   4.319
 1680SOL    HW2 5940   0.703   1.433   4.264
 1681SOL     OW 5941   6.485   5.075   1.111
 1681SOL    HW1 5942   6.536   5.160   1.119
 1681SOL    HW2 5943   6.426   5.079   1.030
 1682SOL     OW 5944   0.098   3.175   4.970
 1682SOL    HW1 5945   0.101   3.134   4.879
 1682SOL    HW2 5946   0.029   3.248   4.972
 1683SOL     OW 5947   4.530   5.185   1.233
 1683SOL    HW1 5948   4.618   5.170   1.278
 1683SOL    HW2 5949   4.544   5.239   1.150
 1684SOL     OW 5950   0.430   6.760   4.650
 1684SOL    HW1 5951   0.444   6.665   4.624
 1684SOL    HW2 5952   0.336   6.771   4.684
 1685SOL     OW 5953   1.748   1.503   6.709
 1685SOL    HW1 5954   1.814   1.576   6.725
 1685SOL    HW2 5955   1.790   1.432   6.653
 1686SOL     OW 5956   1.372   5.370   5.256
 1686SOL    HW1 5957   1.356   5.381   5.157
 1686SOL    HW2 5958   1.437   5.438   5.287
 1687SOL     OW 5959   1.632   4.501   2.312
 1687SOL    HW1 5960   1.553   4.522   2.370
 1687SOL    HW2 5961   1.713   4.546   2.349
 1688SOL     OW 5962   1.328   1.438   3.014
 1688SOL    HW1 5963   1.282   1.500   2.950
 1688SOL    HW2 5964   1.389   1.491   3.073
 1689SOL     OW 5965   3.280   2.059   1.933
 1689SOL    HW1 5966   3.374   2.033   1.953
 1689SOL    HW2 5967   3.279   2.131   1.863
 1690SOL     OW 5968   1.738   1.739   2.212
 1690SOL    HW1 5969   1.737   1.642   2.236
 1690SOL    HW2 5970   1.813   1.785   2.260
 1691SOL     OW 5971   5.294   3.585   3.132
 1691SOL    HW1 5972   5.257   3.572   3.040
 1691SOL    HW2 5973   5.218   3.599   3.196
 1692SOL     OW 5974   0.114   0.113   1.441
 1692SOL    HW1 5975   0.206   0.107   1.479
 1692SOL    HW2 5976   0.051   0.062   1.499
 1693SOL     OW 5977   2.021   2.839   3.380
 1693SOL    HW1 5978   2.070   2.752   3.384
 1693SOL    HW2 5979   2.043   2.885   3.294
 1694SOL     OW 5980   4.228   5.541   4.876
 1694SOL    HW1 5981   4.184   5.492   4.800
 1694SOL    HW2 5982   4.301   5.485   4.914
 1695SOL     OW 5983   2.083   2.308   5.483
 1695SOL    HW1 5984   1.995   2.329   5.441
 1695SOL    HW2 5985   2.069   2.247   5.561
 1696SOL     OW 5986   5.127   5.592   0.130
 1696SOL    HW1 5987   5.085   5.640   0.053
 1696SOL    HW2 5988   5.210   5.641   0.157
 1697SOL     OW 5989   1.029   6.942   1.328
 1697SOL    HW1 5990   1.121   6.972   1.353
 1697SOL    HW2 5991   0.966   7.019   1.336
 1698SOL     OW 5992   5.079   2.017   1.302
 1698SOL    HW1 5993   5.018   1.940   1.288
 1698SOL    HW2 5994   5.167   1.999   1.257
 1699SOL     OW 5995   2.689   2.915   1.068
 1699SOL    HW1 5996   2.761   2.862   1.113
 1699SOL    HW2 5997   2.714   3.012   1.072
 1700SOL     OW 5998   6.381   2.245   3.112
 1700SOL    HW1 5999   6.306   2.182   3.134
 1700SOL    HW2 6000   6.420   2.281   3.196
 1701SOL     OW 6001   5.664   2.386   4.791
 1701SOL    HW1 6002   5.647   2.391   4.889
 1701SOL    HW2 6003   5.628   2.299   4.755
 1702SOL     OW 6004   5.974   3.684   1.395
 1702SOL    HW1 6005   5.895   3.625   1.376
 1702SOL    HW2 6006   5.941   3.773   1.428
 1703SOL     OW 6007   2.783   3.879   1.603
 1703SOL    HW1 6008   2.826   3.860   1.692
 1703SOL    HW2 6009   2.805   3.805   1.539
 1704SOL     OW 6010   0.698   1.289   0.960
 1704SOL    HW1 6011   0.724   1.193   0.953
 1704SOL    HW2 6012   0.733   1.326   1.046
 1705SOL     OW 6013   3.930   2.441   1.325
 1705SOL    HW1 6014   3.843   2.401   1.353
 1705SOL    HW2 6015   3.914   2.521   1.267
 1706SOL     OW 6016   3.931   0.408   0.582
 1706SOL    HW1 6017   3.970   0.411   0.490
 1706SOL    HW2 6018   3.913   0.501   0.614
 1707SOL     OW 6019   4.465   1.918   2.817
 1707SOL    HW1 6020   4.550   1.888   2.774
 1707SOL    HW2 6021   4.465   2.018   2.826
 1708SOL     OW 6022   6.626   6.324   2.818
 1708SOL    HW1 6023   6.604   6.384   2.895
 1708SOL    HW2 6024   6.557   6.335   2.746
 1709SOL     OW 6025   2.378   7.002   2.217
 1709SOL    HW1 6026   2.407   6.926   2.159
 1709SOL    HW2 6027   2.326   0.048   2.162
 1710SOL     OW 6028   0.303   4.239   3.459
 1710SOL    HW1 6029   0.275   4.153   3.503
 1710SOL    HW2 6030   0.376   4.221   3.394
 1711SOL     OW 6031   1.226   4.525   5.174
 1711SOL    HW1 6032   1.233   4.555   5.078
 1711SOL    HW2 6033   1.301   4.463   5.195
 1712SOL     OW 6034   0.616   4.052   0.402
 1712SOL    HW1 6035   0.552   4.016   0.335
 1712SOL    HW2 6036   0.621   3.991   0.481
 1713SOL     OW 6037   1.979   2.479   1.549
 1713SOL    HW1 6038   1.974   2.459   1.451
 1713SOL    HW2 6039   1.918   2.555   1.571
 1714SOL     OW 6040   4.105   1.939   6.529
 1714SOL    HW1 6041   4.123   1.915   6.433
 1714SOL    HW2 6042   4.172   1.894   6.588
 1715SOL     OW 6043   0.359   3.151   3.337
 1715SOL    HW1 6044   0.364   3.077   3.270
 1715SOL    HW2 6045   0.268   3.194   3.332
 1716SOL     OW 6046   6.015   0.175   1.241
 1716SOL    HW1 6047   5.924   0.210   1.217
 1716SOL    HW2 6048   6.080   0.250   1.243
 1717SOL     OW 6049   2.368   6.144   0.293
 1717SOL    HW1 6050   2.269   6.134   0.299
 1717SOL    HW2 6051   2.390   6.231   0.248
 1718SOL     OW 6052   2.133   3.554   6.993
 1718SOL    HW1 6053   2.039   3.575   0.002
 1718SOL    HW2 6054   2.178   3.638   6.964
 1719SOL     OW 6055   2.158   3.061   1.487
 1719SOL    HW1 6056   2.250   3.072   1.448
 1719SOL    HW2 6057   2.143   3.131   1.557
 1720SOL     OW 6058   6.755   1.707   0.762
 1720SOL    HW1 6059   6.756   1.607   0.760
 1720SOL    HW2 6060   6.743   1.741   0.669
 1721SOL     OW 6061   1.667   6.298   2.906
 1721SOL    HW1 6062   1.700   6.267   2.995
 1721SOL    HW2 6063   1.634   6.219   2.853
 1722SOL     OW 6064   5.720   0.386   2.470
 1722SOL    HW1 6065   5.726   0.378   2.569
 1722SOL    HW2 6066   5.808   0.416   2.434
 1723SOL     OW 6067   6.180   2.065   3.092
 1723SOL    HW1 6068   6.227   1.983   3.060
 1723SOL    HW2 6069   6.084   2.044   3.111
 1724SOL     OW 6070   5.941   0.972   0.597
 1724SOL    HW1 6071   5.916   0.912   0.521
 1724SOL    HW2 6072   6.038   0.961   0.618
 1725SOL     OW 6073   3.767   4.500   0.368
 1725SOL    HW1 6074   3.681   4.454   0.344
 1725SOL    HW2 6075   3.753   4.599   0.371
 1726SOL     OW 6076   6.337   4.782   4.445
 1726SOL    HW1 6077   6.339   4.730   4.530
 1726SOL    HW2 6078   6.252   4.834   4.439
 1727SOL     OW 6079   3.878   3.764   4.932
 1727SOL    HW1 6080   3.841   3.718   4.852
 1727SOL    HW2 6081   3.957   3.714   4.966
 1728SOL     OW 6082   5.190   4.565   4.114
 1728SOL    HW1 6083   5.195   4.657   4.152
 1728SOL    HW2 6084   5.119   4.513   4.162
 1729SOL     OW 6085   1.571   3.651   3.101
 1729SOL    HW1 6086   1.640   3.634   3.031
 1729SOL    HW2 6087   1.559   3.569   3.157
 1730SOL     OW 6088   6.526   1.307   4.629
 1730SOL    HW1 6089   6.565   1.377   4.568
 1730SOL    HW2 6090   6.595   1.238   4.649
 1731SOL     OW 6091   2.206   5.032   1.802
 1731SOL    HW1 6092   2.262   5.027   1.719
 1731SOL    HW2 6093   2.250   4.980   1.875
 1732SOL     OW 6094   1.959   4.975   0.278
 1732SOL    HW1 6095   1.969   4.978   0.179
 1732SOL    HW2 6096   1.862   4.980   0.302
 1733SOL     OW 6097   0.954   3.899   1.943
 1733SOL    HW1 6098   0.910   3.936   2.025
 1733SOL    HW2 6099   0.950   3.966   1.869
 1734SOL     OW 6100   4.289   3.077   1.277
 1734SOL    HW1 6101   4.222   3.026   1.224
 1734SOL    HW2 6102   4.346   3.013   1.329
 1735SOL     OW 6103   6.177   5.616   1.729
 1735SOL    HW1 6104   6.176   5.576   1.821
 1735SOL    HW2 6105   6.145   5.548   1.663
 1736SOL     OW 6106   4.409   3.151   6.713
 1736SOL    HW1 6107   4.350   3.168   6.634
 1736SOL    HW2 6108   4.478   3.223   6.719
 1737SOL     OW 6109   2.274   0.478   3.987
 1737SOL    HW1 6110   2.265   0.566   3.939
 1737SOL    HW2 6111   2.301   0.407   3.922
 1738SOL     OW 6112   1.957   2.594   2.517
 1738SOL    HW1 6113   1.863   2.620   2.498
 1738SOL    HW2 6114   2.015   2.617   2.438
 1739SOL     OW 6115   4.410   2.296   4.876
 1739SOL    HW1 6116   4.441   2.227   4.942
 1739SOL    HW2 6117   4.338   2.352   4.917
 1740SOL     OW 6118   0.262   0.914   6.780
 1740SOL    HW1 6119   0.253   0.925   6.879
 1740SOL    HW2 6120   0.183   0.954   6.735
 1741SOL     OW 6121   2.216   0.904   2.498
 1741SOL    HW1 6122   2.283   0.836   2.470
 1741SOL    HW2 6123   2.222   0.919   2.597
 1742SOL     OW 6124   5.199   6.691   5.534
 1742SOL    HW1 6125   5.102   6.673   5.550
 1742SOL    HW2 6126   5.222   6.784   5.564
 1743SOL     OW 6127   2.428   0.911   2.112
 1743SOL    HW1 6128   2.526   0.931   2.101
 1743SOL    HW2 6129   2.375   0.995   2.099
 1744SOL     OW 6130   2.159   0.739   1.235
 1744SOL    HW1 6131   2.255   0.716   1.252
 1744SOL    HW2 6132   2.113   0.757   1.322
 1745SOL     OW 6133   6.872   1.650   4.205
 1745SOL    HW1 6134   6.894   1.650   4.302
 1745SOL    HW2 6135   6.778   1.681   4.192
 1746SOL     OW 6136   2.866   5.787   6.020
 1746SOL    HW1 6137   2.962   5.773   5.995
 1746SOL    HW2 6138   2.850   5.753   6.113
 1747SOL     OW 6139   4.684   6.799   2.113
 1747SOL    HW1 6140   4.708   6.717   2.061
 1747SOL    HW2 6141   4.746   6.874   2.089
 1748SOL     OW 6142   5.966   1.729   3.793
 1748SOL    HW1 6143   5.985   1.784   3.712
 1748SOL    HW2 6144   6.050   1.685   3.824
 1749SOL     OW 6145   4.120   6.754   6.262
 1749SOL    HW1 6146   4.054   6.826   6.285
 1749SOL    HW2 6147   4.074   6.665   6.268
 1750SOL     OW 6148   5.535   1.042   3.018
 1750SOL    HW1 6149   5.591   1.022   3.098
 1750SOL    HW2 6150   5.568   1.125   2.974
 1751SOL     OW 6151   2.412   4.908   4.791
 1751SOL    HW1 6152   2.464   4.822   4.795
 1751SOL    HW2 6153   2.340   4.906   4.860
 1752SOL     OW 6154   6.517   2.092   0.654
 1752SOL    HW1 6155   6.529   2.188   0.679
 1752SOL    HW2 6156   6.423   2.076   0.626
 1753SOL     OW 6157   0.784   0.218   6.768
 1753SOL    HW1 6158   0.879   0.189   6.772
 1753SOL    HW2 6159   0.778   0.318   6.779
 1754SOL     OW 6160   3.684   4.102   0.415
 1754SOL    HW1 6161   3.780   4.081   0.400
 1754SOL    HW2 6162   3.676   4.183   0.474
 1755SOL     OW 6163   5.299   4.619   1.684
 1755SOL    HW1 6164   5.209   4.578   1.697
 1755SOL    HW2 6165   5.339   4.640   1.773
 1756SOL     OW 6166   5.777   5.059   3.903
 1756SOL    HW1 6167   5.742   5.148   3.934
 1756SOL    HW2 6168   5.778   4.995   3.980
 1757SOL     OW 6169   2.147   6.503   4.860
 1757SOL    HW1 6170   2.179   6.425   4.914
 1757SOL    HW2 6171   2.149   6.585   4.916
 1758SOL     OW 6172   3.161   1.639   3.346
 1758SOL    HW1 6173   3.260   1.626   3.349
 1758SOL    HW2 6174   3.141   1.737   3.333
 1759SOL     OW 6175   0.452   4.875   6.154
 1759SOL    HW1 6176   0.512   4.808   6.198
 1759SOL    HW2 6177   0.445   4.957   6.210
 1760SOL     OW 6178   6.297   1.749   1.588
 1760SOL    HW1 6179   6.350   1.817   1.637
 1760SOL    HW2 6180   6.216   1.724   1.641
 1761SOL     OW 6181   7.002   1.189   0.937
 1761SOL    HW1 6182   0.041   1.235   0.870
 1761SOL    HW2 6183   6.968   1.257   1.003
 1762SOL     OW 6184   6.188   1.948   5.132
 1762SOL    HW1 6185   6.189   1.848   5.123
 1762SOL    HW2 6186   6.239   1.975   5.214
 1763SOL     OW 6187   1.998   3.658   4.251
 1763SOL    HW1 6188   2.093   3.635   4.274
 1763SOL    HW2 6189   1.990   3.669   4.152
 1764SOL     OW 6190   2.022   3.768   3.087
 1764SOL    HW1 6191   2.090   3.720   3.143
 1764SOL    HW2 6192   1.931   3.751   3.123
 1765SOL     OW 6193   2.709   1.317   0.092
 1765SOL    HW1 6194   2.809   1.319   0.090
 1765SOL    HW2 6195   2.674   1.326   7.020
 1766SOL     OW 6196   5.708   3.342   4.944
 1766SOL    HW1 6197   5.773   3.323   4.871
 1766SOL    HW2 6198   5.700   3.262   5.003
 1767SOL     OW 6199   5.192   3.923   2.435
 1767SOL    HW1 6200   5.240   3.851   2.385
 1767SOL    HW2 6201   5.241   4.010   2.423
 1768SOL     OW 6202   4.760   0.105   4.385
 1768SOL    HW1 6203   4.727   0.011   4.379
 1768SOL    HW2 6204   4.723   0.148   4.468
 1769SOL     OW 6205   3.845   2.168   4.440
 1769SOL    HW1 6206   3.896   2.087   4.470
 1769SOL    HW2 6207   3.909   2.239   4.412
 1770SOL     OW 6208   1.940   5.500   4.825
 1770SOL    HW1 6209   1.972   5.587   4.789
 1770SOL    HW2 6210   1.957   5.428   4.757
 1771SOL     OW 6211   2.810   5.648   6.796
 1771SOL    HW1 6212   2.863   5.643   6.712
 1771SOL    HW2 6213   2.864   5.695   6.867
 1772SOL     OW 6214   3.465   0.171   3.815
 1772SOL    HW1 6215   3.507   0.262   3.804
 1772SOL    HW2 6216   3.513   0.121   3.886
 1773SOL     OW 6217   2.253   5.212   5.790
 1773SOL    HW1 6218   2.167   5.255   5.819
 1773SOL    HW2 6219   2.243   5.113   5.791
 1774SOL     OW 6220   4.391   5.425   2.081
 1774SOL    HW1 6221   4.488   5.411   2.061
 1774SOL    HW2 6222   4.368   5.381   2.168
 1775SOL     OW 6223   1.206   3.700   2.663
 1775SOL    HW1 6224   1.276   3.641   2.704
 1775SOL    HW2 6225   1.148   3.645   2.603
 1776SOL     OW 6226   4.023   6.269   4.462
 1776SOL    HW1 6227   4.089   6.225   4.522
 1776SOL    HW2 6228   4.004   6.209   4.384
 1777SOL     OW 6229   3.811   5.684   6.653
 1777SOL    HW1 6230   3.877   5.727   6.715
 1777SOL    HW2 6231   3.771   5.754   6.594
 1778SOL     OW 6232   4.591   3.487   5.731
 1778SOL    HW1 6233   4.658   3.414   5.725
 1778SOL    HW2 6234   4.608   3.542   5.813
 1779SOL     OW 6235   3.960   0.247   4.321
 1779SOL    HW1 6236   3.947   0.343   4.295
 1779SOL    HW2 6237   3.988   0.195   4.241
 1780SOL     OW 6238   3.634   3.092   0.168
 1780SOL    HW1 6239   3.578   3.025   0.216
 1780SOL    HW2 6240   3.730   3.078   0.191
 1781SOL     OW 6241   3.860   6.162   2.714
 1781SOL    HW1 6242   3.933   6.142   2.649
 1781SOL    HW2 6243   3.865   6.098   2.791
 1782SOL     OW 6244   2.858   1.958   3.118
 1782SOL    HW1 6245   2.779   1.938   3.060
 1782SOL    HW2 6246   2.881   2.055   3.111
 1783SOL     OW 6247   2.509   5.548   5.600
 1783SOL    HW1 6248   2.465   5.638   5.605
 1783SOL    HW2 6249   2.578   5.549   5.528
 1784SOL     OW 6250   4.570   0.866   6.479
 1784SOL    HW1 6251   4.511   0.940   6.510
 1784SOL    HW2 6252   4.588   0.876   6.381
 1785SOL     OW 6253   5.951   3.553   3.019
 1785SOL    HW1 6254   5.971   3.500   3.102
 1785SOL    HW2 6255   6.015   3.526   2.947
 1786SOL     OW 6256   2.232   3.106   0.133
 1786SOL    HW1 6257   2.200   3.020   0.093
 1786SOL    HW2 6258   2.260   3.168   0.060
 1787SOL     OW 6259   2.765   1.304   5.030
 1787SOL    HW1 6260   2.837   1.373   5.040
 1787SOL    HW2 6261   2.740   1.268   5.120
 1788SOL     OW 6262   2.493   3.825   6.182
 1788SOL    HW1 6263   2.461   3.914   6.216
 1788SOL    HW2 6264   2.458   3.752   6.241
 1789SOL     OW 6265   5.565   1.912   1.765
 1789SOL    HW1 6266   5.553   1.878   1.672
 1789SOL    HW2 6267   5.600   1.839   1.823
 1790SOL     OW 6268   3.839   6.426   3.688
 1790SOL    HW1 6269   3.903   6.473   3.748
 1790SOL    HW2 6270   3.754   6.407   3.738
 1791SOL     OW 6271   6.608   0.608   3.437
 1791SOL    HW1 6272   6.653   0.520   3.420
 1791SOL    HW2 6273   6.655   0.655   3.512
 1792SOL     OW 6274   6.526   3.430   4.990
 1792SOL    HW1 6275   6.593   3.479   5.046
 1792SOL    HW2 6276   6.562   3.340   4.966
 1793SOL     OW 6277   6.093   6.833   3.787
 1793SOL    HW1 6278   6.101   6.853   3.885
 1793SOL    HW2 6279   6.003   6.863   3.754
 1794SOL     OW 6280   5.519   6.098   5.370
 1794SOL    HW1 6281   5.443   6.136   5.317
 1794SOL    HW2 6282   5.499   6.104   5.467
 1795SOL     OW 6283   1.038   2.355   1.510
 1795SOL    HW1 6284   1.085   2.267   1.516
 1795SOL    HW2 6285   1.087   2.415   1.447
 1796SOL     OW 6286   2.748   0.663   5.736
 1796SOL    HW1 6287   2.803   0.736   5.696
 1796SOL    HW2 6288   2.808   0.592   5.772
 1797SOL     OW 6289   1.521   6.939   0.242
 1797SOL    HW1 6290   1.487   0.012   0.255
 1797SOL    HW2 6291   1.539   6.923   0.145
 1798SOL     OW 6292   4.533   2.527   3.755
 1798SOL    HW1 6293   4.621   2.514   3.711
 1798SOL    HW2 6294   4.546   2.567   3.846
 1799SOL     OW 6295   0.093   2.508   5.116
 1799SOL    HW1 6296   0.139   2.584   5.163
 1799SOL    HW2 6297   0.160   2.456   5.064
 1800SOL     OW 6298   4.135   4.501   1.359
 1800SOL    HW1 6299   4.231   4.508   1.384
 1800SOL    HW2 6300   4.081   4.566   1.412
 1801SOL     OW 6301   0.225   0.157   1.886
 1801SOL    HW1 6302   0.166   0.096   1.939
 1801SOL    HW2 6303   0.285   0.102   1.828
 1802SOL     OW 6304   5.101   5.836   4.581
 1802SOL    HW1 6305   5.190   5.822   4.536
 1802SOL    HW2 6306   5.030   5.789   4.529
 1803SOL     OW 6307   0.243   5.498   6.596
 1803SOL    HW1 6308   0.303   5.494   6.676
 1803SOL    HW2 6309   0.253   5.586   6.551
 1804SOL     OW 6310   2.148   3.892   5.215
 1804SOL    HW1 6311   2.166   3.794   5.201
 1804SOL    HW2 6312   2.229   3.944   5.189
 1805SOL     OW 6313   5.331   3.707   6.062
 1805SOL    HW1 6314   5.266   3.723   5.987
 1805SOL    HW2 6315   5.326   3.611   6.091
 1806SOL     OW 6316   0.622   0.203   6.457
 1806SOL    HW1 6317   0.636   0.126   6.519
 1806SOL    HW2 6318   0.591   0.170   6.368
 1807SOL     OW 6319   5.464   2.760   4.529
 1807SOL    HW1 6320   5.524   2.729   4.603
 1807SOL    HW2 6321   5.369   2.738   4.552
 1808SOL     OW 6322   0.355   4.156   5.531
 1808SOL    HW1 6323   0.433   4.104   5.564
 1808SOL    HW2 6324   0.292   4.095   5.482
 1809SOL     OW 6325   2.429   2.327   5.031
 1809SOL    HW1 6326   2.485   2.365   5.105
 1809SOL    HW2 6327   2.479   2.334   4.944
 1810SOL     OW 6328   2.520   6.959   3.906
 1810SOL    HW1 6329   2.515   0.033   3.939
 1810SOL    HW2 6330   2.580   6.955   3.826
 1811SOL     OW 6331   5.889   6.085   3.258
 1811SOL    HW1 6332   5.966   6.053   3.202
 1811SOL    HW2 6333   5.919   6.094   3.353
 1812SOL     OW 6334   4.154   5.765   4.963
 1812SOL    HW1 6335   4.099   5.749   5.045
 1812SOL    HW2 6336   4.185   5.677   4.926
 1813SOL     OW 6337   6.085   4.336   0.488
 1813SOL    HW1 6338   6.157   4.275   0.456
 1813SOL    HW2 6339   6.085   4.420   0.433
 1814SOL     OW 6340   5.087   7.011   2.283
 1814SOL    HW1 6341   5.139   0.075   2.295
 1814SOL    HW2 6342   5.134   6.937   2.331
 1815SOL     OW 6343   0.651   2.222   1.863
 1815SOL    HW1 6344   0.720   2.279   1.908
 1815SOL    HW2 6345   0.653   2.130   1.901
 1816SOL     OW 6346   2.918   3.242   0.958
 1816SOL    HW1 6347   2.820   3.265   0.965
 1816SOL    HW2 6348   2.958   3.292   0.881
 1817SOL     OW 6349   2.622   6.932   2.110
 1817SOL    HW1 6350   2.644   6.921   2.013
 1817SOL    HW2 6351   2.598   0.007   2.128
 1818SOL     OW 6352   1.675   0.088   2.941
 1818SOL    HW1 6353   1.603   0.101   3.009
 1818SOL    HW2 6354   1.634   0.079   2.850
 1819SOL     OW 6355   0.676   4.338   2.168
 1819SOL    HW1 6356   0.622   4.273   2.114
 1819SOL    HW2 6357   0.757   4.293   2.204
 1820SOL     OW 6358   4.164   0.990   2.915
 1820SOL    HW1 6359   4.230   1.005   2.989
 1820SOL    HW2 6360   4.084   1.048   2.930
 1821SOL     OW 6361   1.727   1.516   2.348
 1821SOL    HW1 6362   1.629   1.506   2.367
 1821SOL    HW2 6363   1.772   1.553   2.430
 1822SOL     OW 6364   3.726   2.545   1.129
 1822SOL    HW1 6365   3.778   2.611   1.075
 1822SOL    HW2 6366   3.653   2.591   1.178
 1823SOL     OW 6367   3.457   6.187   3.733
 1823SOL    HW1 6368   3.478   6.112   3.669
 1823SOL    HW2 6369   3.457   6.274   3.684
 1824SOL     OW 6370   4.011   2.596   0.817
 1824SOL    HW1 6371   4.087   2.567   0.876
 1824SOL    HW2 6372   4.023   2.558   0.725
 1825SOL     OW 6373   1.102   0.527   2.166
 1825SOL    HW1 6374   1.170   0.465   2.128
 1825SOL    HW2 6375   1.092   0.607   2.106
 1826SOL     OW 6376   3.137   1.443   1.265
 1826SOL    HW1 6377   3.074   1.369   1.238
 1826SOL    HW2 6378   3.097   1.494   1.341
 1827SOL     OW 6379   0.113   4.825   2.122
 1827SOL    HW1 6380   0.043   4.759   2.149
 1827SOL    HW2 6381   0.195   4.811   2.177
 1828SOL     OW 6382   0.351   2.702   6.973
 1828SOL    HW1 6383   0.339   2.703   6.874
 1828SOL    HW2 6384   0.265   2.676   7.017
 1829SOL     OW 6385   4.909   0.169   3.190
 1829SOL    HW1 6386   4.990   0.180   3.133
 1829SOL    HW2 6387   4.873   0.258   3.216
 1830SOL     OW 6388   5.260   6.122   3.599
 1830SOL    HW1 6389   5.209   6.039   3.622
 1830SOL    HW2 6390   5.283   6.172   3.682
 1831SOL     OW 6391   5.938   6.509   2.895
 1831SOL    HW1 6392   5.899   6.428   2.940
 1831SOL    HW2 6393   6.015   6.482   2.838
 1832SOL     OW 6394   5.404   1.939   1.353
 1832SOL    HW1 6395   5.334   1.981   1.410
 1832SOL    HW2 6396   5.390   1.840   1.349
 1833SOL     OW 6397   5.511   0.365   4.357
 1833SOL    HW1 6398   5.568   0.367   4.439
 1833SOL    HW2 6399   5.502   0.270   4.325
 1834SOL     OW 6400   3.509   4.199   0.222
 1834SOL    HW1 6401   3.500   4.295   0.249
 1834SOL    HW2 6402   3.560   4.150   0.293
 1835SOL     OW 6403   0.935   4.170   1.630
 1835SOL    HW1 6404   0.892   4.178   1.720
 1835SOL    HW2 6405   0.939   4.260   1.587
 1836SOL     OW 6406   0.122   2.199   1.013
 1836SOL    HW1 6407   0.206   2.253   1.002
 1836SOL    HW2 6408   0.120   2.125   0.946
 1837SOL     OW 6409   0.605   1.876   4.168
 1837SOL    HW1 6410   0.677   1.884   4.236
 1837SOL    HW2 6411   0.556   1.790   4.181
 1838SOL     OW 6412   0.567   1.806   3.896
 1838SOL    HW1 6413   0.593   1.902   3.879
 1838SOL    HW2 6414   0.571   1.788   3.994
 1839SOL     OW 6415   5.050   2.683   4.947
 1839SOL    HW1 6416   5.007   2.688   5.037
 1839SOL    HW2 6417   4.980   2.695   4.876
 1840SOL     OW 6418   2.588   6.227   1.762
 1840SOL    HW1 6419   2.502   6.181   1.739
 1840SOL    HW2 6420   2.646   6.165   1.814
 1841SOL     OW 6421   1.808   3.494   4.607
 1841SOL    HW1 6422   1.748   3.509   4.529
 1841SOL    HW2 6423   1.753   3.489   4.691
 1842SOL     OW 6424   0.285   5.550   1.218
 1842SOL    HW1 6425   0.231   5.473   1.182
 1842SOL    HW2 6426   0.362   5.515   1.270
 1843SOL     OW 6427   1.667   2.403   4.960
 1843SOL    HW1 6428   1.737   2.342   4.922
 1843SOL    HW2 6429   1.648   2.476   4.894
 1844SOL     OW 6430   3.916   1.505   4.911
 1844SOL    HW1 6431   3.958   1.442   4.845
 1844SOL    HW2 6432   3.983   1.528   4.982
 1845SOL     OW 6433   2.298   0.074   6.706
 1845SOL    HW1 6434   2.251   0.020   6.637
 1845SOL    HW2 6435   2.397   0.064   6.695
 1846SOL     OW 6436   4.332   2.042   6.739
 1846SOL    HW1 6437   4.414   2.019   6.790
 1846SOL    HW2 6438   4.342   2.013   6.644
 1847SOL     OW 6439   1.197   0.590   6.713
 1847SOL    HW1 6440   1.115   0.553   6.669
 1847SOL    HW2 6441   1.255   0.634   6.645
 1848SOL     OW 6442   1.953   5.951   2.671
 1848SOL    HW1 6443   1.992   5.859   2.674
 1848SOL    HW2 6444   1.868   5.950   2.619
 1849SOL     OW 6445   3.882   0.914   0.481
 1849SOL    HW1 6446   3.865   1.013   0.478
 1849SOL    HW2 6447   3.946   0.889   0.409
 1850SOL     OW 6448   5.858   1.925   2.816
 1850SOL    HW1 6449   5.822   1.832   2.819
 1850SOL    HW2 6450   5.805   1.983   2.878
 1851SOL     OW 6451   0.471   1.677   1.148
 1851SOL    HW1 6452   0.460   1.584   1.184
 1851SOL    HW2 6453   0.390   1.732   1.171
 1852SOL     OW 6454   4.649   3.632   0.919
 1852SOL    HW1 6455   4.584   3.627   0.844
 1852SOL    HW2 6456   4.610   3.687   0.993
 1853SOL     OW 6457   0.933   3.485   1.646
 1853SOL    HW1 6458   0.918   3.583   1.642
 1853SOL    HW2 6459   0.940   3.456   1.742
 1854SOL     OW 6460   2.963   5.458   4.037
 1854SOL    HW1 6461   2.921   5.516   3.966
 1854SOL    HW2 6462   3.040   5.408   3.998
 1855SOL     OW 6463   4.648   4.575   0.154
 1855SOL    HW1 6464   4.747   4.572   0.165
 1855SOL    HW2 6465   4.612   4.483   0.145
 1856SOL     OW 6466   6.356   2.698   5.665
 1856SOL    HW1 6467   6.352   2.786   5.711
 1856SOL    HW2 6468   6.277   2.643   5.692
 1857SOL     OW 6469   4.633   1.000   5.156
 1857SOL    HW1 6470   4.535   0.980   5.159
 1857SOL    HW2 6471   4.670   1.001   5.249
 1858SOL     OW 6472   5.588   3.176   3.538
 1858SOL    HW1 6473   5.592   3.147   3.633
 1858SOL    HW2 6474   5.604   3.098   3.478
 1859SOL     OW 6475   4.062   2.207   3.794
 1859SOL    HW1 6476   4.120   2.131   3.823
 1859SOL    HW2 6477   4.119   2.287   3.776
 1860SOL     OW 6478   6.692   1.372   3.884
 1860SOL    HW1 6479   6.666   1.462   3.919
 1860SOL    HW2 6480   6.790   1.360   3.893
 1861SOL     OW 6481   4.684   6.360   2.085
 1861SOL    HW1 6482   4.671   6.435   2.020
 1861SOL    HW2 6483   4.730   6.395   2.167
 1862SOL     OW 6484   1.854   6.902   0.066
 1862SOL    HW1 6485   1.917   6.845   0.118
 1862SOL    HW2 6486   1.894   6.923   6.997
 1863SOL     OW 6487   2.865   2.896   0.430
 1863SOL    HW1 6488   2.880   2.964   0.358
 1863SOL    HW2 6489   2.850   2.943   0.517
 1864SOL     OW 6490   0.860   0.025   5.260
 1864SOL    HW1 6491   0.813   0.035   5.347
 1864SOL    HW2 6492   0.945   6.995   5.273
 1865SOL     OW 6493   3.864   0.731   5.421
 1865SOL    HW1 6494   3.963   0.715   5.420
 1865SOL    HW2 6495   3.846   0.824   5.451
 1866SOL     OW 6496   4.256   4.723   2.015
 1866SOL    HW1 6497   4.313   4.642   2.025
 1866SOL    HW2 6498   4.215   4.745   2.104
 1867SOL     OW 6499   0.679   3.687   0.278
 1867SOL    HW1 6500   0.755   3.714   0.337
 1867SOL    HW2 6501   0.677   3.587   0.271
 1868SOL     OW 6502   5.475   4.376   6.843
 1868SOL    HW1 6503   5.449   4.364   6.747
 1868SOL    HW2 6504   5.574   4.382   6.850
 1869SOL     OW 6505   6.652   1.800   5.025
 1869SOL    HW1 6506   6.624   1.725   4.965
 1869SOL    HW2 6507   6.605   1.884   4.999
 1870SOL     OW 6508   1.884   4.482   5.828
 1870SOL    HW1 6509   1.949   4.520   5.763
 1870SOL    HW2 6510   1.885   4.382   5.823
 1871SOL     OW 6511   1.234   6.932   0.554
 1871SOL    HW1 6512   1.143   6.923   0.595
 1871SOL    HW2 6513   1.282   6.845   0.559
 1872SOL     OW 6514   3.134   4.131   6.611
 1872SOL    HW1 6515   3.148   4.110   6.708
 1872SOL    HW2 6516   3.219   4.165   6.571
 1873SOL     OW 6517   4.247   1.132   5.208
 1873SOL    HW1 6518   4.241   1.032   5.211
 1873SOL    HW2 6519   4.167   1.168   5.159
 1874SOL     OW 6520   2.722   1.687   1.292
 1874SOL    HW1 6521   2.756   1.730   1.376
 1874SOL    HW2 6522   2.754   1.737   1.212
 1875SOL     OW 6523   0.994   0.377   0.118
 1875SOL    HW1 6524   0.950   0.438   0.053
 1875SOL    HW2 6525   1.034   0.431   0.193
 1876SOL     OW 6526   3.593   0.396   5.825
 1876SOL    HW1 6527   3.604   0.493   5.848
 1876SOL    HW2 6528   3.613   0.340   5.905
 1877SOL     OW 6529   0.570   0.430   3.772
 1877SOL    HW1 6530   0.640   0.397   3.708
 1877SOL    HW2 6531   0.515   0.501   3.727
 1878SOL     OW 6532   6.731   1.851   3.806
 1878SOL    HW1 6533   6.722   1.788   3.883
 1878SOL    HW2 6534   6.640   1.882   3.777
 1879SOL     OW 6535   1.303   3.676   4.266
 1879SOL    HW1 6536   1.333   3.602   4.326
 1879SOL    HW2 6537   1.270   3.637   4.180
 1880SOL     OW 6538   0.019   0.794   5.001
 1880SOL    HW1 6539   7.006   0.759   5.089
 1880SOL    HW2 6540   7.019   0.892   4.996
 1881SOL     OW 6541   6.202   2.044   1.809
 1881SOL    HW1 6542   6.182   1.966   1.869
 1881SOL    HW2 6543   6.145   2.038   1.727
 1882SOL     OW 6544   1.374   4.681   6.562
 1882SOL    HW1 6545   1.302   4.689   6.493
 1882SOL    HW2 6546   1.454   4.636   6.522
 1883SOL     OW 6547   6.608   2.269   2.558
 1883SOL    HW1 6548   6.538   2.255   2.628
 1883SOL    HW2 6549   6.655   2.356   2.575
 1884SOL     OW 6550   1.471   1.748   0.761
 1884SOL    HW1 6551   1.413   1.775   0.685
 1884SOL    HW2 6552   1.471   1.820   0.831
 1885SOL     OW 6553   1.442   1.814   5.935
 1885SOL    HW1 6554   1.520   1.810   5.998
 1885SOL    HW2 6555   1.465   1.871   5.857
 1886SOL     OW 6556   2.040   0.278   1.684
 1886SOL    HW1 6557   2.122   0.249   1.635
 1886SOL    HW2 6558   2.036   0.378   1.685
 1887SOL     OW 6559   0.596   5.460   5.392
 1887SOL    HW1 6560   0.625   5.555   5.383
 1887SOL    HW2 6561   0.677   5.402   5.406
 1888SOL     OW 6562   2.999   1.813   6.709
 1888SOL    HW1 6563   3.025   1.855   6.796
 1888SOL    HW2 6564   2.974   1.717   6.724
 1889SOL     OW 6565   0.427   3.484   3.814
 1889SOL    HW1 6566   0.402   3.388   3.825
 1889SOL    HW2 6567   0.513   3.491   3.763
 1890SOL     OW 6568   0.746   5.406   4.118
 1890SOL    HW1 6569   0.662   5.422   4.169
 1890SOL    HW2 6570   0.818   5.469   4.149
 1891SOL     OW 6571   4.248   2.886   1.655
 1891SOL    HW1 6572   4.175   2.954   1.656
 1891SOL    HW2 6573   4.305   2.899   1.736
 1892SOL     OW 6574   0.197   0.716   2.146
 1892SOL    HW1 6575   0.124   0.736   2.212
 1892SOL    HW2 6576   0.157   0.704   2.055
 1893SOL     OW 6577   3.808   3.045   2.041
 1893SOL    HW1 6578   3.852   2.980   1.979
 1893SOL    HW2 6579   3.878   3.086   2.100
 1894SOL     OW 6580   3.488   4.008   4.177
 1894SOL    HW1 6581   3.405   3.995   4.123
 1894SOL    HW2 6582   3.565   4.028   4.115
 1895SOL     OW 6583   3.972   0.194   1.067
 1895SOL    HW1 6584   4.061   0.165   1.033
 1895SOL    HW2 6585   3.914   0.221   0.990
 1896SOL     OW 6586   6.307   1.525   0.615
 1896SOL    HW1 6587   6.250   1.478   0.546
 1896SOL    HW2 6588   6.376   1.581   0.568
 1897SOL     OW 6589   1.664   4.802   2.170
 1897SOL    HW1 6590   1.667   4.702   2.174
 1897SOL    HW2 6591   1.570   4.832   2.150
 1898SOL     OW 6592   2.124   4.407   2.325
 1898SOL    HW1 6593   2.113   4.506   2.329
 1898SOL    HW2 6594   2.208   4.384   2.276
 1899SOL     OW 6595   0.795   1.048   0.265
 1899SOL    HW1 6596   0.833   1.114   0.201
 1899SOL    HW2 6597   0.741   0.980   0.215
 1900SOL     OW 6598   2.813   0.852   6.564
 1900SOL    HW1 6599   2.890   0.874   6.624
 1900SOL    HW2 6600   2.787   0.756   6.577
 1901SOL     OW 6601   2.870   2.774   1.209
 1901SOL    HW1 6602   2.882   2.765   1.308
 1901SOL    HW2 6603   2.940   2.834   1.172
 1902SOL     OW 6604   2.278   0.566   4.994
 1902SOL    HW1 6605   2.186   0.548   5.029
 1902SOL    HW2 6606   2.320   0.480   4.964
 1903SOL     OW 6607   0.856   3.456   3.347
 1903SOL    HW1 6608   0.868   3.526   3.417
 1903SOL    HW2 6609   0.837   3.368   3.391
 1904SOL     OW 6610   5.799   5.139   3.026
 1904SOL    HW1 6611   5.836   5.071   2.962
 1904SOL    HW2 6612   5.729   5.193   2.981
 1905SOL     OW 6613   0.815   0.434   3.342
 1905SOL    HW1 6614   0.809   0.355   3.403
 1905SOL    HW2 6615   0.907   0.438   3.302
 1906SOL     OW 6616   2.645   0.416   5.910
 1906SOL    HW1 6617   2.629   0.391   5.815
 1906SOL    HW2 6618   2.650   0.334   5.966
 1907SOL     OW 6619   4.655   2.640   1.260
 1907SOL    HW1 6620   4.563   2.660   1.294
 1907SOL    HW2 6621   4.650   2.579   1.181
 1908SOL     OW 6622   4.379   6.921   6.265
 1908SOL    HW1 6623   4.379   6.828   6.230
 1908SOL    HW2 6624   4.352   6.984   6.192
 1909SOL     OW 6625   0.801   3.232   3.490
 1909SOL    HW1 6626   0.709   3.248   3.527
 1909SOL    HW2 6627   0.869   3.260   3.558
 1910SOL     OW 6628   6.537   6.365   5.583
 1910SOL    HW1 6629   6.605   6.381   5.511
 1910SOL    HW2 6630   6.452   6.333   5.543
 1911SOL     OW 6631   6.942   3.978   4.689
 1911SOL    HW1 6632   6.849   3.973   4.654
 1911SOL    HW2 6633   6.944   4.032   4.773
 1912SOL     OW 6634   3.157   5.575   2.360
 1912SOL    HW1 6635   3.187   5.664   2.392
 1912SOL    HW2 6636   3.070   5.585   2.310
 1913SOL     OW 6637   2.180   6.617   4.430
 1913SOL    HW1 6638   2.249   6.606   4.502
 1913SOL    HW2 6639   2.192   6.545   4.362
 1914SOL     OW 6640   3.897   4.283   6.303
 1914SOL    HW1 6641   3.947   4.230   6.371
 1914SOL    HW2 6642   3.810   4.315   6.342
 1915SOL     OW 6643   4.587   2.542   5.786
 1915SOL    HW1 6644   4.628   2.467   5.839
 1915SOL    HW2 6645   4.605   2.629   5.833
 1916SOL     OW 6646   4.262   6.422   1.257
 1916SOL    HW1 6647   4.205   6.474   1.322
 1916SOL    HW2 6648   4.301   6.485   1.190
 1917SOL     OW 6649   2.652   3.891   6.916
 1917SOL    HW1 6650   2.720   3.874   6.844
 1917SOL    HW2 6651   2.666   3.826   6.991
 1918SOL     OW 6652   1.047   1.115   4.885
 1918SOL    HW1 6653   1.114   1.167   4.938
 1918SOL    HW2 6654   1.006   1.175   4.816
 1919SOL     OW 6655   2.191   1.913   0.801
 1919SOL    HW1 6656   2.133   1.954   0.731
 1919SOL    HW2 6657   2.262   1.859   0.757
 1920SOL     OW 6658   5.887   2.340   2.203
 1920SOL    HW1 6659   5.804   2.303   2.162
 1920SOL    HW2 6660   5.909   2.289   2.287
 1921SOL     OW 6661   1.111   2.996   0.058
 1921SOL    HW1 6662   1.122   2.897   0.048
 1921SOL    HW2 6663   1.171   3.043   7.014
 1922SOL     OW 6664   3.114   3.555   1.944
 1922SOL    HW1 6665   3.141   3.593   1.855
 1922SOL    HW2 6666   3.059   3.623   1.993
 1923SOL     OW 6667   4.951   0.695   0.059
 1923SOL    HW1 6668   5.002   0.651   7.005
 1923SOL    HW2 6669   4.894   0.626   0.105
 1924SOL     OW 6670   4.762   0.163   0.852
 1924SOL    HW1 6671   4.790   0.242   0.906
 1924SOL    HW2 6672   4.685   0.118   0.897
 1925SOL     OW 6673   0.746   4.177   1.829
 1925SOL    HW1 6674   0.686   4.254   1.849
 1925SOL    HW2 6675   0.693   4.092   1.833
 1926SOL     OW 6676   3.646   0.025   1.664
 1926SOL    HW1 6677   3.635   6.954   1.702
 1926SOL    HW2 6678   3.584   0.088   1.710
 1927SOL     OW 6679   2.460   4.038   0.958
 1927SOL    HW1 6680   2.406   3.955   0.969
 1927SOL    HW2 6681   2.454   4.094   1.041
 1928SOL     OW 6682   4.539   4.922   4.380
 1928SOL    HW1 6683   4.548   4.823   4.373
 1928SOL    HW2 6684   4.512   4.960   4.291
 1929SOL     OW 6685   2.875   0.563   2.500
 1929SOL    HW1 6686   2.844   0.602   2.414
 1929SOL    HW2 6687   2.959   0.511   2.484
 1930SOL     OW 6688   4.975   3.078   6.353
 1930SOL    HW1 6689   4.902   3.045   6.294
 1930SOL    HW2 6690   4.960   3.045   6.446
 1931SOL     OW 6691   0.952   1.867   6.687
 1931SOL    HW1 6692   0.909   1.777   6.695
 1931SOL    HW2 6693   1.015   1.867   6.609
 1932SOL     OW 6694   4.622   2.584   3.145
 1932SOL    HW1 6695   4.567   2.533   3.078
 1932SOL    HW2 6696   4.580   2.575   3.235
 1933SOL     OW 6697   0.318   2.028   6.984
 1933SOL    HW1 6698   0.243   2.094   6.994
 1933SOL    HW2 6699   0.280   1.935   6.987
 1934SOL     OW 6700   0.265   0.510   5.591
 1934SOL    HW1 6701   0.346   0.452   5.585
 1934SOL    HW2 6702   0.213   0.486   5.673
 1935SOL     OW 6703   4.625   4.437   4.116
 1935SOL    HW1 6704   4.577   4.447   4.029
 1935SOL    HW2 6705   4.690   4.512   4.127
 1936SOL     OW 6706   5.094   3.647   4.149
 1936SOL    HW1 6707   5.088   3.727   4.090
 1936SOL    HW2 6708   5.171   3.658   4.213
 1937SOL     OW 6709   4.732   6.036   6.727
 1937SOL    HW1 6710   4.648   6.019   6.675
 1937SOL    HW2 6711   4.807   6.057   6.665
 1938SOL     OW 6712   1.346   2.597   6.645
 1938SOL    HW1 6713   1.346   2.655   6.726
 1938SOL    HW2 6714   1.289   2.516   6.662
 1939SOL     OW 6715   0.630   5.260   4.706
 1939SOL    HW1 6716   0.584   5.198   4.768
 1939SOL    HW2 6717   0.727   5.265   4.729
 1940SOL     OW 6718   5.770   4.610   1.938
 1940SOL    HW1 6719   5.754   4.573   1.847
 1940SOL    HW2 6720   5.802   4.537   1.998
 1941SOL     OW 6721   0.113   2.791   3.261
 1941SOL    HW1 6722   0.194   2.831   3.218
 1941SOL    HW2 6723   0.131   2.696   3.287
 1942SOL     OW 6724   5.307   3.380   2.670
 1942SOL    HW1 6725   5.304   3.441   2.591
 1942SOL    HW2 6726   5.392   3.328   2.669
 1943SOL     OW 6727   1.171   1.310   2.286
 1943SOL    HW1 6728   1.139   1.233   2.231
 1943SOL    HW2 6729   1.188   1.279   2.380
 1944SOL     OW 6730   6.707   3.354   0.592
 1944SOL    HW1 6731   6.683   3.317   0.682
 1944SOL    HW2 6732   6.700   3.454   0.595
 1945SOL     OW 6733   4.053   6.835   0.926
 1945SOL    HW1 6734   4.020   6.745   0.953
 1945SOL    HW2 6735   4.113   6.871   0.998
 1946SOL     OW 6736   6.433   5.900   1.213
 1946SOL    HW1 6737   6.512   5.949   1.250
 1946SOL    HW2 6738   6.464   5.819   1.163
 1947SOL     OW 6739   6.055   4.322   3.261
 1947SOL    HW1 6740   6.136   4.358   3.214
 1947SOL    HW2 6741   5.997   4.398   3.291
 1948SOL     OW 6742   5.713   3.650   3.170
 1948SOL    HW1 6743   5.647   3.702   3.114
 1948SOL    HW2 6744   5.789   3.621   3.113
 1949SOL     OW 6745   4.146   4.193   0.549
 1949SOL    HW1 6746   4.129   4.277   0.601
 1949SOL    HW2 6747   4.215   4.138   0.597
 1950SOL     OW 6748   3.759   4.040   3.964
 1950SOL    HW1 6749   3.830   4.016   3.899
 1950SOL    HW2 6750   3.678   4.073   3.915
 1951SOL     OW 6751   6.541   4.103   5.572
 1951SOL    HW1 6752   6.567   4.193   5.539
 1951SOL    HW2 6753   6.570   4.092   5.667
 1952SOL     OW 6754   5.270   3.967   0.894
 1952SOL    HW1 6755   5.180   3.924   0.895
 1952SOL    HW2 6756   5.334   3.909   0.843
 1953SOL     OW 6757   0.511   1.303   6.630
 1953SOL    HW1 6758   0.492   1.209   6.659
 1953SOL    HW2 6759   0.588   1.339   6.683
 1954SOL     OW 6760   4.543   7.013   2.079
 1954SOL    HW1 6761   4.591   6.928   2.104
 1954SOL    HW2 6762   4.565   0.017   1.985
 1955SOL     OW 6763   1.104   1.389   1.876
 1955SOL    HW1 6764   1.148   1.418   1.791
 1955SOL    HW2 6765   1.102   1.289   1.880
 1956SOL     OW 6766   5.770   0.662   2.697
 1956SOL    HW1 6767   5.849   0.603   2.707
 1956SOL    HW2 6768   5.721   0.668   2.784
 1957SOL     OW 6769   5.230   2.766   3.866
 1957SOL    HW1 6770   5.294   2.800   3.798
 1957SOL    HW2 6771   5.247   2.669   3.883
 1958SOL     OW 6772   4.591   1.532   0.794
 1958SOL    HW1 6773   4.690   1.543   0.791
 1958SOL    HW2 6774   4.564   1.495   0.883
 1959SOL     OW 6775   6.809   6.887   4.281
 1959SOL    HW1 6776   6.863   6.880   4.197
 1959SOL    HW2 6777   6.870   6.884   4.360
 1960SOL     OW 6778   5.835   3.289   3.099
 1960SOL    HW1 6779   5.796   3.365   3.047
 1960SOL    HW2 6780   5.763   3.243   3.150
 1961SOL     OW 6781   6.203   4.349   4.725
 1961SOL    HW1 6782   6.230   4.400   4.807
 1961SOL    HW2 6783   6.274   4.283   4.702
 1962SOL     OW 6784   1.343   6.246   3.067
 1962SOL    HW1 6785   1.421   6.294   3.106
 1962SOL    HW2 6786   1.369   6.154   3.040
 1963SOL     OW 6787   1.314   1.157   1.549
 1963SOL    HW1 6788   1.229   1.114   1.522
 1963SOL    HW2 6789   1.362   1.098   1.614
 1964SOL     OW 6790   5.532   4.887   1.756
 1964SOL    HW1 6791   5.525   4.832   1.839
 1964SOL    HW2 6792   5.526   4.827   1.676
 1965SOL     OW 6793   0.768   4.069   4.204
 1965SOL    HW1 6794   0.721   3.983   4.182
 1965SOL    HW2 6795   0.792   4.117   4.119
 1966SOL     OW 6796   1.515   4.709   1.430
 1966SOL    HW1 6797   1.473   4.765   1.359
 1966SOL    HW2 6798   1.447   4.690   1.502
 1967SOL     OW 6799   6.741   2.096   3.971
 1967SOL    HW1 6800   6.766   2.020   3.910
 1967SOL    HW2 6801   6.641   2.103   3.975
 1968SOL     OW 6802   2.217   1.211   5.917
 1968SOL    HW1 6803   2.291   1.150   5.946
 1968SOL    HW2 6804   2.240   1.304   5.943
 1969SOL     OW 6805   3.431   0.619   1.247
 1969SOL    HW1 6806   3.452   0.523   1.264
 1969SOL    HW2 6807   3.497   0.677   1.295
 1970SOL     OW 6808   6.187   5.858   4.855
 1970SOL    HW1 6809   6.235   5.849   4.942
 1970SOL    HW2 6810   6.240   5.916   4.794
 1971SOL     OW 6811   1.159   0.095   5.653
 1971SOL    HW1 6812   1.237   0.076   5.713
 1971SOL    HW2 6813   1.109   0.174   5.688
 1972SOL     OW 6814   5.916   2.585   1.477
 1972SOL    HW1 6815   5.832   2.605   1.527
 1972SOL    HW2 6816   5.993   2.579   1.541
 1973SOL     OW 6817   3.016   3.479   1.164
 1973SOL    HW1 6818   2.977   3.408   1.105
 1973SOL    HW2 6819   3.003   3.569   1.123
 1974SOL     OW 6820   4.421   6.462   4.669
 1974SOL    HW1 6821   4.326   6.437   4.653
 1974SOL    HW2 6822   4.478   6.428   4.594
 1975SOL     OW 6823   2.106   3.207   3.357
 1975SOL    HW1 6824   2.011   3.211   3.328
 1975SOL    HW2 6825   2.111   3.211   3.457
 1976SOL     OW 6826   6.627   0.266   6.537
 1976SOL    HW1 6827   6.644   0.328   6.460
 1976SOL    HW2 6828   6.663   0.175   6.516
 1977SOL     OW 6829   2.310   3.953   6.652
 1977SOL    HW1 6830   2.236   3.907   6.701
 1977SOL    HW2 6831   2.271   4.020   6.589
 1978SOL     OW 6832   2.437   6.678   2.473
 1978SOL    HW1 6833   2.442   6.581   2.498
 1978SOL    HW2 6834   2.528   6.711   2.448
 1979SOL     OW 6835   6.155   5.446   6.489
 1979SOL    HW1 6836   6.154   5.494   6.577
 1979SOL    HW2 6837   6.084   5.376   6.489
 1980SOL     OW 6838   2.629   0.841   1.827
 1980SOL    HW1 6839   2.683   0.926   1.821
 1980SOL    HW2 6840   2.691   0.764   1.843
 1981SOL     OW 6841   4.853   2.535   3.246
 1981SOL    HW1 6842   4.840   2.441   3.278
 1981SOL    HW2 6843   4.770   2.566   3.200
 1982SOL     OW 6844   6.721   3.587   3.975
 1982SOL    HW1 6845   6.790   3.529   3.932
 1982SOL    HW2 6846   6.647   3.603   3.910
 1983SOL     OW 6847   0.372   0.054   0.691
 1983SOL    HW1 6848   0.328   0.141   0.670
 1983SOL    HW2 6849   0.471   0.063   0.683
 1984SOL     OW 6850   5.261   2.503   5.281
 1984SOL    HW1 6851   5.287   2.420   5.329
 1984SOL    HW2 6852   5.322   2.578   5.305
 1985SOL     OW 6853   6.357   5.119   1.505
 1985SOL    HW1 6854   6.412   5.071   1.436
 1985SOL    HW2 6855   6.322   5.052   1.572
 1986SOL     OW 6856   3.134   1.400   6.599
 1986SOL    HW1 6857   3.203   1.334   6.569
 1986SOL    HW2 6858   3.047   1.379   6.554
 1987SOL     OW 6859   1.307   1.126   4.070
 1987SOL    HW1 6860   1.399   1.119   4.108
 1987SOL    HW2 6861   1.303   1.077   3.983
 1988SOL     OW 6862   0.363   1.956   1.045
 1988SOL    HW1 6863   0.406   2.046   1.046
 1988SOL    HW2 6864   0.288   1.956   0.978
 1989SOL     OW 6865   2.646   5.277   5.429
 1989SOL    HW1 6866   2.583   5.212   5.472
 1989SOL    HW2 6867   2.690   5.332   5.499
 1990SOL     OW 6868   4.023   0.813   0.278
 1990SOL    HW1 6869   4.121   0.801   0.260
 1990SOL    HW2 6870   3.982   0.725   0.302
 1991SOL     OW 6871   2.977   5.718   0.206
 1991SOL    HW1 6872   3.034   5.696   0.285
 1991SOL    HW2 6873   2.883   5.688   0.222
 1992SOL     OW 6874   7.016   6.390   0.159
 1992SOL    HW1 6875   0.010   6.313   0.221
 1992SOL    HW2 6876   6.935   6.441   0.187
 1993SOL     OW 6877   1.956   2.971   4.943
 1993SOL    HW1 6878   1.997   3.062   4.934
 1993SOL    HW2 6879   2.018   2.911   4.993
 1994SOL     OW 6880   3.802   3.349   0.572
 1994SOL    HW1 6881   3.789   3.447   0.579
 1994SOL    HW2 6882   3.900   3.329   0.567
 1995SOL     OW 6883   5.242   1.905   5.142
 1995SOL    HW1 6884   5.161   1.891   5.199
 1995SOL    HW2 6885   5.213   1.928   5.049
 1996SOL     OW 6886   3.657   1.453   1.268
 1996SOL    HW1 6887   3.600   1.494   1.339
 1996SOL    HW2 6888   3.751   1.443   1.303
 1997SOL     OW 6889   3.260   1.332   3.856
 1997SOL    HW1 6890   3.206   1.347   3.939
 1997SOL    HW2 6891   3.217   1.380   3.779
 1998SOL     OW 6892   1.117   3.065   1.835
 1998SOL    HW1 6893   1.173   3.141   1.867
 1998SOL    HW2 6894   1.119   2.992   1.902
 1999SOL     OW 6895   0.861   0.503   5.364
 1999SOL    HW1 6896   0.917   0.579   5.396
 1999SOL    HW2 6897   0.870   0.496   5.264
 2000SOL     OW 6898   3.746   3.656   6.077
 2000SOL    HW1 6899   3.803   3.610   6.145
 2000SOL    HW2 6900   3.788   3.742   6.050
 2001SOL     OW 6901   1.708   1.797   6.469
 2001SOL    HW1 6902   1.638   1.770   6.536
 2001SOL    HW2 6903   1.670   1.788   6.377
 2002SOL     OW 6904   0.072   5.721   1.234
 2002SOL    HW1 6905   0.149   5.657   1.233
 2002SOL    HW2 6906   0.107   5.814   1.233
 2003SOL     OW 6907   6.253   4.808   2.229
 2003SOL    HW1 6908   6.293   4.894   2.199
 2003SOL    HW2 6909   6.188   4.825   2.303
 2004SOL     OW 6910   3.466   0.553   3.618
 2004SOL    HW1 6911   3.517   0.563   3.703
 2004SOL    HW2 6912   3.396   0.483   3.628
 2005SOL     OW 6913   0.384   6.029   0.549
 2005SOL    HW1 6914   0.445   6.108   0.541
 2005SOL    HW2 6915   0.406   5.963   0.478
 2006SOL     OW 6916   5.333   0.166   3.442
 2006SOL    HW1 6917   5.356   0.168   3.345
 2006SOL    HW2 6918   5.336   0.259   3.478
 2007SOL     OW 6919   4.974   4.283   0.657
 2007SOL    HW1 6920   5.022   4.312   0.739
 2007SOL    HW2 6921   5.038   4.274   0.581
 2008SOL     OW 6922   2.177   3.959   4.089
 2008SOL    HW1 6923   2.146   3.895   4.018
 2008SOL    HW2 6924   2.102   3.977   4.152
 2009SOL     OW 6925   6.398   6.179   2.105
 2009SOL    HW1 6926   6.443   6.096   2.138
 2009SOL    HW2 6927   6.464   6.254   2.103
 2010SOL     OW 6928   1.860   2.352   1.915
 2010SOL    HW1 6929   1.878   2.307   1.827
 2010SOL    HW2 6930   1.847   2.450   1.900
 2011SOL     OW 6931   6.881   6.042   5.526
 2011SOL    HW1 6932   6.875   6.140   5.544
 2011SOL    HW2 6933   6.975   6.018   5.504
 2012SOL     OW 6934   1.506   3.414   2.472
 2012SOL    HW1 6935   1.460   3.502   2.460
 2012SOL    HW2 6936   1.594   3.428   2.517
 2013SOL     OW 6937   0.423   2.651   3.200
 2013SOL    HW1 6938   0.469   2.724   3.252
 2013SOL    HW2 6939   0.443   2.662   3.103
 2014SOL     OW 6940   2.812   0.366   3.700
 2014SOL    HW1 6941   2.740   0.385   3.767
 2014SOL    HW2 6942   2.789   0.408   3.613
 2015SOL     OW 6943   3.841   0.794   1.994
 2015SOL    HW1 6944   3.774   0.722   1.976
 2015SOL    HW2 6945   3.806   0.855   2.066
 2016SOL     OW 6946   1.643   6.293   5.471
 2016SOL    HW1 6947   1.562   6.279   5.413
 2016SOL    HW2 6948   1.647   6.389   5.501
 2017SOL     OW 6949   4.173   6.676   3.043
 2017SOL    HW1 6950   4.130   6.766   3.035
 2017SOL    HW2 6951   4.108   6.613   3.087
 2018SOL     OW 6952   6.919   2.085   2.889
 2018SOL    HW1 6953   6.958   1.999   2.923
 2018SOL    HW2 6954   6.923   2.085   2.789
 2019SOL     OW 6955   6.445   4.974   6.156
 2019SOL    HW1 6956   6.362   4.923   6.179
 2019SOL    HW2 6957   6.524   4.927   6.194
 2020SOL     OW 6958   1.656   6.333   5.931
 2020SOL    HW1 6959   1.587   6.261   5.928
 2020SOL    HW2 6960   1.692   6.341   6.024
 2021SOL     OW 6961   6.175   6.412   3.497
 2021SOL    HW1 6962   6.228   6.339   3.454
 2021SOL    HW2 6963   6.229   6.495   3.502
 2022SOL     OW 6964   1.918   3.992   5.082
 2022SOL    HW1 6965   2.008   3.967   5.118
 2022SOL    HW2 6966   1.926   4.011   4.984
 2023SOL     OW 6967   0.071   0.349   0.074
 2023SOL    HW1 6968   0.011   0.410   0.021
 2023SOL    HW2 6969   0.066   0.374   0.170
 2024SOL     OW 6970   0.558   5.709   4.208
 2024SOL    HW1 6971   0.536   5.648   4.284
 2024SOL    HW2 6972   0.512   5.677   4.125
 2025SOL     OW 6973   2.349   0.762   4.698
 2025SOL    HW1 6974   2.354   0.667   4.731
 2025SOL    HW2 6975   2.259   0.800   4.719
 2026SOL     OW 6976   5.924   0.783   6.516
 2026SOL    HW1 6977   5.905   0.807   6.420
 2026SOL    HW2 6978   6.000   0.719   6.520
 2027SOL     OW 6979   0.667   5.443   1.884
 2027SOL    HW1 6980   0.682   5.460   1.982
 2027SOL    HW2 6981   0.709   5.356   1.859
 2028SOL     OW 6982   3.792   5.982   2.942
 2028SOL    HW1 6983   3.857   5.912   2.915
 2028SOL    HW2 6984   3.699   5.945   2.939
 2029SOL     OW 6985   0.045   2.219   6.461
 2029SOL    HW1 6986   0.107   2.293   6.433
 2029SOL    HW2 6987   0.057   2.141   6.400
 2030SOL     OW 6988   2.934   5.515   3.241
 2030SOL    HW1 6989   3.029   5.538   3.218
 2030SOL    HW2 6990   2.873   5.583   3.200
 2031SOL     OW 6991   6.755   5.420   2.731
 2031SOL    HW1 6992   6.782   5.324   2.725
 2031SOL    HW2 6993   6.792   5.459   2.816
 2032SOL     OW 6994   3.415   1.478   6.364
 2032SOL    HW1 6995   3.362   1.558   6.338
 2032SOL    HW2 6996   3.480   1.503   6.436
 2033SOL     OW 6997   1.996   0.839   1.042
 2033SOL    HW1 6998   2.051   0.804   1.117
 2033SOL    HW2 6999   2.008   0.781   0.962
 2034SOL     OW 7000   0.447   5.343   5.618
 2034SOL    HW1 7001   0.513   5.369   5.548
 2034SOL    HW2 7002   0.356   5.338   5.577
 2035SOL     OW 7003   6.049   0.209   2.314
 2035SOL    HW1 7004   5.989   0.216   2.234
 2035SOL    HW2 7005   5.999   0.239   2.395
 2036SOL     OW 7006   1.377   3.275   2.734
 2036SOL    HW1 7007   1.293   3.316   2.770
 2036SOL    HW2 7008   1.447   3.346   2.725
 2037SOL     OW 7009   0.453   2.696   6.281
 2037SOL    HW1 7010   0.363   2.739   6.283
 2037SOL    HW2 7011   0.455   2.621   6.347
 2038SOL     OW 7012   2.292   1.494   6.683
 2038SOL    HW1 7013   2.240   1.524   6.603
 2038SOL    HW2 7014   2.373   1.550   6.694
 2039SOL     OW 7015   6.908   6.296   2.698
 2039SOL    HW1 7016   6.928   6.271   2.603
 2039SOL    HW2 7017   6.809   6.293   2.712
 2040SOL     OW 7018   2.527   3.041   0.216
 2040SOL    HW1 7019   2.436   3.027   0.176
 2040SOL    HW2 7020   2.597   3.030   0.145
 2041SOL     OW 7021   1.906   6.974   6.092
 2041SOL    HW1 7022   1.960   0.032   6.121
 2041SOL    HW2 7023   1.846   7.000   6.016
 2042SOL     OW 7024   4.646   0.391   6.273
 2042SOL    HW1 7025   4.632   0.389   6.174
 2042SOL    HW2 7026   4.570   0.440   6.316
 2043SOL     OW 7027   6.952   3.145   1.249
 2043SOL    HW1 7028   6.961   3.047   1.261
 2043SOL    HW2 7029   6.891   3.182   1.319
 2044SOL     OW 7030   5.150   1.045   0.801
 2044SOL    HW1 7031   5.066   1.091   0.772
 2044SOL    HW2 7032   5.219   1.052   0.729
 2045SOL     OW 7033   1.783   5.962   6.095
 2045SOL    HW1 7034   1.781   6.024   6.173
 2045SOL    HW2 7035   1.823   5.874   6.123
 2046SOL     OW 7036   1.039   1.894   5.156
 2046SOL    HW1 7037   1.046   1.992   5.175
 2046SOL    HW2 7038   1.090   1.872   5.073
 2047SOL     OW 7039   6.399   2.184   0.106
 2047SOL    HW1 7040   6.409   2.121   0.183
 2047SOL    HW2 7041   6.440   2.272   0.130
 2048SOL     OW 7042   1.119   1.131   4.501
 2048SOL    HW1 7043   1.198   1.093   4.549
 2048SOL    HW2 7044   1.120   1.231   4.511
 2049SOL     OW 7045   4.901   1.183   4.876
 2049SOL    HW1 7046   4.842   1.239   4.935
 2049SOL    HW2 7047   4.982   1.236   4.851
 2050SOL     OW 7048   0.602   1.265   3.977
 2050SOL    HW1 7049   0.612   1.255   4.076
 2050SOL    HW2 7050   0.666   1.203   3.931
 2051SOL     OW 7051   2.928   6.741   1.060
 2051SOL    HW1 7052   2.966   6.769   1.148
 2051SOL    HW2 7053   2.857   6.806   1.033
 2052SOL     OW 7054   1.876   4.687   6.855
 2052SOL    HW1 7055   1.805   4.751   6.882
 2052SOL    HW2 7056   1.836   4.597   6.840
 2053SOL     OW 7057   1.016   5.240   4.047
 2053SOL    HW1 7058   0.956   5.318   4.068
 2053SOL    HW2 7059   1.110   5.272   4.042
 2054SOL     OW 7060   3.301   3.603   3.661
 2054SOL    HW1 7061   3.281   3.662   3.740
 2054SOL    HW2 7062   3.337   3.516   3.694
 2055SOL     OW 7063   1.825   2.366   5.402
 2055SOL    HW1 7064   1.773   2.346   5.486
 2055SOL    HW2 7065   1.762   2.400   5.332
 2056SOL     OW 7066   3.937   4.837   1.201
 2056SOL    HW1 7067   3.902   4.783   1.277
 2056SOL    HW2 7068   3.979   4.777   1.133
 2057SOL     OW 7069   5.307   2.304   4.609
 2057SOL    HW1 7070   5.227   2.286   4.553
 2057SOL    HW2 7071   5.298   2.393   4.653
 2058SOL     OW 7072   1.089   6.555   3.564
 2058SOL    HW1 7073   1.067   6.603   3.479
 2058SOL    HW2 7074   1.015   6.492   3.587
 2059SOL     OW 7075   2.710   0.081   5.513
 2059SOL    HW1 7076   2.702   0.005   5.577
 2059SOL    HW2 7077   2.667   0.056   5.426
 2060SOL     OW 7078   1.223   3.466   6.876
 2060SOL    HW1 7079   1.185   3.556   6.853
 2060SOL    HW2 7080   1.258   3.468   6.969
 2061SOL     OW 7081   2.057   1.978   2.237
 2061SOL    HW1 7082   1.996   1.916   2.286
 2061SOL    HW2 7083   2.049   2.070   2.274
 2062SOL     OW 7084   6.196   5.516   5.100
 2062SOL    HW1 7085   6.253   5.487   5.023
 2062SOL    HW2 7086   6.116   5.566   5.066
 2063SOL     OW 7087   2.023   0.646   5.402
 2063SOL    HW1 7088   2.100   0.614   5.346
 2063SOL    HW2 7089   1.976   0.567   5.442
 2064SOL     OW 7090   0.531   3.006   4.008
 2064SOL    HW1 7091   0.527   2.989   3.910
 2064SOL    HW2 7092   0.461   3.073   4.033
 2065SOL     OW 7093   4.545   2.777   5.632
 2065SOL    HW1 7094   4.567   2.682   5.609
 2065SOL    HW2 7095   4.538   2.830   5.548
 2066SOL     OW 7096   5.833   2.659   5.963
 2066SOL    HW1 7097   5.739   2.638   5.988
 2066SOL    HW2 7098   5.876   2.579   5.922
 2067SOL     OW 7099   6.294   4.763   1.473
 2067SOL    HW1 7100   6.338   4.763   1.563
 2067SOL    HW2 7101   6.195   4.754   1.483
 2068SOL     OW 7102   3.880   0.638   3.917
 2068SOL    HW1 7103   3.895   0.636   4.016
 2068SOL    HW2 7104   3.932   0.713   3.877
 2069SOL     OW 7105   0.208   2.124   4.119
 2069SOL    HW1 7106   0.198   2.129   4.020
 2069SOL    HW2 7107   0.255   2.039   4.143
 2070SOL     OW 7108   0.513   3.715   1.723
 2070SOL    HW1 7109   0.533   3.703   1.626
 2070SOL    HW2 7110   0.537   3.632   1.773
 2071SOL     OW 7111   6.315   1.662   6.306
 2071SOL    HW1 7112   6.250   1.718   6.255
 2071SOL    HW2 7113   6.404   1.664   6.262
 2072SOL     OW 7114   3.824   4.592   5.350
 2072SOL    HW1 7115   3.743   4.578   5.408
 2072SOL    HW2 7116   3.895   4.528   5.376
 2073SOL     OW 7117   3.305   5.868   0.365
 2073SOL    HW1 7118   3.277   5.781   0.405
 2073SOL    HW2 7119   3.385   5.854   0.306
 2074SOL     OW 7120   1.612   3.545   5.466
 2074SOL    HW1 7121   1.584   3.634   5.431
 2074SOL    HW2 7122   1.622   3.550   5.566
 2075SOL     OW 7123   7.016   2.434   2.001
 2075SOL    HW1 7124   0.069   2.423   2.068
 2075SOL    HW2 7125   6.949   2.499   2.035
 2076SOL     OW 7126   5.355   5.887   4.919
 2076SOL    HW1 7127   5.264   5.885   4.878
 2076SOL    HW2 7128   5.406   5.965   4.883
 2077SOL     OW 7129   6.978   3.619   0.994
 2077SOL    HW1 7130   6.886   3.590   1.020
 2077SOL    HW2 7131   0.017   3.616   1.074
 2078SOL     OW 7132   1.852   3.786   5.676
 2078SOL    HW1 7133   1.792   3.792   5.596
 2078SOL    HW2 7134   1.907   3.869   5.682
 2079SOL     OW 7135   5.289   1.258   1.642
 2079SOL    HW1 7136   5.217   1.240   1.708
 2079SOL    HW2 7137   5.366   1.304   1.687
 2080SOL     OW 7138   2.622   2.890   5.732
 2080SOL    HW1 7139   2.711   2.911   5.772
 2080SOL    HW2 7140   2.576   2.976   5.708
 2081SOL     OW 7141   0.193   0.054   3.406
 2081SOL    HW1 7142   0.258   0.116   3.363
 2081SOL    HW2 7143   0.166   7.004   3.340
 2082SOL     OW 7144   0.518   6.244   2.352
 2082SOL    HW1 7145   0.467   6.327   2.376
 2082SOL    HW2 7146   0.591   6.229   2.418
 2083SOL     OW 7147   6.607   5.841   4.393
 2083SOL    HW1 7148   6.694   5.808   4.429
 2083SOL    HW2 7149   6.577   5.783   4.318
 2084SOL     OW 7150   0.897   2.012   1.817
 2084SOL    HW1 7151   0.960   1.955   1.765
 2084SOL    HW2 7152   0.865   2.088   1.760
 2085SOL     OW 7153   4.988   5.384   0.206
 2085SOL    HW1 7154   5.044   5.457   0.166
 2085SOL    HW2 7155   5.044   5.327   0.265
 2086SOL     OW 7156   4.377   6.839   0.068
 2086SOL    HW1 7157   4.454   6.870   0.011
 2086SOL    HW2 7158   4.412   6.781   0.142
 2087SOL     OW 7159   4.040   2.323   6.948
 2087SOL    HW1 7160   4.088   2.308   6.861
 2087SOL    HW2 7161   3.950   2.364   6.929
 2088SOL     OW 7162   6.585   5.367   5.144
 2088SOL    HW1 7163   6.508   5.308   5.120
 2088SOL    HW2 7164   6.552   5.447   5.194
 2089SOL     OW 7165   2.811   3.174   5.894
 2089SOL    HW1 7166   2.879   3.163   5.967
 2089SOL    HW2 7167   2.822   3.101   5.827
 2090SOL     OW 7168   4.439   3.514   5.319
 2090SOL    HW1 7169   4.361   3.575   5.308
 2090SOL    HW2 7170   4.518   3.551   5.270
 2091SOL     OW 7171   6.118   5.545   1.983
 2091SOL    HW1 7172   6.042   5.589   2.032
 2091SOL    HW2 7173   6.143   5.460   2.030
 2092SOL     OW 7174   4.360   3.956   1.240
 2092SOL    HW1 7175   4.312   4.039   1.210
 2092SOL    HW2 7176   4.442   3.944   1.184
 2093SOL     OW 7177   3.746   2.136   2.922
 2093SOL    HW1 7178   3.831   2.176   2.887
 2093SOL    HW2 7179   3.669   2.177   2.874
 2094SOL     OW 7180   5.166   2.809   0.094
 2094SOL    HW1 7181   5.126   2.717   0.095
 2094SOL    HW2 7182   5.216   2.824   0.179
 2095SOL     OW 7183   5.503   6.417   3.673
 2095SOL    HW1 7184   5.563   6.494   3.652
 2095SOL    HW2 7185   5.408   6.442   3.655
 2096SOL     OW 7186   4.220   6.601   2.141
 2096SOL    HW1 7187   4.256   6.595   2.048
 2096SOL    HW2 7188   4.288   6.644   2.201
 2097SOL     OW 7189   1.457   5.237   6.656
 2097SOL    HW1 7190   1.550   5.201   6.662
 2097SOL    HW2 7191   1.460   5.327   6.611
 2098SOL     OW 7192   3.158   6.437   3.126
 2098SOL    HW1 7193   3.213   6.506   3.174
 2098SOL    HW2 7194   3.168   6.451   3.027
 2099SOL     OW 7195   5.287   1.397   0.569
 2099SOL    HW1 7196   5.373   1.445   0.586
 2099SOL    HW2 7197   5.297   1.339   0.488
 2100SOL     OW 7198   5.549   1.302   0.523
 2100SOL    HW1 7199   5.631   1.320   0.577
 2100SOL    HW2 7200   5.575   1.287   0.427
 2101SOL     OW 7201   0.274   6.455   2.091
 2101SOL    HW1 7202   0.361   6.452   2.043
 2101SOL    HW2 7203   0.221   6.534   2.059
 2102SOL     OW 7204   3.787   3.614   0.589
 2102SOL    HW1 7205   3.743   3.626   0.678
 2102SOL    HW2 7206   3.774   3.697   0.534
 2103SOL     OW 7207   3.288   6.160   0.335
 2103SOL    HW1 7208   3.258   6.077   0.381
 2103SOL    HW2 7209   3.213   6.194   0.277
 2104SOL     OW 7210   0.912   4.765   3.341
 2104SOL    HW1 7211   0.984   4.791   3.405
 2104SOL    HW2 7212   0.941   4.683   3.291
 2105SOL     OW 7213   5.377   4.336   6.565
 2105SOL    HW1 7214   5.468   4.377   6.557
 2105SOL    HW2 7215   5.368   4.263   6.497
 2106SOL     OW 7216   5.106   3.595   2.276
 2106SOL    HW1 7217   5.024   3.650   2.293
 2106SOL    HW2 7218   5.100   3.553   2.186
 2107SOL     OW 7219   5.366   3.828   5.105
 2107SOL    HW1 7220   5.307   3.879   5.042
 2107SOL    HW2 7221   5.372   3.733   5.076
 2108SOL     OW 7222   5.702   6.478   5.736
 2108SOL    HW1 7223   5.625   6.499   5.796
 2108SOL    HW2 7224   5.701   6.542   5.659
 2109SOL     OW 7225   2.629   5.201   2.786
 2109SOL    HW1 7226   2.604   5.106   2.800
 2109SOL    HW2 7227   2.660   5.240   2.873
 2110SOL     OW 7228   3.701   0.871   6.772
 2110SOL    HW1 7229   3.706   0.784   6.725
 2110SOL    HW2 7230   3.605   0.894   6.788
 2111SOL     OW 7231   1.134   2.849   5.939
 2111SOL    HW1 7232   1.190   2.887   6.012
 2111SOL    HW2 7233   1.070   2.782   5.976
 2112SOL     OW 7234   0.463   2.002   0.764
 2112SOL    HW1 7235   0.562   1.993   0.773
 2112SOL    HW2 7236   0.425   1.918   0.724
 2113SOL     OW 7237   1.755   0.155   4.583
 2113SOL    HW1 7238   1.717   0.127   4.671
 2113SOL    HW2 7239   1.825   0.226   4.598
 2114SOL     OW 7240   2.103   2.392   0.115
 2114SOL    HW1 7241   2.051   2.439   0.044
 2114SOL    HW2 7242   2.134   2.303   0.081
 2115SOL     OW 7243   0.303   5.741   3.556
 2115SOL    HW1 7244   0.300   5.662   3.618
 2115SOL    HW2 7245   0.216   5.789   3.560
 2116SOL     OW 7246   0.674   2.337   6.894
 2116SOL    HW1 7247   0.749   2.294   6.843
 2116SOL    HW2 7248   0.592   2.280   6.887
 2117SOL     OW 7249   5.765   1.453   2.186
 2117SOL    HW1 7250   5.838   1.521   2.188
 2117SOL    HW2 7251   5.704   1.471   2.108
 2118SOL     OW 7252   6.123   2.906   1.946
 2118SOL    HW1 7253   6.160   2.956   1.867
 2118SOL    HW2 7254   6.028   2.883   1.929
 2119SOL     OW 7255   3.221   0.347   6.875
 2119SOL    HW1 7256   3.217   0.327   6.973
 2119SOL    HW2 7257   3.316   0.362   6.848
 2120SOL     OW 7258   5.802   1.879   1.035
 2120SOL    HW1 7259   5.873   1.936   0.994
 2120SOL    HW2 7260   5.816   1.784   1.008
 2121SOL     OW 7261   1.943   0.790   6.774
 2121SOL    HW1 7262   1.891   0.705   6.776
 2121SOL    HW2 7263   2.001   0.796   6.855
 2122SOL     OW 7264   5.834   0.712   5.277
 2122SOL    HW1 7265   5.819   0.714   5.178
 2122SOL    HW2 7266   5.869   0.800   5.308
 2123SOL     OW 7267   1.285   5.909   3.290
 2123SOL    HW1 7268   1.228   5.879   3.214
 2123SOL    HW2 7269   1.377   5.928   3.257
 2124SOL     OW 7270   3.573   2.912   5.849
 2124SOL    HW1 7271   3.491   2.859   5.829
 2124SOL    HW2 7272   3.547   3.001   5.887
 2125SOL     OW 7273   1.661   6.026   2.833
 2125SOL    HW1 7274   1.576   5.981   2.862
 2125SOL    HW2 7275   1.739   5.976   2.870
 2126SOL     OW 7276   3.764   4.169   6.811
 2126SOL    HW1 7277   3.788   4.255   6.766
 2126SOL    HW2 7278   3.664   4.159   6.812
 2127SOL     OW 7279   0.619   2.512   5.141
 2127SOL    HW1 7280   0.574   2.429   5.109
 2127SOL    HW2 7281   0.605   2.522   5.239
 2128SOL     OW 7282   5.428   2.801   1.881
 2128SOL    HW1 7283   5.377   2.887   1.886
 2128SOL    HW2 7284   5.447   2.778   1.786
 2129SOL     OW 7285   4.884   4.499   3.965
 2129SOL    HW1 7286   4.877   4.439   3.885
 2129SOL    HW2 7287   4.836   4.457   4.042
 2130SOL     OW 7288   1.972   0.942   2.387
 2130SOL    HW1 7289   1.980   1.042   2.380
 2130SOL    HW2 7290   2.053   0.905   2.431
 2131SOL     OW 7291   5.877   2.114   6.137
 2131SOL    HW1 7292   5.972   2.102   6.167
 2131SOL    HW2 7293   5.825   2.162   6.208
 2132SOL     OW 7294   2.792   1.992   6.601
 2132SOL    HW1 7295   2.768   2.089   6.609
 2132SOL    HW2 7296   2.888   1.979   6.626
 2133SOL     OW 7297   2.604   2.173   1.637
 2133SOL    HW1 7298   2.636   2.267   1.628
 2133SOL    HW2 7299   2.504   2.172   1.642
 2134SOL     OW 7300   0.652   6.589   5.138
 2134SOL    HW1 7301   0.708   6.507   5.142
 2134SOL    HW2 7302   0.566   6.569   5.090
 2135SOL     OW 7303   0.427   1.247   3.541
 2135SOL    HW1 7304   0.512   1.237   3.489
 2135SOL    HW2 7305   0.354   1.278   3.481
 2136SOL     OW 7306   0.713   3.211   3.797
 2136SOL    HW1 7307   0.806   3.237   3.771
 2136SOL    HW2 7308   0.701   3.225   3.895
 2137SOL     OW 7309   1.353   0.117   5.339
 2137SOL    HW1 7310   1.393   0.110   5.431
 2137SOL    HW2 7311   1.300   0.035   5.320
 2138SOL     OW 7312   0.089   2.992   0.372
 2138SOL    HW1 7313   0.026   3.069   0.380
 2138SOL    HW2 7314   0.153   2.994   0.449
 2139SOL     OW 7315   2.963   0.508   5.144
 2139SOL    HW1 7316   3.000   0.417   5.159
 2139SOL    HW2 7317   2.868   0.501   5.112
 2140SOL     OW 7318   2.370   5.970   3.423
 2140SOL    HW1 7319   2.327   6.059   3.438
 2140SOL    HW2 7320   2.372   5.950   3.325
 2141SOL     OW 7321   5.402   2.138   1.164
 2141SOL    HW1 7322   5.438   2.093   1.246
 2141SOL    HW2 7323   5.337   2.077   1.119
 2142SOL     OW 7324   1.926   2.352   3.482
 2142SOL    HW1 7325   1.852   2.286   3.497
 2142SOL    HW2 7326   1.998   2.337   3.551
 2143SOL     OW 7327   3.236   6.660   1.704
 2143SOL    HW1 7328   3.279   6.615   1.626
 2143SOL    HW2 7329   3.287   6.638   1.787
 2144SOL     OW 7330   0.510   0.738   3.656
 2144SOL    HW1 7331   0.494   0.828   3.616
 2144SOL    HW2 7332   0.499   0.668   3.586
 2145SOL     OW 7333   3.259   4.911   3.267
 2145SOL    HW1 7334   3.324   4.938   3.339
 2145SOL    HW2 7335   3.291   4.945   3.179
 2146SOL     OW 7336   3.679   2.843   2.474
 2146SOL    HW1 7337   3.704   2.748   2.456
 2146SOL    HW2 7338   3.762   2.897   2.488
 2147SOL     OW 7339   1.151   1.329   5.746
 2147SOL    HW1 7340   1.218   1.254   5.748
 2147SOL    HW2 7341   1.098   1.328   5.830
 2148SOL     OW 7342   4.941   3.486   2.876
 2148SOL    HW1 7343   4.920   3.520   2.785
 2148SOL    HW2 7344   4.913   3.390   2.884
 2149SOL     OW 7345   4.013   1.109   2.671
 2149SOL    HW1 7346   4.033   1.188   2.614
 2149SOL    HW2 7347   4.092   1.087   2.728
 2150SOL     OW 7348   3.091   2.160   3.735
 2150SOL    HW1 7349   2.994   2.176   3.750
 2150SOL    HW2 7350   3.141   2.168   3.822
 2151SOL     OW 7351   3.864   2.925   5.698
 2151SOL    HW1 7352   3.866   2.937   5.797
 2151SOL    HW2 7353   3.882   3.013   5.653
 2152SOL     OW 7354   6.049   6.418   1.862
 2152SOL    HW1 7355   5.962   6.461   1.837
 2152SOL    HW2 7356   6.124   6.481   1.841
 2153SOL     OW 7357   4.474   2.099   3.648
 2153SOL    HW1 7358   4.415   2.027   3.610
 2153SOL    HW2 7359   4.547   2.058   3.702
 2154SOL     OW 7360   3.049   5.735   4.894
 2154SOL    HW1 7361   3.086   5.716   4.985
 2154SOL    HW2 7362   2.996   5.819   4.896
 2155SOL     OW 7363   0.768   4.278   0.405
 2155SOL    HW1 7364   0.713   4.195   0.388
 2155SOL    HW2 7365   0.808   4.273   0.496
 2156SOL     OW 7366   2.045   0.551   1.691
 2156SOL    HW1 7367   2.078   0.620   1.626
 2156SOL    HW2 7368   2.067   0.581   1.784
 2157SOL     OW 7369   0.610   1.224   5.044
 2157SOL    HW1 7370   0.687   1.166   5.013
 2157SOL    HW2 7371   0.601   1.217   5.143
 2158SOL     OW 7372   3.949   6.658   1.649
 2158SOL    HW1 7373   3.865   6.680   1.599
 2158SOL    HW2 7374   4.007   6.739   1.655
 2159SOL     OW 7375   1.120   6.605   4.973
 2159SOL    HW1 7376   1.184   6.657   4.916
 2159SOL    HW2 7377   1.028   6.642   4.962
 2160SOL     OW 7378   3.123   4.359   0.946
 2160SOL    HW1 7379   3.070   4.301   0.884
 2160SOL    HW2 7380   3.069   4.377   1.029
 2161SOL     OW 7381   5.119   2.568   3.487
 2161SOL    HW1 7382   5.070   2.655   3.494
 2161SOL    HW2 7383   5.210   2.578   3.527
 2162SOL     OW 7384   1.463   0.715   6.521
 2162SOL    HW1 7385   1.392   0.770   6.478
 2162SOL    HW2 7386   1.525   0.775   6.572
 2163SOL     OW 7387   1.808   1.442   0.433
 2163SOL    HW1 7388   1.785   1.438   0.530
 2163SOL    HW2 7389   1.818   1.349   0.397
 2164SOL     OW 7390   1.800   1.006   6.847
 2164SOL    HW1 7391   1.788   1.084   6.786
 2164SOL    HW2 7392   1.852   0.934   6.800
 2165SOL     OW 7393   1.912   6.815   2.779
 2165SOL    HW1 7394   1.834   6.806   2.841
 2165SOL    HW2 7395   1.958   6.902   2.797
 2166SOL     OW 7396   0.801   2.376   6.093
 2166SOL    HW1 7397   0.900   2.384   6.103
 2166SOL    HW2 7398   0.756   2.443   6.153
 2167SOL     OW 7399   3.739   0.710   2.614
 2167SOL    HW1 7400   3.648   0.740   2.642
 2167SOL    HW2 7401   3.793   0.788   2.583
 2168SOL     OW 7402   5.673   4.367   4.756
 2168SOL    HW1 7403   5.766   4.396   4.779
 2168SOL    HW2 7404   5.644   4.295   4.820
 2169SOL     OW 7405   5.275   1.871   6.492
 2169SOL    HW1 7406   5.194   1.820   6.461
 2169SOL    HW2 7407   5.356   1.813   6.484
 2170SOL     OW 7408   4.221   5.053   4.716
 2170SOL    HW1 7409   4.277   5.064   4.634
 2170SOL    HW2 7410   4.160   4.975   4.704
 2171SOL     OW 7411   6.924   2.910   6.910
 2171SOL    HW1 7412   6.874   2.845   6.967
 2171SOL    HW2 7413   7.001   2.948   6.962
 2172SOL     OW 7414   3.101   0.985   0.634
 2172SOL    HW1 7415   3.075   0.994   0.730
 2172SOL    HW2 7416   3.021   0.996   0.576
 2173SOL     OW 7417   5.590   1.392   5.685
 2173SOL    HW1 7418   5.588   1.292   5.684
 2173SOL    HW2 7419   5.496   1.426   5.678
 2174SOL     OW 7420   0.113   5.013   5.208
 2174SOL    HW1 7421   0.099   5.112   5.203
 2174SOL    HW2 7422   0.207   4.991   5.183
 2175SOL     OW 7423   2.229   0.393   4.546
 2175SOL    HW1 7424   2.206   0.466   4.610
 2175SOL    HW2 7425   2.320   0.357   4.567
 2176SOL     OW 7426   1.845   2.661   3.051
 2176SOL    HW1 7427   1.867   2.731   3.119
 2176SOL    HW2 7428   1.883   2.573   3.080
 2177SOL     OW 7429   0.512   2.500   0.497
 2177SOL    HW1 7430   0.462   2.478   0.413
 2177SOL    HW2 7431   0.538   2.597   0.496
 2178SOL     OW 7432   0.851   4.920   0.531
 2178SOL    HW1 7433   0.886   5.011   0.509
 2178SOL    HW2 7434   0.754   4.915   0.508
 2179SOL     OW 7435   1.437   5.522   4.201
 2179SOL    HW1 7436   1.497   5.441   4.205
 2179SOL    HW2 7437   1.401   5.540   4.292
 2180SOL     OW 7438   3.352   3.746   2.729
 2180SOL    HW1 7439   3.421   3.776   2.664
 2180SOL    HW2 7440   3.311   3.826   2.773
 2181SOL     OW 7441   5.308   5.464   5.937
 2181SOL    HW1 7442   5.277   5.403   5.864
 2181SOL    HW2 7443   5.346   5.547   5.897
 2182SOL     OW 7444   0.213   2.825   6.238
 2182SOL    HW1 7445   0.116   2.849   6.246
 2182SOL    HW2 7446   0.246   2.852   6.147
 2183SOL     OW 7447   3.700   3.243   0.853
 2183SOL    HW1 7448   3.695   3.314   0.783
 2183SOL    HW2 7449   3.783   3.254   0.907
 2184SOL     OW 7450   3.831   2.344   6.340
 2184SOL    HW1 7451   3.791   2.338   6.249
 2184SOL    HW2 7452   3.779   2.409   6.395
 2185SOL     OW 7453   1.813   0.819   1.235
 2185SOL    HW1 7454   1.844   0.892   1.296
 2185SOL    HW2 7455   1.872   0.818   1.154
 2186SOL     OW 7456   0.669   6.016   3.270
 2186SOL    HW1 7457   0.765   5.990   3.268
 2186SOL    HW2 7458   0.658   6.096   3.330
 2187SOL     OW 7459   0.016   1.458   6.951
 2187SOL    HW1 7460   6.963   1.396   6.977
 2187SOL    HW2 7461   0.055   1.500   0.012
 2188SOL     OW 7462   5.749   6.729   2.992
 2188SOL    HW1 7463   5.672   6.685   3.037
 2188SOL    HW2 7464   5.786   6.667   2.922
 2189SOL     OW 7465   2.107   6.336   6.390
 2189SOL    HW1 7466   2.071   6.417   6.435
 2189SOL    HW2 7467   2.166   6.285   6.453
 2190SOL     OW 7468   5.380   1.595   1.805
 2190SOL    HW1 7469   5.395   1.650   1.888
 2190SOL    HW2 7470   5.459   1.535   1.790
 2191SOL     OW 7471   3.256   2.775   6.173
 2191SOL    HW1 7472   3.165   2.736   6.161
 2191SOL    HW2 7473   3.301   2.731   6.251
 2192SOL     OW 7474   4.451   5.865   4.860
 2192SOL    HW1 7475   4.493   5.799   4.797
 2192SOL    HW2 7476   4.493   5.856   4.950
 2193SOL     OW 7477   1.098   5.195   5.655
 2193SOL    HW1 7478   1.098   5.134   5.576
 2193SOL    HW2 7479   1.037   5.159   5.726
 2194SOL     OW 7480   2.454   0.005   0.718
 2194SOL    HW1 7481   2.501   0.078   0.769
 2194SOL    HW2 7482   2.362   7.014   0.754
 2195SOL     OW 7483   1.374   5.540   2.637
 2195SOL    HW1 7484   1.471   5.533   2.661
 2195SOL    HW2 7485   1.356   5.487   2.554
 2196SOL     OW 7486   3.523   2.194   6.500
 2196SOL    HW1 7487   3.540   2.281   6.546
 2196SOL    HW2 7488   3.432   2.195   6.458
 2197SOL     OW 7489   5.026   4.849   1.327
 2197SOL    HW1 7490   5.043   4.898   1.242
 2197SOL    HW2 7491   4.979   4.762   1.306
 2198SOL     OW 7492   6.622   3.852   0.671
 2198SOL    HW1 7493   6.570   3.915   0.729
 2198SOL    HW2 7494   6.626   3.762   0.715
 2199SOL     OW 7495   4.571   0.362   1.603
 2199SOL    HW1 7496   4.602   0.382   1.696
 2199SOL    HW2 7497   4.554   0.264   1.593
 2200SOL     OW 7498   3.651   0.319   4.388
 2200SOL    HW1 7499   3.682   0.272   4.471
 2200SOL    HW2 7500   3.616   0.410   4.413
 2201SOL     OW 7501   5.554   3.505   1.926
 2201SOL    HW1 7502   5.571   3.412   1.957
 2201SOL    HW2 7503   5.630   3.535   1.868
 2202SOL     OW 7504   4.606   5.791   3.920
 2202SOL    HW1 7505   4.513   5.764   3.894
 2202SOL    HW2 7506   4.650   5.839   3.844
 2203SOL     OW 7507   3.478   2.016   3.477
 2203SOL    HW1 7508   3.379   2.004   3.481
 2203SOL    HW2 7509   3.504   2.054   3.389
 2204SOL     OW 7510   3.221   2.892   0.517
 2204SOL    HW1 7511   3.245   2.795   0.508
 2204SOL    HW2 7512   3.172   2.907   0.603
 2205SOL     OW 7513   2.887   0.018   0.768
 2205SOL    HW1 7514   2.933   0.090   0.819
 2205SOL    HW2 7515   2.930   6.950   0.789
 2206SOL     OW 7516   2.144   3.181   6.775
 2206SOL    HW1 7517   2.066   3.120   6.789
 2206SOL    HW2 7518   2.136   3.225   6.686
 2207SOL     OW 7519   0.909   4.677   6.162
 2207SOL    HW1 7520   0.821   4.696   6.204
 2207SOL    HW2 7521   0.951   4.763   6.133
 2208SOL     OW 7522   0.257   3.538   1.827
 2208SOL    HW1 7523   0.169   3.561   1.786
 2208SOL    HW2 7524   0.317   3.498   1.758
 2209SOL     OW 7525   0.847   5.924   6.496
 2209SOL    HW1 7526   0.806   5.914   6.405
 2209SOL    HW2 7527   0.940   5.959   6.487
 2210SOL     OW 7528   0.964   6.339   4.316
 2210SOL    HW1 7529   1.032   6.393   4.266
 2210SOL    HW2 7530   0.878   6.339   4.266
 2211SOL     OW 7531   6.216   1.527   5.505
 2211SOL    HW1 7532   6.212   1.541   5.604
 2211SOL    HW2 7533   6.173   1.439   5.483
 2212SOL     OW 7534   1.606   0.135   6.393
 2212SOL    HW1 7535   1.679   0.191   6.352
 2212SOL    HW2 7536   1.594   0.052   6.339
 2213SOL     OW 7537   3.543   1.867   3.839
 2213SOL    HW1 7538   3.618   1.852   3.903
 2213SOL    HW2 7539   3.543   1.794   3.769
 2214SOL     OW 7540   4.998   0.100   4.629
 2214SOL    HW1 7541   5.014   0.169   4.559
 2214SOL    HW2 7542   5.004   0.009   4.588
 2215SOL     OW 7543   6.321   2.126   5.323
 2215SOL    HW1 7544   6.290   2.219   5.304
 2215SOL    HW2 7545   6.420   2.120   5.309
 2216SOL     OW 7546   1.602   6.680   1.626
 2216SOL    HW1 7547   1.664   6.728   1.687
 2216SOL    HW2 7548   1.527   6.741   1.600
 2217SOL     OW 7549   4.202   0.165   1.263
 2217SOL    HW1 7550   4.105   0.144   1.249
 2217SOL    HW2 7551   4.219   0.178   1.361
 2218SOL     OW 7552   0.377   5.804   0.399
 2218SOL    HW1 7553   0.418   5.739   0.464
 2218SOL    HW2 7554   0.426   5.800   0.312
 2219SOL     OW 7555   1.769   3.774   3.252
 2219SOL    HW1 7556   1.693   3.739   3.198
 2219SOL    HW2 7557   1.739   3.789   3.346
 2220SOL     OW 7558   0.567   0.921   6.580
 2220SOL    HW1 7559   0.475   0.892   6.552
 2220SOL    HW2 7560   0.574   0.919   6.679
 2221SOL     OW 7561   6.585   2.653   1.509
 2221SOL    HW1 7562   6.596   2.619   1.602
 2221SOL    HW2 7563   6.559   2.578   1.448
 2222SOL     OW 7564   4.945   6.650   2.766
 2222SOL    HW1 7565   5.044   6.644   2.762
 2222SOL    HW2 7566   4.916   6.674   2.859
 2223SOL     OW 7567   5.616   5.235   2.843
 2223SOL    HW1 7568   5.701   5.262   2.797
 2223SOL    HW2 7569   5.539   5.247   2.780
 2224SOL     OW 7570   1.266   4.381   1.467
 2224SOL    HW1 7571   1.177   4.386   1.423
 2224SOL    HW2 7572   1.264   4.313   1.540
 2225SOL     OW 7573   6.019   4.859   2.428
 2225SOL    HW1 7574   6.024   4.816   2.518
 2225SOL    HW2 7575   5.938   4.825   2.380
 2226SOL     OW 7576   3.972   4.404   0.857
 2226SOL    HW1 7577   3.983   4.440   0.949
 2226SOL    HW2 7578   3.897   4.450   0.811
 2227SOL     OW 7579   0.051   4.146   4.898
 2227SOL    HW1 7580   0.110   4.210   4.947
 2227SOL    HW2 7581   0.102   4.061   4.881
 2228SOL     OW 7582   3.189   4.951   6.044
 2228SOL    HW1 7583   3.143   5.017   6.103
 2228SOL    HW2 7584   3.150   4.860   6.057
 2229SOL     OW 7585   4.697   0.931   3.822
 2229SOL    HW1 7586   4.695   1.013   3.765
 2229SOL    HW2 7587   4.618   0.931   3.883
 2230SOL     OW 7588   1.284   6.274   6.469
 2230SOL    HW1 7589   1.348   6.286   6.545
 2230SOL    HW2 7590   1.211   6.211   6.496
 2231SOL     OW 7591   2.641   0.087   1.227
 2231SOL    HW1 7592   2.550   0.084   1.187
 2231SOL    HW2 7593   2.634   0.118   1.322
 2232SOL     OW 7594   6.157   2.697   3.105
 2232SOL    HW1 7595   6.213   2.755   3.164
 2232SOL    HW2 7596   6.068   2.681   3.148
 2233SOL     OW 7597   4.170   0.172   0.260
 2233SOL    HW1 7598   4.184   0.074   0.250
 2233SOL    HW2 7599   4.140   0.192   0.353
 2234SOL     OW 7600   3.794   1.939   0.911
 2234SOL    HW1 7601   3.802   1.905   0.817
 2234SOL    HW2 7602   3.851   2.021   0.921
 2235SOL     OW 7603   1.422   6.677   0.762
 2235SOL    HW1 7604   1.449   6.753   0.820
 2235SOL    HW2 7605   1.326   6.654   0.779
 2236SOL     OW 7606   0.217   4.382   1.300
 2236SOL    HW1 7607   0.180   4.302   1.254
 2236SOL    HW2 7608   0.143   4.430   1.347
 2237SOL     OW 7609   6.335   2.432   4.386
 2237SOL    HW1 7610   6.290   2.521   4.394
 2237SOL    HW2 7611   6.270   2.359   4.410
 2238SOL     OW 7612   1.129   5.475   1.928
 2238SOL    HW1 7613   1.114   5.428   2.015
 2238SOL    HW2 7614   1.224   5.463   1.899
 2239SOL     OW 7615   4.215   5.345   3.216
 2239SOL    HW1 7616   4.139   5.282   3.204
 2239SOL    HW2 7617   4.229   5.397   3.132
 2240SOL     OW 7618   5.667   4.480   2.302
 2240SOL    HW1 7619   5.614   4.537   2.364
 2240SOL    HW2 7620   5.616   4.466   2.217
 2241SOL     OW 7621   0.704   0.078   2.303
 2241SOL    HW1 7622   0.742   0.163   2.340
 2241SOL    HW2 7623   0.674   0.094   2.209
 2242SOL     OW 7624   4.673   1.781   2.688
 2242SOL    HW1 7625   4.752   1.731   2.724
 2242SOL    HW2 7626   4.624   1.723   2.623
 2243SOL     OW 7627   2.465   6.223   5.416
 2243SOL    HW1 7628   2.433   6.231   5.511
 2243SOL    HW2 7629   2.564   6.230   5.413
 2244SOL     OW 7630   2.965   0.671   4.610
 2244SOL    HW1 7631   2.970   0.635   4.703
 2244SOL    HW2 7632   2.988   0.769   4.611
 2245SOL     OW 7633   1.575   1.364   1.985
 2245SOL    HW1 7634   1.653   1.422   2.005
 2245SOL    HW2 7635   1.510   1.367   2.061
 2246SOL     OW 7636   0.917   3.594   5.680
 2246SOL    HW1 7637   0.911   3.657   5.758
 2246SOL    HW2 7638   0.835   3.603   5.624
 2247SOL     OW 7639   1.841   1.967   6.042
 2247SOL    HW1 7640   1.876   1.888   5.992
 2247SOL    HW2 7641   1.868   1.962   6.138
 2248SOL     OW 7642   5.033   3.261   5.298
 2248SOL    HW1 7643   4.954   3.318   5.321
 2248SOL    HW2 7644   5.017   3.215   5.211
 2249SOL     OW 7645   4.934   5.371   3.944
 2249SOL    HW1 7646   4.859   5.425   3.982
 2249SOL    HW2 7647   4.896   5.291   3.898
 2250SOL     OW 7648   6.608   4.600   0.065
 2250SOL    HW1 7649   6.615   4.697   0.088
 2250SOL    HW2 7650   6.681   4.549   0.111
 2251SOL     OW 7651   6.146   0.729   7.020
 2251SOL    HW1 7652   6.189   0.791   0.065
 2251SOL    HW2 7653   6.150   0.770   6.929
 2252SOL     OW 7654   4.398   2.487   5.498
 2252SOL    HW1 7655   4.324   2.531   5.549
 2252SOL    HW2 7656   4.394   2.388   5.512
 2253SOL     OW 7657   1.940   3.613   6.719
 2253SOL    HW1 7658   1.920   3.571   6.807
 2253SOL    HW2 7659   2.029   3.581   6.686
 2254SOL     OW 7660   2.067   3.728   6.030
 2254SOL    HW1 7661   2.157   3.772   6.031
 2254SOL    HW2 7662   1.996   3.798   6.021
 2255SOL     OW 7663   5.890   2.895   1.779
 2255SOL    HW1 7664   5.957   2.900   1.704
 2255SOL    HW2 7665   5.820   2.827   1.757
 2256SOL     OW 7666   3.975   4.707   1.466
 2256SOL    HW1 7667   4.033   4.775   1.422
 2256SOL    HW2 7668   3.899   4.754   1.512
 2257SOL     OW 7669   2.103   4.303   3.987
 2257SOL    HW1 7670   2.015   4.260   4.002
 2257SOL    HW2 7671   2.166   4.280   4.061
 2258SOL     OW 7672   1.784   5.688   4.403
 2258SOL    HW1 7673   1.706   5.717   4.347
 2258SOL    HW2 7674   1.756   5.613   4.462
 2259SOL     OW 7675   5.685   3.319   6.638
 2259SOL    HW1 7676   5.721   3.412   6.636
 2259SOL    HW2 7677   5.659   3.291   6.545
 2260SOL     OW 7678   5.285   5.286   0.784
 2260SOL    HW1 7679   5.325   5.215   0.842
 2260SOL    HW2 7680   5.348   5.306   0.709
 2261SOL     OW 7681   5.094   6.120   6.777
 2261SOL    HW1 7682   5.177   6.162   6.743
 2261SOL    HW2 7683   5.086   6.135   6.875
 2262SOL     OW 7684   4.559   2.133   3.386
 2262SOL    HW1 7685   4.536   2.152   3.481
 2262SOL    HW2 7686   4.625   2.059   3.382
 2263SOL     OW 7687   0.404   5.193   6.259
 2263SOL    HW1 7688   0.496   5.196   6.220
 2263SOL    HW2 7689   0.342   5.247   6.202
 2264SOL     OW 7690   3.589   3.900   4.455
 2264SOL    HW1 7691   3.672   3.946   4.486
 2264SOL    HW2 7692   3.562   3.937   4.366
 2265SOL     OW 7693   6.894   0.427   1.914
 2265SOL    HW1 7694   6.800   0.402   1.937
 2265SOL    HW2 7695   6.949   0.428   1.998
 2266SOL     OW 7696   5.868   0.004   1.021
 2266SOL    HW1 7697   5.793   7.018   1.087
 2266SOL    HW2 7698   5.938   0.067   1.056
 2267SOL     OW 7699   6.128   2.593   5.807
 2267SOL    HW1 7700   6.041   2.545   5.798
 2267SOL    HW2 7701   6.150   2.605   5.904
 2268SOL     OW 7702   6.819   5.496   6.681
 2268SOL    HW1 7703   6.762   5.510   6.600
 2268SOL    HW2 7704   6.770   5.438   6.746
 2269SOL     OW 7705   6.613   5.455   5.826
 2269SOL    HW1 7706   6.668   5.391   5.773
 2269SOL    HW2 7707   6.521   5.460   5.788
 2270SOL     OW 7708   4.005   3.519   1.677
 2270SOL    HW1 7709   3.974   3.434   1.720
 2270SOL    HW2 7710   3.930   3.558   1.624
 2271SOL     OW 7711   6.703   4.422   1.878
 2271SOL    HW1 7712   6.784   4.477   1.899
 2271SOL    HW2 7713   6.702   4.341   1.937
 2272SOL     OW 7714   5.984   1.949   6.371
 2272SOL    HW1 7715   5.923   2.022   6.403
 2272SOL    HW2 7716   6.022   1.900   6.449
 2273SOL     OW 7717   0.945   1.589   3.235
 2273SOL    HW1 7718   0.998   1.664   3.196
 2273SOL    HW2 7719   0.925   1.521   3.163
 2274SOL     OW 7720   1.307   3.272   4.121
 2274SOL    HW1 7721   1.382   3.237   4.065
 2274SOL    HW2 7722   1.284   3.205   4.192
 2275SOL     OW 7723   5.277   6.737   3.733
 2275SOL    HW1 7724   5.311   6.695   3.817
 2275SOL    HW2 7725   5.197   6.794   3.754
 2276SOL     OW 7726   4.785   4.776   1.737
 2276SOL    HW1 7727   4.863   4.823   1.696
 2276SOL    HW2 7728   4.758   4.699   1.679
 2277SOL     OW 7729   3.465   3.484   6.967
 2277SOL    HW1 7730   3.386   3.487   0.008
 2277SOL    HW2 7731   3.536   3.426   7.007
 2278SOL     OW 7732   5.471   6.160   1.460
 2278SOL    HW1 7733   5.419   6.231   1.413
 2278SOL    HW2 7734   5.450   6.163   1.558
 2279SOL     OW 7735   5.881   3.917   4.850
 2279SOL    HW1 7736   5.867   3.985   4.779
 2279SOL    HW2 7737   5.900   3.963   4.937
 2280SOL     OW 7738   6.012   6.503   6.653
 2280SOL    HW1 7739   5.920   6.466   6.638
 2280SOL    HW2 7740   6.038   6.561   6.576
 2281SOL     OW 7741   3.783   2.999   0.780
 2281SOL    HW1 7742   3.733   3.086   0.779
 2281SOL    HW2 7743   3.729   2.929   0.734
 2282SOL     OW 7744   4.173   5.542   3.025
 2282SOL    HW1 7745   4.137   5.564   2.934
 2282SOL    HW2 7746   4.132   5.602   3.093
 2283SOL     OW 7747   6.773   3.249   3.308
 2283SOL    HW1 7748   6.801   3.163   3.350
 2283SOL    HW2 7749   6.712   3.230   3.230
 2284SOL     OW 7750   2.003   2.970   2.284
 2284SOL    HW1 7751   2.041   2.879   2.303
 2284SOL    HW2 7752   1.903   2.964   2.284
 2285SOL     OW 7753   1.976   4.501   0.307
 2285SOL    HW1 7754   1.990   4.569   0.235
 2285SOL    HW2 7755   2.007   4.539   0.394
 2286SOL     OW 7756   6.603   6.439   4.553
 2286SOL    HW1 7757   6.515   6.448   4.507
 2286SOL    HW2 7758   6.631   6.529   4.589
 2287SOL     OW 7759   2.099   2.773   1.948
 2287SOL    HW1 7760   2.189   2.753   1.910
 2287SOL    HW2 7761   2.076   2.869   1.931
 2288SOL     OW 7762   0.251   6.058   4.158
 2288SOL    HW1 7763   0.273   6.112   4.239
 2288SOL    HW2 7764   0.319   6.076   4.086
 2289SOL     OW 7765   5.727   2.148   1.833
 2289SOL    HW1 7766   5.812   2.097   1.850
 2289SOL    HW2 7767   5.650   2.084   1.833
 2290SOL     OW 7768   3.239   3.302   2.829
 2290SOL    HW1 7769   3.229   3.329   2.925
 2290SOL    HW2 7770   3.191   3.368   2.771
 2291SOL     OW 7771   2.072   2.944   0.508
 2291SOL    HW1 7772   2.095   3.037   0.535
 2291SOL    HW2 7773   2.133   2.879   0.553
 2292SOL     OW 7774   4.227   2.274   2.961
 2292SOL    HW1 7775   4.252   2.354   2.906
 2292SOL    HW2 7776   4.300   2.256   3.028
 2293SOL     OW 7777   6.206   0.987   0.101
 2293SOL    HW1 7778   6.222   0.998   0.003
 2293SOL    HW2 7779   6.136   1.052   0.130
 2294SOL     OW 7780   0.751   2.287   5.556
 2294SOL    HW1 7781   0.745   2.325   5.649
 2294SOL    HW2 7782   0.803   2.350   5.498
 2295SOL     OW 7783   5.748   6.529   1.385
 2295SOL    HW1 7784   5.725   6.470   1.463
 2295SOL    HW2 7785   5.844   6.555   1.390
 2296SOL     OW 7786   3.096   5.272   3.887
 2296SOL    HW1 7787   3.005   5.266   3.846
 2296SOL    HW2 7788   3.159   5.313   3.820
 2297SOL     OW 7789   4.172   4.437   5.359
 2297SOL    HW1 7790   4.221   4.449   5.272
 2297SOL    HW2 7791   4.123   4.350   5.358
 2298SOL     OW 7792   4.013   3.121   4.242
 2298SOL    HW1 7793   4.071   3.099   4.320
 2298SOL    HW2 7794   4.007   3.221   4.232
 2299SOL     OW 7795   5.407   3.119   4.568
 2299SOL    HW1 7796   5.422   3.036   4.514
 2299SOL    HW2 7797   5.477   3.187   4.544
 2300SOL     OW 7798   4.081   6.370   2.268
 2300SOL    HW1 7799   4.140   6.449   2.252
 2300SOL    HW2 7800   4.133   6.286   2.254
 2301SOL     OW 7801   3.814   3.480   4.364
 2301SOL    HW1 7802   3.728   3.519   4.396
 2301SOL    HW2 7803   3.855   3.540   4.296
 2302SOL     OW 7804   4.461   2.454   0.374
 2302SOL    HW1 7805   4.509   2.374   0.411
 2302SOL    HW2 7806   4.473   2.457   0.275
 2303SOL     OW 7807   3.848   2.356   0.437
 2303SOL    HW1 7808   3.896   2.332   0.522
 2303SOL    HW2 7809   3.813   2.450   0.443
 2304SOL     OW 7810   6.084   5.978   1.924
 2304SOL    HW1 7811   6.146   5.982   1.846
 2304SOL    HW2 7812   6.024   5.899   1.915
 2305SOL     OW 7813   2.180   0.971   5.270
 2305SOL    HW1 7814   2.108   0.906   5.243
 2305SOL    HW2 7815   2.144   1.064   5.266
 2306SOL     OW 7816   1.472   5.641   3.947
 2306SOL    HW1 7817   1.453   5.601   4.036
 2306SOL    HW2 7818   1.531   5.721   3.958
 2307SOL     OW 7819   7.008   2.531   5.404
 2307SOL    HW1 7820   6.986   2.587   5.484
 2307SOL    HW2 7821   0.063   2.574   5.353
 2308SOL     OW 7822   2.506   4.853   1.652
 2308SOL    HW1 7823   2.435   4.784   1.666
 2308SOL    HW2 7824   2.576   4.844   1.723
 2309SOL     OW 7825   1.520   6.390   5.052
 2309SOL    HW1 7826   1.573   6.326   4.997
 2309SOL    HW2 7827   1.525   6.363   5.148
 2310SOL     OW 7828   4.858   6.670   1.802
 2310SOL    HW1 7829   4.909   6.590   1.835
 2310SOL    HW2 7830   4.899   6.702   1.716
 2311SOL     OW 7831   2.475   6.254   1.053
 2311SOL    HW1 7832   2.570   6.222   1.060
 2311SOL    HW2 7833   2.413   6.176   1.064
 2312SOL     OW 7834   3.308   4.921   2.753
 2312SOL    HW1 7835   3.229   4.905   2.812
 2312SOL    HW2 7836   3.277   4.934   2.659
 2313SOL     OW 7837   4.616   5.142   2.072
 2313SOL    HW1 7838   4.609   5.061   2.013
 2313SOL    HW2 7839   4.662   5.216   2.023
 2314SOL     OW 7840   2.665   5.424   4.067
 2314SOL    HW1 7841   2.765   5.424   4.062
 2314SOL    HW2 7842   2.628   5.491   4.003
 2315SOL     OW 7843   4.129   2.950   6.504
 2315SOL    HW1 7844   4.068   2.906   6.438
 2315SOL    HW2 7845   4.158   2.882   6.572
 2316SOL     OW 7846   5.478   2.818   2.831
 2316SOL    HW1 7847   5.511   2.873   2.754
 2316SOL    HW2 7848   5.383   2.794   2.816
 2317SOL     OW 7849   1.369   5.121   3.709
 2317SOL    HW1 7850   1.423   5.079   3.636
 2317SOL    HW2 7851   1.414   5.204   3.740
 2318SOL     OW 7852   6.839   1.323   3.503
 2318SOL    HW1 7853   6.871   1.231   3.526
 2318SOL    HW2 7854   6.848   1.383   3.582
 2319SOL     OW 7855   1.189   3.984   4.422
 2319SOL    HW1 7856   1.094   4.013   4.408
 2319SOL    HW2 7857   1.201   3.954   4.517
 2320SOL     OW 7858   6.614   3.394   4.564
 2320SOL    HW1 7859   6.699   3.428   4.524
 2320SOL    HW2 7860   6.584   3.455   4.637
 2321SOL     OW 7861   3.270   6.496   5.445
 2321SOL    HW1 7862   3.242   6.402   5.425
 2321SOL    HW2 7863   3.189   6.556   5.443
 2322SOL     OW 7864   2.428   0.276   5.736
 2322SOL    HW1 7865   2.496   0.337   5.695
 2322SOL    HW2 7866   2.349   0.330   5.766
 2323SOL     OW 7867   5.007   5.296   1.910
 2323SOL    HW1 7868   4.938   5.227   1.890
 2323SOL    HW2 7869   5.083   5.254   1.958
 2324SOL     OW 7870   6.993   5.551   3.529
 2324SOL    HW1 7871   7.015   5.548   3.432
 2324SOL    HW2 7872   0.019   5.630   3.571
 2325SOL     OW 7873   0.219   3.820   0.434
 2325SOL    HW1 7874   0.131   3.861   0.459
 2325SOL    HW2 7875   0.204   3.751   0.364
 2326SOL     OW 7876   1.553   5.422   0.018
 2326SOL    HW1 7877   1.526   5.328   7.020
 2326SOL    HW2 7878   1.572   5.469   6.953
 2327SOL     OW 7879   4.948   2.240   4.689
 2327SOL    HW1 7880   4.857   2.209   4.662
 2327SOL    HW2 7881   4.960   2.226   4.787
 2328SOL     OW 7882   4.682   6.964   3.517
 2328SOL    HW1 7883   4.588   6.971   3.485
 2328SOL    HW2 7884   4.732   6.899   3.460
 2329SOL     OW 7885   0.431   6.129   3.922
 2329SOL    HW1 7886   0.361   6.142   3.852
 2329SOL    HW2 7887   0.478   6.042   3.905
 2330SOL     OW 7888   0.221   4.270   2.930
 2330SOL    HW1 7889   0.281   4.207   2.880
 2330SOL    HW2 7890   0.269   4.356   2.945
 2331SOL     OW 7891   0.785   4.219   5.286
 2331SOL    HW1 7892   0.796   4.138   5.343
 2331SOL    HW2 7893   0.819   4.200   5.194
 2332SOL     OW 7894   5.345   2.252   5.396
 2332SOL    HW1 7895   5.256   2.226   5.434
 2332SOL    HW2 7896   5.380   2.176   5.341
 2333SOL     OW 7897   0.886   5.687   3.836
 2333SOL    HW1 7898   0.962   5.732   3.790
 2333SOL    HW2 7899   0.879   5.722   3.930
 2334SOL     OW 7900   2.929   0.241   0.050
 2334SOL    HW1 7901   3.024   0.247   0.079
 2334SOL    HW2 7902   2.878   0.183   0.113
 2335SOL     OW 7903   5.447   6.678   3.967
 2335SOL    HW1 7904   5.534   6.713   3.932
 2335SOL    HW2 7905   5.406   6.744   4.029
 2336SOL     OW 7906   5.097   1.626   5.835
 2336SOL    HW1 7907   5.136   1.703   5.885
 2336SOL    HW2 7908   5.014   1.656   5.788
 2337SOL     OW 7909   5.185   6.945   2.930
 2337SOL    HW1 7910   5.248   6.964   2.855
 2337SOL    HW2 7911   5.224   6.875   2.990
 2338SOL     OW 7912   0.802   6.524   6.575
 2338SOL    HW1 7913   0.795   6.531   6.675
 2338SOL    HW2 7914   0.836   6.434   6.551
 2339SOL     OW 7915   3.949   4.313   0.248
 2339SOL    HW1 7916   3.889   4.376   0.298
 2339SOL    HW2 7917   3.912   4.296   0.157
 2340SOL     OW 7918   3.512   5.428   4.849
 2340SOL    HW1 7919   3.464   5.346   4.880
 2340SOL    HW2 7920   3.453   5.507   4.861
 2341SOL     OW 7921   5.738   5.161   0.322
 2341SOL    HW1 7922   5.676   5.224   0.275
 2341SOL    HW2 7923   5.695   5.130   0.407
 2342SOL     OW 7924   6.196   0.439   5.527
 2342SOL    HW1 7925   6.096   0.450   5.525
 2342SOL    HW2 7926   6.234   0.494   5.601
 2343SOL     OW 7927   1.219   6.746   1.216
 2343SOL    HW1 7928   1.146   6.814   1.219
 2343SOL    HW2 7929   1.179   6.655   1.207
 2344SOL     OW 7930   1.868   2.336   2.947
 2344SOL    HW1 7931   1.791   2.343   2.883
 2344SOL    HW2 7932   1.950   2.374   2.904
 2345SOL     OW 7933   1.976   1.133   4.608
 2345SOL    HW1 7934   2.041   1.203   4.638
 2345SOL    HW2 7935   1.998   1.103   4.515
 2346SOL     OW 7936   5.112   3.791   5.858
 2346SOL    HW1 7937   5.019   3.818   5.837
 2346SOL    HW2 7938   5.155   3.750   5.777
 2347SOL     OW 7939   1.750   3.003   1.969
 2347SOL    HW1 7940   1.699   3.065   2.028
 2347SOL    HW2 7941   1.725   2.909   1.990
 2348SOL     OW 7942   2.694   6.890   1.856
 2348SOL    HW1 7943   2.746   6.940   1.786
 2348SOL    HW2 7944   2.603   6.869   1.821
 2349SOL     OW 7945   5.108   5.586   5.656
 2349SOL    HW1 7946   5.129   5.668   5.708
 2349SOL    HW2 7947   5.079   5.513   5.718
 2350SOL     OW 7948   2.235   6.661   5.482
 2350SOL    HW1 7949   2.176   6.742   5.479
 2350SOL    HW2 7950   2.215   6.610   5.565
 2351SOL     OW 7951   2.159   5.721   4.004
 2351SOL    HW1 7952   2.229   5.696   4.070
 2351SOL    HW2 7953   2.081   5.660   4.013
 2352SOL     OW 7954   0.621   3.554   2.897
 2352SOL    HW1 7955   0.669   3.563   2.985
 2352SOL    HW2 7956   0.681   3.585   2.823
 2353SOL     OW 7957   3.068   4.075   6.031
 2353SOL    HW1 7958   3.075   4.142   6.106
 2353SOL    HW2 7959   3.160   4.047   6.004
 2354SOL     OW 7960   4.133   2.154   0.736
 2354SOL    HW1 7961   4.066   2.169   0.809
 2354SOL    HW2 7962   4.119   2.063   0.697
 2355SOL     OW 7963   0.551   6.811   0.629
 2355SOL    HW1 7964   0.457   6.835   0.606
 2355SOL    HW2 7965   0.569   6.833   0.725
 2356SOL     OW 7966   2.721   5.359   3.270
 2356SOL    HW1 7967   2.813   5.396   3.280
 2356SOL    HW2 7968   2.725   5.259   3.273
 2357SOL     OW 7969   6.563   4.457   1.633
 2357SOL    HW1 7970   6.569   4.458   1.733
 2357SOL    HW2 7971   6.632   4.518   1.595
 2358SOL     OW 7972   3.989   1.864   5.891
 2358SOL    HW1 7973   4.038   1.799   5.950
 2358SOL    HW2 7974   3.906   1.894   5.936
 2359SOL     OW 7975   1.669   1.605   5.818
 2359SOL    HW1 7976   1.598   1.540   5.847
 2359SOL    HW2 7977   1.694   1.586   5.723
 2360SOL     OW 7978   4.256   4.270   0.807
 2360SOL    HW1 7979   4.176   4.323   0.835
 2360SOL    HW2 7980   4.238   4.173   0.821
 2361SOL     OW 7981   3.943   6.324   2.018
 2361SOL    HW1 7982   4.041   6.315   1.997
 2361SOL    HW2 7983   3.928   6.302   2.114
 2362SOL     OW 7984   4.121   6.434   4.167
 2362SOL    HW1 7985   4.095   6.363   4.232
 2362SOL    HW2 7986   4.131   6.395   4.075
 2363SOL     OW 7987   3.151   3.847   0.792
 2363SOL    HW1 7988   3.104   3.886   0.872
 2363SOL    HW2 7989   3.084   3.828   0.720
 2364SOL     OW 7990   4.435   1.360   2.193
 2364SOL    HW1 7991   4.358   1.396   2.141
 2364SOL    HW2 7992   4.407   1.344   2.288
 2365SOL     OW 7993   4.901   3.683   3.453
 2365SOL    HW1 7994   4.920   3.621   3.377
 2365SOL    HW2 7995   4.805   3.674   3.480
 2366SOL     OW 7996   2.588   4.545   5.216
 2366SOL    HW1 7997   2.599   4.474   5.285
 2366SOL    HW2 7998   2.677   4.564   5.173
 2367SOL     OW 7999   0.453   4.620   5.654
 2367SOL    HW1 8000   0.482   4.702   5.603
 2367SOL    HW2 8001   0.482   4.629   5.749
 2368SOL     OW 8002   5.610   6.136   4.338
 2368SOL    HW1 8003   5.602   6.046   4.381
 2368SOL    HW2 8004   5.544   6.143   4.263
 2369SOL     OW 8005   3.098   1.814   4.162
 2369SOL    HW1 8006   3.195   1.811   4.184
 2369SOL    HW2 8007   3.052   1.880   4.221
 2370SOL     OW 8008   5.611   2.730   1.398
 2370SOL    HW1 8009   5.613   2.695   1.305
 2370SOL    HW2 8010   5.632   2.657   1.463
 2371SOL     OW 8011   1.055   6.834   2.892
 2371SOL    HW1 8012   0.995   6.762   2.927
 2371SOL    HW2 8013   1.014   6.876   2.812
 2372SOL     OW 8014   6.101   1.032   6.143
 2372SOL    HW1 8015   6.029   1.008   6.207
 2372SOL    HW2 8016   6.112   1.132   6.140
 2373SOL     OW 8017   5.949   6.309   6.238
 2373SOL    HW1 8018   6.008   6.228   6.227
 2373SOL    HW2 8019   5.872   6.302   6.175
 2374SOL     OW 8020   5.651   5.850   2.477
 2374SOL    HW1 8021   5.643   5.762   2.524
 2374SOL    HW2 8022   5.679   5.920   2.543
 2375SOL     OW 8023   1.058   0.692   4.058
 2375SOL    HW1 8024   1.018   0.706   3.967
 2375SOL    HW2 8025   1.101   0.602   4.062
 2376SOL     OW 8026   5.629   1.267   2.918
 2376SOL    HW1 8027   5.716   1.234   2.882
 2376SOL    HW2 8028   5.585   1.327   2.851
 2377SOL     OW 8029   4.338   5.188   5.874
 2377SOL    HW1 8030   4.257   5.234   5.912
 2377SOL    HW2 8031   4.371   5.239   5.795
 2378SOL     OW 8032   0.225   0.965   0.449
 2378SOL    HW1 8033   0.224   1.044   0.510
 2378SOL    HW2 8034   0.131   0.933   0.434
 2379SOL     OW 8035   6.980   4.964   0.810
 2379SOL    HW1 8036   6.918   5.034   0.847
 2379SOL    HW2 8037   6.992   4.892   0.877
 2380SOL     OW 8038   4.933   4.697   5.057
 2380SOL    HW1 8039   4.989   4.618   5.031
 2380SOL    HW2 8040   4.970   4.780   5.015
 2381SOL     OW 8041   2.810   5.063   4.675
 2381SOL    HW1 8042   2.779   5.092   4.765
 2381SOL    HW2 8043   2.909   5.044   4.678
 2382SOL     OW 8044   0.859   5.818   1.741
 2382SOL    HW1 8045   0.893   5.771   1.823
 2382SOL    HW2 8046   0.807   5.754   1.685
 2383SOL     OW 8047   4.711   5.596   5.415
 2383SOL    HW1 8048   4.664   5.684   5.401
 2383SOL    HW2 8049   4.777   5.582   5.341
 2384SOL     OW 8050   0.727   1.772   1.425
 2384SOL    HW1 8051   0.795   1.840   1.453
 2384SOL    HW2 8052   0.655   1.817   1.372
 2385SOL     OW 8053   1.004   2.126   1.208
 2385SOL    HW1 8054   0.918   2.157   1.249
 2385SOL    HW2 8055   1.080   2.175   1.250
 2386SOL     OW 8056   4.401   5.785   4.247
 2386SOL    HW1 8057   4.354   5.843   4.313
 2386SOL    HW2 8058   4.491   5.823   4.227
 2387SOL     OW 8059   1.551   1.326   4.165
 2387SOL    HW1 8060   1.635   1.370   4.197
 2387SOL    HW2 8061   1.474   1.388   4.177
 2388SOL     OW 8062   6.672   1.667   5.298
 2388SOL    HW1 8063   6.649   1.707   5.209
 2388SOL    HW2 8064   6.591   1.662   5.355
 2389SOL     OW 8065   5.909   4.707   3.964
 2389SOL    HW1 8066   5.900   4.784   4.028
 2389SOL    HW2 8067   5.847   4.634   3.991
 2390SOL     OW 8068   4.402   4.144   5.892
 2390SOL    HW1 8069   4.381   4.194   5.807
 2390SOL    HW2 8070   4.416   4.047   5.871
 2391SOL     OW 8071   3.892   3.902   6.035
 2391SOL    HW1 8072   3.951   3.982   6.028
 2391SOL    HW2 8073   3.938   3.831   6.087
 2392SOL     OW 8074   3.886   5.227   5.313
 2392SOL    HW1 8075   3.952   5.280   5.260
 2392SOL    HW2 8076   3.831   5.170   5.252
 2393SOL     OW 8077   3.268   5.684   1.248
 2393SOL    HW1 8078   3.184   5.738   1.259
 2393SOL    HW2 8079   3.245   5.589   1.229
 2394SOL     OW 8080   0.759   2.660   3.189
 2394SOL    HW1 8081   0.716   2.750   3.193
 2394SOL    HW2 8082   0.724   2.602   3.262
 2395SOL     OW 8083   0.012   1.969   4.987
 2395SOL    HW1 8084   0.046   2.001   4.899
 2395SOL    HW2 8085   0.071   2.004   5.060
 2396SOL     OW 8086   6.664   1.120   5.121
 2396SOL    HW1 8087   6.691   1.203   5.073
 2396SOL    HW2 8088   6.572   1.092   5.093
 2397SOL     OW 8089   0.369   5.172   5.343
 2397SOL    HW1 8090   0.322   5.110   5.405
 2397SOL    HW2 8091   0.465   5.145   5.335
 2398SOL     OW 8092   2.764   5.906   3.622
 2398SOL    HW1 8093   2.667   5.928   3.633
 2398SOL    HW2 8094   2.809   5.903   3.711
 2399SOL     OW 8095   2.820   2.324   4.251
 2399SOL    HW1 8096   2.894   2.287   4.194
 2399SOL    HW2 8097   2.853   2.335   4.345
 2400SOL     OW 8098   0.736   4.137   0.778
 2400SOL    HW1 8099   0.679   4.092   0.709
 2400SOL    HW2 8100   0.677   4.169   0.853
 2401SOL     OW 8101   3.630   7.011   5.506
 2401SOL    HW1 8102   3.621   0.065   5.441
 2401SOL    HW2 8103   3.578   0.011   5.589
 2402SOL     OW 8104   0.648   3.656   2.178
 2402SOL    HW1 8105   0.550   3.674   2.190
 2402SOL    HW2 8106   0.663   3.557   2.178
 2403SOL     OW 8107   3.787   3.761   2.882
 2403SOL    HW1 8108   3.721   3.688   2.900
 2403SOL    HW2 8109   3.839   3.740   2.800
 2404SOL     OW 8110   6.748   2.075   1.057
 2404SOL    HW1 8111   6.785   2.014   1.126
 2404SOL    HW2 8112   6.695   2.023   0.990
 2405SOL     OW 8113   2.337   3.870   0.674
 2405SOL    HW1 8114   2.264   3.938   0.675
 2405SOL    HW2 8115   2.297   3.779   0.663
 2406SOL     OW 8116   2.525   6.978   5.045
 2406SOL    HW1 8117   2.505   6.881   5.029
 2406SOL    HW2 8118   2.601   7.006   4.986
 2407SOL     OW 8119   3.535   1.409   3.774
 2407SOL    HW1 8120   3.439   1.390   3.797
 2407SOL    HW2 8121   3.593   1.338   3.814
 2408SOL     OW 8122   2.798   5.938   4.889
 2408SOL    HW1 8123   2.746   6.016   4.922
 2408SOL    HW2 8124   2.739   5.878   4.835
 2409SOL     OW 8125   2.258   2.599   1.555
 2409SOL    HW1 8126   2.198   2.678   1.571
 2409SOL    HW2 8127   2.203   2.516   1.552
 2410SOL     OW 8128   0.175   3.665   5.440
 2410SOL    HW1 8129   0.078   3.639   5.448
 2410SOL    HW2 8130   0.228   3.587   5.406
 2411SOL     OW 8131   2.485   3.635   0.049
 2411SOL    HW1 8132   2.481   3.556   0.111
 2411SOL    HW2 8133   2.452   3.609   6.979
 2412SOL     OW 8134   3.721   2.011   6.438
 2412SOL    HW1 8135   3.638   2.065   6.434
 2412SOL    HW2 8136   3.775   2.038   6.518
 2413SOL     OW 8137   6.865   3.259   6.530
 2413SOL    HW1 8138   6.799   3.223   6.464
 2413SOL    HW2 8139   6.946   3.292   6.482
 2414SOL     OW 8140   6.197   2.332   4.759
 2414SOL    HW1 8141   6.194   2.245   4.711
 2414SOL    HW2 8142   6.104   2.367   4.770
 2415SOL     OW 8143   2.729   6.076   0.902
 2415SOL    HW1 8144   2.757   6.136   0.977
 2415SOL    HW2 8145   2.768   5.985   0.915
 2416SOL     OW 8146   6.562   3.654   3.106
 2416SOL    HW1 8147   6.559   3.557   3.131
 2416SOL    HW2 8148   6.645   3.696   3.142
 2417SOL     OW 8149   3.691   3.724   1.210
 2417SOL    HW1 8150   3.703   3.642   1.154
 2417SOL    HW2 8151   3.628   3.787   1.164
 2418SOL     OW 8152   4.782   3.889   5.894
 2418SOL    HW1 8153   4.867   3.895   5.947
 2418SOL    HW2 8154   4.804   3.883   5.797
 2419SOL     OW 8155   2.192   6.384   4.260
 2419SOL    HW1 8156   2.154   6.312   4.318
 2419SOL    HW2 8157   2.117   6.429   4.211
 2420SOL     OW 8158   1.967   4.469   2.692
 2420SOL    HW1 8159   1.976   4.372   2.670
 2420SOL    HW2 8160   2.058   4.511   2.695
 2421SOL     OW 8161   2.774   6.841   4.660
 2421SOL    HW1 8162   2.834   6.787   4.719
 2421SOL    HW2 8163   2.829   6.884   4.587
 2422SOL     OW 8164   4.156   6.458   0.870
 2422SOL    HW1 8165   4.135   6.448   0.773
 2422SOL    HW2 8166   4.177   6.368   0.909
 2423SOL     OW 8167   2.075   4.833   2.089
 2423SOL    HW1 8168   2.078   4.768   2.013
 2423SOL    HW2 8169   2.159   4.886   2.092
 2424SOL     OW 8170   5.498   1.169   6.153
 2424SOL    HW1 8171   5.448   1.251   6.123
 2424SOL    HW2 8172   5.441   1.088   6.137
 2425SOL     OW 8173   4.780   5.317   5.532
 2425SOL    HW1 8174   4.742   5.407   5.512
 2425SOL    HW2 8175   4.712   5.247   5.514
 2426SOL     OW 8176   1.276   4.864   5.571
 2426SOL    HW1 8177   1.234   4.930   5.509
 2426SOL    HW2 8178   1.372   4.851   5.546
 2427SOL     OW 8179   5.018   0.770   6.235
 2427SOL    HW1 8180   4.990   0.675   6.220
 2427SOL    HW2 8181   5.095   0.773   6.298
 2428SOL     OW 8182   0.234   0.876   3.366
 2428SOL    HW1 8183   0.296   0.905   3.293
 2428SOL    HW2 8184   0.144   0.853   3.326
 2429SOL     OW 8185   5.284   5.653   1.973
 2429SOL    HW1 8186   5.247   5.588   1.907
 2429SOL    HW2 8187   5.380   5.671   1.952
 2430SOL     OW 8188   5.969   2.812   6.658
 2430SOL    HW1 8189   5.982   2.763   6.744
 2430SOL    HW2 8190   5.922   2.899   6.675
 2431SOL     OW 8191   6.850   2.397   1.643
 2431SOL    HW1 8192   6.920   2.377   1.574
 2431SOL    HW2 8193   6.850   2.325   1.712
 2432SOL     OW 8194   3.700   5.278   2.260
 2432SOL    HW1 8195   3.670   5.200   2.205
 2432SOL    HW2 8196   3.635   5.294   2.334
 2433SOL     OW 8197   6.791   3.825   0.200
 2433SOL    HW1 8198   6.859   3.840   0.272
 2433SOL    HW2 8199   6.699   3.831   0.240
 2434SOL     OW 8200   4.102   1.918   3.157
 2434SOL    HW1 8201   4.056   2.007   3.163
 2434SOL    HW2 8202   4.081   1.876   3.068
 2435SOL     OW 8203   5.283   6.430   6.699
 2435SOL    HW1 8204   5.291   6.526   6.726
 2435SOL    HW2 8205   5.255   6.425   6.603
 2436SOL     OW 8206   2.406   1.736   1.037
 2436SOL    HW1 8207   2.346   1.730   0.957
 2436SOL    HW2 8208   2.456   1.823   1.036
 2437SOL     OW 8209   6.574   5.396   2.065
 2437SOL    HW1 8210   6.581   5.471   1.999
 2437SOL    HW2 8211   6.628   5.418   2.146
 2438SOL     OW 8212   3.035   1.758   4.686
 2438SOL    HW1 8213   2.958   1.819   4.703
 2438SOL    HW2 8214   3.020   1.708   4.600
 2439SOL     OW 8215   0.651   5.828   0.825
 2439SOL    HW1 8216   0.749   5.826   0.808
 2439SOL    HW2 8217   0.634   5.868   0.915
 2440SOL     OW 8218   4.794   0.666   5.098
 2440SOL    HW1 8219   4.766   0.604   5.026
 2440SOL    HW2 8220   4.821   0.754   5.058
 2441SOL     OW 8221   5.979   6.913   7.003
 2441SOL    HW1 8222   6.075   6.893   6.981
 2441SOL    HW2 8223   5.930   6.939   6.920
 2442SOL     OW 8224   4.932   3.811   2.109
 2442SOL    HW1 8225   4.879   3.726   2.103
 2442SOL    HW2 8226   5.001   3.813   2.038
 2443SOL     OW 8227   2.276   2.198   0.414
 2443SOL    HW1 8228   2.221   2.139   0.355
 2443SOL    HW2 8229   2.246   2.187   0.509
 2444SOL     OW 8230   3.717   5.836   1.005
 2444SOL    HW1 8231   3.698   5.738   1.011
 2444SOL    HW2 8232   3.634   5.888   1.027
 2445SOL     OW 8233   0.339   2.376   0.982
 2445SOL    HW1 8234   0.325   2.467   1.019
 2445SOL    HW2 8235   0.367   2.314   1.055
 2446SOL     OW 8236   1.766   3.593   1.400
 2446SOL    HW1 8237   1.731   3.681   1.367
 2446SOL    HW2 8238   1.799   3.604   1.494
 2447SOL     OW 8239   3.363   0.459   0.924
 2447SOL    HW1 8240   3.274   0.447   0.880
 2447SOL    HW2 8241   3.429   0.495   0.858
 2448SOL     OW 8242   5.848   1.925   3.929
 2448SOL    HW1 8243   5.913   1.861   3.888
 2448SOL    HW2 8244   5.886   2.018   3.925
 2449SOL     OW 8245   2.009   4.277   1.867
 2449SOL    HW1 8246   1.966   4.336   1.798
 2449SOL    HW2 8247   1.938   4.227   1.917
 2450SOL     OW 8248   1.911   5.671   6.474
 2450SOL    HW1 8249   1.949   5.585   6.440
 2450SOL    HW2 8250   1.905   5.667   6.574
 2451SOL     OW 8251   0.814   0.033   4.683
 2451SOL    HW1 8252   0.906   0.056   4.653
 2451SOL    HW2 8253   0.764   0.117   4.706
 2452SOL     OW 8254   2.490   2.142   3.653
 2452SOL    HW1 8255   2.471   2.128   3.556
 2452SOL    HW2 8256   2.575   2.193   3.664
 2453SOL     OW 8257   0.572   1.508   0.021
 2453SOL    HW1 8258   0.502   1.526   6.972
 2453SOL    HW2 8259   0.611   1.595   0.052
 2454SOL     OW 8260   4.022   5.602   1.281
 2454SOL    HW1 8261   3.948   5.667   1.296
 2454SOL    HW2 8262   4.086   5.639   1.214
 2455SOL     OW 8263   4.171   1.172   0.495
 2455SOL    HW1 8264   4.190   1.083   0.536
 2455SOL    HW2 8265   4.175   1.163   0.395
 2456SOL     OW 8266   1.091   4.831   0.081
 2456SOL    HW1 8267   1.180   4.793   0.058
 2456SOL    HW2 8268   1.067   4.903   0.015
 2457SOL     OW 8269   5.339   1.635   5.137
 2457SOL    HW1 8270   5.303   1.728   5.139
 2457SOL    HW2 8271   5.268   1.572   5.170
 2458SOL     OW 8272   1.023   0.169   3.028
 2458SOL    HW1 8273   1.110   0.119   3.028
 2458SOL    HW2 8274   1.008   0.209   2.937
 2459SOL     OW 8275   2.767   6.302   0.558
 2459SOL    HW1 8276   2.692   6.238   0.572
 2459SOL    HW2 8277   2.833   6.292   0.632
 2460SOL     OW 8278   1.688   1.166   6.660
 2460SOL    HW1 8279   1.612   1.211   6.708
 2460SOL    HW2 8280   1.659   1.140   6.568
 2461SOL     OW 8281   4.013   0.870   3.996
 2461SOL    HW1 8282   4.015   0.909   4.088
 2461SOL    HW2 8283   4.087   0.804   3.986
 2462SOL     OW 8284   0.654   4.724   1.001
 2462SOL    HW1 8285   0.563   4.721   0.962
 2462SOL    HW2 8286   0.722   4.734   0.928
 2463SOL     OW 8287   6.804   0.984   6.583
 2463SOL    HW1 8288   6.824   1.082   6.586
 2463SOL    HW2 8289   6.883   0.934   6.548
 2464SOL     OW 8290   0.476   2.280   2.878
 2464SOL    HW1 8291   0.461   2.186   2.911
 2464SOL    HW2 8292   0.571   2.306   2.895
 2465SOL     OW 8293   0.594   5.085   5.644
 2465SOL    HW1 8294   0.537   5.167   5.645
 2465SOL    HW2 8295   0.546   5.012   5.596
 2466SOL     OW 8296   1.849   1.836   1.547
 2466SOL    HW1 8297   1.890   1.873   1.464
 2466SOL    HW2 8298   1.898   1.872   1.627
 2467SOL     OW 8299   5.234   1.200   5.820
 2467SOL    HW1 8300   5.151   1.212   5.876
 2467SOL    HW2 8301   5.314   1.206   5.879
 2468SOL     OW 8302   3.873   0.356   5.778
 2468SOL    HW1 8303   3.782   0.357   5.819
 2468SOL    HW2 8304   3.882   0.433   5.715
 2469SOL     OW 8305   3.860   2.660   5.575
 2469SOL    HW1 8306   3.853   2.758   5.593
 2469SOL    HW2 8307   3.807   2.610   5.643
 2470SOL     OW 8308   3.775   4.757   0.399
 2470SOL    HW1 8309   3.853   4.816   0.378
 2470SOL    HW2 8310   3.691   4.805   0.376
 2471SOL     OW 8311   3.439   6.613   0.834
 2471SOL    HW1 8312   3.403   6.593   0.743
 2471SOL    HW2 8313   3.462   6.528   0.881
 2472SOL     OW 8314   5.103   2.270   4.178
 2472SOL    HW1 8315   5.081   2.365   4.155
 2472SOL    HW2 8316   5.152   2.228   4.101
 2473SOL     OW 8317   0.667   4.349   4.589
 2473SOL    HW1 8318   0.666   4.249   4.591
 2473SOL    HW2 8319   0.759   4.382   4.609
 2474SOL     OW 8320   0.898   5.918   0.831
 2474SOL    HW1 8321   0.868   6.007   0.865
 2474SOL    HW2 8322   0.929   5.862   0.907
 2475SOL     OW 8323   5.183   0.499   0.483
 2475SOL    HW1 8324   5.207   0.414   0.530
 2475SOL    HW2 8325   5.092   0.528   0.512
 2476SOL     OW 8326   5.681   0.852   1.991
 2476SOL    HW1 8327   5.735   0.930   1.959
 2476SOL    HW2 8328   5.730   0.806   2.065
 2477SOL     OW 8329   3.564   0.711   3.429
 2477SOL    HW1 8330   3.531   0.629   3.476
 2477SOL    HW2 8331   3.558   0.698   3.330
 2478SOL     OW 8332   4.378   1.233   3.189
 2478SOL    HW1 8333   4.407   1.188   3.105
 2478SOL    HW2 8334   4.373   1.332   3.174
 2479SOL     OW 8335   0.851   2.606   1.350
 2479SOL    HW1 8336   0.859   2.568   1.442
 2479SOL    HW2 8337   0.823   2.702   1.355
 2480SOL     OW 8338   3.796   2.721   0.934
 2480SOL    HW1 8339   3.728   2.752   0.867
 2480SOL    HW2 8340   3.869   2.672   0.887
 2481SOL     OW 8341   4.029   0.841   1.755
 2481SOL    HW1 8342   3.948   0.836   1.813
 2481SOL    HW2 8343   4.092   0.910   1.791
 2482SOL     OW 8344   5.558   3.590   6.818
 2482SOL    HW1 8345   5.597   3.527   6.885
 2482SOL    HW2 8346   5.601   3.575   6.729
 2483SOL     OW 8347   1.105   2.688   0.039
 2483SOL    HW1 8348   1.022   2.645   0.003
 2483SOL    HW2 8349   1.121   2.655   0.132
 2484SOL     OW 8350   4.502   1.070   1.769
 2484SOL    HW1 8351   4.516   1.088   1.866
 2484SOL    HW2 8352   4.411   1.101   1.742
 2485SOL     OW 8353   5.576   2.078   6.830
 2485SOL    HW1 8354   5.674   2.068   6.813
 2485SOL    HW2 8355   5.541   1.993   6.870
 2486SOL     OW 8356   0.447   4.864   5.505
 2486SOL    HW1 8357   0.347   4.865   5.497
 2486SOL    HW2 8358   0.486   4.812   5.428
 2487SOL     OW 8359   4.789   6.100   0.769
 2487SOL    HW1 8360   4.814   6.151   0.851
 2487SOL    HW2 8361   4.730   6.023   0.795
 2488SOL     OW 8362   6.807   4.049   1.907
 2488SOL    HW1 8363   6.905   4.043   1.888
 2488SOL    HW2 8364   6.760   3.971   1.866
 2489SOL     OW 8365   0.595   6.343   3.910
 2489SOL    HW1 8366   0.523   6.275   3.896
 2489SOL    HW2 8367   0.639   6.327   3.999
 2490SOL     OW 8368   0.903   6.545   1.469
 2490SOL    HW1 8369   0.906   6.453   1.510
 2490SOL    HW2 8370   0.902   6.613   1.542
 2491SOL     OW 8371   3.938   4.473   1.673
 2491SOL    HW1 8372   3.839   4.486   1.667
 2491SOL    HW2 8373   3.983   4.527   1.602
 2492SOL     OW 8374   5.064   3.540   1.186
 2492SOL    HW1 8375   5.055   3.563   1.089
 2492SOL    HW2 8376   5.018   3.610   1.241
 2493SOL     OW 8377   6.828   0.471   1.354
 2493SOL    HW1 8378   6.925   0.457   1.375
 2493SOL    HW2 8379   6.773   0.403   1.401
 2494SOL     OW 8380   5.789   3.608   1.800
 2494SOL    HW1 8381   5.834   3.556   1.727
 2494SOL    HW2 8382   5.819   3.704   1.796
 2495SOL     OW 8383   5.288   5.808   3.372
 2495SOL    HW1 8384   5.293   5.724   3.426
 2495SOL    HW2 8385   5.327   5.884   3.423
 2496SOL     OW 8386   7.005   3.575   6.788
 2496SOL    HW1 8387   6.985   3.558   6.884
 2496SOL    HW2 8388   0.083   3.564   6.771
 2497SOL     OW 8389   0.860   0.400   0.594
 2497SOL    HW1 8390   0.765   0.429   0.585
 2497SOL    HW2 8391   0.921   0.478   0.577
 2498SOL     OW 8392   3.409   2.720   5.623
 2498SOL    HW1 8393   3.321   2.766   5.631
 2498SOL    HW2 8394   3.481   2.789   5.615
 2499SOL     OW 8395   6.059   2.886   1.585
 2499SOL    HW1 8396   6.129   2.923   1.647
 2499SOL    HW2 8397   6.092   2.801   1.545
 2500SOL     OW 8398   3.581   3.424   6.005
 2500SOL    HW1 8399   3.519   3.422   6.084
 2500SOL    HW2 8400   3.634   3.509   6.008
 2501SOL     OW 8401   5.725   5.728   6.964
 2501SOL    HW1 8402   5.654   5.787   7.003
 2501SOL    HW2 8403   5.715   5.725   6.865
 2502SOL     OW 8404   1.911   6.775   4.887
 2502SOL    HW1 8405   1.868   6.783   4.797
 2502SOL    HW2 8406   2.010   6.776   4.877
 2503SOL     OW 8407   3.431   6.630   5.287
 2503SOL    HW1 8408   3.375   6.647   5.206
 2503SOL    HW2 8409   3.381   6.571   5.351
 2504SOL     OW 8410   3.509   5.333   2.433
 2504SOL    HW1 8411   3.440   5.347   2.362
 2504SOL    HW2 8412   3.475   5.266   2.500
 2505SOL     OW 8413   0.410   5.976   3.371
 2505SOL    HW1 8414   0.395   5.883   3.404
 2505SOL    HW2 8415   0.507   5.987   3.348
 2506SOL     OW 8416   6.485   3.898   6.346
 2506SOL    HW1 8417   6.532   3.976   6.386
 2506SOL    HW2 8418   6.472   3.827   6.415
 2507SOL     OW 8419   0.251   3.576   0.261
 2507SOL    HW1 8420   0.157   3.542   0.262
 2507SOL    HW2 8421   0.311   3.508   0.304
 2508SOL     OW 8422   2.801   1.899   4.673
 2508SOL    HW1 8423   2.708   1.928   4.652
 2508SOL    HW2 8424   2.835   1.949   4.753
 2509SOL     OW 8425   6.652   4.208   0.597
 2509SOL    HW1 8426   6.723   4.241   0.660
 2509SOL    HW2 8427   6.632   4.279   0.529
 2510SOL     OW 8428   3.653   4.238   0.682
 2510SOL    HW1 8429   3.675   4.144   0.706
 2510SOL    HW2 8430   3.738   4.288   0.663
 2511SOL     OW 8431   2.112   0.955   4.782
 2511SOL    HW1 8432   2.163   1.019   4.839
 2511SOL    HW2 8433   2.064   1.005   4.710
 2512SOL     OW 8434   3.897   4.284   5.388
 2512SOL    HW1 8435   3.863   4.275   5.294
 2512SOL    HW2 8436   3.881   4.199   5.438
 2513SOL     OW 8437   1.752   5.810   5.173
 2513SOL    HW1 8438   1.757   5.803   5.273
 2513SOL    HW2 8439   1.838   5.780   5.132
 2514SOL     OW 8440   0.410   3.113   4.294
 2514SOL    HW1 8441   0.478   3.137   4.363
 2514SOL    HW2 8442   0.402   3.013   4.289
 2515SOL     OW 8443   1.668   0.212   1.203
 2515SOL    HW1 8444   1.626   0.122   1.214
 2515SOL    HW2 8445   1.703   0.221   1.109
 2516SOL     OW 8446   4.951   1.026   2.305
 2516SOL    HW1 8447   4.930   1.124   2.313
 2516SOL    HW2 8448   4.980   0.991   2.393
 2517SOL     OW 8449   1.738   0.064   5.838
 2517SOL    HW1 8450   1.777   0.075   5.747
 2517SOL    HW2 8451   1.666   0.132   5.852
 2518SOL     OW 8452   1.763   5.272   1.142
 2518SOL    HW1 8453   1.756   5.361   1.098
 2518SOL    HW2 8454   1.758   5.283   1.241
 2519SOL     OW 8455   3.566   1.102   1.530
 2519SOL    HW1 8456   3.567   1.122   1.628
 2519SOL    HW2 8457   3.518   1.175   1.482
 2520SOL     OW 8458   3.338   1.754   6.655
 2520SOL    HW1 8459   3.247   1.758   6.696
 2520SOL    HW2 8460   3.395   1.826   6.694
 2521SOL     OW 8461   3.469   1.840   5.830
 2521SOL    HW1 8462   3.438   1.745   5.830
 2521SOL    HW2 8463   3.487   1.869   5.924
 2522SOL     OW 8464   1.516   1.588   5.412
 2522SOL    HW1 8465   1.496   1.490   5.407
 2522SOL    HW2 8466   1.492   1.632   5.326
 2523SOL     OW 8467   1.739   3.139   1.221
 2523SOL    HW1 8468   1.668   3.088   1.172
 2523SOL    HW2 8469   1.697   3.217   1.268
 2524SOL     OW 8470   0.297   6.426   4.771
 2524SOL    HW1 8471   0.302   6.429   4.671
 2524SOL    HW2 8472   0.204   6.401   4.799
 2525SOL     OW 8473   1.499   3.388   4.746
 2525SOL    HW1 8474   1.413   3.429   4.714
 2525SOL    HW2 8475   1.478   3.304   4.796
 2526SOL     OW 8476   1.546   4.982   6.509
 2526SOL    HW1 8477   1.518   4.898   6.555
 2526SOL    HW2 8478   1.615   5.029   6.564
 2527SOL     OW 8479   5.253   5.830   5.688
 2527SOL    HW1 8480   5.189   5.906   5.704
 2527SOL    HW2 8481   5.296   5.840   5.598
 2528SOL     OW 8482   5.427   4.194   5.444
 2528SOL    HW1 8483   5.482   4.245   5.378
 2528SOL    HW2 8484   5.481   4.181   5.528
 2529SOL     OW 8485   0.614   6.930   0.186
 2529SOL    HW1 8486   0.696   6.873   0.187
 2529SOL    HW2 8487   0.623   7.002   0.117
 2530SOL     OW 8488   2.745   5.860   5.545
 2530SOL    HW1 8489   2.666   5.861   5.606
 2530SOL    HW2 8490   2.760   5.767   5.511
 2531SOL     OW 8491   5.979   6.189   5.650
 2531SOL    HW1 8492   5.886   6.191   5.689
 2531SOL    HW2 8493   6.032   6.265   5.688
 2532SOL     OW 8494   0.249   6.494   0.844
 2532SOL    HW1 8495   0.188   6.448   0.779
 2532SOL    HW2 8496   0.242   6.593   0.833
 2533SOL     OW 8497   4.487   0.719   3.735
 2533SOL    HW1 8498   4.506   0.653   3.662
 2533SOL    HW2 8499   4.432   0.795   3.697
 2534SOL     OW 8500   4.324   1.256   1.652
 2534SOL    HW1 8501   4.419   1.265   1.624
 2534SOL    HW2 8502   4.265   1.256   1.571
 2535SOL     OW 8503   3.241   2.384   6.657
 2535SOL    HW1 8504   3.282   2.443   6.726
 2535SOL    HW2 8505   3.142   2.384   6.667
 2536SOL     OW 8506   1.754   0.417   6.543
 2536SOL    HW1 8507   1.811   0.388   6.466
 2536SOL    HW2 8508   1.659   0.426   6.513
 2537SOL     OW 8509   3.393   6.964   6.521
 2537SOL    HW1 8510   3.384   6.899   6.446
 2537SOL    HW2 8511   3.353   0.031   6.495
 2538SOL     OW 8512   0.337   3.613   4.226
 2538SOL    HW1 8513   0.323   3.516   4.209
 2538SOL    HW2 8514   0.370   3.656   4.142
 2539SOL     OW 8515   5.189   0.751   4.235
 2539SOL    HW1 8516   5.161   0.839   4.273
 2539SOL    HW2 8517   5.111   0.708   4.189
 2540SOL     OW 8518   4.204   1.901   2.715
 2540SOL    HW1 8519   4.186   1.983   2.660
 2540SOL    HW2 8520   4.298   1.904   2.750
 2541SOL     OW 8521   2.538   6.659   5.480
 2541SOL    HW1 8522   2.592   6.575   5.477
 2541SOL    HW2 8523   2.446   6.642   5.447
 2542SOL     OW 8524   3.404   3.482   6.226
 2542SOL    HW1 8525   3.354   3.551   6.174
 2542SOL    HW2 8526   3.429   3.519   6.316
 2543SOL     OW 8527   0.542   1.013   4.282
 2543SOL    HW1 8528   0.568   0.919   4.304
 2543SOL    HW2 8529   0.623   1.064   4.252
 2544SOL     OW 8530   0.417   5.982   0.811
 2544SOL    HW1 8531   0.384   5.986   0.716
 2544SOL    HW2 8532   0.499   5.924   0.815
 2545SOL     OW 8533   1.705   6.334   2.326
 2545SOL    HW1 8534   1.649   6.340   2.409
 2545SOL    HW2 8535   1.793   6.379   2.342
 2546SOL     OW 8536   6.903   2.342   1.002
 2546SOL    HW1 8537   6.828   2.275   1.005
 2546SOL    HW2 8538   6.990   2.294   0.992
 2547SOL     OW 8539   0.325   3.695   0.002
 2547SOL    HW1 8540   0.300   3.649   0.087
 2547SOL    HW2 8541   0.422   3.681   7.003
 2548SOL     OW 8542   0.335   6.667   4.350
 2548SOL    HW1 8543   0.295   6.752   4.315
 2548SOL    HW2 8544   0.391   6.686   4.430
 2549SOL     OW 8545   1.300   0.647   1.852
 2549SOL    HW1 8546   1.332   0.649   1.947
 2549SOL    HW2 8547   1.283   0.552   1.824
 2550SOL     OW 8548   6.340   6.842   0.553
 2550SOL    HW1 8549   6.323   6.829   0.650
 2550SOL    HW2 8550   6.399   6.922   0.540
 2551SOL     OW 8551   2.976   4.700   0.453
 2551SOL    HW1 8552   2.920   4.782   0.466
 2551SOL    HW2 8553   2.978   4.647   0.538
 2552SOL     OW 8554   2.375   5.559   4.917
 2552SOL    HW1 8555   2.448   5.504   4.958
 2552SOL    HW2 8556   2.352   5.523   4.827
 2553SOL     OW 8557   3.988   3.525   5.953
 2553SOL    HW1 8558   3.908   3.473   5.924
 2553SOL    HW2 8559   3.960   3.598   6.015
 2554SOL     OW 8560   2.335   0.992   0.068
 2554SOL    HW1 8561   2.323   0.988   0.167
 2554SOL    HW2 8562   2.291   1.075   0.033
 2555SOL     OW 8563   5.713   1.635   4.183
 2555SOL    HW1 8564   5.745   1.570   4.252
 2555SOL    HW2 8565   5.727   1.596   4.092
 2556SOL     OW 8566   4.465   5.939   0.224
 2556SOL    HW1 8567   4.385   5.879   0.215
 2556SOL    HW2 8568   4.454   5.997   0.305
 2557SOL     OW 8569   1.491   3.629   0.353
 2557SOL    HW1 8570   1.408   3.650   0.404
 2557SOL    HW2 8571   1.516   3.706   0.295
 2558SOL     OW 8572   4.834   0.734   5.359
 2558SOL    HW1 8573   4.807   0.709   5.266
 2558SOL    HW2 8574   4.930   0.764   5.359
 2559SOL     OW 8575   1.136   4.400   5.516
 2559SOL    HW1 8576   1.037   4.407   5.530
 2559SOL    HW2 8577   1.183   4.458   5.581
 2560SOL     OW 8578   6.361   2.405   5.865
 2560SOL    HW1 8579   6.290   2.335   5.862
 2560SOL    HW2 8580   6.321   2.493   5.891
 2561SOL     OW 8581   2.408   5.035   5.224
 2561SOL    HW1 8582   2.469   5.064   5.151
 2561SOL    HW2 8583   2.378   4.941   5.207
 2562SOL     OW 8584   2.486   4.564   1.341
 2562SOL    HW1 8585   2.450   4.522   1.258
 2562SOL    HW2 8586   2.449   4.516   1.421
 2563SOL     OW 8587   3.958   1.418   0.861
 2563SOL    HW1 8588   3.977   1.324   0.832
 2563SOL    HW2 8589   3.988   1.481   0.789
 2564SOL     OW 8590   1.638   5.562   0.296
 2564SOL    HW1 8591   1.612   5.561   0.199
 2564SOL    HW2 8592   1.565   5.520   0.350
 2565SOL     OW 8593   1.116   0.665   6.960
 2565SOL    HW1 8594   1.163   0.638   6.876
 2565SOL    HW2 8595   1.036   0.607   6.973
 2566SOL     OW 8596   2.429   6.742   1.466
 2566SOL    HW1 8597   2.360   6.764   1.397
 2566SOL    HW2 8598   2.514   6.791   1.446
 2567SOL     OW 8599   0.910   0.324   0.974
 2567SOL    HW1 8600   0.860   0.404   0.941
 2567SOL    HW2 8601   1.004   0.327   0.941
 2568SOL     OW 8602   4.491   1.948   0.089
 2568SOL    HW1 8603   4.498   1.921   7.013
 2568SOL    HW2 8604   4.454   2.040   0.096
 2569SOL     OW 8605   3.321   0.897   3.232
 2569SOL    HW1 8606   3.330   0.817   3.173
 2569SOL    HW2 8607   3.329   0.980   3.176
 2570SOL     OW 8608   5.818   0.825   5.672
 2570SOL    HW1 8609   5.835   0.892   5.600
 2570SOL    HW2 8610   5.727   0.784   5.660
 2571SOL     OW 8611   1.663   4.646   3.525
 2571SOL    HW1 8612   1.735   4.712   3.546
 2571SOL    HW2 8613   1.640   4.652   3.428
 2572SOL     OW 8614   3.299   5.368   2.258
 2572SOL    HW1 8615   3.238   5.436   2.298
 2572SOL    HW2 8616   3.265   5.276   2.280
 2573SOL     OW 8617   0.717   2.143   1.259
 2573SOL    HW1 8618   0.651   2.219   1.265
 2573SOL    HW2 8619   0.667   2.057   1.249
 2574SOL     OW 8620   5.063   3.598   0.926
 2574SOL    HW1 8621   5.151   3.586   0.880
 2574SOL    HW2 8622   4.991   3.552   0.874
 2575SOL     OW 8623   5.769   5.621   6.720
 2575SOL    HW1 8624   5.810   5.530   6.732
 2575SOL    HW2 8625   5.825   5.674   6.656
 2576SOL     OW 8626   4.162   6.173   4.673
 2576SOL    HW1 8627   4.255   6.166   4.708
 2576SOL    HW2 8628   4.099   6.125   4.735
 2577SOL     OW 8629   2.898   5.168   2.082
 2577SOL    HW1 8630   2.828   5.191   2.014
 2577SOL    HW2 8631   2.964   5.242   2.089
 2578SOL     OW 8632   3.701   1.618   3.784
 2578SOL    HW1 8633   3.651   1.537   3.754
 2578SOL    HW2 8634   3.744   1.661   3.705
 2579SOL     OW 8635   0.927   6.138   3.985
 2579SOL    HW1 8636   0.892   6.118   4.077
 2579SOL    HW2 8637   1.014   6.089   3.972
 2580SOL     OW 8638   2.491   4.632   0.022
 2580SOL    HW1 8639   2.448   4.583   0.098
 2580SOL    HW2 8640   2.561   4.574   7.001
 2581SOL     OW 8641   2.016   5.500   0.717
 2581SOL    HW1 8642   2.079   5.431   0.752
 2581SOL    HW2 8643   2.015   5.579   0.779
 2582SOL     OW 8644   6.923   3.999   1.471
 2582SOL    HW1 8645   6.965   3.989   1.561
 2582SOL    HW2 8646   6.900   4.095   1.455
 2583SOL     OW 8647   0.769   0.722   6.787
 2583SOL    HW1 8648   0.670   0.720   6.803
 2583SOL    HW2 8649   0.787   0.746   6.692
 2584SOL     OW 8650   4.381   5.328   5.639
 2584SOL    HW1 8651   4.437   5.411   5.644
 2584SOL    HW2 8652   4.297   5.348   5.590
 2585SOL     OW 8653   2.688   4.172   6.860
 2585SOL    HW1 8654   2.671   4.076   6.882
 2585SOL    HW2 8655   2.700   4.224   6.944
 2586SOL     OW 8656   2.919   0.908   5.673
 2586SOL    HW1 8657   2.884   0.994   5.710
 2586SOL    HW2 8658   3.019   0.912   5.671
 2587SOL     OW 8659   6.850   1.530   3.269
 2587SOL    HW1 8660   6.935   1.573   3.301
 2587SOL    HW2 8661   6.819   1.463   3.336
 2588SOL     OW 8662   4.000   2.248   5.245
 2588SOL    HW1 8663   3.944   2.272   5.324
 2588SOL    HW2 8664   4.050   2.329   5.214
 2589SOL     OW 8665   1.302   6.512   6.337
 2589SOL    HW1 8666   1.309   6.576   6.413
 2589SOL    HW2 8667   1.268   6.424   6.370
 2590SOL     OW 8668   2.856   5.194   0.352
 2590SOL    HW1 8669   2.944   5.242   0.358
 2590SOL    HW2 8670   2.832   5.181   0.256
 2591SOL     OW 8671   6.776   5.133   3.632
 2591SOL    HW1 8672   6.726   5.122   3.718
 2591SOL    HW2 8673   6.809   5.044   3.601
 2592SOL     OW 8674   2.602   4.104   6.458
 2592SOL    HW1 8675   2.609   4.008   6.487
 2592SOL    HW2 8676   2.577   4.160   6.537
 2593SOL     OW 8677   3.222   6.034   0.854
 2593SOL    HW1 8678   3.146   5.999   0.908
 2593SOL    HW2 8679   3.243   5.971   0.780
 2594SOL     OW 8680   2.421   4.096   6.226
 2594SOL    HW1 8681   2.480   4.132   6.298
 2594SOL    HW2 8682   2.377   4.173   6.178
 2595SOL     OW 8683   0.640   1.679   4.482
 2595SOL    HW1 8684   0.730   1.647   4.512
 2595SOL    HW2 8685   0.580   1.600   4.470
 2596SOL     OW 8686   2.057   2.849   0.990
 2596SOL    HW1 8687   2.140   2.808   0.954
 2596SOL    HW2 8688   2.068   2.867   1.088
 2597SOL     OW 8689   6.891   5.061   6.604
 2597SOL    HW1 8690   6.932   5.153   6.603
 2597SOL    HW2 8691   6.909   5.018   6.692
 2598SOL     OW 8692   6.426   2.003   1.676
 2598SOL    HW1 8693   6.349   2.008   1.740
 2598SOL    HW2 8694   6.434   2.089   1.626
 2599SOL     OW 8695   1.776   6.448   1.256
 2599SOL    HW1 8696   1.751   6.442   1.353
 2599SOL    HW2 8697   1.693   6.454   1.201
 2600SOL     OW 8698   5.626   3.489   4.249
 2600SOL    HW1 8699   5.721   3.505   4.275
 2600SOL    HW2 8700   5.582   3.576   4.226
 2601SOL     OW 8701   1.790   2.186   2.104
 2601SOL    HW1 8702   1.825   2.225   2.189
 2601SOL    HW2 8703   1.819   2.241   2.026
 2602SOL     OW 8704   1.600   5.255   4.205
 2602SOL    HW1 8705   1.637   5.183   4.147
 2602SOL    HW2 8706   1.664   5.274   4.280
 2603SOL     OW 8707   2.841   1.259   2.170
 2603SOL    HW1 8708   2.747   1.261   2.138
 2603SOL    HW2 8709   2.848   1.203   2.253
 2604SOL     OW 8710   5.075   1.853   2.130
 2604SOL    HW1 8711   5.023   1.894   2.205
 2604SOL    HW2 8712   5.091   1.756   2.150
 2605SOL     OW 8713   1.315   4.100   2.593
 2605SOL    HW1 8714   1.387   4.091   2.661
 2605SOL    HW2 8715   1.353   4.143   2.511
 2606SOL     OW 8716   5.572   5.225   0.972
 2606SOL    HW1 8717   5.518   5.306   0.996
 2606SOL    HW2 8718   5.663   5.253   0.942
 2607SOL     OW 8719   1.883   2.183   1.025
 2607SOL    HW1 8720   1.973   2.140   1.033
 2607SOL    HW2 8721   1.820   2.141   1.090
 2608SOL     OW 8722   2.158   5.462   6.688
 2608SOL    HW1 8723   2.243   5.508   6.711
 2608SOL    HW2 8724   2.123   5.414   6.769
 2609SOL     OW 8725   0.438   1.257   1.311
 2609SOL    HW1 8726   0.436   1.280   1.214
 2609SOL    HW2 8727   0.348   1.222   1.339
 2610SOL     OW 8728   1.170   4.814   4.086
 2610SOL    HW1 8729   1.131   4.814   3.994
 2610SOL    HW2 8730   1.230   4.893   4.096
 2611SOL     OW 8731   4.516   6.232   0.094
 2611SOL    HW1 8732   4.465   6.175   0.159
 2611SOL    HW2 8733   4.454   6.300   0.054
 2612SOL     OW 8734   5.223   6.754   4.674
 2612SOL    HW1 8735   5.303   6.696   4.686
 2612SOL    HW2 8736   5.252   6.848   4.657
 2613SOL     OW 8737   1.370   5.565   6.210
 2613SOL    HW1 8738   1.376   5.525   6.118
 2613SOL    HW2 8739   1.457   5.608   6.233
 2614SOL     OW 8740   5.900   0.888   6.273
 2614SOL    HW1 8741   5.913   0.974   6.323
 2614SOL    HW2 8742   5.813   0.890   6.225
 2615SOL     OW 8743   1.460   3.273   1.918
 2615SOL    HW1 8744   1.526   3.346   1.933
 2615SOL    HW2 8745   1.407   3.257   2.001
 2616SOL     OW 8746   1.121   1.052   5.282
 2616SOL    HW1 8747   1.026   1.048   5.313
 2616SOL    HW2 8748   1.133   1.132   5.222
 2617SOL     OW 8749   5.524   0.228   0.746
 2617SOL    HW1 8750   5.470   0.202   0.826
 2617SOL    HW2 8751   5.620   0.203   0.761
 2618SOL     OW 8752   1.545   5.702   4.953
 2618SOL    HW1 8753   1.534   5.729   5.049
 2618SOL    HW2 8754   1.515   5.607   4.942
 2619SOL     OW 8755   3.996   1.738   2.422
 2619SOL    HW1 8756   3.981   1.830   2.386
 2619SOL    HW2 8757   3.952   1.671   2.362
 2620SOL     OW 8758   6.127   6.154   2.231
 2620SOL    HW1 8759   6.199   6.140   2.163
 2620SOL    HW2 8760   6.103   6.251   2.235
 2621SOL     OW 8761   0.386   5.699   2.617
 2621SOL    HW1 8762   0.365   5.628   2.684
 2621SOL    HW2 8763   0.304   5.754   2.599
 2622SOL     OW 8764   3.341   2.791   5.896
 2622SOL    HW1 8765   3.299   2.706   5.865
 2622SOL    HW2 8766   3.332   2.799   5.996
 2623SOL     OW 8767   0.170   6.418   3.789
 2623SOL    HW1 8768   0.075   6.431   3.760
 2623SOL    HW2 8769   0.188   6.320   3.798
 2624SOL     OW 8770   6.470   1.918   4.527
 2624SOL    HW1 8771   6.458   1.819   4.521
 2624SOL    HW2 8772   6.565   1.939   4.553
 2625SOL     OW 8773   2.105   5.082   5.521
 2625SOL    HW1 8774   2.128   5.134   5.438
 2625SOL    HW2 8775   2.180   5.019   5.542
 2626SOL     OW 8776   6.671   6.809   5.091
 2626SOL    HW1 8777   6.709   6.818   5.183
 2626SOL    HW2 8778   6.571   6.799   5.098
 2627SOL     OW 8779   1.142   6.948   6.163
 2627SOL    HW1 8780   1.077   0.003   6.159
 2627SOL    HW2 8781   1.106   6.870   6.110
 2628SOL     OW 8782   1.546   3.724   3.740
 2628SOL    HW1 8783   1.556   3.722   3.641
 2628SOL    HW2 8784   1.618   3.781   3.780
 2629SOL     OW 8785   3.274   4.094   3.107
 2629SOL    HW1 8786   3.249   4.114   3.202
 2629SOL    HW2 8787   3.196   4.054   3.060
 2630SOL     OW 8788   3.438   1.145   3.123
 2630SOL    HW1 8789   3.432   1.244   3.111
 2630SOL    HW2 8790   3.527   1.113   3.093
 2631SOL     OW 8791   5.508   0.464   6.209
 2631SOL    HW1 8792   5.555   0.457   6.297
 2631SOL    HW2 8793   5.495   0.372   6.171
 2632SOL     OW 8794   5.484   4.755   1.284
 2632SOL    HW1 8795   5.576   4.791   1.268
 2632SOL    HW2 8796   5.430   4.822   1.335
 2633SOL     OW 8797   6.666   2.640   5.317
 2633SOL    HW1 8798   6.738   2.709   5.305
 2633SOL    HW2 8799   6.646   2.597   5.229
 2634SOL     OW 8800   6.787   6.208   4.595
 2634SOL    HW1 8801   6.881   6.217   4.561
 2634SOL    HW2 8802   6.739   6.295   4.581
 2635SOL     OW 8803   5.447   5.568   3.579
 2635SOL    HW1 8804   5.483   5.588   3.670
 2635SOL    HW2 8805   5.523   5.566   3.513
 2636SOL     OW 8806   3.834   0.792   6.161
 2636SOL    HW1 8807   3.897   0.865   6.134
 2636SOL    HW2 8808   3.764   0.781   6.091
 2637SOL     OW 8809   0.061   2.149   3.286
 2637SOL    HW1 8810   0.057   2.050   3.269
 2637SOL    HW2 8811   7.010   2.195   3.233
 2638SOL     OW 8812   0.749   0.092   4.282
 2638SOL    HW1 8813   0.843   0.095   4.315
 2638SOL    HW2 8814   0.730   0.003   4.241
 2639SOL     OW 8815   4.462   4.893   4.938
 2639SOL    HW1 8816   4.498   4.832   5.009
 2639SOL    HW2 8817   4.406   4.964   4.980
 2640SOL     OW 8818   0.675   0.258   4.804
 2640SOL    HW1 8819   0.728   0.262   4.889
 2640SOL    HW2 8820   0.599   0.324   4.810
 2641SOL     OW 8821   5.506   2.452   0.338
 2641SOL    HW1 8822   5.470   2.359   0.331
 2641SOL    HW2 8823   5.582   2.463   0.274
 2642SOL     OW 8824   6.990   1.221   4.505
 2642SOL    HW1 8825   0.050   1.209   4.447
 2642SOL    HW2 8826   6.908   1.227   4.449
 2643SOL     OW 8827   0.693   3.185   4.125
 2643SOL    HW1 8828   0.647   3.099   4.106
 2643SOL    HW2 8829   0.786   3.168   4.159
 2644SOL     OW 8830   4.904   5.492   4.402
 2644SOL    HW1 8831   4.885   5.431   4.479
 2644SOL    HW2 8832   4.827   5.492   4.339
 2645SOL     OW 8833   4.908   5.542   3.577
 2645SOL    HW1 8834   4.884   5.446   3.564
 2645SOL    HW2 8835   4.970   5.550   3.655
 2646SOL     OW 8836   0.555   3.596   6.148
 2646SOL    HW1 8837   0.459   3.602   6.121
 2646SOL    HW2 8838   0.562   3.550   6.237
 2647SOL     OW 8839   5.500   0.276   1.705
 2647SOL    HW1 8840   5.535   0.290   1.613
 2647SOL    HW2 8841   5.566   0.312   1.771
 2648SOL     OW 8842   0.821   0.498   4.193
 2648SOL    HW1 8843   0.876   0.556   4.254
 2648SOL    HW2 8844   0.882   0.435   4.145
 2649SOL     OW 8845   5.220   2.981   1.924
 2649SOL    HW1 8846   5.132   2.998   1.881
 2649SOL    HW2 8847   5.240   3.053   1.991
 2650SOL     OW 8848   2.915   6.260   4.908
 2650SOL    HW1 8849   2.981   6.254   4.983
 2650SOL    HW2 8850   2.828   6.293   4.944
 2651SOL     OW 8851   3.843   1.727   5.657
 2651SOL    HW1 8852   3.749   1.717   5.626
 2651SOL    HW2 8853   3.846   1.790   5.735
 2652SOL     OW 8854   5.014   3.500   5.604
 2652SOL    HW1 8855   4.964   3.468   5.684
 2652SOL    HW2 8856   4.969   3.467   5.521
 2653SOL     OW 8857   3.362   6.130   6.321
 2653SOL    HW1 8858   3.460   6.111   6.320
 2653SOL    HW2 8859   3.312   6.047   6.298
 2654SOL     OW 8860   5.110   6.604   0.115
 2654SOL    HW1 8861   5.075   6.530   0.172
 2654SOL    HW2 8862   5.209   6.614   0.129
 2655SOL     OW 8863   5.118   6.121   3.176
 2655SOL    HW1 8864   5.035   6.170   3.201
 2655SOL    HW2 8865   5.096   6.027   3.151
 2656SOL     OW 8866   3.784   6.066   4.024
 2656SOL    HW1 8867   3.872   6.058   4.071
 2656SOL    HW2 8868   3.745   5.975   4.009
 2657SOL     OW 8869   2.198   3.700   0.366
 2657SOL    HW1 8870   2.162   3.620   0.317
 2657SOL    HW2 8871   2.162   3.700   0.459
 2658SOL     OW 8872   4.003   4.523   6.157
 2658SOL    HW1 8873   3.943   4.448   6.188
 2658SOL    HW2 8874   4.081   4.485   6.108
 2659SOL     OW 8875   5.099   2.311   5.147
 2659SOL    HW1 8876   5.177   2.369   5.170
 2659SOL    HW2 8877   5.059   2.274   5.231
 2660SOL     OW 8878   1.080   1.539   1.067
 2660SOL    HW1 8879   1.176   1.520   1.084
 2660SOL    HW2 8880   1.043   1.595   1.142
 2661SOL     OW 8881   1.457   0.501   1.299
 2661SOL    HW1 8882   1.554   0.504   1.279
 2661SOL    HW2 8883   1.416   0.591   1.287
 2662SOL     OW 8884   3.387   0.917   3.548
 2662SOL    HW1 8885   3.352   0.977   3.475
 2662SOL    HW2 8886   3.433   0.838   3.507
 2663SOL     OW 8887   3.129   0.010   6.045
 2663SOL    HW1 8888   3.057   6.981   5.997
 2663SOL    HW2 8889   3.218   6.989   6.023
 2664SOL     OW 8890   3.706   2.741   5.309
 2664SOL    HW1 8891   3.805   2.729   5.302
 2664SOL    HW2 8892   3.686   2.812   5.376
 2665SOL     OW 8893   2.395   3.541   5.310
 2665SOL    HW1 8894   2.378   3.498   5.399
 2665SOL    HW2 8895   2.389   3.641   5.320
 2666SOL     OW 8896   2.019   3.928   2.707
 2666SOL    HW1 8897   2.075   3.858   2.752
 2666SOL    HW2 8898   1.959   3.884   2.640
 2667SOL     OW 8899   6.071   4.027   3.785
 2667SOL    HW1 8900   6.162   4.032   3.826
 2667SOL    HW2 8901   6.070   4.083   3.702
 2668SOL     OW 8902   5.600   1.330   4.924
 2668SOL    HW1 8903   5.503   1.348   4.938
 2668SOL    HW2 8904   5.640   1.403   4.868
 2669SOL     OW 8905   2.321   6.881   0.311
 2669SOL    HW1 8906   2.283   6.879   0.218
 2669SOL    HW2 8907   2.270   6.947   0.366
 2670SOL     OW 8908   6.948   1.413   6.059
 2670SOL    HW1 8909   6.867   1.440   6.111
 2670SOL    HW2 8910   6.998   1.495   6.032
 2671SOL     OW 8911   3.702   5.662   5.898
 2671SOL    HW1 8912   3.688   5.650   5.800
 2671SOL    HW2 8913   3.716   5.759   5.918
 2672SOL     OW 8914   3.856   1.330   1.893
 2672SOL    HW1 8915   3.836   1.265   1.966
 2672SOL    HW2 8916   3.955   1.343   1.886
 2673SOL     OW 8917   4.812   0.170   2.753
 2673SOL    HW1 8918   4.831   0.266   2.772
 2673SOL    HW2 8919   4.785   0.124   2.837
 2674SOL     OW 8920   0.868   5.592   3.025
 2674SOL    HW1 8921   0.924   5.666   2.989
 2674SOL    HW2 8922   0.827   5.620   3.112
 2675SOL     OW 8923   6.845   6.226   3.849
 2675SOL    HW1 8924   6.768   6.288   3.836
 2675SOL    HW2 8925   6.854   6.204   3.946
 2676SOL     OW 8926   3.075   3.954   2.943
 2676SOL    HW1 8927   2.979   3.979   2.950
 2676SOL    HW2 8928   3.105   3.962   2.847
 2677SOL     OW 8929   1.957   4.641   1.259
 2677SOL    HW1 8930   2.018   4.709   1.219
 2677SOL    HW2 8931   1.929   4.576   1.188
 2678SOL     OW 8932   5.771   2.625   2.837
 2678SOL    HW1 8933   5.682   2.583   2.849
 2678SOL    HW2 8934   5.775   2.711   2.888
 2679SOL     OW 8935   1.455   5.346   2.296
 2679SOL    HW1 8936   1.508   5.303   2.224
 2679SOL    HW2 8937   1.514   5.364   2.375
 2680SOL     OW 8938   0.932   2.258   6.772
 2680SOL    HW1 8939   0.997   2.262   6.696
 2680SOL    HW2 8940   0.966   2.314   6.848
 2681SOL     OW 8941   1.384   2.852   5.396
 2681SOL    HW1 8942   1.325   2.908   5.455
 2681SOL    HW2 8943   1.462   2.820   5.450
 2682SOL     OW 8944   4.700   4.237   2.188
 2682SOL    HW1 8945   4.635   4.293   2.137
 2682SOL    HW2 8946   4.741   4.169   2.126
 2683SOL     OW 8947   2.277   4.089   2.886
 2683SOL    HW1 8948   2.247   4.045   2.970
 2683SOL    HW2 8949   2.354   4.038   2.847
 2684SOL     OW 8950   5.657   5.793   2.182
 2684SOL    HW1 8951   5.657   5.817   2.279
 2684SOL    HW2 8952   5.619   5.868   2.129
 2685SOL     OW 8953   6.856   5.137   4.891
 2685SOL    HW1 8954   6.872   5.232   4.863
 2685SOL    HW2 8955   6.904   5.076   4.828
 2686SOL     OW 8956   1.358   1.051   4.678
 2686SOL    HW1 8957   1.370   0.969   4.735
 2686SOL    HW2 8958   1.446   1.096   4.665
 2687SOL     OW 8959   3.990   1.523   2.251
 2687SOL    HW1 8960   3.936   1.460   2.307
 2687SOL    HW2 8961   4.026   1.475   2.171
 2688SOL     OW 8962   3.808   2.355   6.796
 2688SOL    HW1 8963   3.827   2.271   6.744
 2688SOL    HW2 8964   3.863   2.430   6.759
 2689SOL     OW 8965   0.682   4.240   2.725
 2689SOL    HW1 8966   0.608   4.285   2.675
 2689SOL    HW2 8967   0.714   4.299   2.798
 2690SOL     OW 8968   3.517   1.645   6.137
 2690SOL    HW1 8969   3.609   1.666   6.102
 2690SOL    HW2 8970   3.496   1.549   6.119
 2691SOL     OW 8971   6.879   4.461   4.533
 2691SOL    HW1 8972   6.944   4.453   4.608
 2691SOL    HW2 8973   6.904   4.539   4.475
 2692SOL     OW 8974   3.003   5.788   2.490
 2692SOL    HW1 8975   3.017   5.816   2.585
 2692SOL    HW2 8976   2.982   5.690   2.487
 2693SOL     OW 8977   1.620   5.863   3.983
 2693SOL    HW1 8978   1.663   5.948   4.015
 2693SOL    HW2 8979   1.675   5.824   3.909
 2694SOL     OW 8980   3.296   6.733   3.479
 2694SOL    HW1 8981   3.344   6.670   3.540
 2694SOL    HW2 8982   3.236   6.792   3.533
 2695SOL     OW 8983   6.706   6.678   2.373
 2695SOL    HW1 8984   6.672   6.771   2.384
 2695SOL    HW2 8985   6.797   6.671   2.414
 2696SOL     OW 8986   4.746   4.643   6.317
 2696SOL    HW1 8987   4.724   4.634   6.220
 2696SOL    HW2 8988   4.713   4.562   6.366
 2697SOL     OW 8989   4.248   1.542   0.938
 2697SOL    HW1 8990   4.159   1.586   0.948
 2697SOL    HW2 8991   4.239   1.463   0.878
 2698SOL     OW 8992   1.232   4.587   6.068
 2698SOL    HW1 8993   1.262   4.507   6.016
 2698SOL    HW2 8994   1.175   4.558   6.145
 2699SOL     OW 8995   3.508   5.765   2.330
 2699SOL    HW1 8996   3.522   5.678   2.282
 2699SOL    HW2 8997   3.411   5.776   2.351
 2700SOL     OW 8998   3.294   2.149   1.410
 2700SOL    HW1 8999   3.294   2.078   1.480
 2700SOL    HW2 9000   3.229   2.125   1.338
 2701SOL     OW 9001   5.165   3.222   4.522
 2701SOL    HW1 9002   5.145   3.302   4.578
 2701SOL    HW2 9003   5.260   3.195   4.536
 2702SOL     OW 9004   2.553   1.974   4.669
 2702SOL    HW1 9005   2.479   1.950   4.606
 2702SOL    HW2 9006   2.517   2.029   4.744
 2703SOL     OW 9007   1.858   5.778   1.759
 2703SOL    HW1 9008   1.841   5.848   1.690
 2703SOL    HW2 9009   1.946   5.796   1.804
 2704SOL     OW 9010   6.568   5.402   3.360
 2704SOL    HW1 9011   6.572   5.437   3.267
 2704SOL    HW2 9012   6.560   5.302   3.357
 2705SOL     OW 9013   0.430   0.801   5.102
 2705SOL    HW1 9014   0.418   0.873   5.170
 2705SOL    HW2 9015   0.375   0.721   5.127
 2706SOL     OW 9016   6.430   4.529   4.334
 2706SOL    HW1 9017   6.378   4.537   4.249
 2706SOL    HW2 9018   6.399   4.599   4.399
 2707SOL     OW 9019   3.770   6.841   2.907
 2707SOL    HW1 9020   3.768   6.911   2.978
 2707SOL    HW2 9021   3.824   6.874   2.829
 2708SOL     OW 9022   5.948   2.713   0.273
 2708SOL    HW1 9023   6.003   2.797   0.268
 2708SOL    HW2 9024   5.858   2.735   0.311
 2709SOL     OW 9025   5.081   6.856   6.004
 2709SOL    HW1 9026   5.145   6.910   5.948
 2709SOL    HW2 9027   5.127   6.774   6.036
 2710SOL     OW 9028   1.195   3.427   3.930
 2710SOL    HW1 9029   1.238   3.361   3.991
 2710SOL    HW2 9030   1.242   3.515   3.938
 2711SOL     OW 9031   3.506   2.142   3.770
 2711SOL    HW1 9032   3.507   2.164   3.672
 2711SOL    HW2 9033   3.509   2.042   3.782
 2712SOL     OW 9034   4.060   5.578   2.530
 2712SOL    HW1 9035   4.144   5.572   2.475
 2712SOL    HW2 9036   3.996   5.641   2.485
 2713SOL     OW 9037   4.661   4.904   6.351
 2713SOL    HW1 9038   4.581   4.909   6.410
 2713SOL    HW2 9039   4.699   4.812   6.353
 2714SOL     OW 9040   3.083   3.523   6.338
 2714SOL    HW1 9041   3.031   3.476   6.267
 2714SOL    HW2 9042   3.056   3.619   6.342
 2715SOL     OW 9043   5.331   1.129   1.409
 2715SOL    HW1 9044   5.317   1.201   1.477
 2715SOL    HW2 9045   5.373   1.049   1.452
 2716SOL     OW 9046   3.990   2.187   2.829
 2716SOL    HW1 9047   4.067   2.226   2.880
 2716SOL    HW2 9048   4.014   2.182   2.732
 2717SOL     OW 9049   1.154   1.168   2.524
 2717SOL    HW1 9050   1.169   1.254   2.574
 2717SOL    HW2 9051   1.066   1.171   2.478
 2718SOL     OW 9052   0.146   0.642   6.275
 2718SOL    HW1 9053   0.156   0.709   6.349
 2718SOL    HW2 9054   0.227   0.644   6.217
 2719SOL     OW 9055   1.729   4.212   2.677
 2719SOL    HW1 9056   1.738   4.169   2.587
 2719SOL    HW2 9057   1.811   4.194   2.731
 2720SOL     OW 9058   1.218   0.347   5.296
 2720SOL    HW1 9059   1.277   0.269   5.316
 2720SOL    HW2 9060   1.136   0.315   5.248
 2721SOL     OW 9061   2.908   6.132   1.571
 2721SOL    HW1 9062   2.991   6.185   1.590
 2721SOL    HW2 9063   2.927   6.034   1.580
 2722SOL     OW 9064   4.284   5.716   6.663
 2722SOL    HW1 9065   4.300   5.618   6.651
 2722SOL    HW2 9066   4.365   5.758   6.703
 2723SOL     OW 9067   3.591   6.557   0.286
 2723SOL    HW1 9068   3.585   6.657   0.283
 2723SOL    HW2 9069   3.561   6.525   0.376
 2724SOL     OW 9070   1.010   6.029   0.124
 2724SOL    HW1 9071   0.997   6.082   0.207
 2724SOL    HW2 9072   0.927   6.032   0.068
 2725SOL     OW 9073   5.305   3.545   4.520
 2725SOL    HW1 9074   5.212   3.514   4.539
 2725SOL    HW2 9075   5.368   3.467   4.525
 2726SOL     OW 9076   0.872   1.537   1.522
 2726SOL    HW1 9077   0.818   1.511   1.602
 2726SOL    HW2 9078   0.834   1.621   1.482
 2727SOL     OW 9079   2.228   4.238   4.206
 2727SOL    HW1 9080   2.232   4.144   4.172
 2727SOL    HW2 9081   2.137   4.255   4.243
 2728SOL     OW 9082   5.515   5.291   6.719
 2728SOL    HW1 9083   5.488   5.385   6.742
 2728SOL    HW2 9084   5.466   5.227   6.778
 2729SOL     OW 9085   5.259   6.268   5.770
 2729SOL    HW1 9086   5.338   6.215   5.801
 2729SOL    HW2 9087   5.289   6.358   5.740
 2730SOL     OW 9088   0.198   5.564   2.100
 2730SOL    HW1 9089   0.199   5.614   2.014
 2730SOL    HW2 9090   0.288   5.571   2.143
 2731SOL     OW 9091   3.086   3.298   3.613
 2731SOL    HW1 9092   3.034   3.344   3.685
 2731SOL    HW2 9093   3.177   3.276   3.647
 2732SOL     OW 9094   4.685   1.262   1.440
 2732SOL    HW1 9095   4.777   1.300   1.442
 2732SOL    HW2 9096   4.631   1.300   1.516
 2733SOL     OW 9097   6.747   0.765   5.913
 2733SOL    HW1 9098   6.760   0.759   5.814
 2733SOL    HW2 9099   6.836   0.771   5.958
 2734SOL     OW 9100   3.633   6.000   1.770
 2734SOL    HW1 9101   3.645   5.980   1.673
 2734SOL    HW2 9102   3.680   6.086   1.793
 2735SOL     OW 9103   1.571   2.242   0.612
 2735SOL    HW1 9104   1.588   2.185   0.532
 2735SOL    HW2 9105   1.620   2.205   0.691
 2736SOL     OW 9106   5.348   6.116   3.353
 2736SOL    HW1 9107   5.264   6.104   3.299
 2736SOL    HW2 9108   5.325   6.133   3.448
 2737SOL     OW 9109   2.919   1.788   6.197
 2737SOL    HW1 9110   2.902   1.794   6.099
 2737SOL    HW2 9111   2.930   1.693   6.224
 2738SOL     OW 9112   5.733   0.538   1.481
 2738SOL    HW1 9113   5.791   0.594   1.540
 2738SOL    HW2 9114   5.639   0.540   1.515
 2739SOL     OW 9115   0.923   5.215   1.946
 2739SOL    HW1 9116   0.830   5.179   1.959
 2739SOL    HW2 9117   0.974   5.153   1.887
 2740SOL     OW 9118   6.987   6.054   2.410
 2740SOL    HW1 9119   6.990   6.154   2.415
 2740SOL    HW2 9120   6.899   6.022   2.446
 2741SOL     OW 9121   1.190   2.384   4.431
 2741SOL    HW1 9122   1.260   2.390   4.502
 2741SOL    HW2 9123   1.103   2.420   4.466
 2742SOL     OW 9124   3.438   4.648   1.625
 2742SOL    HW1 9125   3.443   4.553   1.595
 2742SOL    HW2 9126   3.505   4.664   1.697
 2743SOL     OW 9127   6.776   4.757   1.835
 2743SOL    HW1 9128   6.744   4.760   1.930
 2743SOL    HW2 9129   6.861   4.703   1.830
 2744SOL     OW 9130   3.099   3.048   2.490
 2744SOL    HW1 9131   3.053   3.006   2.412
 2744SOL    HW2 9132   3.188   3.005   2.502
 2745SOL     OW 9133   6.654   1.197   5.796
 2745SOL    HW1 9134   6.736   1.189   5.853
 2745SOL    HW2 9135   6.610   1.107   5.789
 2746SOL     OW 9136   0.708   0.920   3.762
 2746SOL    HW1 9137   0.626   0.875   3.726
 2746SOL    HW2 9138   0.702   0.926   3.861
 2747SOL     OW 9139   3.406   5.229   0.529
 2747SOL    HW1 9140   3.365   5.191   0.612
 2747SOL    HW2 9141   3.467   5.304   0.553
 2748SOL     OW 9142   4.911   0.653   1.256
 2748SOL    HW1 9143   5.002   0.623   1.226
 2748SOL    HW2 9144   4.875   0.587   1.321
 2749SOL     OW 9145   1.430   3.291   0.514
 2749SOL    HW1 9146   1.500   3.363   0.505
 2749SOL    HW2 9147   1.474   3.202   0.513
 2750SOL     OW 9148   2.777   5.250   2.565
 2750SOL    HW1 9149   2.793   5.170   2.506
 2750SOL    HW2 9150   2.739   5.219   2.652
 2751SOL     OW 9151   1.651   2.381   1.330
 2751SOL    HW1 9152   1.686   2.439   1.257
 2751SOL    HW2 9153   1.724   2.359   1.394
 2752SOL     OW 9154   4.139   4.790   5.664
 2752SOL    HW1 9155   4.209   4.851   5.701
 2752SOL    HW2 9156   4.115   4.820   5.572
 2753SOL     OW 9157   6.406   6.760   4.873
 2753SOL    HW1 9158   6.471   6.684   4.865
 2753SOL    HW2 9159   6.325   6.740   4.818
 2754SOL     OW 9160   0.241   6.422   6.573
 2754SOL    HW1 9161   0.195   6.372   6.500
 2754SOL    HW2 9162   0.185   6.500   6.601
 2755SOL     OW 9163   2.751   6.937   2.565
 2755SOL    HW1 9164   2.654   6.923   2.546
 2755SOL    HW2 9165   2.801   6.945   2.479
 2756SOL     OW 9166   5.115   6.696   0.411
 2756SOL    HW1 9167   5.105   6.736   0.320
 2756SOL    HW2 9168   5.205   6.720   0.448
 2757SOL     OW 9169   1.156   5.217   1.171
 2757SOL    HW1 9170   1.080   5.255   1.223
 2757SOL    HW2 9171   1.121   5.150   1.105
 2758SOL     OW 9172   5.472   6.965   4.943
 2758SOL    HW1 9173   5.568   6.976   4.918
 2758SOL    HW2 9174   5.448   0.014   5.011
 2759SOL     OW 9175   5.670   6.617   4.192
 2759SOL    HW1 9176   5.575   6.647   4.183
 2759SOL    HW2 9177   5.673   6.519   4.210
 2760SOL     OW 9178   1.889   5.492   2.263
 2760SOL    HW1 9179   1.943   5.444   2.332
 2760SOL    HW2 9180   1.925   5.470   2.172
 2761SOL     OW 9181   1.056   5.717   3.309
 2761SOL    HW1 9182   1.110   5.709   3.226
 2761SOL    HW2 9183   1.076   5.642   3.371
 2762SOL     OW 9184   1.086   6.829   5.266
 2762SOL    HW1 9185   1.120   6.881   5.188
 2762SOL    HW2 9186   1.162   6.809   5.329
 2763SOL     OW 9187   5.689   2.291   3.711
 2763SOL    HW1 9188   5.609   2.308   3.654
 2763SOL    HW2 9189   5.665   2.303   3.807
 2764SOL     OW 9190   5.419   7.003   1.386
 2764SOL    HW1 9191   5.476   7.005   1.468
 2764SOL    HW2 9192   5.346   0.050   1.393
 2765SOL     OW 9193   5.050   1.440   2.162
 2765SOL    HW1 9194   5.112   1.362   2.166
 2765SOL    HW2 9195   5.061   1.486   2.074
 2766SOL     OW 9196   6.205   1.655   0.809
 2766SOL    HW1 9197   6.243   1.604   0.732
 2766SOL    HW2 9198   6.167   1.591   0.876
 2767SOL     OW 9199   6.523   4.355   6.311
 2767SOL    HW1 9200   6.493   4.448   6.332
 2767SOL    HW2 9201   6.504   4.295   6.389
 2768SOL     OW 9202   5.708   1.024   0.447
 2768SOL    HW1 9203   5.799   1.029   0.489
 2768SOL    HW2 9204   5.692   1.107   0.393
 2769SOL     OW 9205   6.662   4.182   3.050
 2769SOL    HW1 9206   6.565   4.197   3.068
 2769SOL    HW2 9207   6.680   4.084   3.046
 2770SOL     OW 9208   1.296   5.404   0.997
 2770SOL    HW1 9209   1.292   5.405   1.097
 2770SOL    HW2 9210   1.358   5.331   0.967
 2771SOL     OW 9211   5.463   1.376   1.304
 2771SOL    HW1 9212   5.374   1.335   1.321
 2771SOL    HW2 9213   5.501   1.340   1.219
 2772SOL     OW 9214   4.534   2.677   0.058
 2772SOL    HW1 9215   4.605   2.672   0.128
 2772SOL    HW2 9216   4.466   2.605   0.073
 2773SOL     OW 9217   4.248   3.429   5.871
 2773SOL    HW1 9218   4.271   3.418   5.774
 2773SOL    HW2 9219   4.150   3.418   5.884
 2774SOL     OW 9220   5.635   2.230   2.116
 2774SOL    HW1 9221   5.651   2.136   2.149
 2774SOL    HW2 9222   5.653   2.234   2.018
 2775SOL     OW 9223   6.933   6.090   1.129
 2775SOL    HW1 9224   6.872   6.022   1.089
 2775SOL    HW2 9225   0.004   6.050   1.138
 2776SOL     OW 9226   4.275   5.784   5.375
 2776SOL    HW1 9227   4.220   5.866   5.358
 2776SOL    HW2 9228   4.277   5.765   5.473
 2777SOL     OW 9229   3.139   0.928   2.706
 2777SOL    HW1 9230   3.167   1.024   2.718
 2777SOL    HW2 9231   3.073   0.903   2.776
 2778SOL     OW 9232   1.850   1.235   5.261
 2778SOL    HW1 9233   1.945   1.247   5.289
 2778SOL    HW2 9234   1.791   1.242   5.341
 2779SOL     OW 9235   5.069   6.963   0.240
 2779SOL    HW1 9236   5.036   6.911   0.161
 2779SOL    HW2 9237   5.165   6.987   0.226
 2780SOL     OW 9238   5.790   5.547   5.968
 2780SOL    HW1 9239   5.827   5.630   6.009
 2780SOL    HW2 9240   5.711   5.569   5.912
 2781SOL     OW 9241   5.912   5.376   1.666
 2781SOL    HW1 9242   5.926   5.349   1.761
 2781SOL    HW2 9243   5.823   5.421   1.657
 2782SOL     OW 9244   2.957   2.829   6.501
 2782SOL    HW1 9245   2.880   2.822   6.438
 2782SOL    HW2 9246   2.934   2.785   6.588
 2783SOL     OW 9247   6.278   3.615   4.809
 2783SOL    HW1 9248   6.244   3.708   4.798
 2783SOL    HW2 9249   6.225   3.568   4.880
 2784SOL     OW 9250   2.341   2.750   0.983
 2784SOL    HW1 9251   2.375   2.685   0.916
 2784SOL    HW2 9252   2.399   2.749   1.065
 2785SOL     OW 9253   6.532   1.494   0.169
 2785SOL    HW1 9254   6.582   1.530   0.090
 2785SOL    HW2 9255   6.483   1.411   0.143
 2786SOL     OW 9256   3.827   6.970   0.803
 2786SOL    HW1 9257   3.758   6.970   0.874
 2786SOL    HW2 9258   3.917   6.952   0.843
 2787SOL     OW 9259   2.257   4.294   6.724
 2787SOL    HW1 9260   2.231   4.313   6.819
 2787SOL    HW2 9261   2.198   4.347   6.663
 2788SOL     OW 9262   2.518   4.217   0.263
 2788SOL    HW1 9263   2.525   4.157   0.184
 2788SOL    HW2 9264   2.470   4.171   0.337
 2789SOL     OW 9265   1.191   1.638   3.792
 2789SOL    HW1 9266   1.120   1.612   3.858
 2789SOL    HW2 9267   1.238   1.556   3.760
 2790SOL     OW 9268   3.847   5.171   2.910
 2790SOL    HW1 9269   3.788   5.194   2.988
 2790SOL    HW2 9270   3.809   5.211   2.827
 2791SOL     OW 9271   1.866   4.535   4.756
 2791SOL    HW1 9272   1.888   4.561   4.661
 2791SOL    HW2 9273   1.768   4.545   4.771
 2792SOL     OW 9274   1.588   1.021   5.591
 2792SOL    HW1 9275   1.522   1.040   5.519
 2792SOL    HW2 9276   1.660   0.961   5.555
 2793SOL     OW 9277   4.946   1.540   2.398
 2793SOL    HW1 9278   5.003   1.621   2.412
 2793SOL    HW2 9279   4.956   1.509   2.304
 2794SOL     OW 9280   0.104   2.597   0.458
 2794SOL    HW1 9281   0.123   2.543   0.539
 2794SOL    HW2 9282   0.030   2.661   0.477
 2795SOL     OW 9283   3.051   4.144   1.232
 2795SOL    HW1 9284   3.006   4.147   1.321
 2795SOL    HW2 9285   3.146   4.117   1.243
 2796SOL     OW 9286   6.533   4.127   2.373
 2796SOL    HW1 9287   6.533   4.063   2.449
 2796SOL    HW2 9288   6.623   4.172   2.367
 2797SOL     OW 9289   5.341   5.663   4.589
 2797SOL    HW1 9290   5.296   5.576   4.567
 2797SOL    HW2 9291   5.363   5.665   4.687
 2798SOL     OW 9292   0.655   4.041   2.920
 2798SOL    HW1 9293   0.565   4.020   2.960
 2798SOL    HW2 9294   0.643   4.089   2.833
 2799SOL     OW 9295   0.291   5.742   6.478
 2799SOL    HW1 9296   0.275   5.836   6.447
 2799SOL    HW2 9297   0.321   5.686   6.401
 2800SOL     OW 9298   4.422   4.592   6.236
 2800SOL    HW1 9299   4.356   4.579   6.162
 2800SOL    HW2 9300   4.441   4.689   6.247
 2801SOL     OW 9301   4.111   5.715   3.264
 2801SOL    HW1 9302   4.159   5.799   3.239
 2801SOL    HW2 9303   4.081   5.721   3.359
 2802SOL     OW 9304   4.074   2.253   6.426
 2802SOL    HW1 9305   3.981   2.265   6.392
 2802SOL    HW2 9306   4.130   2.211   6.355
 2803SOL     OW 9307   1.925   5.987   5.772
 2803SOL    HW1 9308   1.841   6.015   5.726
 2803SOL    HW2 9309   1.902   5.929   5.850
 2804SOL     OW 9310   0.087   4.453   3.536
 2804SOL    HW1 9311   0.101   4.549   3.510
 2804SOL    HW2 9312   0.176   4.407   3.538
 2805SOL     OW 9313   4.601   3.272   1.432
 2805SOL    HW1 9314   4.630   3.177   1.441
 2805SOL    HW2 9315   4.682   3.330   1.418
 2806SOL     OW 9316   5.787   5.551   2.945
 2806SOL    HW1 9317   5.874   5.525   2.903
 2806SOL    HW2 9318   5.720   5.570   2.873
 2807SOL     OW 9319   5.225   4.652   3.721
 2807SOL    HW1 9320   5.199   4.724   3.656
 2807SOL    HW2 9321   5.178   4.567   3.698
 2808SOL     OW 9322   4.864   1.021   3.492
 2808SOL    HW1 9323   4.916   1.011   3.407
 2808SOL    HW2 9324   4.846   0.931   3.531
 2809SOL     OW 9325   5.938   2.620   1.193
 2809SOL    HW1 9326   5.921   2.592   1.287
 2809SOL    HW2 9327   6.028   2.663   1.186
 2810SOL     OW 9328   3.269   6.542   5.008
 2810SOL    HW1 9329   3.360   6.559   4.972
 2810SOL    HW2 9330   3.220   6.480   4.946
 2811SOL     OW 9331   0.941   1.278   2.725
 2811SOL    HW1 9332   0.990   1.204   2.770
 2811SOL    HW2 9333   0.931   1.256   2.628
 2812SOL     OW 9334   4.981   3.500   2.059
 2812SOL    HW1 9335   5.016   3.544   1.976
 2812SOL    HW2 9336   4.980   3.401   2.046
 2813SOL     OW 9337   5.676   6.550   6.191
 2813SOL    HW1 9338   5.707   6.645   6.186
 2813SOL    HW2 9339   5.723   6.497   6.120
 2814SOL     OW 9340   4.257   3.611   6.105
 2814SOL    HW1 9341   4.244   3.543   6.032
 2814SOL    HW2 9342   4.354   3.614   6.131
 2815SOL     OW 9343   6.542   1.038   4.380
 2815SOL    HW1 9344   6.601   1.102   4.329
 2815SOL    HW2 9345   6.458   1.084   4.407
 2816SOL     OW 9346   6.004   6.520   3.675
 2816SOL    HW1 9347   6.044   6.466   3.750
 2816SOL    HW2 9348   6.036   6.484   3.588
 2817SOL     OW 9349   1.595   0.581   1.063
 2817SOL    HW1 9350   1.653   0.572   1.144
 2817SOL    HW2 9351   1.643   0.545   0.984
 2818SOL     OW 9352   0.165   4.968   6.581
 2818SOL    HW1 9353   0.204   5.059   6.592
 2818SOL    HW2 9354   0.157   4.947   6.484
 2819SOL     OW 9355   0.188   2.061   0.772
 2819SOL    HW1 9356   0.277   2.042   0.730
 2819SOL    HW2 9357   0.119   2.000   0.733
 2820SOL     OW 9358   0.325   2.485   2.783
 2820SOL    HW1 9359   0.340   2.524   2.692
 2820SOL    HW2 9360   0.399   2.421   2.804
 2821SOL     OW 9361   2.721   4.290   6.040
 2821SOL    HW1 9362   2.716   4.358   6.113
 2821SOL    HW2 9363   2.782   4.216   6.068
 2822SOL     OW 9364   4.233   2.781   0.266
 2822SOL    HW1 9365   4.236   2.724   0.184
 2822SOL    HW2 9366   4.194   2.871   0.243
 2823SOL     OW 9367   2.457   6.850   1.724
 2823SOL    HW1 9368   2.454   6.792   1.643
 2823SOL    HW2 9369   2.376   6.834   1.781
 2824SOL     OW 9370   2.284   1.111   4.952
 2824SOL    HW1 9371   2.371   1.158   4.938
 2824SOL    HW2 9372   2.215   1.176   4.983
 2825SOL     OW 9373   6.848   6.859   0.949
 2825SOL    HW1 9374   6.767   6.801   0.950
 2825SOL    HW2 9375   6.923   6.814   0.998
 2826SOL     OW 9376   5.719   1.781   5.893
 2826SOL    HW1 9377   5.667   1.695   5.895
 2826SOL    HW2 9378   5.669   1.851   5.943
 2827SOL     OW 9379   6.757   1.356   4.916
 2827SOL    HW1 9380   6.788   1.302   4.839
 2827SOL    HW2 9381   6.836   1.396   4.963
 2828SOL     OW 9382   3.658   1.037   6.022
 2828SOL    HW1 9383   3.713   1.121   6.014
 2828SOL    HW2 9384   3.577   1.044   5.964
 2829SOL     OW 9385   3.873   5.012   6.116
 2829SOL    HW1 9386   3.897   4.923   6.155
 2829SOL    HW2 9387   3.895   5.085   6.181
 2830SOL     OW 9388   6.250   4.287   5.993
 2830SOL    HW1 9389   6.242   4.187   5.994
 2830SOL    HW2 9390   6.319   4.314   5.926
 2831SOL     OW 9391   6.623   6.008   4.686
 2831SOL    HW1 9392   6.677   6.089   4.662
 2831SOL    HW2 9393   6.651   5.975   4.776
 2832SOL     OW 9394   0.414   1.478   1.542
 2832SOL    HW1 9395   0.315   1.489   1.545
 2832SOL    HW2 9396   0.437   1.406   1.477
 2833SOL     OW 9397   5.630   1.793   2.402
 2833SOL    HW1 9398   5.609   1.855   2.327
 2833SOL    HW2 9399   5.708   1.828   2.454
 2834SOL     OW 9400   3.066   1.536   6.374
 2834SOL    HW1 9401   3.166   1.532   6.367
 2834SOL    HW2 9402   3.041   1.584   6.458
 2835SOL     OW 9403   0.465   6.945   1.997
 2835SOL    HW1 9404   0.424   6.924   1.908
 2835SOL    HW2 9405   0.494   0.020   1.998
 2836SOL     OW 9406   7.019   6.847   1.742
 2836SOL    HW1 9407   0.017   6.945   1.737
 2836SOL    HW2 9408   0.056   6.799   1.675
 2837SOL     OW 9409   5.218   3.545   2.887
 2837SOL    HW1 9410   5.278   3.487   2.833
 2837SOL    HW2 9411   5.126   3.506   2.888
 2838SOL     OW 9412   2.223   4.440   1.929
 2838SOL    HW1 9413   2.262   4.419   2.018
 2838SOL    HW2 9414   2.155   4.370   1.905
 2839SOL     OW 9415   5.777   1.192   2.189
 2839SOL    HW1 9416   5.843   1.173   2.262
 2839SOL    HW2 9417   5.756   1.289   2.187
 2840SOL     OW 9418   0.212   1.126   4.859
 2840SOL    HW1 9419   0.253   1.036   4.875
 2840SOL    HW2 9420   0.285   1.192   4.839
 2841SOL     OW 9421   0.608   6.801   6.748
 2841SOL    HW1 9422   0.688   6.775   6.802
 2841SOL    HW2 9423   0.619   6.894   6.714
 2842SOL     OW 9424   6.651   2.547   3.794
 2842SOL    HW1 9425   6.553   2.537   3.811
 2842SOL    HW2 9426   6.698   2.465   3.825
 2843SOL     OW 9427   3.440   1.519   4.376
 2843SOL    HW1 9428   3.344   1.491   4.373
 2843SOL    HW2 9429   3.490   1.461   4.439
 2844SOL     OW 9430   1.134   3.861   0.189
 2844SOL    HW1 9431   1.226   3.880   0.156
 2844SOL    HW2 9432   1.067   3.890   0.121
 2845SOL     OW 9433   0.919   3.741   0.840
 2845SOL    HW1 9434   0.941   3.644   0.831
 2845SOL    HW2 9435   0.821   3.752   0.853
 2846SOL     OW 9436   4.904   1.162   0.135
 2846SOL    HW1 9437   4.848   1.141   0.216
 2846SOL    HW2 9438   4.867   1.114   0.056
 2847SOL     OW 9439   5.181   3.479   3.384
 2847SOL    HW1 9440   5.272   3.442   3.369
 2847SOL    HW2 9441   5.188   3.572   3.422
 2848SOL     OW 9442   0.291   4.389   5.609
 2848SOL    HW1 9443   0.329   4.313   5.557
 2848SOL    HW2 9444   0.331   4.474   5.578
 2849SOL     OW 9445   3.529   0.985   1.032
 2849SOL    HW1 9446   3.589   0.956   1.107
 2849SOL    HW2 9447   3.556   1.076   1.000
 2850SOL     OW 9448   3.427   0.684   1.571
 2850SOL    HW1 9449   3.399   0.715   1.662
 2850SOL    HW2 9450   3.527   0.682   1.566
 2851SOL     OW 9451   0.857   4.366   5.523
 2851SOL    HW1 9452   0.778   4.366   5.585
 2851SOL    HW2 9453   0.840   4.301   5.449
 2852SOL     OW 9454   5.806   4.142   6.693
 2852SOL    HW1 9455   5.767   4.121   6.783
 2852SOL    HW2 9456   5.877   4.075   6.671
 2853SOL     OW 9457   2.990   2.663   0.533
 2853SOL    HW1 9458   2.942   2.734   0.482
 2853SOL    HW2 9459   3.084   2.656   0.500
 2854SOL     OW 9460   2.870   0.999   4.117
 2854SOL    HW1 9461   2.929   0.972   4.042
 2854SOL    HW2 9462   2.861   0.924   4.182
 2855SOL     OW 9463   2.032   0.239   6.083
 2855SOL    HW1 9464   2.126   0.271   6.092
 2855SOL    HW2 9465   2.009   0.231   5.986
 2856SOL     OW 9466   2.335   2.968   6.074
 2856SOL    HW1 9467   2.324   2.921   6.162
 2856SOL    HW2 9468   2.354   2.901   6.003
 2857SOL     OW 9469   3.006   1.579   1.475
 2857SOL    HW1 9470   3.010   1.509   1.546
 2857SOL    HW2 9471   2.913   1.615   1.469
 2858SOL     OW 9472   5.902   3.260   2.215
 2858SOL    HW1 9473   5.999   3.236   2.207
 2858SOL    HW2 9474   5.876   3.322   2.141
 2859SOL     OW 9475   5.056   1.459   0.685
 2859SOL    HW1 9476   5.031   1.375   0.733
 2859SOL    HW2 9477   5.148   1.449   0.647
 2860SOL     OW 9478   4.239   1.819   1.425
 2860SOL    HW1 9479   4.201   1.894   1.479
 2860SOL    HW2 9480   4.328   1.793   1.461
 2861SOL     OW 9481   4.324   5.774   5.635
 2861SOL    HW1 9482   4.284   5.769   5.726
 2861SOL    HW2 9483   4.412   5.726   5.634
 2862SOL     OW 9484   5.722   1.132   3.198
 2862SOL    HW1 9485   5.736   1.209   3.135
 2862SOL    HW2 9486   5.668   1.162   3.276
 2863SOL     OW 9487   6.015   1.158   0.199
 2863SOL    HW1 9488   5.938   1.222   0.200
 2863SOL    HW2 9489   6.043   1.139   0.293
 2864SOL     OW 9490   3.858   0.227   1.346
 2864SOL    HW1 9491   3.890   0.222   1.252
 2864SOL    HW2 9492   3.877   0.140   1.392
 2865SOL     OW 9493   4.637   4.316   5.094
 2865SOL    HW1 9494   4.629   4.240   5.158
 2865SOL    HW2 9495   4.673   4.283   5.007
 2866SOL     OW 9496   6.824   6.997   0.083
 2866SOL    HW1 9497   6.762   6.925   0.114
 2866SOL    HW2 9498   6.867   0.019   0.163
 2867SOL     OW 9499   6.122   4.202   2.405
 2867SOL    HW1 9500   6.088   4.291   2.375
 2867SOL    HW2 9501   6.159   4.210   2.498
 2868SOL     OW 9502   1.024   3.559   5.308
 2868SOL    HW1 9503   1.064   3.520   5.391
 2868SOL    HW2 9504   1.006   3.485   5.242
 2869SOL     OW 9505   6.161   0.947   2.744
 2869SOL    HW1 9506   6.063   0.932   2.753
 2869SOL    HW2 9507   6.192   1.009   2.816
 2870SOL     OW 9508   6.590   1.633   3.927
 2870SOL    HW1 9509   6.517   1.670   3.869
 2870SOL    HW2 9510   6.589   1.679   4.015
 2871SOL     OW 9511   2.098   1.889   6.533
 2871SOL    HW1 9512   2.034   1.864   6.607
 2871SOL    HW2 9513   2.178   1.933   6.572
 2872SOL     OW 9514   2.801   1.485   4.129
 2872SOL    HW1 9515   2.743   1.544   4.185
 2872SOL    HW2 9516   2.779   1.389   4.148
 2873SOL     OW 9517   0.621   5.793   3.109
 2873SOL    HW1 9518   0.676   5.729   3.164
 2873SOL    HW2 9519   0.616   5.881   3.155
 2874SOL     OW 9520   5.168   4.610   2.111
 2874SOL    HW1 9521   5.216   4.553   2.045
 2874SOL    HW2 9522   5.072   4.581   2.116
 2875SOL     OW 9523   3.995   6.522   6.276
 2875SOL    HW1 9524   3.948   6.501   6.191
 2875SOL    HW2 9525   4.047   6.442   6.306
 2876SOL     OW 9526   1.115   0.842   2.082
 2876SOL    HW1 9527   1.199   0.845   2.029
 2876SOL    HW2 9528   1.039   0.816   2.023
 2877SOL     OW 9529   3.628   2.909   5.524
 2877SOL    HW1 9530   3.595   3.002   5.510
 2877SOL    HW2 9531   3.695   2.908   5.599
 2878SOL     OW 9532   3.074   4.999   4.726
 2878SOL    HW1 9533   3.143   5.063   4.759
 2878SOL    HW2 9534   3.033   4.952   4.804
 2879SOL     OW 9535   4.743   5.298   0.263
 2879SOL    HW1 9536   4.830   5.337   0.234
 2879SOL    HW2 9537   4.717   5.225   0.200
 2880SOL     OW 9538   6.628   6.480   0.409
 2880SOL    HW1 9539   6.559   6.499   0.339
 2880SOL    HW2 9540   6.719   6.483   0.367
 2881SOL     OW 9541   6.403   6.233   1.388
 2881SOL    HW1 9542   6.438   6.299   1.321
 2881SOL    HW2 9543   6.479   6.199   1.444
 2882SOL     OW 9544   0.823   3.412   2.731
 2882SOL    HW1 9545   0.831   3.315   2.756
 2882SOL    HW2 9546   0.907   3.442   2.686
 2883SOL     OW 9547   3.747   6.703   3.419
 2883SOL    HW1 9548   3.723   6.607   3.406
 2883SOL    HW2 9549   3.702   6.738   3.502
 2884SOL     OW 9550   0.415   6.375   3.388
 2884SOL    HW1 9551   0.504   6.386   3.343
 2884SOL    HW2 9552   0.372   6.465   3.398
 2885SOL     OW 9553   0.452   2.701   2.906
 2885SOL    HW1 9554   0.386   2.629   2.884
 2885SOL    HW2 9555   0.435   2.781   2.849
 2886SOL     OW 9556   2.444   2.890   6.683
 2886SOL    HW1 9557   2.383   2.932   6.750
 2886SOL    HW2 9558   2.539   2.910   6.708
 2887SOL     OW 9559   2.500   6.665   5.040
 2887SOL    HW1 9560   2.504   6.571   5.074
 2887SOL    HW2 9561   2.538   6.668   4.947
 2888SOL     OW 9562   0.090   5.059   6.253
 2888SOL    HW1 9563   0.097   4.960   6.261
 2888SOL    HW2 9564   0.016   5.092   6.311
 2889SOL     OW 9565   1.775   0.919   1.940
 2889SOL    HW1 9566   1.837   0.862   1.993
 2889SOL    HW2 9567   1.719   0.861   1.880
 2890SOL     OW 9568   3.004   0.527   1.252
 2890SOL    HW1 9569   3.056   0.608   1.227
 2890SOL    HW2 9570   3.010   0.459   1.179
 2891SOL     OW 9571   2.268   4.773   3.593
 2891SOL    HW1 9572   2.232   4.855   3.637
 2891SOL    HW2 9573   2.332   4.728   3.655
 2892SOL     OW 9574   4.746   4.191   6.871
 2892SOL    HW1 9575   4.846   4.188   6.878
 2892SOL    HW2 9576   4.718   4.173   6.777
 2893SOL     OW 9577   2.515   6.178   5.878
 2893SOL    HW1 9578   2.613   6.158   5.884
 2893SOL    HW2 9579   2.476   6.181   5.970
 2894SOL     OW 9580   2.905   2.599   6.905
 2894SOL    HW1 9581   2.954   2.535   6.964
 2894SOL    HW2 9582   2.823   2.632   6.952
 2895SOL     OW 9583   3.829   3.490   6.593
 2895SOL    HW1 9584   3.731   3.481   6.611
 2895SOL    HW2 9585   3.877   3.411   6.631
 2896SOL     OW 9586   2.399   5.584   6.757
 2896SOL    HW1 9587   2.468   5.542   6.817
 2896SOL    HW2 9588   2.445   5.632   6.682
 2897SOL     OW 9589   2.259   6.620   3.683
 2897SOL    HW1 9590   2.293   6.699   3.630
 2897SOL    HW2 9591   2.282   6.633   3.779
 2898SOL     OW 9592   4.573   4.805   2.598
 2898SOL    HW1 9593   4.484   4.808   2.551
 2898SOL    HW2 9594   4.616   4.896   2.592
 2899SOL     OW 9595   0.245   0.655   6.612
 2899SOL    HW1 9596   0.253   0.754   6.608
 2899SOL    HW2 9597   0.336   0.614   6.621
 2900SOL     OW 9598   1.024   4.745   5.664
 2900SOL    HW1 9599   0.986   4.750   5.572
 2900SOL    HW2 9600   1.117   4.781   5.664
 2901SOL     OW 9601   1.983   0.311   2.447
 2901SOL    HW1 9602   2.020   0.369   2.521
 2901SOL    HW2 9603   1.975   0.217   2.480
 2902SOL     OW 9604   5.749   6.525   0.505
 2902SOL    HW1 9605   5.709   6.509   0.596
 2902SOL    HW2 9606   5.831   6.582   0.514
 2903SOL     OW 9607   3.368   0.420   1.974
 2903SOL    HW1 9608   3.394   0.515   1.991
 2903SOL    HW2 9609   3.299   0.392   2.041
 2904SOL     OW 9610   2.421   3.187   5.385
 2904SOL    HW1 9611   2.461   3.120   5.321
 2904SOL    HW2 9612   2.370   3.256   5.333
 2905SOL     OW 9613   1.725   1.269   2.527
 2905SOL    HW1 9614   1.714   1.281   2.428
 2905SOL    HW2 9615   1.667   1.195   2.559
 2906SOL     OW 9616   5.366   5.122   1.654
 2906SOL    HW1 9617   5.293   5.089   1.715
 2906SOL    HW2 9618   5.441   5.056   1.654
 2907SOL     OW 9619   6.820   1.391   5.293
 2907SOL    HW1 9620   6.784   1.484   5.285
 2907SOL    HW2 9621   6.767   1.340   5.362
 2908SOL     OW 9622   4.066   6.709   4.143
 2908SOL    HW1 9623   4.086   6.612   4.141
 2908SOL    HW2 9624   3.976   6.724   4.185
 2909SOL     OW 9625   0.373   4.789   4.512
 2909SOL    HW1 9626   0.439   4.848   4.465
 2909SOL    HW2 9627   0.421   4.734   4.581
 2910SOL     OW 9628   3.502   6.233   4.936
 2910SOL    HW1 9629   3.446   6.280   4.867
 2910SOL    HW2 9630   3.505   6.136   4.915
 2911SOL     OW 9631   2.252   5.246   3.393
 2911SOL    HW1 9632   2.318   5.187   3.440
 2911SOL    HW2 9633   2.197   5.191   3.330
 2912SOL     OW 9634   2.553   5.897   0.640
 2912SOL    HW1 9635   2.475   5.951   0.612
 2912SOL    HW2 9636   2.637   5.936   0.601
 2913SOL     OW 9637   1.924   4.248   2.455
 2913SOL    HW1 9638   1.985   4.292   2.389
 2913SOL    HW2 9639   1.976   4.222   2.536
 2914SOL     OW 9640   6.120   5.114   6.275
 2914SOL    HW1 9641   6.097   5.202   6.232
 2914SOL    HW2 9642   6.099   5.040   6.212
 2915SOL     OW 9643   4.882   1.368   4.157
 2915SOL    HW1 9644   4.807   1.417   4.202
 2915SOL    HW2 9645   4.902   1.411   4.069
 2916SOL     OW 9646   6.408   4.806   5.918
 2916SOL    HW1 9647   6.458   4.855   5.846
 2916SOL    HW2 9648   6.423   4.853   6.005
 2917SOL     OW 9649   3.748   0.268   0.948
 2917SOL    HW1 9650   3.760   0.241   0.852
 2917SOL    HW2 9651   3.650   0.277   0.967
 2918SOL     OW 9652   0.035   3.659   3.118
 2918SOL    HW1 9653   0.041   3.576   3.175
 2918SOL    HW2 9654   6.960   3.685   3.109
 2919SOL     OW 9655   6.139   0.154   0.485
 2919SOL    HW1 9656   6.229   0.143   0.528
 2919SOL    HW2 9657   6.141   0.234   0.424
 2920SOL     OW 9658   3.585   1.941   2.559
 2920SOL    HW1 9659   3.599   1.853   2.603
 2920SOL    HW2 9660   3.673   1.985   2.543
 2921SOL     OW 9661   0.230   1.414   2.569
 2921SOL    HW1 9662   0.306   1.462   2.612
 2921SOL    HW2 9663   0.222   1.322   2.608
 2922SOL     OW 9664   5.858   6.309   6.508
 2922SOL    HW1 9665   5.883   6.280   6.416
 2922SOL    HW2 9666   5.848   6.228   6.567
 2923SOL     OW 9667   6.952   5.531   2.508
 2923SOL    HW1 9668   6.879   5.507   2.572
 2923SOL    HW2 9669   0.018   5.494   2.540
 2924SOL     OW 9670   0.705   1.465   6.166
 2924SOL    HW1 9671   0.773   1.463   6.239
 2924SOL    HW2 9672   0.732   1.400   6.094
 2925SOL     OW 9673   5.843   1.499   2.775
 2925SOL    HW1 9674   5.840   1.496   2.675
 2925SOL    HW2 9675   5.930   1.537   2.805
 2926SOL     OW 9676   6.966   1.498   5.062
 2926SOL    HW1 9677   6.936   1.593   5.069
 2926SOL    HW2 9678   6.966   1.456   5.153
 2927SOL     OW 9679   1.512   2.315   1.886
 2927SOL    HW1 9680   1.574   2.267   1.948
 2927SOL    HW2 9681   1.456   2.380   1.938
 2928SOL     OW 9682   6.743   1.249   6.953
 2928SOL    HW1 9683   6.649   1.263   6.923
 2928SOL    HW2 9684   6.756   1.293   0.021
 2929SOL     OW 9685   0.806   0.793   6.535
 2929SOL    HW1 9686   0.728   0.856   6.538
 2929SOL    HW2 9687   0.888   0.843   6.507
 2930SOL     OW 9688   4.824   6.995   4.796
 2930SOL    HW1 9689   4.888   0.029   4.743
 2930SOL    HW2 9690   4.807   6.908   4.749
 2931SOL     OW 9691   5.279   5.886   6.437
 2931SOL    HW1 9692   5.227   5.803   6.417
 2931SOL    HW2 9693   5.373   5.862   6.459
 2932SOL     OW 9694   1.840   4.325   1.374
 2932SOL    HW1 9695   1.940   4.326   1.373
 2932SOL    HW2 9696   1.805   4.418   1.378
 2933SOL     OW 9697   5.392   2.366   4.112
 2933SOL    HW1 9698   5.414   2.376   4.209
 2933SOL    HW2 9699   5.338   2.283   4.098
 2934SOL     OW 9700   3.820   0.531   1.067
 2934SOL    HW1 9701   3.825   0.434   1.045
 2934SOL    HW2 9702   3.798   0.583   0.985
 2935SOL     OW 9703   6.569   3.479   1.453
 2935SOL    HW1 9704   6.542   3.521   1.540
 2935SOL    HW2 9705   6.514   3.398   1.436
 2936SOL     OW 9706   5.029   5.805   1.332
 2936SOL    HW1 9707   4.974   5.880   1.294
 2936SOL    HW2 9708   4.976   5.755   1.400
 2937SOL     OW 9709   3.077   5.048   0.533
 2937SOL    HW1 9710   2.981   5.051   0.505
 2937SOL    HW2 9711   3.132   5.099   0.467
 2938SOL     OW 9712   4.733   4.875   5.402
 2938SOL    HW1 9713   4.694   4.923   5.323
 2938SOL    HW2 9714   4.661   4.861   5.471
 2939SOL     OW 9715   6.661   6.696   4.631
 2939SOL    HW1 9716   6.751   6.724   4.662
 2939SOL    HW2 9717   6.616   6.772   4.584
 2940SOL     OW 9718   5.553   6.566   5.269
 2940SOL    HW1 9719   5.567   6.469   5.250
 2940SOL    HW2 9720   5.521   6.576   5.364
 2941SOL     OW 9721   1.902   2.317   5.842
 2941SOL    HW1 9722   1.836   2.263   5.789
 2941SOL    HW2 9723   1.938   2.391   5.784
 2942SOL     OW 9724   2.976   0.483   2.177
 2942SOL    HW1 9725   2.895   0.539   2.196
 2942SOL    HW2 9726   2.978   0.461   2.079
 2943SOL     OW 9727   5.273   3.359   2.323
 2943SOL    HW1 9728   5.372   3.358   2.340
 2943SOL    HW2 9729   5.235   3.447   2.351
 2944SOL     OW 9730   3.405   5.284   5.963
 2944SOL    HW1 9731   3.359   5.363   5.923
 2944SOL    HW2 9732   3.388   5.203   5.906
 2945SOL     OW 9733   4.002   3.894   2.697
 2945SOL    HW1 9734   3.922   3.920   2.644
 2945SOL    HW2 9735   4.084   3.931   2.654
 2946SOL     OW 9736   6.438   6.067   5.602
 2946SOL    HW1 9737   6.368   6.133   5.572
 2946SOL    HW2 9738   6.483   6.102   5.684
 2947SOL     OW 9739   0.030   3.839   6.742
 2947SOL    HW1 9740   0.089   3.865   6.818
 2947SOL    HW2 9741   7.005   3.753   6.763
 2948SOL     OW 9742   6.144   3.835   5.672
 2948SOL    HW1 9743   6.154   3.748   5.721
 2948SOL    HW2 9744   6.047   3.860   5.669
 2949SOL     OW 9745   1.934   6.249   1.124
 2949SOL    HW1 9746   1.881   6.308   1.185
 2949SOL    HW2 9747   1.949   6.296   1.037
 2950SOL     OW 9748   5.674   3.748   4.513
 2950SOL    HW1 9749   5.690   3.667   4.570
 2950SOL    HW2 9750   5.581   3.744   4.476
 2951SOL     OW 9751   0.102   2.667   0.060
 2951SOL    HW1 9752   0.117   2.742   0.125
 2951SOL    HW2 9753   0.078   2.584   0.110
 2952SOL     OW 9754   0.726   4.930   3.160
 2952SOL    HW1 9755   0.749   4.902   3.066
 2952SOL    HW2 9756   0.798   4.899   3.222
 2953SOL     OW 9757   4.927   2.609   2.213
 2953SOL    HW1 9758   4.854   2.661   2.168
 2953SOL    HW2 9759   4.983   2.564   2.144
 2954SOL     OW 9760   1.140   6.343   1.807
 2954SOL    HW1 9761   1.182   6.426   1.845
 2954SOL    HW2 9762   1.207   6.269   1.805
 2955SOL     OW 9763   0.520   2.920   0.229
 2955SOL    HW1 9764   0.522   3.013   0.191
 2955SOL    HW2 9765   0.534   2.924   0.328
 2956SOL     OW 9766   0.214   5.677   3.005
 2956SOL    HW1 9767   0.284   5.614   3.039
 2956SOL    HW2 9768   0.212   5.759   3.062
 2957SOL     OW 9769   0.398   3.820   0.868
 2957SOL    HW1 9770   0.395   3.750   0.797
 2957SOL    HW2 9771   0.338   3.897   0.842
 2958SOL     OW 9772   2.207   4.563   5.338
 2958SOL    HW1 9773   2.113   4.542   5.310
 2958SOL    HW2 9774   2.238   4.494   5.404
 2959SOL     OW 9775   5.874   4.774   6.077
 2959SOL    HW1 9776   5.889   4.785   6.175
 2959SOL    HW2 9777   5.945   4.715   6.039
 2960SOL     OW 9778   3.111   1.573   0.023
 2960SOL    HW1 9779   3.197   1.527   7.021
 2960SOL    HW2 9780   3.122   1.625   0.108
 2961SOL     OW 9781   5.333   3.073   4.826
 2961SOL    HW1 9782   5.362   3.106   4.736
 2961SOL    HW2 9783   5.305   2.977   4.818
 2962SOL     OW 9784   4.664   0.752   3.332
 2962SOL    HW1 9785   4.655   0.851   3.323
 2962SOL    HW2 9786   4.758   0.725   3.313
 2963SOL     OW 9787   1.756   1.572   5.554
 2963SOL    HW1 9788   1.671   1.593   5.505
 2963SOL    HW2 9789   1.831   1.563   5.488
 2964SOL     OW 9790   1.567   7.019   1.865
 2964SOL    HW1 9791   1.649   0.000   1.808
 2964SOL    HW2 9792   1.557   6.928   1.905
 2965SOL     OW 9793   0.371   0.979   5.327
 2965SOL    HW1 9794   0.385   0.930   5.414
 2965SOL    HW2 9795   0.273   0.983   5.307
 2966SOL     OW 9796   5.743   4.103   3.500
 2966SOL    HW1 9797   5.837   4.137   3.509
 2966SOL    HW2 9798   5.722   4.092   3.403
 2967SOL     OW 9799   5.812   2.751   4.047
 2967SOL    HW1 9800   5.760   2.827   4.087
 2967SOL    HW2 9801   5.883   2.788   3.987
 2968SOL     OW 9802   0.525   3.813   5.757
 2968SOL    HW1 9803   0.433   3.811   5.796
 2968SOL    HW2 9804   0.592   3.822   5.830
 2969SOL     OW 9805   5.465   2.060   5.222
 2969SOL    HW1 9806   5.397   1.994   5.188
 2969SOL    HW2 9807   5.542   2.064   5.158
 2970SOL     OW 9808   1.200   4.424   6.543
 2970SOL    HW1 9809   1.217   4.418   6.642
 2970SOL    HW2 9810   1.104   4.444   6.527
 2971SOL     OW 9811   5.647   2.974   4.156
 2971SOL    HW1 9812   5.657   3.074   4.152
 2971SOL    HW2 9813   5.550   2.950   4.149
 2972SOL     OW 9814   6.803   4.017   7.017
 2972SOL    HW1 9815   6.798   3.950   0.070
 2972SOL    HW2 9816   6.846   3.975   6.937
 2973SOL     OW 9817   5.665   0.381   3.908
 2973SOL    HW1 9818   5.677   0.307   3.843
 2973SOL    HW2 9819   5.580   0.367   3.960
 2974SOL     OW 9820   5.563   3.894   3.305
 2974SOL    HW1 9821   5.533   3.828   3.236
 2974SOL    HW2 9822   5.583   3.846   3.391
 2975SOL     OW 9823   0.316   1.874   4.838
 2975SOL    HW1 9824   0.262   1.911   4.762
 2975SOL    HW2 9825   0.379   1.804   4.802
 2976SOL     OW 9826   4.157   1.110   3.314
 2976SOL    HW1 9827   4.114   1.197   3.289
 2976SOL    HW2 9828   4.250   1.107   3.278
 2977SOL     OW 9829   2.676   0.293   4.234
 2977SOL    HW1 9830   2.583   0.279   4.267
 2977SOL    HW2 9831   2.739   0.292   4.311
 2978SOL     OW 9832   4.317   4.989   6.964
 2978SOL    HW1 9833   4.389   4.932   7.004
 2978SOL    HW2 9834   4.297   4.956   6.872
 2979SOL     OW 9835   3.334   0.379   3.993
 2979SOL    HW1 9836   3.243   0.371   4.034
 2979SOL    HW2 9837   3.328   0.367   3.894
 2980SOL     OW 9838   1.332   6.556   4.373
 2980SOL    HW1 9839   1.287   6.523   4.291
 2980SOL    HW2 9840   1.282   6.636   4.409
 2981SOL     OW 9841   0.595   0.583   5.756
 2981SOL    HW1 9842   0.582   0.574   5.658
 2981SOL    HW2 9843   0.559   0.501   5.802
 2982SOL     OW 9844   4.125   6.259   3.169
 2982SOL    HW1 9845   4.070   6.343   3.174
 2982SOL    HW2 9846   4.194   6.269   3.097
 2983SOL     OW 9847   0.188   0.461   4.228
 2983SOL    HW1 9848   0.115   0.518   4.265
 2983SOL    HW2 9849   0.241   0.421   4.303
 2984SOL     OW 9850   5.803   5.852   1.115
 2984SOL    HW1 9851   5.807   5.949   1.141
 2984SOL    HW2 9852   5.718   5.835   1.064
 2985SOL     OW 9853   1.030   1.817   4.369
 2985SOL    HW1 9854   1.099   1.862   4.312
 2985SOL    HW2 9855   0.939   1.844   4.337
 2986SOL     OW 9856   2.465   4.174   5.599
 2986SOL    HW1 9857   2.535   4.223   5.651
 2986SOL    HW2 9858   2.508   4.129   5.521
 2987SOL     OW 9859   5.132   1.092   4.554
 2987SOL    HW1 9860   5.138   1.120   4.458
 2987SOL    HW2 9861   5.137   0.992   4.559
 2988SOL     OW 9862   1.058   0.153   2.243
 2988SOL    HW1 9863   1.073   0.055   2.230
 2988SOL    HW2 9864   1.113   0.204   2.177
 2989SOL     OW 9865   6.230   5.256   1.021
 2989SOL    HW1 9866   6.274   5.332   1.069
 2989SOL    HW2 9867   6.134   5.250   1.050
 2990SOL     OW 9868   3.725   1.010   3.463
 2990SOL    HW1 9869   3.817   0.970   3.456
 2990SOL    HW2 9870   3.680   0.975   3.545
 2991SOL     OW 9871   0.497   4.379   0.448
 2991SOL    HW1 9872   0.439   4.326   0.387
 2991SOL    HW2 9873   0.593   4.352   0.435
 2992SOL     OW 9874   2.558   5.635   6.016
 2992SOL    HW1 9875   2.580   5.714   6.073
 2992SOL    HW2 9876   2.641   5.582   5.998
 2993SOL     OW 9877   1.085   4.637   2.299
 2993SOL    HW1 9878   1.163   4.626   2.238
 2993SOL    HW2 9879   1.115   4.628   2.394
 2994SOL     OW 9880   4.438   0.581   0.052
 2994SOL    HW1 9881   4.399   0.489   0.061
 2994SOL    HW2 9882   4.536   0.574   0.033
 2995SOL     OW 9883   1.417   2.460   7.006
 2995SOL    HW1 9884   1.451   2.486   6.916
 2995SOL    HW2 9885   1.331   2.409   6.995
 2996SOL     OW 9886   3.077   6.226   5.144
 2996SOL    HW1 9887   3.011   6.177   5.202
 2996SOL    HW2 9888   3.170   6.194   5.166
 2997SOL     OW 9889   4.988   5.991   1.855
 2997SOL    HW1 9890   4.903   6.034   1.887
 2997SOL    HW2 9891   5.023   5.931   1.926
 2998SOL     OW 9892   4.656   5.854   4.497
 2998SOL    HW1 9893   4.670   5.951   4.513
 2998SOL    HW2 9894   4.658   5.836   4.398
 2999SOL     OW 9895   3.300   6.391   3.612
 2999SOL    HW1 9896   3.249   6.368   3.529
 2999SOL    HW2 9897   3.243   6.371   3.692
 3000SOL     OW 9898   1.372   3.348   6.003
 3000SOL    HW1 9899   1.443   3.278   5.997
 3000SOL    HW2 9900   1.311   3.328   6.079
 3001SOL     OW 9901   5.053   6.990   6.509
 3001SOL    HW1 9902   4.998   6.907   6.506
 3001SOL    HW2 9903   4.995   0.048   6.490
 3002SOL     OW 9904   3.814   0.400   5.068
 3002SOL    HW1 9905   3.796   0.302   5.059
 3002SOL    HW2 9906   3.780   0.432   5.156
 3003SOL     OW 9907   2.752   6.563   6.387
 3003SOL    HW1 9908   2.798   6.646   6.417
 3003SOL    HW2 9909   2.653   6.572   6.403
 3004SOL     OW 9910   6.097   3.714   3.800
 3004SOL    HW1 9911   6.102   3.813   3.808
 3004SOL    HW2 9912   6.040   3.678   3.874
 3005SOL     OW 9913   3.565   3.329   1.416
 3005SOL    HW1 9914   3.535   3.418   1.450
 3005SOL    HW2 9915   3.658   3.311   1.449
 3006SOL     OW 9916   6.757   1.432   0.744
 3006SOL    HW1 9917   6.769   1.408   0.841
 3006SOL    HW2 9918   6.685   1.374   0.705
 3007SOL     OW 9919   5.753   4.926   2.222
 3007SOL    HW1 9920   5.657   4.933   2.247
 3007SOL    HW2 9921   5.767   4.961   2.130
 3008SOL     OW 9922   3.861   0.529   6.324
 3008SOL    HW1 9923   3.818   0.527   6.414
 3008SOL    HW2 9924   3.805   0.584   6.262
 3009SOL     OW 9925   0.587   7.012   2.564
 3009SOL    HW1 9926   0.619   0.038   2.481
 3009SOL    HW2 9927   0.497   6.972   2.546
 3010SOL     OW 9928   3.972   6.026   3.162
 3010SOL    HW1 9929   4.026   6.109   3.150
 3010SOL    HW2 9930   3.898   6.024   3.094
 3011SOL     OW 9931   6.167   0.869   6.769
 3011SOL    HW1 9932   6.251   0.862   6.714
 3011SOL    HW2 9933   6.102   0.929   6.722
 3012SOL     OW 9934   0.315   3.250   3.863
 3012SOL    HW1 9935   0.258   3.168   3.861
 3012SOL    HW2 9936   0.322   3.283   3.958
 3013SOL     OW 9937   5.593   6.089   3.229
 3013SOL    HW1 9938   5.510   6.084   3.284
 3013SOL    HW2 9939   5.672   6.096   3.290
 3014SOL     OW 9940   5.439   1.744   4.391
 3014SOL    HW1 9941   5.378   1.747   4.470
 3014SOL    HW2 9942   5.434   1.831   4.341
 3015SOL     OW 9943   2.972   2.379   6.670
 3015SOL    HW1 9944   2.938   2.424   6.753
 3015SOL    HW2 9945   2.896   2.367   6.606
 3016SOL     OW 9946   3.047   5.659   4.230
 3016SOL    HW1 9947   3.012   5.613   4.148
 3016SOL    HW2 9948   3.061   5.591   4.302
 3017SOL     OW 9949   1.015   5.790   1.053
 3017SOL    HW1 9950   1.097   5.764   1.001
 3017SOL    HW2 9951   1.032   5.778   1.151
 3018SOL     OW 9952   3.672   0.487   6.537
 3018SOL    HW1 9953   3.692   0.407   6.594
 3018SOL    HW2 9954   3.576   0.487   6.512
 3019SOL     OW 9955   3.226   6.542   1.115
 3019SOL    HW1 9956   3.196   6.550   1.020
 3019SOL    HW2 9957   3.197   6.453   1.151
 3020SOL     OW 9958   3.690   3.896   1.448
 3020SOL    HW1 9959   3.789   3.908   1.449
 3020SOL    HW2 9960   3.665   3.840   1.369
 3021SOL     OW 9961   2.009   2.113   6.778
 3021SOL    HW1 9962   2.050   2.156   6.697
 3021SOL    HW2 9963   1.911   2.100   6.762
 3022SOL     OW 9964   3.928   5.885   2.601
 3022SOL    HW1 9965   3.842   5.891   2.552
 3022SOL    HW2 9966   3.924   5.808   2.665
 3023SOL     OW 9967   3.316   6.104   3.364
 3023SOL    HW1 9968   3.278   6.196   3.362
 3023SOL    HW2 9969   3.316   6.070   3.459
 3024SOL     OW 9970   2.743   1.003   6.365
 3024SOL    HW1 9971   2.766   0.929   6.428
 3024SOL    HW2 9972   2.672   1.060   6.406
 3025SOL     OW 9973   3.422   3.229   1.012
 3025SOL    HW1 9974   3.501   3.177   1.046
 3025SOL    HW2 9975   3.352   3.166   0.979
 3026SOL     OW 9976   1.439   3.529   0.929
 3026SOL    HW1 9977   1.461   3.464   0.857
 3026SOL    HW2 9978   1.358   3.497   0.979
 3027SOL     OW 9979   3.901   0.914   2.517
 3027SOL    HW1 9980   3.986   0.877   2.479
 3027SOL    HW2 9981   3.922   0.995   2.572
 3028SOL     OW 9982   1.436   4.871   6.833
 3028SOL    HW1 9983   1.378   4.813   6.889
 3028SOL    HW2 9984   1.408   4.865   6.737
 3029SOL     OW 9985   6.640   4.834   5.601
 3029SOL    HW1 9986   6.577   4.775   5.550
 3029SOL    HW2 9987   6.733   4.801   5.589
 3030SOL     OW 9988   1.004   1.685   5.675
 3030SOL    HW1 9989   1.043   1.687   5.583
 3030SOL    HW2 9990   1.078   1.675   5.742
 3031SOL     OW 9991   0.624   3.490   0.892
 3031SOL    HW1 9992   0.621   3.582   0.930
 3031SOL    HW2 9993   0.587   3.425   0.959
 3032SOL     OW 9994   5.287   0.406   6.894
 3032SOL    HW1 9995   5.325   0.479   6.837
 3032SOL    HW2 9996   5.300   0.429   6.990
 3033SOL     OW 9997   0.717   2.611   0.266
 3033SOL    HW1 9998   0.673   2.697   0.293
 3033SOL    HW2 9999   0.712   2.601   0.167
 3034SOL     OW10000   1.847   6.342   3.345
 3034SOL    HW110001   1.775   6.409   3.326
 3034SOL    HW210002   1.880   6.355   3.439
 3035SOL     OW10003   6.732   1.766   0.496
 3035SOL    HW110004   6.715   1.828   0.420
 3035SOL    HW210005   6.677   1.683   0.484
 3036SOL     OW10006   1.621   4.080   0.051
 3036SOL    HW110007   1.713   4.120   0.054
 3036SOL    HW210008   1.588   4.079   6.978
 3037SOL     OW10009   5.774   5.760   4.762
 3037SOL    HW110010   5.842   5.828   4.734
 3037SOL    HW210011   5.775   5.683   4.698
 3038SOL     OW10012   5.682   6.859   6.528
 3038SOL    HW110013   5.742   6.804   6.470
 3038SOL    HW210014   5.737   6.907   6.596
 3039SOL     OW10015   6.576   4.470   2.426
 3039SOL    HW110016   6.643   4.543   2.419
 3039SOL    HW210017   6.491   4.499   2.383
 3040SOL     OW10018   4.650   3.892   6.427
 3040SOL    HW110019   4.642   3.888   6.327
 3040SOL    HW210020   4.561   3.875   6.468
 3041SOL     OW10021   2.127   2.429   6.034
 3041SOL    HW110022   2.117   2.389   6.125
 3041SOL    HW210023   2.058   2.390   5.973
 3042SOL     OW10024   5.302   0.222   1.885
 3042SOL    HW110025   5.250   0.155   1.833
 3042SOL    HW210026   5.373   0.262   1.827
 3043SOL     OW10027   0.544   5.688   0.622
 3043SOL    HW110028   0.450   5.694   0.656
 3043SOL    HW210029   0.602   5.750   0.674
 3044SOL     OW10030   3.606   4.275   5.297
 3044SOL    HW110031   3.684   4.285   5.236
 3044SOL    HW210032   3.570   4.182   5.291
 3045SOL     OW10033   4.811   0.445   2.845
 3045SOL    HW110034   4.827   0.442   2.944
 3045SOL    HW210035   4.719   0.480   2.827
 3046SOL     OW10036   1.244   3.234   5.106
 3046SOL    HW110037   1.233   3.159   5.172
 3046SOL    HW210038   1.341   3.260   5.102
 3047SOL     OW10039   5.498   5.144   2.026
 3047SOL    HW110040   5.487   5.063   2.083
 3047SOL    HW210041   5.580   5.134   1.968
 3048SOL     OW10042   4.327   3.611   1.572
 3048SOL    HW110043   4.262   3.535   1.575
 3048SOL    HW210044   4.286   3.688   1.521
 3049SOL     OW10045   0.667   6.492   1.309
 3049SOL    HW110046   0.755   6.518   1.348
 3049SOL    HW210047   0.661   6.527   1.215
 3050SOL     OW10048   3.221   6.861   3.721
 3050SOL    HW110049   3.250   6.945   3.676
 3050SOL    HW210050   3.254   6.860   3.816
 3051SOL     OW10051   2.117   4.439   6.543
 3051SOL    HW110052   2.152   4.476   6.457
 3051SOL    HW210053   2.035   4.490   6.570
 3052SOL     OW10054   3.689   0.089   3.326
 3052SOL    HW110055   3.643   0.161   3.275
 3052SOL    HW210056   3.652   7.020   3.299
 3053SOL     OW10057   6.258   0.429   6.939
 3053SOL    HW110058   6.180   0.491   6.938
 3053SOL    HW210059   6.326   0.459   6.872
 3054SOL     OW10060   0.270   2.412   6.720
 3054SOL    HW110061   0.278   2.512   6.710
 3054SOL    HW210062   0.271   2.370   6.629
 3055SOL     OW10063   5.275   0.128   3.743
 3055SOL    HW110064   5.244   0.217   3.707
 3055SOL    HW210065   5.352   0.096   3.687
 3056SOL     OW10066   6.538   0.259   0.128
 3056SOL    HW110067   6.529   0.230   0.033
 3056SOL    HW210068   6.528   0.180   0.188
 3057SOL     OW10069   4.519   5.364   2.776
 3057SOL    HW110070   4.594   5.342   2.838
 3057SOL    HW210071   4.432   5.346   2.821
 3058SOL     OW10072   6.543   5.830   1.543
 3058SOL    HW110073   6.553   5.886   1.626
 3058SOL    HW210074   6.570   5.885   1.464
 3059SOL     OW10075   1.694   3.169   5.260
 3059SOL    HW110076   1.762   3.204   5.195
 3059SOL    HW210077   1.740   3.116   5.331
 3060SOL     OW10078   0.404   6.702   0.202
 3060SOL    HW110079   0.459   6.769   0.253
 3060SOL    HW210080   0.432   6.700   0.107
 3061SOL     OW10081   6.934   0.705   5.234
 3061SOL    HW110082   6.857   0.644   5.215
 3061SOL    HW210083   6.983   0.673   5.315
 3062SOL     OW10084   1.752   0.232   1.484
 3062SOL    HW110085   1.781   0.321   1.521
 3062SOL    HW210086   1.734   0.241   1.386
 3063SOL     OW10087   2.257   5.250   2.188
 3063SOL    HW110088   2.178   5.280   2.135
 3063SOL    HW210089   2.333   5.229   2.126
 3064SOL     OW10090   5.577   3.433   3.673
 3064SOL    HW110091   5.644   3.370   3.712
 3064SOL    HW210092   5.526   3.387   3.601
 3065SOL     OW10093   2.238   0.255   6.422
 3065SOL    HW110094   2.257   0.317   6.499
 3065SOL    HW210095   2.149   0.211   6.436
 3066SOL     OW10096   6.212   4.157   0.252
 3066SOL    HW110097   6.286   4.213   0.290
 3066SOL    HW210098   6.188   4.085   0.317
 3067SOL     OW10099   3.396   1.080   4.926
 3067SOL    HW110100   3.475   1.098   4.984
 3067SOL    HW210101   3.375   1.162   4.872
 3068SOL     OW10102   5.908   6.171   0.615
 3068SOL    HW110103   5.935   6.082   0.649
 3068SOL    HW210104   5.931   6.178   0.518
 3069SOL     OW10105   6.821   5.897   1.650
 3069SOL    HW110106   6.797   5.967   1.583
 3069SOL    HW210107   6.775   5.917   1.737
 3070SOL     OW10108   2.185   1.276   2.678
 3070SOL    HW110109   2.178   1.289   2.777
 3070SOL    HW210110   2.203   1.180   2.657
 3071SOL     OW10111   6.633   7.008   3.626
 3071SOL    HW110112   6.665   6.918   3.597
 3071SOL    HW210113   6.601   7.003   3.721
 3072SOL     OW10114   1.000   6.587   1.729
 3072SOL    HW110115   0.932   6.633   1.786
 3072SOL    HW210116   1.012   6.493   1.760
 3073SOL     OW10117   0.575   3.642   5.111
 3073SOL    HW110118   0.604   3.649   5.015
 3073SOL    HW210119   0.651   3.669   5.170
 3074SOL     OW10120   4.805   2.871   0.186
 3074SOL    HW110121   4.769   2.786   0.222
 3074SOL    HW210122   4.852   2.854   0.099
 3075SOL     OW10123   1.751   6.396   1.563
 3075SOL    HW110124   1.680   6.363   1.624
 3075SOL    HW210125   1.806   6.465   1.611
 3076SOL     OW10126   6.431   0.427   4.490
 3076SOL    HW110127   6.381   0.396   4.410
 3076SOL    HW210128   6.509   0.482   4.462
 3077SOL     OW10129   5.782   4.762   3.202
 3077SOL    HW110130   5.697   4.813   3.197
 3077SOL    HW210131   5.858   4.825   3.219
 3078SOL     OW10132   2.246   3.798   1.825
 3078SOL    HW110133   2.314   3.850   1.876
 3078SOL    HW210134   2.266   3.700   1.834
 3079SOL     OW10135   1.633   2.488   5.231
 3079SOL    HW110136   1.645   2.579   5.191
 3079SOL    HW210137   1.642   2.419   5.159
 3080SOL     OW10138   5.828   5.100   1.597
 3080SOL    HW110139   5.768   5.132   1.523
 3080SOL    HW210140   5.886   5.176   1.627
 3081SOL     OW10141   0.585   4.673   5.903
 3081SOL    HW110142   0.558   4.769   5.906
 3081SOL    HW210143   0.668   4.664   5.849
 3082SOL     OW10144   3.947   6.615   3.899
 3082SOL    HW110145   3.950   6.640   3.996
 3082SOL    HW210146   4.037   6.630   3.857
 3083SOL     OW10147   3.916   6.913   2.694
 3083SOL    HW110148   3.859   6.939   2.617
 3083SOL    HW210149   3.996   6.973   2.698
 3084SOL     OW10150   4.747   4.677   4.201
 3084SOL    HW110151   4.772   4.752   4.140
 3084SOL    HW210152   4.820   4.662   4.268
 3085SOL     OW10153   0.089   4.182   3.218
 3085SOL    HW110154   7.019   4.223   3.206
 3085SOL    HW210155   0.158   4.255   3.216
 3086SOL     OW10156   4.064   1.150   2.274
 3086SOL    HW110157   4.103   1.058   2.280
 3086SOL    HW210158   4.050   1.173   2.178
 3087SOL     OW10159   6.706   4.431   4.304
 3087SOL    HW110160   6.777   4.477   4.357
 3087SOL    HW210161   6.617   4.471   4.326
 3088SOL     OW10162   2.861   5.052   5.381
 3088SOL    HW110163   2.825   5.006   5.462
 3088SOL    HW210164   2.804   5.132   5.360
 3089SOL     OW10165   1.142   3.333   6.652
 3089SOL    HW110166   1.198   3.323   6.570
 3089SOL    HW210167   1.196   3.377   6.724
 3090SOL     OW10168   2.088   1.584   0.973
 3090SOL    HW110169   2.151   1.557   0.900
 3090SOL    HW210170   1.999   1.606   0.933
 3091SOL     OW10171   3.257   6.761   0.287
 3091SOL    HW110172   3.354   6.783   0.296
 3091SOL    HW210173   3.204   6.845   0.287
 3092SOL     OW10174   5.460   6.876   6.972
 3092SOL    HW110175   5.428   6.906   0.041
 3092SOL    HW210176   5.532   6.937   6.940
 3093SOL     OW10177   5.736   5.234   5.950
 3093SOL    HW110178   5.769   5.140   5.943
 3093SOL    HW210179   5.686   5.258   5.867
 3094SOL     OW10180   2.924   6.791   4.893
 3094SOL    HW110181   3.023   6.804   4.897
 3094SOL    HW210182   2.886   6.792   4.985
 3095SOL     OW10183   2.440   4.485   4.307
 3095SOL    HW110184   2.394   4.476   4.219
 3095SOL    HW210185   2.433   4.400   4.358
 3096SOL     OW10186   6.665   0.543   4.475
 3096SOL    HW110187   6.689   0.632   4.436
 3096SOL    HW210188   6.703   0.470   4.418
 3097SOL     OW10189   0.757   2.415   0.614
 3097SOL    HW110190   0.664   2.431   0.582
 3097SOL    HW210191   0.821   2.429   0.540
 3098SOL     OW10192   2.822   3.391   1.405
 3098SOL    HW110193   2.765   3.339   1.342
 3098SOL    HW210194   2.912   3.405   1.364
 3099SOL     OW10195   6.612   5.502   4.857
 3099SOL    HW110196   6.627   5.475   4.952
 3099SOL    HW210197   6.567   5.591   4.854
 3100SOL     OW10198   6.818   0.068   4.562
 3100SOL    HW110199   6.732   0.024   4.533
 3100SOL    HW210200   6.812   0.166   4.545
 3101SOL     OW10201   4.501   6.418   5.310
 3101SOL    HW110202   4.450   6.501   5.292
 3101SOL    HW210203   4.581   6.414   5.250
 3102SOL     OW10204   0.711   4.427   1.678
 3102SOL    HW110205   0.694   4.367   1.599
 3102SOL    HW210206   0.650   4.506   1.673
 3103SOL     OW10207   3.781   1.763   1.125
 3103SOL    HW110208   3.792   1.834   1.056
 3103SOL    HW210209   3.697   1.712   1.107
 3104SOL     OW10210   5.549   5.963   4.028
 3104SOL    HW110211   5.570   5.887   4.090
 3104SOL    HW210212   5.629   5.982   3.970
 3105SOL     OW10213   5.699   5.856   3.431
 3105SOL    HW110214   5.762   5.862   3.353
 3105SOL    HW210215   5.700   5.762   3.467
 3106SOL     OW10216   6.681   2.194   2.270
 3106SOL    HW110217   6.658   2.228   2.362
 3106SOL    HW210218   6.776   2.217   2.249
 3107SOL     OW10219   3.506   0.101   4.251
 3107SOL    HW110220   3.563   0.158   4.192
 3107SOL    HW210221   3.519   0.127   4.346
 3108SOL     OW10222   1.876   0.877   4.147
 3108SOL    HW110223   1.949   0.821   4.185
 3108SOL    HW210224   1.806   0.894   4.217
 3109SOL     OW10225   5.126   5.687   2.491
 3109SOL    HW110226   5.139   5.591   2.467
 3109SOL    HW210227   5.214   5.734   2.489
 3110SOL     OW10228   6.915   2.396   3.580
 3110SOL    HW110229   6.993   2.456   3.564
 3110SOL    HW210230   6.842   2.419   3.516
 3111SOL     OW10231   6.087   5.550   3.691
 3111SOL    HW110232   6.049   5.636   3.658
 3111SOL    HW210233   6.181   5.540   3.658
 3112SOL     OW10234   4.610   2.440   6.120
 3112SOL    HW110235   4.524   2.490   6.109
 3112SOL    HW210236   4.622   2.377   6.043
 3113SOL     OW10237   2.158   0.083   3.958
 3113SOL    HW110238   2.153   0.059   4.055
 3113SOL    HW210239   2.196   0.007   3.906
 3114SOL     OW10240   5.328   4.141   6.980
 3114SOL    HW110241   5.323   4.229   6.934
 3114SOL    HW210242   5.403   4.087   6.942
 3115SOL     OW10243   4.197   4.149   0.292
 3115SOL    HW110244   4.123   4.206   0.257
 3115SOL    HW210245   4.185   4.135   0.391
 3116SOL     OW10246   6.735   3.018   6.727
 3116SOL    HW110247   6.722   2.944   6.660
 3116SOL    HW210248   6.816   2.999   6.782
 3117SOL     OW10249   4.373   3.891   5.340
 3117SOL    HW110250   4.448   3.830   5.365
 3117SOL    HW210251   4.404   3.985   5.339
 3118SOL     OW10252   6.793   4.477   6.506
 3118SOL    HW110253   6.849   4.432   6.575
 3118SOL    HW210254   6.784   4.418   6.426
 3119SOL     OW10255   1.843   4.323   5.211
 3119SOL    HW110256   1.912   4.250   5.206
 3119SOL    HW210257   1.752   4.282   5.210
 3120SOL     OW10258   2.308   5.924   4.675
 3120SOL    HW110259   2.225   5.973   4.650
 3120SOL    HW210260   2.346   5.879   4.595
 3121SOL     OW10261   1.098   1.794   2.076
 3121SOL    HW110262   1.011   1.842   2.091
 3121SOL    HW210263   1.084   1.696   2.087
 3122SOL     OW10264   3.322   5.162   6.321
 3122SOL    HW110265   3.237   5.152   6.269
 3122SOL    HW210266   3.344   5.259   6.329
 3123SOL     OW10267   3.116   6.336   3.368
 3123SOL    HW110268   3.040   6.380   3.416
 3123SOL    HW210269   3.113   6.360   3.271
 3124SOL     OW10270   4.173   0.860   5.230
 3124SOL    HW110271   4.158   0.790   5.300
 3124SOL    HW210272   4.085   0.897   5.201
 3125SOL     OW10273   6.265   2.003   5.577
 3125SOL    HW110274   6.293   2.050   5.493
 3125SOL    HW210275   6.206   1.926   5.553
 3126SOL     OW10276   5.163   4.603   6.073
 3126SOL    HW110277   5.107   4.668   6.124
 3126SOL    HW210278   5.252   4.594   6.116
 3127SOL     OW10279   0.715   1.854   3.228
 3127SOL    HW110280   0.736   1.757   3.213
 3127SOL    HW210281   0.618   1.863   3.252
 3128SOL     OW10282   1.641   0.598   0.521
 3128SOL    HW110283   1.565   0.551   0.477
 3128SOL    HW210284   1.726   0.551   0.499
 3129SOL     OW10285   0.720   4.161   6.081
 3129SOL    HW110286   0.776   4.243   6.081
 3129SOL    HW210287   0.656   4.165   6.004
 3130SOL     OW10288   2.484   4.470   2.393
 3130SOL    HW110289   2.466   4.443   2.488
 3130SOL    HW210290   2.413   4.432   2.334
 3131SOL     OW10291   0.951   3.035   3.215
 3131SOL    HW110292   0.894   3.009   3.293
 3131SOL    HW210293   0.921   3.125   3.181
 3132SOL     OW10294   5.261   5.836   5.416
 3132SOL    HW110295   5.187   5.770   5.434
 3132SOL    HW210296   5.248   5.876   5.326
 3133SOL     OW10297   2.300   2.110   4.294
 3133SOL    HW110298   2.396   2.130   4.275
 3133SOL    HW210299   2.250   2.100   4.208
 3134SOL     OW10300   4.996   3.286   1.496
 3134SOL    HW110301   4.970   3.365   1.441
 3134SOL    HW210302   4.966   3.300   1.591
 3135SOL     OW10303   3.951   1.924   4.681
 3135SOL    HW110304   3.997   1.848   4.727
 3135SOL    HW210305   3.945   1.904   4.583
 3136SOL     OW10306   6.141   6.069   6.274
 3136SOL    HW110307   6.176   6.053   6.182
 3136SOL    HW210308   6.214   6.057   6.340
 3137SOL     OW10309   4.705   1.559   3.881
 3137SOL    HW110310   4.677   1.652   3.861
 3137SOL    HW210311   4.804   1.550   3.869
 3138SOL     OW10312   6.100   1.864   4.495
 3138SOL    HW110313   6.132   1.892   4.585
 3138SOL    HW210314   6.146   1.918   4.424
 3139SOL     OW10315   5.248   6.652   6.080
 3139SOL    HW110316   5.215   6.562   6.053
 3139SOL    HW210317   5.284   6.648   6.173
 3140SOL     OW10318   6.540   6.983   6.719
 3140SOL    HW110319   6.616   6.956   6.778
 3140SOL    HW210320   6.516   6.907   6.659
 3141SOL     OW10321   0.602   6.211   6.846
 3141SOL    HW110322   0.612   6.225   6.747
 3141SOL    HW210323   0.523   6.262   6.880
 3142SOL     OW10324   4.754   6.090   0.398
 3142SOL    HW110325   4.658   6.088   0.427
 3142SOL    HW210326   4.793   6.180   0.416
 3143SOL     OW10327   0.076   2.134   6.728
 3143SOL    HW110328   0.015   2.212   6.718
 3143SOL    HW210329   0.141   2.133   6.652
 3144SOL     OW10330   2.197   3.593   1.144
 3144SOL    HW110331   2.111   3.547   1.165
 3144SOL    HW210332   2.178   3.675   1.090
 3145SOL     OW10333   2.986   5.862   2.771
 3145SOL    HW110334   2.983   5.773   2.818
 3145SOL    HW210335   3.067   5.912   2.800
 3146SOL     OW10336   1.714   6.566   3.303
 3146SOL    HW110337   1.681   6.582   3.396
 3146SOL    HW210338   1.805   6.606   3.293
 3147SOL     OW10339   4.473   5.103   0.599
 3147SOL    HW110340   4.471   5.043   0.519
 3147SOL    HW210341   4.542   5.175   0.584
 3148SOL     OW10342   3.988   5.380   3.922
 3148SOL    HW110343   3.917   5.359   3.989
 3148SOL    HW210344   4.051   5.302   3.915
 3149SOL     OW10345   3.315   0.816   5.405
 3149SOL    HW110346   3.357   0.896   5.361
 3149SOL    HW210347   3.234   0.788   5.353
 3150SOL     OW10348   5.142   6.403   4.474
 3150SOL    HW110349   5.191   6.316   4.472
 3150SOL    HW210350   5.197   6.472   4.521
 3151SOL     OW10351   4.737   1.382   6.484
 3151SOL    HW110352   4.812   1.414   6.542
 3151SOL    HW210353   4.772   1.364   6.392
 3152SOL     OW10354   0.247   5.339   1.527
 3152SOL    HW110355   0.275   5.327   1.622
 3152SOL    HW210356   0.295   5.274   1.468
 3153SOL     OW10357   6.002   4.269   1.197
 3153SOL    HW110358   6.091   4.276   1.241
 3153SOL    HW210359   5.938   4.222   1.258
 3154SOL     OW10360   6.685   2.420   6.758
 3154SOL    HW110361   6.725   2.509   6.734
 3154SOL    HW210362   6.648   2.377   6.676
 3155SOL     OW10363   6.319   4.811   1.159
 3155SOL    HW110364   6.309   4.795   1.257
 3155SOL    HW210365   6.394   4.876   1.144
 3156SOL     OW10366   4.055   3.785   2.943
 3156SOL    HW110367   3.958   3.761   2.957
 3156SOL    HW210368   4.064   3.841   2.861
 3157SOL     OW10369   2.144   3.716   4.804
 3157SOL    HW110370   2.064   3.676   4.850
 3157SOL    HW210371   2.161   3.667   4.718
 3158SOL     OW10372   5.233   0.168   1.505
 3158SOL    HW110373   5.168   0.217   1.563
 3158SOL    HW210374   5.315   0.225   1.492
 3159SOL     OW10375   5.095   5.928   6.146
 3159SOL    HW110376   5.134   5.837   6.163
 3159SOL    HW210377   5.123   5.960   6.056
 3160SOL     OW10378   6.030   3.909   6.062
 3160SOL    HW110379   6.017   3.922   6.160
 3160SOL    HW210380   5.960   3.959   6.012
 3161SOL     OW10381   1.560   1.094   2.672
 3161SOL    HW110382   1.500   1.143   2.735
 3161SOL    HW210383   1.624   1.037   2.724
 3162SOL     OW10384   6.984   5.354   6.958
 3162SOL    HW110385   6.960   5.261   6.983
 3162SOL    HW210386   6.918   5.418   6.998
 3163SOL     OW10387   3.969   3.275   6.694
 3163SOL    HW110388   3.952   3.189   6.742
 3163SOL    HW210389   4.046   3.322   6.736
 3164SOL     OW10390   5.326   4.227   0.923
 3164SOL    HW110391   5.415   4.222   0.969
 3164SOL    HW210392   5.290   4.135   0.911
 3165SOL     OW10393   0.905   0.100   1.993
 3165SOL    HW110394   0.966   0.101   1.914
 3165SOL    HW210395   0.948   0.150   2.068
 3166SOL     OW10396   4.738   2.768   6.251
 3166SOL    HW110397   4.736   2.864   6.225
 3166SOL    HW210398   4.832   2.741   6.273
 3167SOL     OW10399   0.170   4.199   1.705
 3167SOL    HW110400   0.256   4.204   1.654
 3167SOL    HW210401   0.126   4.288   1.706
 3168SOL     OW10402   5.519   2.926   0.547
 3168SOL    HW110403   5.587   2.853   0.541
 3168SOL    HW210404   5.528   2.974   0.634
 3169SOL     OW10405   1.030   3.171   5.929
 3169SOL    HW110406   1.068   3.122   5.850
 3169SOL    HW210407   0.945   3.126   5.958
 3170SOL     OW10408   4.366   0.200   6.844
 3170SOL    HW110409   4.313   0.195   6.759
 3170SOL    HW210410   4.462   0.180   6.824
 3171SOL     OW10411   6.676   0.319   2.019
 3171SOL    HW110412   6.627   0.371   2.089
 3171SOL    HW210413   6.712   0.235   2.060
 3172SOL     OW10414   6.745   6.328   4.864
 3172SOL    HW110415   6.779   6.307   4.772
 3172SOL    HW210416   6.646   6.335   4.863
 3173SOL     OW10417   2.270   0.408   1.903
 3173SOL    HW110418   2.257   0.506   1.915
 3173SOL    HW210419   2.299   0.367   1.990
 3174SOL     OW10420   3.174   2.867   5.618
 3174SOL    HW110421   3.208   2.961   5.629
 3174SOL    HW210422   3.084   2.870   5.574
 3175SOL     OW10423   1.023   6.281   6.787
 3175SOL    HW110424   1.093   6.306   6.854
 3175SOL    HW210425   0.933   6.308   6.821
 3176SOL     OW10426   1.512   4.420   6.253
 3176SOL    HW110427   1.529   4.451   6.160
 3176SOL    HW210428   1.429   4.363   6.255
 3177SOL     OW10429   5.353   5.169   5.426
 3177SOL    HW110430   5.399   5.239   5.371
 3177SOL    HW210431   5.274   5.134   5.375
 3178SOL     OW10432   0.422   4.195   2.212
 3178SOL    HW110433   0.352   4.244   2.265
 3178SOL    HW210434   0.464   4.125   2.270
 3179SOL     OW10435   2.091   2.386   2.638
 3179SOL    HW110436   2.131   2.399   2.729
 3179SOL    HW210437   2.043   2.469   2.610
 3180SOL     OW10438   5.312   0.375   5.453
 3180SOL    HW110439   5.298   0.284   5.415
 3180SOL    HW210440   5.259   0.441   5.401
 3181SOL     OW10441   0.434   0.970   3.557
 3181SOL    HW110442   0.409   1.067   3.565
 3181SOL    HW210443   0.358   0.919   3.517
 3182SOL     OW10444   0.175   6.386   5.669
 3182SOL    HW110445   0.261   6.427   5.701
 3182SOL    HW210446   0.186   6.354   5.575
 3183SOL     OW10447   4.462   5.010   1.662
 3183SOL    HW110448   4.401   4.933   1.639
 3183SOL    HW210449   4.546   5.003   1.608
 3184SOL     OW10450   2.651   1.995   2.596
 3184SOL    HW110451   2.589   2.070   2.574
 3184SOL    HW210452   2.659   1.933   2.517
 3185SOL     OW10453   0.449   6.873   5.342
 3185SOL    HW110454   0.496   6.957   5.369
 3185SOL    HW210455   0.395   6.890   5.260
 3186SOL     OW10456   3.393   1.158   2.707
 3186SOL    HW110457   3.324   1.230   2.697
 3186SOL    HW210458   3.408   1.114   2.618
 3187SOL     OW10459   3.461   4.343   6.982
 3187SOL    HW110460   3.481   4.275   6.911
 3187SOL    HW210461   3.524   4.420   6.974
 3188SOL     OW10462   3.484   5.664   2.796
 3188SOL    HW110463   3.393   5.632   2.768
 3188SOL    HW210464   3.475   5.737   2.863
 3189SOL     OW10465   1.120   0.638   3.382
 3189SOL    HW110466   1.027   0.648   3.346
 3189SOL    HW210467   1.169   0.569   3.329
 3190SOL     OW10468   1.542   5.839   1.687
 3190SOL    HW110469   1.494   5.926   1.675
 3190SOL    HW210470   1.491   5.767   1.641
 3191SOL     OW10471   4.048   0.742   0.853
 3191SOL    HW110472   4.141   0.737   0.891
 3191SOL    HW210473   3.986   0.779   0.922
 3192SOL     OW10474   0.591   2.400   1.657
 3192SOL    HW110475   0.579   2.334   1.731
 3192SOL    HW210476   0.629   2.485   1.693
 3193SOL     OW10477   4.565   1.699   6.493
 3193SOL    HW110478   4.558   1.601   6.509
 3193SOL    HW210479   4.655   1.720   6.453
 3194SOL     OW10480   1.604   3.744   6.223
 3194SOL    HW110481   1.592   3.801   6.304
 3194SOL    HW210482   1.678   3.782   6.166
 3195SOL     OW10483   1.443   3.098   3.862
 3195SOL    HW110484   1.383   3.046   3.801
 3195SOL    HW210485   1.485   3.036   3.928
 3196SOL     OW10486   0.458   0.410   4.897
 3196SOL    HW110487   0.494   0.429   4.989
 3196SOL    HW210488   0.388   0.339   4.902
 3197SOL     OW10489   1.464   5.584   3.604
 3197SOL    HW110490   1.436   5.618   3.694
 3197SOL    HW210491   1.525   5.506   3.615
 3198SOL     OW10492   0.388   1.698   5.991
 3198SOL    HW110493   0.469   1.703   5.933
 3198SOL    HW210494   0.334   1.781   5.980
 3199SOL     OW10495   4.345   1.330   2.446
 3199SOL    HW110496   4.403   1.318   2.526
 3199SOL    HW210497   4.252   1.352   2.476
 3200SOL     OW10498   0.091   1.890   0.382
 3200SOL    HW110499   0.046   1.947   0.314
 3200SOL    HW210500   0.042   1.896   0.469
 3201SOL     OW10501   5.746   3.716   3.965
 3201SOL    HW110502   5.782   3.799   3.921
 3201SOL    HW210503   5.677   3.674   3.907
 3202SOL     OW10504   1.591   5.020   1.739
 3202SOL    HW110505   1.670   5.046   1.794
 3202SOL    HW210506   1.564   4.926   1.761
 3203SOL     OW10507   0.040   1.044   1.187
 3203SOL    HW110508   0.026   1.003   1.097
 3203SOL    HW210509   7.008   1.129   1.193
 3204SOL     OW10510   6.364   5.690   2.084
 3204SOL    HW110511   6.271   5.672   2.052
 3204SOL    HW210512   6.429   5.672   2.011
 3205SOL     OW10513   6.730   3.286   5.145
 3205SOL    HW110514   6.805   3.294   5.079
 3205SOL    HW210515   6.708   3.377   5.181
 3206SOL     OW10516   0.983   6.610   5.433
 3206SOL    HW110517   0.885   6.587   5.432
 3206SOL    HW210518   1.026   6.574   5.350
 3207SOL     OW10519   0.927   0.694   4.897
 3207SOL    HW110520   0.957   0.635   4.823
 3207SOL    HW210521   0.828   0.687   4.908
 3208SOL     OW10522   4.547   5.832   5.339
 3208SOL    HW110523   4.458   5.787   5.343
 3208SOL    HW210524   4.565   5.879   5.425
 3209SOL     OW10525   2.354   0.279   3.816
 3209SOL    HW110526   2.290   0.204   3.833
 3209SOL    HW210527   2.429   0.274   3.882
 3210SOL     OW10528   0.057   4.534   2.748
 3210SOL    HW110529   0.033   4.439   2.764
 3210SOL    HW210530   7.005   4.593   2.784
 3211SOL     OW10531   2.129   4.349   1.380
 3211SOL    HW110532   2.123   4.429   1.321
 3211SOL    HW210533   2.157   4.377   1.471
 3212SOL     OW10534   4.356   2.384   6.578
 3212SOL    HW110535   4.274   2.346   6.621
 3212SOL    HW210536   4.354   2.483   6.585
 3213SOL     OW10537   5.934   5.758   2.985
 3213SOL    HW110538   5.878   5.836   3.013
 3213SOL    HW210539   5.877   5.675   2.983
 3214SOL     OW10540   4.480   6.385   6.878
 3214SOL    HW110541   4.507   6.400   6.782
 3214SOL    HW210542   4.517   6.458   6.935
 3215SOL     OW10543   6.417   2.830   6.698
 3215SOL    HW110544   6.373   2.784   6.620
 3215SOL    HW210545   6.429   2.927   6.677
 3216SOL     OW10546   5.456   6.890   3.588
 3216SOL    HW110547   5.381   6.846   3.637
 3216SOL    HW210548   5.506   6.822   3.534
 3217SOL     OW10549   0.293   4.337   2.415
 3217SOL    HW110550   0.373   4.344   2.474
 3217SOL    HW210551   0.214   4.379   2.459
 3218SOL     OW10552   3.969   0.451   3.308
 3218SOL    HW110553   4.059   0.487   3.330
 3218SOL    HW210554   3.948   0.373   3.367
 3219SOL     OW10555   0.588   0.052   3.286
 3219SOL    HW110556   0.653   0.079   3.215
 3219SOL    HW210557   0.517   0.122   3.294
 3220SOL     OW10558   6.995   4.602   5.163
 3220SOL    HW110559   6.937   4.531   5.124
 3220SOL    HW210560   0.017   4.568   5.247
 3221SOL     OW10561   2.703   6.931   3.680
 3221SOL    HW110562   2.794   6.969   3.665
 3221SOL    HW210563   2.696   6.842   3.636
 3222SOL     OW10564   5.415   2.115   2.794
 3222SOL    HW110565   5.404   2.017   2.810
 3222SOL    HW210566   5.502   2.131   2.748
 3223SOL     OW10567   2.578   4.725   6.081
 3223SOL    HW110568   2.522   4.805   6.103
 3223SOL    HW210569   2.646   4.749   6.012
 3224SOL     OW10570   3.831   5.370   0.286
 3224SOL    HW110571   3.821   5.423   0.201
 3224SOL    HW210572   3.891   5.420   0.349
 3225SOL     OW10573   3.213   3.835   0.226
 3225SOL    HW110574   3.281   3.885   0.173
 3225SOL    HW210575   3.131   3.820   0.171
 3226SOL     OW10576   1.580   0.928   4.046
 3226SOL    HW110577   1.497   0.873   4.034
 3226SOL    HW210578   1.630   0.932   3.960
 3227SOL     OW10579   3.779   1.322   5.622
 3227SOL    HW110580   3.688   1.281   5.612
 3227SOL    HW210581   3.770   1.421   5.633
 3228SOL     OW10582   5.423   3.798   4.429
 3228SOL    HW110583   5.385   3.710   4.459
 3228SOL    HW210584   5.457   3.789   4.335
 3229SOL     OW10585   4.157   1.421   5.586
 3229SOL    HW110586   4.201   1.382   5.505
 3229SOL    HW210587   4.131   1.346   5.648
 3230SOL     OW10588   0.645   0.597   3.208
 3230SOL    HW110589   0.574   0.539   3.170
 3230SOL    HW210590   0.715   0.540   3.252
 3231SOL     OW10591   6.025   5.986   0.853
 3231SOL    HW110592   6.056   5.894   0.878
 3231SOL    HW210593   6.094   6.053   0.881
 3232SOL     OW10594   2.798   4.848   4.474
 3232SOL    HW110595   2.793   4.898   4.561
 3232SOL    HW210596   2.726   4.779   4.471
 3233SOL     OW10597   0.393   4.003   1.319
 3233SOL    HW110598   0.407   3.938   1.244
 3233SOL    HW210599   0.466   4.071   1.318
 3234SOL     OW10600   0.336   1.513   6.576
 3234SOL    HW110601   0.358   1.552   6.487
 3234SOL    HW210602   0.359   1.416   6.577
 3235SOL     OW10603   5.498   6.574   2.836
 3235SOL    HW110604   5.548   6.517   2.769
 3235SOL    HW210605   5.482   6.520   2.919
 3236SOL     OW10606   1.426   3.025   2.857
 3236SOL    HW110607   1.413   3.110   2.807
 3236SOL    HW210608   1.416   2.947   2.795
 3237SOL     OW10609   3.752   6.925   4.854
 3237SOL    HW110610   3.850   6.940   4.841
 3237SOL    HW210611   3.737   6.869   4.935
 3238SOL     OW10612   0.371   6.521   6.173
 3238SOL    HW110613   0.413   6.513   6.083
 3238SOL    HW210614   0.320   6.437   6.194
 3239SOL     OW10615   6.517   0.161   5.577
 3239SOL    HW110616   6.421   0.184   5.566
 3239SOL    HW210617   6.543   0.090   5.511
 3240SOL     OW10618   1.425   0.336   4.410
 3240SOL    HW110619   1.333   0.349   4.372
 3240SOL    HW210620   1.493   0.363   4.342
 3241SOL     OW10621   4.879   1.077   4.137
 3241SOL    HW110622   4.859   1.175   4.138
 3241SOL    HW210623   4.882   1.045   4.042
 3242SOL     OW10624   4.072   6.561   6.651
 3242SOL    HW110625   3.982   6.584   6.612
 3242SOL    HW210626   4.142   6.617   6.606
 3243SOL     OW10627   4.345   5.390   0.208
 3243SOL    HW110628   4.410   5.466   0.201
 3243SOL    HW210629   4.257   5.418   0.170
 3244SOL     OW10630   3.250   5.787   6.744
 3244SOL    HW110631   3.289   5.808   6.654
 3244SOL    HW210632   3.320   5.747   6.802
 3245SOL     OW10633   3.629   2.563   6.910
 3245SOL    HW110634   3.619   2.608   6.821
 3245SOL    HW210635   3.676   2.476   6.898
 3246SOL     OW10636   5.182   6.344   2.782
 3246SOL    HW110637   5.266   6.291   2.783
 3246SOL    HW210638   5.108   6.291   2.823
 3247SOL     OW10639   0.067   2.607   3.565
 3247SOL    HW110640   0.019   2.671   3.505
 3247SOL    HW210641   0.036   2.621   3.659
 3248SOL     OW10642   6.111   3.268   1.646
 3248SOL    HW110643   6.206   3.261   1.616
 3248SOL    HW210644   6.076   3.359   1.627
 3249SOL     OW10645   2.752   4.772   4.939
 3249SOL    HW110646   2.774   4.695   4.999
 3249SOL    HW210647   2.695   4.740   4.863
 3250SOL     OW10648   4.573   6.662   2.544
 3250SOL    HW110649   4.552   6.742   2.487
 3250SOL    HW210650   4.494   6.601   2.546
 3251SOL     OW10651   3.249   2.061   2.979
 3251SOL    HW110652   3.278   2.066   2.884
 3251SOL    HW210653   3.274   1.972   3.017
 3252SOL     OW10654   2.747   0.901   2.718
 3252SOL    HW110655   2.805   0.896   2.799
 3252SOL    HW210656   2.799   0.872   2.638
 3253SOL     OW10657   5.324   2.947   1.234
 3253SOL    HW110658   5.256   3.020   1.231
 3253SOL    HW210659   5.298   2.879   1.302
 3254SOL     OW10660   4.394   4.768   3.172
 3254SOL    HW110661   4.443   4.811   3.248
 3254SOL    HW210662   4.321   4.829   3.142
 3255SOL     OW10663   4.290   5.652   0.402
 3255SOL    HW110664   4.345   5.587   0.455
 3255SOL    HW210665   4.282   5.738   0.452
 3256SOL     OW10666   5.160   6.980   5.606
 3256SOL    HW110667   5.095   6.908   5.580
 3256SOL    HW210668   5.181   6.972   5.703
 3257SOL     OW10669   1.241   2.292   1.249
 3257SOL    HW110670   1.287   2.310   1.335
 3257SOL    HW210671   1.193   2.374   1.218
 3258SOL     OW10672   5.161   6.662   1.970
 3258SOL    HW110673   5.176   6.688   2.065
 3258SOL    HW210674   5.085   6.597   1.963
 3259SOL     OW10675   4.346   6.569   3.999
 3259SOL    HW110676   4.265   6.526   4.040
 3259SOL    HW210677   4.394   6.622   4.068
 3260SOL     OW10678   2.627   1.927   0.044
 3260SOL    HW110679   2.713   1.909   7.019
 3260SOL    HW210680   2.595   2.019   0.021
 3261SOL     OW10681   4.826   6.924   1.128
 3261SOL    HW110682   4.869   7.010   1.100
 3261SOL    HW210683   4.852   6.852   1.064
 3262SOL     OW10684   3.763   1.814   3.228
 3262SOL    HW110685   3.742   1.801   3.324
 3262SOL    HW210686   3.793   1.908   3.212
 3263SOL     OW10687   4.652   6.954   1.813
 3263SOL    HW110688   4.634   6.856   1.818
 3263SOL    HW210689   4.719   6.972   1.741
 3264SOL     OW10690   6.530   4.593   6.831
 3264SOL    HW110691   6.430   4.601   6.838
 3264SOL    HW210692   6.570   4.585   6.922
 3265SOL     OW10693   5.208   0.682   5.996
 3265SOL    HW110694   5.158   0.611   6.045
 3265SOL    HW210695   5.144   0.739   5.946
 3266SOL     OW10696   1.057   1.550   6.474
 3266SOL    HW110697   1.111   1.612   6.530
 3266SOL    HW210698   0.994   1.602   6.417
 3267SOL     OW10699   3.501   2.079   1.215
 3267SOL    HW110700   3.456   2.135   1.284
 3267SOL    HW210701   3.600   2.090   1.221
 3268SOL     OW10702   1.045   4.471   6.296
 3268SOL    HW110703   1.141   4.491   6.317
 3268SOL    HW210704   0.997   4.557   6.278
 3269SOL     OW10705   4.035   4.500   1.097
 3269SOL    HW110706   4.065   4.593   1.073
 3269SOL    HW210707   4.085   4.468   1.177
 3270SOL     OW10708   0.734   5.662   4.632
 3270SOL    HW110709   0.708   5.643   4.727
 3270SOL    HW210710   0.786   5.585   4.596
 3271SOL     OW10711   6.198   2.232   0.818
 3271SOL    HW110712   6.120   2.177   0.848
 3271SOL    HW210713   6.171   2.289   0.740
 3272SOL     OW10714   3.739   0.219   0.686
 3272SOL    HW110715   3.827   0.250   0.651
 3272SOL    HW210716   3.727   0.122   0.666
 3273SOL     OW10717   0.334   6.871   2.482
 3273SOL    HW110718   0.388   6.790   2.460
 3273SOL    HW210719   0.255   6.845   2.537
 3274SOL     OW10720   3.108   2.174   5.893
 3274SOL    HW110721   3.042   2.244   5.923
 3274SOL    HW210722   3.201   2.207   5.912
 3275SOL     OW10723   2.018   0.472   0.081
 3275SOL    HW110724   2.085   0.544   0.097
 3275SOL    HW210725   2.062   0.383   0.088
 3276SOL     OW10726   3.309   6.266   6.738
 3276SOL    HW110727   3.384   6.262   6.672
 3276SOL    HW210728   3.226   6.301   6.693
 3277SOL     OW10729   6.941   5.721   4.922
 3277SOL    HW110730   6.875   5.696   4.993
 3277SOL    HW210731   6.942   5.820   4.911
 3278SOL     OW10732   1.363   0.623   6.087
 3278SOL    HW110733   1.338   0.645   5.993
 3278SOL    HW210734   1.281   0.627   6.145
 3279SOL     OW10735   0.815   6.844   1.102
 3279SOL    HW110736   0.839   6.887   1.190
 3279SOL    HW210737   0.826   6.910   1.028
 3280SOL     OW10738   1.709   4.918   6.010
 3280SOL    HW110739   1.618   4.953   5.988
 3280SOL    HW210740   1.725   4.925   6.108
 3281SOL     OW10741   2.620   5.666   0.490
 3281SOL    HW110742   2.555   5.729   0.532
 3281SOL    HW210743   2.706   5.667   0.541
 3282SOL     OW10744   2.225   5.262   3.081
 3282SOL    HW110745   2.133   5.238   3.111
 3282SOL    HW210746   2.224   5.282   2.983
 3283SOL     OW10747   2.342   1.245   3.559
 3283SOL    HW110748   2.432   1.285   3.541
 3283SOL    HW210749   2.350   1.145   3.559
 3284SOL     OW10750   6.657   4.799   6.672
 3284SOL    HW110751   6.599   4.878   6.651
 3284SOL    HW210752   6.612   4.742   6.741
 3285SOL     OW10753   0.718   1.570   3.410
 3285SOL    HW110754   0.737   1.606   3.501
 3285SOL    HW210755   0.799   1.577   3.353
 3286SOL     OW10756   3.619   3.496   4.751
 3286SOL    HW110757   3.683   3.500   4.828
 3286SOL    HW210758   3.633   3.576   4.692
 3287SOL     OW10759   1.914   5.169   0.539
 3287SOL    HW110760   1.882   5.263   0.528
 3287SOL    HW210761   1.944   5.133   0.451
 3288SOL     OW10762   0.532   6.166   6.162
 3288SOL    HW110763   0.533   6.156   6.063
 3288SOL    HW210764   0.448   6.214   6.189
 3289SOL     OW10765   1.082   6.337   4.840
 3289SOL    HW110766   1.155   6.275   4.812
 3289SOL    HW210767   1.123   6.420   4.880
 3290SOL     OW10768   6.486   5.454   1.245
 3290SOL    HW110769   6.398   5.501   1.246
 3290SOL    HW210770   6.493   5.394   1.325
 3291SOL     OW10771   1.246   6.280   0.450
 3291SOL    HW110772   1.322   6.312   0.394
 3291SOL    HW210773   1.279   6.260   0.542
 3292SOL     OW10774   6.671   6.945   5.559
 3292SOL    HW110775   6.642   7.001   5.637
 3292SOL    HW210776   6.758   6.901   5.581
 3293SOL     OW10777   6.907   1.108   2.941
 3293SOL    HW110778   6.827   1.064   2.901
 3293SOL    HW210779   6.880   1.198   2.977
 3294SOL     OW10780   0.350   0.509   6.996
 3294SOL    HW110781   0.267   0.565   6.991
 3294SOL    HW210782   0.325   0.413   6.999
 3295SOL     OW10783   1.665   3.462   0.486
 3295SOL    HW110784   1.716   3.401   0.425
 3295SOL    HW210785   1.598   3.513   0.433
 3296SOL     OW10786   2.320   6.644   2.065
 3296SOL    HW110787   2.360   6.553   2.074
 3296SOL    HW210788   2.271   6.667   2.149
 3297SOL     OW10789   3.205   2.544   6.449
 3297SOL    HW110790   3.239   2.496   6.530
 3297SOL    HW210791   3.122   2.499   6.416
 3298SOL     OW10792   6.423   3.407   2.531
 3298SOL    HW110793   6.478   3.333   2.490
 3298SOL    HW210794   6.331   3.405   2.491
 3299SOL     OW10795   1.714   0.066   5.060
 3299SOL    HW110796   1.657   0.011   5.121
 3299SOL    HW210797   1.746   0.147   5.109
 3300SOL     OW10798   6.387   6.161   4.659
 3300SOL    HW110799   6.369   6.227   4.731
 3300SOL    HW210800   6.476   6.117   4.675
 3301SOL     OW10801   0.491   3.388   3.213
 3301SOL    HW110802   0.478   3.369   3.116
 3301SOL    HW210803   0.475   3.305   3.266
 3302SOL     OW10804   1.113   4.584   3.773
 3302SOL    HW110805   1.202   4.606   3.731
 3302SOL    HW210806   1.079   4.663   3.823
 3303SOL     OW10807   3.855   3.549   3.725
 3303SOL    HW110808   3.864   3.450   3.722
 3303SOL    HW210809   3.775   3.574   3.780
 3304SOL     OW10810   0.733   6.334   4.175
 3304SOL    HW110811   0.661   6.403   4.178
 3304SOL    HW210812   0.720   6.270   4.251
 3305SOL     OW10813   2.274   1.174   2.376
 3305SOL    HW110814   2.196   1.224   2.413
 3305SOL    HW210815   2.252   1.077   2.369
 3306SOL     OW10816   2.066   4.107   3.344
 3306SOL    HW110817   2.094   4.102   3.440
 3306SOL    HW210818   1.979   4.157   3.337
 3307SOL     OW10819   6.854   5.869   0.483
 3307SOL    HW110820   6.809   5.916   0.408
 3307SOL    HW210821   6.953   5.871   0.469
 3308SOL     OW10822   5.070   6.014   0.893
 3308SOL    HW110823   5.021   5.960   0.824
 3308SOL    HW210824   5.013   6.090   0.922
 3309SOL     OW10825   0.440   4.864   2.840
 3309SOL    HW110826   0.506   4.932   2.870
 3309SOL    HW210827   0.488   4.783   2.806
 3310SOL     OW10828   0.737   5.370   2.588
 3310SOL    HW110829   0.780   5.292   2.633
 3310SOL    HW210830   0.725   5.444   2.654
 3311SOL     OW10831   4.322   6.599   1.067
 3311SOL    HW110832   4.416   6.608   1.034
 3311SOL    HW210833   4.263   6.576   0.990
 3312SOL     OW10834   3.361   3.676   6.443
 3312SOL    HW110835   3.319   3.744   6.383
 3312SOL    HW210836   3.291   3.635   6.501
 3313SOL     OW10837   0.057   5.227   3.857
 3313SOL    HW110838   0.052   5.250   3.760
 3313SOL    HW210839   0.140   5.265   3.896
 3314SOL     OW10840   1.465   3.343   5.333
 3314SOL    HW110841   1.511   3.413   5.388
 3314SOL    HW210842   1.534   3.281   5.294
 3315SOL     OW10843   0.197   1.830   3.868
 3315SOL    HW110844   0.257   1.781   3.805
 3315SOL    HW210845   0.191   1.926   3.839
 3316SOL     OW10846   4.944   1.970   6.819
 3316SOL    HW110847   5.020   1.939   6.876
 3316SOL    HW210848   4.898   2.046   6.864
 3317SOL     OW10849   4.261   2.507   0.996
 3317SOL    HW110850   4.210   2.428   1.029
 3317SOL    HW210851   4.346   2.516   1.048
 3318SOL     OW10852   2.713   5.581   5.448
 3318SOL    HW110853   2.701   5.618   5.356
 3318SOL    HW210854   2.806   5.545   5.457
 3319SOL     OW10855   0.391   5.984   4.685
 3319SOL    HW110856   0.434   6.024   4.604
 3319SOL    HW210857   0.429   5.894   4.701
 3320SOL     OW10858   6.084   1.303   5.901
 3320SOL    HW110859   6.006   1.278   5.843
 3320SOL    HW210860   6.169   1.273   5.857
 3321SOL     OW10861   3.188   3.350   3.090
 3321SOL    HW110862   3.238   3.415   3.147
 3321SOL    HW210863   3.190   3.260   3.133
 3322SOL     OW10864   4.181   1.739   0.439
 3322SOL    HW110865   4.247   1.797   0.392
 3322SOL    HW210866   4.229   1.674   0.498
 3323SOL     OW10867   2.441   5.008   0.306
 3323SOL    HW110868   2.463   4.939   0.376
 3323SOL    HW210869   2.352   5.048   0.326
 3324SOL     OW10870   0.830   3.456   0.485
 3324SOL    HW110871   0.876   3.458   0.397
 3324SOL    HW210872   0.815   3.549   0.518
 3325SOL     OW10873   1.550   2.644   1.097
 3325SOL    HW110874   1.592   2.574   1.039
 3325SOL    HW210875   1.465   2.676   1.054
 3326SOL     OW10876   6.417   1.561   1.023
 3326SOL    HW110877   6.467   1.476   1.009
 3326SOL    HW210878   6.387   1.598   0.935
 3327SOL     OW10879   2.923   0.034   2.159
 3327SOL    HW110880   3.012   0.035   2.112
 3327SOL    HW210881   2.921   6.980   2.225
 3328SOL     OW10882   5.007   0.833   2.116
 3328SOL    HW110883   4.983   0.901   2.184
 3328SOL    HW210884   5.058   0.759   2.159
 3329SOL     OW10885   4.819   0.357   5.334
 3329SOL    HW110886   4.863   0.403   5.257
 3329SOL    HW210887   4.862   0.267   5.348
 3330SOL     OW10888   6.413   6.356   2.667
 3330SOL    HW110889   6.387   6.333   2.574
 3330SOL    HW210890   6.337   6.338   2.729
 3331SOL     OW10891   2.140   3.624   2.526
 3331SOL    HW110892   2.195   3.667   2.598
 3331SOL    HW210893   2.043   3.641   2.543
 3332SOL     OW10894   4.265   5.300   0.683
 3332SOL    HW110895   4.331   5.357   0.635
 3332SOL    HW210896   4.302   5.207   0.694
 3333SOL     OW10897   4.210   3.820   1.423
 3333SOL    HW110898   4.120   3.854   1.397
 3333SOL    HW210899   4.278   3.851   1.357
 3334SOL     OW10900   1.636   1.936   2.850
 3334SOL    HW110901   1.721   1.966   2.806
 3334SOL    HW210902   1.621   1.990   2.933
 3335SOL     OW10903   3.826   4.214   5.111
 3335SOL    HW110904   3.762   4.150   5.069
 3335SOL    HW210905   3.875   4.264   5.040
 3336SOL     OW10906   4.295   6.390   3.672
 3336SOL    HW110907   4.204   6.374   3.633
 3336SOL    HW210908   4.312   6.323   3.744
 3337SOL     OW10909   3.355   3.614   2.972
 3337SOL    HW110910   3.344   3.646   2.877
 3337SOL    HW210911   3.286   3.657   3.030
 3338SOL     OW10912   2.195   1.628   1.472
 3338SOL    HW110913   2.154   1.652   1.383
 3338SOL    HW210914   2.232   1.710   1.514
 3339SOL     OW10915   2.308   0.043   5.679
 3339SOL    HW110916   2.361   7.010   5.613
 3339SOL    HW210917   2.367   0.113   5.720
 3340SOL     OW10918   4.305   1.181   4.382
 3340SOL    HW110919   4.221   1.221   4.345
 3340SOL    HW210920   4.281   1.104   4.441
 3341SOL     OW10921   2.496   4.580   2.941
 3341SOL    HW110922   2.458   4.549   2.854
 3341SOL    HW210923   2.429   4.569   3.014
 3342SOL     OW10924   6.743   0.376   3.365
 3342SOL    HW110925   6.736   0.308   3.291
 3342SOL    HW210926   6.830   0.364   3.413
 3343SOL     OW10927   5.085   5.174   6.800
 3343SOL    HW110928   5.082   5.240   6.875
 3343SOL    HW210929   5.156   5.201   6.735
 3344SOL     OW10930   6.536   2.903   2.513
 3344SOL    HW110931   6.534   2.869   2.607
 3344SOL    HW210932   6.620   2.873   2.469
 3345SOL     OW10933   0.069   5.029   0.391
 3345SOL    HW110934   0.085   5.023   0.293
 3345SOL    HW210935   0.096   4.943   0.435
 3346SOL     OW10936   2.017   1.258   6.909
 3346SOL    HW110937   1.949   1.252   6.982
 3346SOL    HW210938   2.033   1.354   6.886
 3347SOL     OW10939   0.107   3.336   6.348
 3347SOL    HW110940   0.154   3.248   6.355
 3347SOL    HW210941   0.128   3.391   6.429
 3348SOL     OW10942   4.134   3.814   5.699
 3348SOL    HW110943   4.087   3.753   5.763
 3348SOL    HW210944   4.120   3.909   5.726
 3349SOL     OW10945   2.472   5.076   3.463
 3349SOL    HW110946   2.557   5.126   3.479
 3349SOL    HW210947   2.489   5.002   3.398
 3350SOL     OW10948   0.356   3.868   5.456
 3350SOL    HW110949   0.285   3.798   5.450
 3350SOL    HW210950   0.444   3.826   5.476
 3351SOL     OW10951   5.645   1.062   1.652
 3351SOL    HW110952   5.563   1.011   1.626
 3351SOL    HW210953   5.692   1.094   1.570
 3352SOL     OW10954   4.684   2.583   6.716
 3352SOL    HW110955   4.774   2.613   6.748
 3352SOL    HW210956   4.679   2.594   6.617
 3353SOL     OW10957   3.120   0.669   1.627
 3353SOL    HW110958   3.216   0.694   1.643
 3353SOL    HW210959   3.114   0.573   1.600
 3354SOL     OW10960   3.810   3.456   6.283
 3354SOL    HW110961   3.778   3.369   6.246
 3354SOL    HW210962   3.801   3.455   6.383
 3355SOL     OW10963   2.046   0.472   5.108
 3355SOL    HW110964   1.986   0.442   5.034
 3355SOL    HW210965   2.059   0.397   5.174
 3356SOL     OW10966   1.607   6.702   5.081
 3356SOL    HW110967   1.588   6.776   5.016
 3356SOL    HW210968   1.573   6.728   5.171
 3357SOL     OW10969   3.743   3.626   1.642
 3357SOL    HW110970   3.647   3.599   1.629
 3357SOL    HW210971   3.752   3.723   1.620
 3358SOL     OW10972   0.346   0.893   2.328
 3358SOL    HW110973   0.293   0.853   2.253
 3358SOL    HW210974   0.362   0.990   2.309
 3359SOL     OW10975   6.501   6.272   4.125
 3359SOL    HW110976   6.555   6.332   4.184
 3359SOL    HW210977   6.497   6.180   4.164
 3360SOL     OW10978   7.010   2.881   5.851
 3360SOL    HW110979   7.000   2.784   5.828
 3360SOL    HW210980   6.993   2.895   5.948
 3361SOL     OW10981   0.270   0.691   4.652
 3361SOL    HW110982   0.287   0.781   4.610
 3361SOL    HW210983   0.197   0.645   4.602
 3362SOL     OW10984   3.588   1.645   4.035
 3362SOL    HW110985   3.637   1.728   4.060
 3362SOL    HW210986   3.620   1.613   3.946
 3363SOL     OW10987   5.667   3.529   1.003
 3363SOL    HW110988   5.606   3.456   1.032
 3363SOL    HW210989   5.761   3.508   1.030
 3364SOL     OW10990   1.806   4.311   3.770
 3364SOL    HW110991   1.881   4.373   3.746
 3364SOL    HW210992   1.801   4.302   3.869
 3365SOL     OW10993   1.964   3.622   3.968
 3365SOL    HW110994   1.989   3.526   3.975
 3365SOL    HW210995   2.026   3.668   3.905
 3366SOL     OW10996   6.008   3.972   4.424
 3366SOL    HW110997   5.962   3.925   4.349
 3366SOL    HW210998   6.075   3.910   4.466
 3367SOL     OW10999   3.841   2.929   4.161
 3367SOL    HW111000   3.847   2.859   4.232
 3367SOL    HW211001   3.900   3.006   4.185
 3368SOL     OW11002   1.490   6.037   0.534
 3368SOL    HW111003   1.545   5.957   0.555
 3368SOL    HW211004   1.396   6.009   0.516
 3369SOL     OW11005   4.334   2.708   1.218
 3369SOL    HW111006   4.276   2.756   1.283
 3369SOL    HW211007   4.382   2.775   1.161
 3370SOL     OW11008   0.452   5.567   2.212
 3370SOL    HW111009   0.482   5.604   2.300
 3370SOL    HW211010   0.518   5.592   2.141
 3371SOL     OW11011   2.276   2.760   3.100
 3371SOL    HW111012   2.291   2.852   3.137
 3371SOL    HW211013   2.307   2.758   3.005
 3372SOL     OW11014   6.463   3.849   1.450
 3372SOL    HW111015   6.464   3.886   1.543
 3372SOL    HW211016   6.373   3.864   1.409
 3373SOL     OW11017   0.271   2.738   0.898
 3373SOL    HW111018   0.365   2.711   0.875
 3373SOL    HW211019   0.213   2.730   0.817
 3374SOL     OW11020   0.298   0.210   4.087
 3374SOL    HW111021   0.215   0.187   4.139
 3374SOL    HW211022   0.373   0.227   4.151
 3375SOL     OW11023   6.854   5.051   6.334
 3375SOL    HW111024   6.847   5.055   6.434
 3375SOL    HW211025   6.865   4.955   6.306
 3376SOL     OW11026   2.426   3.802   5.346
 3376SOL    HW111027   2.524   3.799   5.368
 3376SOL    HW211028   2.406   3.887   5.298
 3377SOL     OW11029   6.131   4.687   3.266
 3377SOL    HW111030   6.231   4.676   3.263
 3377SOL    HW211031   6.104   4.717   3.358
 3378SOL     OW11032   0.970   6.240   0.328
 3378SOL    HW111033   0.898   6.192   0.376
 3378SOL    HW211034   1.039   6.273   0.393
 3379SOL     OW11035   0.120   4.074   3.601
 3379SOL    HW111036   0.138   3.977   3.616
 3379SOL    HW211037   0.077   4.087   3.512
 3380SOL     OW11038   3.435   4.323   5.876
 3380SOL    HW111039   3.512   4.272   5.915
 3380SOL    HW211040   3.382   4.364   5.950
 3381SOL     OW11041   1.561   3.878   0.982
 3381SOL    HW111042   1.596   3.937   1.055
 3381SOL    HW211043   1.600   3.786   0.992
 3382SOL     OW11044   0.172   2.648   1.160
 3382SOL    HW111045   0.227   2.715   1.110
 3382SOL    HW211046   0.088   2.631   1.109
 3383SOL     OW11047   5.230   5.374   6.994
 3383SOL    HW111048   5.144   5.389   0.023
 3383SOL    HW211049   5.305   5.418   0.022
 3384SOL     OW11050   2.348   4.509   0.191
 3384SOL    HW111051   2.294   4.538   0.270
 3384SOL    HW211052   2.397   4.425   0.212
 3385SOL     OW11053   0.792   1.677   3.739
 3385SOL    HW111054   0.767   1.581   3.740
 3385SOL    HW211055   0.727   1.729   3.795
 3386SOL     OW11056   6.670   4.857   6.210
 3386SOL    HW111057   6.684   4.798   6.130
 3386SOL    HW211058   6.712   4.815   6.290
 3387SOL     OW11059   6.438   0.260   3.815
 3387SOL    HW111060   6.365   0.214   3.766
 3387SOL    HW211061   6.466   0.342   3.765
 3388SOL     OW11062   6.202   3.533   1.074
 3388SOL    HW111063   6.288   3.516   1.123
 3388SOL    HW211064   6.180   3.630   1.078
 3389SOL     OW11065   6.184   6.407   0.962
 3389SOL    HW111066   6.152   6.406   0.867
 3389SOL    HW211067   6.109   6.383   1.023
 3390SOL     OW11068   3.669   6.861   6.188
 3390SOL    HW111069   3.740   6.812   6.136
 3390SOL    HW211070   3.640   6.805   6.265
 3391SOL     OW11071   5.392   3.086   3.851
 3391SOL    HW111072   5.372   3.023   3.776
 3391SOL    HW211073   5.374   3.040   3.938
 3392SOL     OW11074   4.198   6.887   5.445
 3392SOL    HW111075   4.213   6.920   5.352
 3392SOL    HW211076   4.101   6.897   5.469
 3393SOL     OW11077   5.362   6.438   1.404
 3393SOL    HW111078   5.361   6.496   1.486
 3393SOL    HW211079   5.433   6.471   1.342
 3394SOL     OW11080   3.201   5.716   1.565
 3394SOL    HW111081   3.173   5.663   1.644
 3394SOL    HW211082   3.126   5.719   1.498
 3395SOL     OW11083   2.888   0.609   3.235
 3395SOL    HW111084   2.951   0.620   3.158
 3395SOL    HW211085   2.853   0.515   3.236
 3396SOL     OW11086   4.273   1.779   4.278
 3396SOL    HW111087   4.281   1.869   4.320
 3396SOL    HW211088   4.227   1.787   4.189
 3397SOL     OW11089   2.190   5.807   6.832
 3397SOL    HW111090   2.189   5.815   6.932
 3397SOL    HW211091   2.252   5.734   6.805
 3398SOL     OW11092   0.061   1.491   4.518
 3398SOL    HW111093   0.079   1.524   4.610
 3398SOL    HW211094   0.030   1.396   4.522
 3399SOL     OW11095   6.687   5.220   2.463
 3399SOL    HW111096   6.645   5.310   2.466
 3399SOL    HW211097   6.744   5.212   2.381
 3400SOL     OW11098   5.601   2.000   6.023
 3400SOL    HW111099   5.566   2.089   5.994
 3400SOL    HW211100   5.688   2.012   6.070
 3401SOL     OW11101   0.237   3.272   5.625
 3401SOL    HW111102   0.174   3.272   5.548
 3401SOL    HW211103   0.200   3.214   5.698
 3402SOL     OW11104   6.456   4.209   1.569
 3402SOL    HW111105   6.475   4.186   1.474
 3402SOL    HW211106   6.508   4.291   1.595
 3403SOL     OW11107   4.377   6.637   6.872
 3403SOL    HW111108   4.418   6.624   6.962
 3403SOL    HW211109   4.284   6.602   6.872
 3404SOL     OW11110   5.155   3.990   4.939
 3404SOL    HW111111   5.208   4.054   4.883
 3404SOL    HW211112   5.131   3.910   4.884
 3405SOL     OW11113   5.515   6.020   5.633
 3405SOL    HW111114   5.544   5.949   5.568
 3405SOL    HW211115   5.519   5.984   5.726
 3406SOL     OW11116   2.006   4.622   1.879
 3406SOL    HW111117   2.095   4.580   1.863
 3406SOL    HW211118   1.945   4.601   1.802
 3407SOL     OW11119   1.397   4.015   0.424
 3407SOL    HW111120   1.352   3.998   0.512
 3407SOL    HW211121   1.358   4.097   0.381
 3408SOL     OW11122   4.875   2.289   3.896
 3408SOL    HW111123   4.899   2.380   3.929
 3408SOL    HW211124   4.938   2.262   3.822
 3409SOL     OW11125   4.775   0.498   0.816
 3409SOL    HW111126   4.685   0.460   0.794
 3409SOL    HW211127   4.780   0.518   0.913
 3410SOL     OW11128   5.182   0.252   2.578
 3410SOL    HW111129   5.160   0.303   2.661
 3410SOL    HW211130   5.106   0.259   2.513
 3411SOL     OW11131   6.782   2.370   0.618
 3411SOL    HW111132   6.691   2.410   0.603
 3411SOL    HW211133   6.842   2.437   0.660
 3412SOL     OW11134   5.468   3.408   1.461
 3412SOL    HW111135   5.426   3.391   1.372
 3412SOL    HW211136   5.494   3.504   1.468
 3413SOL     OW11137   0.251   2.267   5.922
 3413SOL    HW111138   0.305   2.256   6.006
 3413SOL    HW211139   0.311   2.257   5.843
 3414SOL     OW11140   3.343   4.024   0.740
 3414SOL    HW111141   3.273   3.952   0.748
 3414SOL    HW211142   3.332   4.070   0.651
 3415SOL     OW11143   2.265   2.551   5.271
 3415SOL    HW111144   2.167   2.562   5.290
 3415SOL    HW211145   2.280   2.548   5.172
 3416SOL     OW11146   5.836   6.984   6.717
 3416SOL    HW111147   5.906   6.929   6.673
 3416SOL    HW211148   5.870   0.056   6.730
 3417SOL     OW11149   6.629   6.845   2.672
 3417SOL    HW111150   6.534   6.834   2.643
 3417SOL    HW211151   6.681   6.895   2.603
 3418SOL     OW11152   5.055   4.556   0.927
 3418SOL    HW111153   5.039   4.506   1.012
 3418SOL    HW211154   5.002   4.641   0.928
 3419SOL     OW11155   3.455   6.077   5.909
 3419SOL    HW111156   3.355   6.080   5.897
 3419SOL    HW211157   3.481   6.145   5.978
 3420SOL     OW11158   4.231   2.214   3.455
 3420SOL    HW111159   4.287   2.135   3.429
 3420SOL    HW211160   4.145   2.183   3.495
 3421SOL     OW11161   6.000   2.201   3.389
 3421SOL    HW111162   6.098   2.199   3.411
 3421SOL    HW211163   5.954   2.264   3.452
 3422SOL     OW11164   2.198   6.969   0.777
 3422SOL    HW111165   2.150   6.882   0.789
 3422SOL    HW211166   2.131   0.022   0.766
 3423SOL     OW11167   0.958   4.902   5.889
 3423SOL    HW111168   1.031   4.892   5.957
 3423SOL    HW211169   0.971   4.834   5.817
 3424SOL     OW11170   4.579   0.398   1.870
 3424SOL    HW111171   4.497   0.439   1.911
 3424SOL    HW211172   4.650   0.390   1.939
 3425SOL     OW11173   5.411   3.654   1.097
 3425SOL    HW111174   5.464   3.718   1.153
 3425SOL    HW211175   5.465   3.627   1.018
 3426SOL     OW11176   5.285   2.901   6.876
 3426SOL    HW111177   5.377   2.866   6.890
 3426SOL    HW211178   5.224   2.865   6.946
 3427SOL     OW11179   0.959   2.791   0.343
 3427SOL    HW111180   0.871   2.745   0.354
 3427SOL    HW211181   0.967   2.864   0.410
 3428SOL     OW11182   4.946   5.759   5.863
 3428SOL    HW111183   4.921   5.854   5.879
 3428SOL    HW211184   4.979   5.718   5.948
 3429SOL     OW11185   6.642   0.531   0.771
 3429SOL    HW111186   6.715   0.593   0.743
 3429SOL    HW211187   6.581   0.578   0.835
 3430SOL     OW11188   1.802   4.522   5.490
 3430SOL    HW111189   1.842   4.430   5.490
 3430SOL    HW211190   1.755   4.537   5.402
 3431SOL     OW11191   2.281   6.124   2.943
 3431SOL    HW111192   2.297   6.209   2.892
 3431SOL    HW211193   2.272   6.146   3.040
 3432SOL     OW11194   1.937   4.052   1.038
 3432SOL    HW111195   2.012   4.061   1.104
 3432SOL    HW211196   1.884   4.137   1.036
 3433SOL     OW11197   2.600   0.973   6.673
 3433SOL    HW111198   2.623   0.997   6.767
 3433SOL    HW211199   2.684   0.953   6.622
 3434SOL     OW11200   2.944   2.531   1.085
 3434SOL    HW111201   2.925   2.559   1.179
 3434SOL    HW211202   2.896   2.592   1.022
 3435SOL     OW11203   2.240   0.654   0.130
 3435SOL    HW111204   2.308   0.697   0.189
 3435SOL    HW211205   2.286   0.594   0.065
 3436SOL     OW11206   3.440   6.065   0.133
 3436SOL    HW111207   3.388   6.070   0.047
 3436SOL    HW211208   3.386   6.104   0.207
 3437SOL     OW11209   1.515   6.319   6.633
 3437SOL    HW111210   1.537   6.416   6.644
 3437SOL    HW211211   1.542   6.289   6.541
 3438SOL     OW11212   0.960   3.937   1.502
 3438SOL    HW111213   0.938   4.017   1.558
 3438SOL    HW211214   0.958   3.855   1.559
 3439SOL     OW11215   2.430   5.661   2.056
 3439SOL    HW111216   2.518   5.613   2.055
 3439SOL    HW211217   2.391   5.657   2.148
 3440SOL     OW11218   3.964   3.827   4.503
 3440SOL    HW111219   4.000   3.734   4.492
 3440SOL    HW211220   4.037   3.893   4.482
 3441SOL     OW11221   5.174   5.035   5.729
 3441SOL    HW111222   5.172   5.006   5.824
 3441SOL    HW211223   5.247   5.102   5.716
 3442SOL     OW11224   3.428   3.350   0.727
 3442SOL    HW111225   3.457   3.443   0.752
 3442SOL    HW211226   3.441   3.289   0.805
 3443SOL     OW11227   1.856   6.307   1.883
 3443SOL    HW111228   1.772   6.285   1.834
 3443SOL    HW211229   1.835   6.365   1.962
 3444SOL     OW11230   5.970   3.580   0.596
 3444SOL    HW111231   5.981   3.495   0.648
 3444SOL    HW211232   5.874   3.589   0.569
 3445SOL     OW11233   5.576   4.346   3.241
 3445SOL    HW111234   5.632   4.263   3.250
 3445SOL    HW211235   5.545   4.374   3.332
 3446SOL     OW11236   5.101   1.202   1.267
 3446SOL    HW111237   5.019   1.174   1.316
 3446SOL    HW211238   5.182   1.163   1.311
 3447SOL     OW11239   5.527   1.259   6.914
 3447SOL    HW111240   5.613   1.209   6.912
 3447SOL    HW211241   5.460   1.212   6.857
 3448SOL     OW11242   1.602   5.919   4.597
 3448SOL    HW111243   1.661   5.857   4.647
 3448SOL    HW211244   1.522   5.942   4.652
 3449SOL     OW11245   6.114   3.849   5.285
 3449SOL    HW111246   6.111   3.769   5.345
 3449SOL    HW211247   6.138   3.821   5.193
 3450SOL     OW11248   1.519   6.150   0.940
 3450SOL    HW111249   1.574   6.107   1.012
 3450SOL    HW211250   1.448   6.206   0.981
 3451SOL     OW11251   2.396   0.486   1.022
 3451SOL    HW111252   2.454   0.438   1.087
 3451SOL    HW211253   2.376   0.577   1.057
 3452SOL     OW11254   4.616   0.225   4.986
 3452SOL    HW111255   4.604   0.134   4.947
 3452SOL    HW211256   4.709   0.257   4.967
 3453SOL     OW11257   4.606   6.480   5.960
 3453SOL    HW111258   4.670   6.487   6.037
 3453SOL    HW211259   4.596   6.569   5.916
 3454SOL     OW11260   1.201   2.757   1.791
 3454SOL    HW111261   1.189   2.693   1.867
 3454SOL    HW211262   1.115   2.768   1.742
 3455SOL     OW11263   0.644   3.553   5.889
 3455SOL    HW111264   0.733   3.512   5.871
 3455SOL    HW211265   0.649   3.607   5.974
 3456SOL     OW11266   5.331   4.350   2.265
 3456SOL    HW111267   5.302   4.315   2.355
 3456SOL    HW211268   5.429   4.337   2.254
 3457SOL     OW11269   3.718   5.338   5.513
 3457SOL    HW111270   3.777   5.305   5.440
 3457SOL    HW211271   3.688   5.261   5.569
 3458SOL     OW11272   3.933   1.518   2.774
 3458SOL    HW111273   3.889   1.567   2.850
 3458SOL    HW211274   4.011   1.572   2.742
 3459SOL     OW11275   4.374   6.721   3.477
 3459SOL    HW111276   4.429   6.699   3.397
 3459SOL    HW211277   4.399   6.811   3.512
 3460SOL     OW11278   4.295   1.616   5.309
 3460SOL    HW111279   4.221   1.670   5.349
 3460SOL    HW211280   4.309   1.533   5.364
 3461SOL     OW11281   5.829   5.368   5.601
 3461SOL    HW111282   5.925   5.352   5.621
 3461SOL    HW211283   5.802   5.314   5.522
 3462SOL     OW11284   1.833   4.390   6.808
 3462SOL    HW111285   1.886   4.345   6.880
 3462SOL    HW211286   1.844   4.339   6.723
 3463SOL     OW11287   6.045   4.156   0.949
 3463SOL    HW111288   6.001   4.184   0.864
 3463SOL    HW211289   6.003   4.204   1.026
 3464SOL     OW11290   0.204   4.577   6.521
 3464SOL    HW111291   0.298   4.590   6.491
 3464SOL    HW211292   0.154   4.525   6.452
 3465SOL     OW11293   2.043   0.324   0.979
 3465SOL    HW111294   1.961   0.270   0.961
 3465SOL    HW211295   2.038   0.362   1.072
 3466SOL     OW11296   6.392   3.847   5.077
 3466SOL    HW111297   6.370   3.759   5.119
 3466SOL    HW211298   6.321   3.870   5.010
 3467SOL     OW11299   1.788   1.904   6.878
 3467SOL    HW111300   1.745   1.964   6.810
 3467SOL    HW211301   1.802   1.954   6.963
 3468SOL     OW11302   2.830   0.279   4.457
 3468SOL    HW111303   2.839   0.250   4.552
 3468SOL    HW211304   2.898   0.349   4.436
 3469SOL     OW11305   5.931   2.300   2.987
 3469SOL    HW111306   5.878   2.328   2.907
 3469SOL    HW211307   6.028   2.319   2.971
 3470SOL     OW11308   0.267   5.787   0.969
 3470SOL    HW111309   0.302   5.705   1.016
 3470SOL    HW211310   0.337   5.821   0.906
 3471SOL     OW11311   3.906   6.249   4.877
 3471SOL    HW111312   3.884   6.155   4.902
 3471SOL    HW211313   4.002   6.268   4.899
 3472SOL     OW11314   2.876   1.206   5.436
 3472SOL    HW111315   2.810   1.172   5.369
 3472SOL    HW211316   2.834   1.208   5.526
 3473SOL     OW11317   4.911   0.505   6.175
 3473SOL    HW111318   4.919   0.482   6.078
 3473SOL    HW211319   4.823   0.471   6.209
 3474SOL     OW11320   5.021   5.321   1.146
 3474SOL    HW111321   4.965   5.402   1.128
 3474SOL    HW211322   5.115   5.340   1.120
 3475SOL     OW11323   1.545   5.847   4.274
 3475SOL    HW111324   1.458   5.886   4.305
 3475SOL    HW211325   1.564   5.880   4.181
 3476SOL     OW11326   4.968   0.835   4.460
 3476SOL    HW111327   4.883   0.886   4.447
 3476SOL    HW211328   4.949   0.737   4.455
 3477SOL     OW11329   3.892   6.412   1.273
 3477SOL    HW111330   3.849   6.379   1.188
 3477SOL    HW211331   3.862   6.355   1.349
 3478SOL     OW11332   3.957   5.124   0.824
 3478SOL    HW111333   3.902   5.045   0.797
 3478SOL    HW211334   4.033   5.093   0.882
 3479SOL     OW11335   0.834   0.436   2.187
 3479SOL    HW111336   0.823   0.491   2.103
 3479SOL    HW211337   0.927   0.448   2.222
 3480SOL     OW11338   0.665   1.269   3.369
 3480SOL    HW111339   0.740   1.204   3.352
 3480SOL    HW211340   0.700   1.362   3.363
 3481SOL     OW11341   2.584   6.541   0.005
 3481SOL    HW111342   2.643   6.483   6.969
 3481SOL    HW211343   2.638   6.584   0.077
 3482SOL     OW11344   0.300   2.356   0.142
 3482SOL    HW111345   0.381   2.298   0.132
 3482SOL    HW211346   0.329   2.450   0.163
 3483SOL     OW11347   3.018   0.085   1.286
 3483SOL    HW111348   2.935   0.127   1.321
 3483SOL    HW211349   3.089   0.087   1.356
 3484SOL     OW11350   4.017   3.600   3.316
 3484SOL    HW111351   4.008   3.693   3.280
 3484SOL    HW211352   4.051   3.604   3.410
 3485SOL     OW11353   1.159   2.365   5.065
 3485SOL    HW111354   1.095   2.409   5.002
 3485SOL    HW211355   1.232   2.320   5.013
 3486SOL     OW11356   4.375   1.777   1.855
 3486SOL    HW111357   4.385   1.842   1.930
 3486SOL    HW211358   4.287   1.790   1.810
 3487SOL     OW11359   6.491   1.167   6.832
 3487SOL    HW111360   6.498   1.085   6.775
 3487SOL    HW211361   6.490   1.248   6.773
 3488SOL     OW11362   5.139   3.605   3.649
 3488SOL    HW111363   5.094   3.652   3.573
 3488SOL    HW211364   5.217   3.659   3.680
 3489SOL     OW11365   3.744   0.743   1.249
 3489SOL    HW111366   3.755   0.715   1.344
 3489SOL    HW211367   3.727   0.662   1.192
 3490SOL     OW11368   3.812   4.424   6.701
 3490SOL    HW111369   3.752   4.477   6.760
 3490SOL    HW211370   3.906   4.458   6.709
 3491SOL     OW11371   0.160   3.008   4.751
 3491SOL    HW111372   0.233   2.975   4.811
 3491SOL    HW211373   0.162   2.956   4.666
 3492SOL     OW11374   6.868   4.400   6.919
 3492SOL    HW111375   6.914   4.327   6.868
 3492SOL    HW211376   6.783   4.365   6.959
 3493SOL     OW11377   6.581   4.749   0.876
 3493SOL    HW111378   6.487   4.717   0.886
 3493SOL    HW211379   6.581   4.841   0.838
 3494SOL     OW11380   3.402   0.577   0.532
 3494SOL    HW111381   3.450   0.654   0.491
 3494SOL    HW211382   3.466   0.522   0.585
 3495SOL     OW11383   4.924   4.770   0.879
 3495SOL    HW111384   4.827   4.765   0.904
 3495SOL    HW211385   4.940   4.850   0.822
 3496SOL     OW11386   2.421   3.054   0.958
 3496SOL    HW111387   2.513   3.023   0.981
 3496SOL    HW211388   2.359   2.975   0.954
 3497SOL     OW11389   4.462   0.408   3.993
 3497SOL    HW111390   4.519   0.490   3.987
 3497SOL    HW211391   4.401   0.405   3.914
 3498SOL     OW11392   2.558   1.458   1.787
 3498SOL    HW111393   2.627   1.527   1.810
 3498SOL    HW211394   2.584   1.410   1.704
 3499SOL     OW11395   6.563   3.184   3.822
 3499SOL    HW111396   6.494   3.254   3.801
 3499SOL    HW211397   6.579   3.128   3.741
 3500SOL     OW11398   6.200   3.837   6.881
 3500SOL    HW111399   6.288   3.850   6.835
 3500SOL    HW211400   6.170   3.924   6.919
 3501SOL     OW11401   1.443   4.344   4.448
 3501SOL    HW111402   1.379   4.313   4.518
 3501SOL    HW211403   1.437   4.444   4.439
 3502SOL     OW11404   1.045   3.104   1.346
 3502SOL    HW111405   1.081   3.076   1.434
 3502SOL    HW211406   0.997   3.191   1.355
 3503SOL     OW11407   5.067   5.920   4.838
 3503SOL    HW111408   5.039   6.014   4.820
 3503SOL    HW211409   5.072   5.870   4.751
 3504SOL     OW11410   2.174   3.314   1.650
 3504SOL    HW111411   2.239   3.360   1.711
 3504SOL    HW211412   2.122   3.383   1.600
 3505SOL     OW11413   5.180   5.003   5.189
 3505SOL    HW111414   5.252   4.936   5.205
 3505SOL    HW211415   5.108   4.993   5.257
 3506SOL     OW11416   4.774   5.593   3.153
 3506SOL    HW111417   4.847   5.631   3.211
 3506SOL    HW211418   4.689   5.642   3.171
 3507SOL     OW11419   0.845   6.797   6.295
 3507SOL    HW111420   0.935   6.780   6.335
 3507SOL    HW211421   0.774   6.771   6.361
 3508SOL     OW11422   5.784   3.575   6.610
 3508SOL    HW111423   5.834   3.638   6.551
 3508SOL    HW211424   5.822   3.578   6.702
 3509SOL     OW11425   6.644   6.649   0.884
 3509SOL    HW111426   6.574   6.593   0.928
 3509SOL    HW211427   6.693   6.594   0.817
 3510SOL     OW11428   2.117   2.732   2.316
 3510SOL    HW111429   2.193   2.762   2.375
 3510SOL    HW211430   2.153   2.707   2.226
 3511SOL     OW11431   0.718   1.853   6.419
 3511SOL    HW111432   0.636   1.846   6.363
 3511SOL    HW211433   0.792   1.801   6.376
 3512SOL     OW11434   2.666   3.286   1.030
 3512SOL    HW111435   2.576   3.297   0.987
 3512SOL    HW211436   2.655   3.249   1.122
 3513SOL     OW11437   6.035   4.741   1.493
 3513SOL    HW111438   6.001   4.754   1.400
 3513SOL    HW211439   5.964   4.765   1.558
 3514SOL     OW11440   0.145   6.062   1.654
 3514SOL    HW111441   0.133   6.060   1.753
 3514SOL    HW211442   0.058   6.087   1.610
 3515SOL     OW11443   2.901   6.135   3.607
 3515SOL    HW111444   2.845   6.054   3.625
 3515SOL    HW211445   2.843   6.210   3.575
 3516SOL     OW11446   3.346   1.325   1.132
 3516SOL    HW111447   3.312   1.266   1.059
 3516SOL    HW211448   3.273   1.387   1.162
 3517SOL     OW11449   1.137   1.104   6.248
 3517SOL    HW111450   1.150   1.036   6.176
 3517SOL    HW211451   1.220   1.112   6.302
 3518SOL     OW11452   4.350   2.828   5.841
 3518SOL    HW111453   4.260   2.840   5.799
 3518SOL    HW211454   4.417   2.803   5.772
 3519SOL     OW11455   1.903   6.275   0.165
 3519SOL    HW111456   1.980   6.232   0.212
 3519SOL    HW211457   1.904   6.249   0.068
 3520SOL     OW11458   3.888   5.836   1.310
 3520SOL    HW111459   3.910   5.922   1.264
 3520SOL    HW211460   3.790   5.818   1.302
 3521SOL     OW11461   6.343   2.597   0.845
 3521SOL    HW111462   6.310   2.508   0.875
 3521SOL    HW211463   6.282   2.669   0.879
 3522SOL     OW11464   3.024   4.850   2.397
 3522SOL    HW111465   2.992   4.864   2.303
 3522SOL    HW211466   3.121   4.828   2.396
 3523SOL     OW11467   2.397   4.744   5.250
 3523SOL    HW111468   2.480   4.689   5.248
 3523SOL    HW211469   2.325   4.694   5.298
 3524SOL     OW11470   2.792   0.465   0.311
 3524SOL    HW111471   2.827   0.435   0.222
 3524SOL    HW211472   2.821   0.401   0.382
 3525SOL     OW11473   0.712   2.538   2.621
 3525SOL    HW111474   0.738   2.506   2.530
 3525SOL    HW211475   0.765   2.488   2.690
 3526SOL     OW11476   1.999   1.203   2.378
 3526SOL    HW111477   1.993   1.260   2.296
 3526SOL    HW211478   1.960   1.252   2.456
 3527SOL     OW11479   5.487   2.647   5.688
 3527SOL    HW111480   5.401   2.601   5.711
 3527SOL    HW211481   5.493   2.733   5.740
 3528SOL     OW11482   0.173   6.813   4.732
 3528SOL    HW111483   0.195   6.911   4.729
 3528SOL    HW211484   0.077   6.801   4.757
 3529SOL     OW11485   3.653   6.342   6.136
 3529SOL    HW111486   3.671   6.326   6.233
 3529SOL    HW211487   3.728   6.395   6.096
 3530SOL     OW11488   2.024   5.667   3.493
 3530SOL    HW111489   2.115   5.640   3.461
 3530SOL    HW211490   2.019   5.767   3.498
 3531SOL     OW11491   5.587   4.001   6.912
 3531SOL    HW111492   5.656   3.952   6.966
 3531SOL    HW211493   5.528   3.935   6.867
 3532SOL     OW11494   1.906   6.722   6.727
 3532SOL    HW111495   1.948   6.793   6.784
 3532SOL    HW211496   1.892   6.640   6.782
 3533SOL     OW11497   1.380   1.204   2.883
 3533SOL    HW111498   1.289   1.164   2.886
 3533SOL    HW211499   1.372   1.303   2.895
 3534SOL     OW11500   5.046   0.703   4.805
 3534SOL    HW111501   4.994   0.788   4.796
 3534SOL    HW211502   4.982   0.626   4.806
 3535SOL     OW11503   5.250   4.970   6.031
 3535SOL    HW111504   5.278   4.948   6.125
 3535SOL    HW211505   5.242   5.069   6.021
 3536SOL     OW11506   0.846   3.898   3.485
 3536SOL    HW111507   0.770   3.887   3.420
 3536SOL    HW211508   0.927   3.927   3.435
 3537SOL     OW11509   2.708   5.532   1.132
 3537SOL    HW111510   2.684   5.576   1.219
 3537SOL    HW211511   2.695   5.433   1.140
 3538SOL     OW11512   2.624   0.944   4.007
 3538SOL    HW111513   2.542   0.918   4.058
 3538SOL    HW211514   2.694   0.975   4.070
 3539SOL     OW11515   4.944   5.298   5.771
 3539SOL    HW111516   4.861   5.303   5.715
 3539SOL    HW211517   5.022   5.277   5.713
 3540SOL     OW11518   2.991   3.286   6.732
 3540SOL    HW111519   2.945   3.350   6.671
 3540SOL    HW211520   3.083   3.319   6.754
 3541SOL     OW11521   3.662   2.761   0.662
 3541SOL    HW111522   3.585   2.822   0.644
 3541SOL    HW211523   3.631   2.666   0.662
 3542SOL     OW11524   5.340   2.275   6.467
 3542SOL    HW111525   5.339   2.342   6.541
 3542SOL    HW211526   5.333   2.322   6.379
 3543SOL     OW11527   0.872   2.767   3.560
 3543SOL    HW111528   0.895   2.784   3.655
 3543SOL    HW211529   0.953   2.781   3.503
 3544SOL     OW11530   2.752   4.528   6.207
 3544SOL    HW111531   2.680   4.582   6.162
 3544SOL    HW211532   2.714   4.486   6.290
 3545SOL     OW11533   3.597   6.809   1.788
 3545SOL    HW111534   3.605   6.766   1.878
 3545SOL    HW211535   3.638   6.749   1.719
 3546SOL     OW11536   0.025   3.526   3.390
 3546SOL    HW111537   0.076   3.442   3.372
 3546SOL    HW211538   6.984   3.510   3.467
 3547SOL     OW11539   0.573   4.046   5.595
 3547SOL    HW111540   0.539   3.963   5.640
 3547SOL    HW211541   0.651   4.022   5.537
 3548SOL     OW11542   5.920   0.413   5.177
 3548SOL    HW111543   6.011   0.373   5.193
 3548SOL    HW211544   5.907   0.491   5.237
 3549SOL     OW11545   2.639   5.817   6.567
 3549SOL    HW111546   2.599   5.888   6.625
 3549SOL    HW211547   2.569   5.749   6.545
 3550SOL     OW11548   5.453   1.193   5.433
 3550SOL    HW111549   5.481   1.273   5.379
 3550SOL    HW211550   5.391   1.136   5.378
 3551SOL     OW11551   3.926   1.900   4.409
 3551SOL    HW111552   3.828   1.915   4.398
 3551SOL    HW211553   3.965   1.871   4.322
 3552SOL     OW11554   0.625   6.112   2.972
 3552SOL    HW111555   0.602   6.023   3.011
 3552SOL    HW211556   0.553   6.141   2.910
 3553SOL     OW11557   4.258   5.717   0.101
 3553SOL    HW111558   4.212   5.638   0.061
 3553SOL    HW211559   4.258   5.710   0.200
 3554SOL     OW11560   4.785   3.450   1.092
 3554SOL    HW111561   4.858   3.391   1.057
 3554SOL    HW211562   4.742   3.498   1.017
 3555SOL     OW11563   2.519   1.929   5.069
 3555SOL    HW111564   2.604   1.884   5.096
 3555SOL    HW211565   2.474   1.968   5.150
 3556SOL     OW11566   4.723   0.694   5.598
 3556SOL    HW111567   4.778   0.703   5.515
 3556SOL    HW211568   4.775   0.646   5.668
 3557SOL     OW11569   6.505   1.099   1.454
 3557SOL    HW111570   6.537   1.004   1.453
 3557SOL    HW211571   6.405   1.100   1.459
 3558SOL     OW11572   3.188   5.961   2.108
 3558SOL    HW111573   3.228   5.870   2.095
 3558SOL    HW211574   3.260   6.026   2.132
 3559SOL     OW11575   4.019   5.963   4.828
 3559SOL    HW111576   4.005   5.942   4.732
 3559SOL    HW211577   4.071   5.889   4.871
 3560SOL     OW11578   2.374   5.827   4.436
 3560SOL    HW111579   2.299   5.855   4.376
 3560SOL    HW211580   2.459   5.822   4.384
 3561SOL     OW11581   4.790   4.135   5.310
 3561SOL    HW111582   4.849   4.216   5.313
 3561SOL    HW211583   4.772   4.103   5.403
 3562SOL     OW11584   2.037   1.490   5.622
 3562SOL    HW111585   2.097   1.563   5.657
 3562SOL    HW211586   2.019   1.506   5.525
 3563SOL     OW11587   5.588   2.282   5.570
 3563SOL    HW111588   5.603   2.198   5.518
 3563SOL    HW211589   5.490   2.305   5.568
 3564SOL     OW11590   6.458   4.469   2.001
 3564SOL    HW111591   6.527   4.444   1.933
 3564SOL    HW211592   6.440   4.391   2.061
 3565SOL     OW11593   3.781   5.691   3.147
 3565SOL    HW111594   3.820   5.728   3.063
 3565SOL    HW211595   3.849   5.632   3.192
 3566SOL     OW11596   1.495   0.724   5.554
 3566SOL    HW111597   1.523   0.707   5.648
 3566SOL    HW211598   1.455   0.815   5.547
 3567SOL     OW11599   0.746   4.095   6.330
 3567SOL    HW111600   0.713   4.136   6.245
 3567SOL    HW211601   0.699   4.009   6.346
 3568SOL     OW11602   6.260   3.605   5.833
 3568SOL    HW111603   6.210   3.619   5.918
 3568SOL    HW211604   6.248   3.510   5.803
 3569SOL     OW11605   1.736   1.996   5.202
 3569SOL    HW111606   1.815   1.973   5.259
 3569SOL    HW211607   1.768   2.017   5.109
 3570SOL     OW11608   6.027   1.434   4.213
 3570SOL    HW111609   6.028   1.534   4.218
 3570SOL    HW211610   5.975   1.397   4.290
 3571SOL     OW11611   6.316   5.784   5.992
 3571SOL    HW111612   6.266   5.840   5.926
 3571SOL    HW211613   6.266   5.783   6.079
 3572SOL     OW11614   5.439   4.451   4.625
 3572SOL    HW111615   5.530   4.435   4.665
 3572SOL    HW211616   5.437   4.413   4.533
 3573SOL     OW11617   1.140   3.103   3.400
 3573SOL    HW111618   1.168   3.014   3.436
 3573SOL    HW211619   1.075   3.090   3.325
 3574SOL     OW11620   0.625   3.935   0.636
 3574SOL    HW111621   0.548   3.999   0.645
 3574SOL    HW211622   0.633   3.881   0.720
 3575SOL     OW11623   5.906   4.691   2.242
 3575SOL    HW111624   5.810   4.664   2.252
 3575SOL    HW211625   5.912   4.772   2.183
 3576SOL     OW11626   0.635   1.116   6.398
 3576SOL    HW111627   0.544   1.157   6.390
 3576SOL    HW211628   0.628   1.030   6.450
 3577SOL     OW11629   0.589   3.274   6.766
 3577SOL    HW111630   0.562   3.189   6.810
 3577SOL    HW211631   0.638   3.255   6.681
 3578SOL     OW11632   3.143   4.875   0.750
 3578SOL    HW111633   3.159   4.897   0.654
 3578SOL    HW211634   3.098   4.953   0.795
 3579SOL     OW11635   6.743   3.712   4.743
 3579SOL    HW111636   6.715   3.771   4.667
 3579SOL    HW211637   6.678   3.637   4.753
 3580SOL     OW11638   6.280   1.865   2.045
 3580SOL    HW111639   6.356   1.929   2.048
 3580SOL    HW211640   6.206   1.898   2.104
 3581SOL     OW11641   0.635   0.507   2.852
 3581SOL    HW111642   0.592   0.596   2.864
 3581SOL    HW211643   0.596   0.442   2.918
 3582SOL     OW11644   1.377   0.029   6.091
 3582SOL    HW111645   1.297   6.996   6.118
 3582SOL    HW211646   1.451   6.988   6.064
 3583SOL     OW11647   1.307   5.631   6.898
 3583SOL    HW111648   1.376   5.652   6.828
 3583SOL    HW211649   1.317   5.694   6.975
 3584SOL     OW11650   5.305   6.168   6.408
 3584SOL    HW111651   5.292   6.070   6.424
 3584SOL    HW211652   5.216   6.210   6.392
 3585SOL     OW11653   3.258   4.901   4.173
 3585SOL    HW111654   3.260   4.986   4.225
 3585SOL    HW211655   3.210   4.831   4.225
 3586SOL     OW11656   6.519   3.701   5.764
 3586SOL    HW111657   6.428   3.665   5.786
 3586SOL    HW211658   6.509   3.781   5.704
 3587SOL     OW11659   4.349   6.483   0.445
 3587SOL    HW111660   4.414   6.518   0.513
 3587SOL    HW211661   4.275   6.548   0.434
 3588SOL     OW11662   1.132   2.358   6.111
 3588SOL    HW111663   1.192   2.432   6.143
 3588SOL    HW211664   1.113   2.371   6.013
 3589SOL     OW11665   2.868   0.750   5.466
 3589SOL    HW111666   2.917   0.813   5.526
 3589SOL    HW211667   2.777   0.787   5.446
 3590SOL     OW11668   1.446   5.542   5.704
 3590SOL    HW111669   1.488   5.606   5.640
 3590SOL    HW211670   1.429   5.455   5.658
 3591SOL     OW11671   5.076   2.337   6.062
 3591SOL    HW111672   5.008   2.406   6.036
 3591SOL    HW211673   5.113   2.295   5.979
 3592SOL     OW11674   5.207   2.742   2.798
 3592SOL    HW111675   5.140   2.788   2.740
 3592SOL    HW211676   5.196   2.643   2.788
 3593SOL     OW11677   1.414   6.791   3.730
 3593SOL    HW111678   1.315   6.792   3.746
 3593SOL    HW211679   1.448   6.885   3.728
 3594SOL     OW11680   2.792   1.219   4.201
 3594SOL    HW111681   2.843   1.138   4.173
 3594SOL    HW211682   2.705   1.224   4.151
 3595SOL     OW11683   2.769   6.566   6.117
 3595SOL    HW111684   2.763   6.560   6.217
 3595SOL    HW211685   2.734   6.654   6.086
 3596SOL     OW11686   6.600   1.396   2.071
 3596SOL    HW111687   6.639   1.425   1.984
 3596SOL    HW211688   6.629   1.459   2.144
 3597SOL     OW11689   3.747   5.993   4.294
 3597SOL    HW111690   3.682   5.972   4.221
 3597SOL    HW211691   3.703   6.054   4.361
 3598SOL     OW11692   1.348   6.983   5.795
 3598SOL    HW111693   1.365   6.884   5.793
 3598SOL    HW211694   1.337   7.013   5.890
 3599SOL     OW11695   6.902   1.756   5.082
 3599SOL    HW111696   6.958   1.830   5.045
 3599SOL    HW211697   6.805   1.777   5.068
 3600SOL     OW11698   5.896   2.623   0.563
 3600SOL    HW111699   5.840   2.700   0.595
 3600SOL    HW211700   5.936   2.577   0.642
 3601SOL     OW11701   0.177   3.960   6.981
 3601SOL    HW111702   0.233   3.879   7.000
 3601SOL    HW211703   0.173   4.017   0.042
 3602SOL     OW11704   2.174   1.060   6.817
 3602SOL    HW111705   2.106   1.129   6.841
 3602SOL    HW211706   2.145   0.971   6.854
 3603SOL     OW11707   3.960   4.824   3.579
 3603SOL    HW111708   4.059   4.827   3.593
 3603SOL    HW211709   3.926   4.732   3.596
 3604SOL     OW11710   0.189   2.085   2.639
 3604SOL    HW111711   0.176   1.994   2.599
 3604SOL    HW211712   0.105   2.138   2.630
 3605SOL     OW11713   5.997   3.735   6.426
 3605SOL    HW111714   6.073   3.796   6.407
 3605SOL    HW211715   5.975   3.682   6.344
 3606SOL     OW11716   6.757   4.246   5.422
 3606SOL    HW111717   6.769   4.208   5.514
 3606SOL    HW211718   6.843   4.288   5.393
 3607SOL     OW11719   5.063   6.808   0.643
 3607SOL    HW111720   5.045   6.761   0.556
 3607SOL    HW211721   4.985   6.867   0.665
 3608SOL     OW11722   0.563   2.028   1.614
 3608SOL    HW111723   0.662   2.041   1.602
 3608SOL    HW211724   0.543   1.930   1.613
 3609SOL     OW11725   6.632   0.749   4.995
 3609SOL    HW111726   6.611   0.762   4.898
 3609SOL    HW211727   6.710   0.687   5.005
 3610SOL     OW11728   1.314   6.340   5.722
 3610SOL    HW111729   1.339   6.382   5.634
 3610SOL    HW211730   1.244   6.396   5.767
 3611SOL     OW11731   3.485   5.374   5.308
 3611SOL    HW111732   3.409   5.345   5.366
 3611SOL    HW211733   3.569   5.377   5.362
 3612SOL     OW11734   1.223   6.210   0.863
 3612SOL    HW111735   1.171   6.148   0.804
 3612SOL    HW211736   1.299   6.249   0.812
 3613SOL     OW11737   5.570   4.804   0.398
 3613SOL    HW111738   5.611   4.716   0.423
 3613SOL    HW211739   5.473   4.790   0.377
 3614SOL     OW11740   3.693   3.196   2.780
 3614SOL    HW111741   3.636   3.247   2.845
 3614SOL    HW211742   3.645   3.113   2.753
 3615SOL     OW11743   5.478   5.488   5.510
 3615SOL    HW111744   5.507   5.577   5.474
 3615SOL    HW211745   5.395   5.459   5.463
 3616SOL     OW11746   6.892   2.088   5.382
 3616SOL    HW111747   6.956   2.134   5.444
 3616SOL    HW211748   6.874   1.996   5.414
 3617SOL     OW11749   6.399   2.200   6.089
 3617SOL    HW111750   6.460   2.248   6.026
 3617SOL    HW211751   6.438   2.200   6.181
 3618SOL     OW11752   1.944   1.696   5.972
 3618SOL    HW111753   1.871   1.643   5.929
 3618SOL    HW211754   2.024   1.699   5.912
 3619SOL     OW11755   5.596   1.924   3.748
 3619SOL    HW111756   5.668   1.914   3.816
 3619SOL    HW211757   5.555   1.834   3.730
 3620SOL     OW11758   5.922   0.626   5.526
 3620SOL    HW111759   5.879   0.680   5.597
 3620SOL    HW211760   5.895   0.660   5.436
 3621SOL     OW11761   2.663   2.796   6.065
 3621SOL    HW111762   2.573   2.818   6.027
 3621SOL    HW211763   2.688   2.702   6.039
 3622SOL     OW11764   1.023   2.087   2.280
 3622SOL    HW111765   1.097   2.133   2.231
 3622SOL    HW211766   0.978   2.022   2.219
 3623SOL     OW11767   5.307   5.107   3.875
 3623SOL    HW111768   5.317   5.008   3.879
 3623SOL    HW211769   5.354   5.142   3.794
 3624SOL     OW11770   2.427   6.928   3.053
 3624SOL    HW111771   2.352   6.901   2.994
 3624SOL    HW211772   2.482   6.998   3.008
 3625SOL     OW11773   6.320   2.984   5.689
 3625SOL    HW111774   6.390   3.039   5.643
 3625SOL    HW211775   6.239   3.040   5.706
 3626SOL     OW11776   1.821   3.678   5.268
 3626SOL    HW111777   1.914   3.644   5.280
 3626SOL    HW211778   1.809   3.761   5.321
 3627SOL     OW11779   3.764   3.743   3.459
 3627SOL    HW111780   3.856   3.705   3.454
 3627SOL    HW211781   3.752   3.812   3.388
 3628SOL     OW11782   2.205   5.650   2.230
 3628SOL    HW111783   2.157   5.673   2.315
 3628SOL    HW211784   2.143   5.661   2.153
 3629SOL     OW11785   5.845   1.914   5.309
 3629SOL    HW111786   5.913   1.840   5.306
 3629SOL    HW211787   5.837   1.955   5.218
 3630SOL     OW11788   5.925   2.310   4.583
 3630SOL    HW111789   5.868   2.245   4.633
 3630SOL    HW211790   5.877   2.398   4.575
 3631SOL     OW11791   2.437   0.174   4.277
 3631SOL    HW111792   2.358   0.159   4.217
 3631SOL    HW211793   2.415   0.143   4.369
 3632SOL     OW11794   5.112   0.959   1.068
 3632SOL    HW111795   5.169   1.028   1.113
 3632SOL    HW211796   5.131   0.959   0.970
 3633SOL     OW11797   2.995   2.705   6.161
 3633SOL    HW111798   2.924   2.728   6.228
 3633SOL    HW211799   2.952   2.693   6.071
 3634SOL     OW11800   2.007   6.422   4.597
 3634SOL    HW111801   2.051   6.449   4.512
 3634SOL    HW211802   2.066   6.446   4.674
 3635SOL     OW11803   2.510   1.594   5.403
 3635SOL    HW111804   2.585   1.534   5.430
 3635SOL    HW211805   2.507   1.600   5.303
 3636SOL     OW11806   0.145   5.965   5.731
 3636SOL    HW111807   0.056   5.923   5.715
 3636SOL    HW211808   0.133   6.046   5.788
 3637SOL     OW11809   5.667   1.724   1.926
 3637SOL    HW111810   5.640   1.630   1.909
 3637SOL    HW211811   5.740   1.726   1.994
 3638SOL     OW11812   6.711   4.189   4.207
 3638SOL    HW111813   6.799   4.143   4.219
 3638SOL    HW211814   6.713   4.278   4.252
 3639SOL     OW11815   2.957   4.204   0.779
 3639SOL    HW111816   2.860   4.225   0.790
 3639SOL    HW211817   2.969   4.104   0.777
 3640SOL     OW11818   3.002   6.296   0.800
 3640SOL    HW111819   3.067   6.262   0.868
 3640SOL    HW211820   2.931   6.349   0.846
 3641SOL     OW11821   3.257   1.363   5.021
 3641SOL    HW111822   3.285   1.376   4.926
 3641SOL    HW211823   3.159   1.382   5.029
 3642SOL     OW11824   4.450   0.427   5.133
 3642SOL    HW111825   4.503   0.356   5.086
 3642SOL    HW211826   4.470   0.516   5.093
 3643SOL     OW11827   3.094   5.227   4.897
 3643SOL    HW111828   3.173   5.258   4.950
 3643SOL    HW211829   3.020   5.201   4.960
 3644SOL     OW11830   6.571   2.625   0.716
 3644SOL    HW111831   6.480   2.626   0.758
 3644SOL    HW211832   6.581   2.704   0.656
 3645SOL     OW11833   4.822   1.339   3.401
 3645SOL    HW111834   4.770   1.403   3.458
 3645SOL    HW211835   4.912   1.326   3.441
 3646SOL     OW11836   0.170   5.274   5.658
 3646SOL    HW111837   0.184   5.202   5.726
 3646SOL    HW211838   0.084   5.259   5.611
 3647SOL     OW11839   1.072   3.139   0.276
 3647SOL    HW111840   1.106   3.087   0.355
 3647SOL    HW211841   1.083   3.084   0.193
 3648SOL     OW11842   4.291   5.254   2.315
 3648SOL    HW111843   4.242   5.248   2.228
 3648SOL    HW211844   4.239   5.209   2.387
 3649SOL     OW11845   4.414   3.706   0.818
 3649SOL    HW111846   4.356   3.782   0.846
 3649SOL    HW211847   4.402   3.629   0.881
 3650SOL     OW11848   6.770   6.406   1.328
 3650SOL    HW111849   6.850   6.373   1.278
 3650SOL    HW211850   6.688   6.390   1.274
 3651SOL     OW11851   0.820   6.089   2.270
 3651SOL    HW111852   0.742   6.038   2.235
 3651SOL    HW211853   0.905   6.053   2.232
 3652SOL     OW11854   4.665   6.399   3.566
 3652SOL    HW111855   4.671   6.498   3.579
 3652SOL    HW211856   4.585   6.378   3.510
 3653SOL     OW11857   5.991   1.354   3.152
 3653SOL    HW111858   5.979   1.431   3.089
 3653SOL    HW211859   5.985   1.386   3.246
 3654SOL     OW11860   2.735   6.552   0.438
 3654SOL    HW111861   2.807   6.599   0.488
 3654SOL    HW211862   2.713   6.466   0.484
 3655SOL     OW11863   1.648   0.082   4.304
 3655SOL    HW111864   1.604   7.013   4.313
 3655SOL    HW211865   1.680   0.113   4.393
 3656SOL     OW11866   2.065   2.394   2.172
 3656SOL    HW111867   2.140   2.459   2.156
 3656SOL    HW211868   2.042   2.349   2.086
 3657SOL     OW11869   3.791   5.794   6.960
 3657SOL    HW111870   3.734   5.851   6.901
 3657SOL    HW211871   3.880   5.780   6.917
 3658SOL     OW11872   0.929   5.530   4.939
 3658SOL    HW111873   0.830   5.543   4.934
 3658SOL    HW211874   0.950   5.459   5.006
 3659SOL     OW11875   2.785   4.618   0.201
 3659SOL    HW111876   2.770   4.530   0.246
 3659SOL    HW211877   2.785   4.691   0.269
 3660SOL     OW11878   4.746   6.093   1.949
 3660SOL    HW111879   4.775   6.179   1.991
 3660SOL    HW211880   4.751   6.020   2.017
 3661SOL     OW11881   5.152   2.032   1.038
 3661SOL    HW111882   5.138   2.047   0.940
 3661SOL    HW211883   5.085   2.084   1.090
 3662SOL     OW11884   3.459   7.006   5.079
 3662SOL    HW111885   3.377   6.954   5.056
 3662SOL    HW211886   3.444   0.037   5.163
 3663SOL     OW11887   1.463   1.723   0.345
 3663SOL    HW111888   1.497   1.631   0.325
 3663SOL    HW211889   1.516   1.790   0.291
 3664SOL     OW11890   4.964   1.523   0.416
 3664SOL    HW111891   4.974   1.473   0.502
 3664SOL    HW211892   4.872   1.509   0.379
 3665SOL     OW11893   0.701   6.844   5.109
 3665SOL    HW111894   0.759   6.908   5.160
 3665SOL    HW211895   0.701   6.755   5.156
 3666SOL     OW11896   1.606   4.840   3.786
 3666SOL    HW111897   1.697   4.839   3.743
 3666SOL    HW211898   1.569   4.933   3.783
 3667SOL     OW11899   6.251   0.991   6.367
 3667SOL    HW111900   6.269   1.065   6.432
 3667SOL    HW211901   6.194   1.025   6.292
 3668SOL     OW11902   1.289   6.898   2.719
 3668SOL    HW111903   1.236   6.817   2.745
 3668SOL    HW211904   1.304   6.954   2.800
 3669SOL     OW11905   5.826   1.934   4.467
 3669SOL    HW111906   5.915   1.907   4.503
 3669SOL    HW211907   5.826   1.927   4.368
 3670SOL     OW11908   1.945   5.531   7.016
 3670SOL    HW111909   1.998   5.446   7.018
 3670SOL    HW211910   1.945   5.572   0.087
 3671SOL     OW11911   6.856   0.736   3.211
 3671SOL    HW111912   6.761   0.766   3.201
 3671SOL    HW211913   6.917   0.814   3.201
 3672SOL     OW11914   6.780   2.264   0.378
 3672SOL    HW111915   6.724   2.181   0.375
 3672SOL    HW211916   6.791   2.293   0.473
 3673SOL     OW11917   4.063   1.408   6.282
 3673SOL    HW111918   3.989   1.474   6.268
 3673SOL    HW211919   4.025   1.323   6.318
 3674SOL     OW11920   0.166   6.612   6.794
 3674SOL    HW111921   0.088   6.570   6.839
 3674SOL    HW211922   0.183   6.702   6.834
 3675SOL     OW11923   1.550   2.445   5.752
 3675SOL    HW111924   1.558   2.455   5.653
 3675SOL    HW211925   1.616   2.504   5.798
 3676SOL     OW11926   3.569   5.381   3.864
 3676SOL    HW111927   3.652   5.330   3.846
 3676SOL    HW211928   3.587   5.479   3.852
 3677SOL     OW11929   0.199   6.681   3.008
 3677SOL    HW111930   0.250   6.756   2.965
 3677SOL    HW211931   0.252   6.597   3.002
 3678SOL     OW11932   1.506   2.282   3.913
 3678SOL    HW111933   1.492   2.185   3.928
 3678SOL    HW211934   1.599   2.297   3.878
 3679SOL     OW11935   0.237   1.137   2.683
 3679SOL    HW111936   0.211   1.072   2.612
 3679SOL    HW211937   0.336   1.152   2.680
 3680SOL     OW11938   5.957   3.055   3.763
 3680SOL    HW111939   5.863   3.046   3.729
 3680SOL    HW211940   6.015   2.988   3.717
 3681SOL     OW11941   1.017   0.394   6.020
 3681SOL    HW111942   1.019   0.430   5.927
 3681SOL    HW211943   0.950   0.445   6.074
 3682SOL     OW11944   6.928   1.501   5.631
 3682SOL    HW111945   6.956   1.594   5.653
 3682SOL    HW211946   6.950   1.481   5.535
 3683SOL     OW11947   6.323   6.496   4.463
 3683SOL    HW111948   6.275   6.408   4.470
 3683SOL    HW211949   6.301   6.539   4.376
 3684SOL     OW11950   2.016   3.107   1.780
 3684SOL    HW111951   2.035   3.195   1.737
 3684SOL    HW211952   2.034   3.114   1.879
 3685SOL     OW11953   6.193   5.848   6.492
 3685SOL    HW111954   6.161   5.934   6.533
 3685SOL    HW211955   6.268   5.811   6.546
 3686SOL     OW11956   6.337   4.546   2.306
 3686SOL    HW111957   6.286   4.625   2.273
 3686SOL    HW211958   6.338   4.475   2.235
 3687SOL     OW11959   2.994   6.503   6.753
 3687SOL    HW111960   3.040   6.495   6.841
 3687SOL    HW211961   2.955   6.595   6.744
 3688SOL     OW11962   0.923   3.410   6.966
 3688SOL    HW111963   0.942   3.336   6.902
 3688SOL    HW211964   0.949   3.381   0.038
 3689SOL     OW11965   1.461   1.316   5.442
 3689SOL    HW111966   1.560   1.304   5.455
 3689SOL    HW211967   1.412   1.258   5.507
 3690SOL     OW11968   4.930   0.710   5.822
 3690SOL    HW111969   4.850   0.770   5.827
 3690SOL    HW211970   4.972   0.719   5.732
 3691SOL     OW11971   2.495   3.637   6.779
 3691SOL    HW111972   2.482   3.733   6.754
 3691SOL    HW211973   2.587   3.608   6.751
 3692SOL     OW11974   0.875   5.877   4.819
 3692SOL    HW111975   0.898   5.844   4.911
 3692SOL    HW211976   0.830   5.805   4.768
 3693SOL     OW11977   2.067   2.138   3.311
 3693SOL    HW111978   1.968   2.141   3.294
 3693SOL    HW211979   2.084   2.104   3.404
 3694SOL     OW11980   0.783   5.632   3.272
 3694SOL    HW111981   0.871   5.677   3.290
 3694SOL    HW211982   0.738   5.610   3.358
 3695SOL     OW11983   1.304   2.165   2.918
 3695SOL    HW111984   1.231   2.097   2.919
 3695SOL    HW211985   1.390   2.123   2.948
 3696SOL     OW11986   4.544   6.050   5.820
 3696SOL    HW111987   4.563   6.143   5.850
 3696SOL    HW211988   4.491   6.003   5.891
 3697SOL     OW11989   6.718   6.750   3.621
 3697SOL    HW111990   6.721   6.665   3.675
 3697SOL    HW211991   6.811   6.785   3.610
 3698SOL     OW11992   3.402   0.567   5.402
 3698SOL    HW111993   3.384   0.664   5.391
 3698SOL    HW211994   3.316   0.517   5.406
 3699SOL     OW11995   6.992   3.490   2.718
 3699SOL    HW111996   6.896   3.505   2.742
 3699SOL    HW211997   0.027   3.562   2.760
 3700SOL     OW11998   6.137   6.904   4.061
 3700SOL    HW111999   6.057   6.890   4.120
 3700SOL    HW212000   6.219   6.868   4.107
 3701SOL     OW12001   0.271   0.990   4.211
 3701SOL    HW112002   0.251   0.897   4.242
 3701SOL    HW212003   0.368   1.010   4.225
 3702SOL     OW12004   4.222   0.126   1.770
 3702SOL    HW112005   4.126   0.116   1.747
 3702SOL    HW212006   4.235   0.111   1.868
 3703SOL     OW12007   4.113   4.076   5.777
 3703SOL    HW112008   4.046   4.141   5.741
 3703SOL    HW212009   4.157   4.116   5.858
 3704SOL     OW12010   2.911   1.156   2.648
 3704SOL    HW112011   2.929   1.196   2.738
 3704SOL    HW212012   2.980   1.187   2.583
 3705SOL     OW12013   4.650   0.610   3.914
 3705SOL    HW112014   4.596   0.663   3.847
 3705SOL    HW212015   4.711   0.671   3.963
 3706SOL     OW12016   1.648   3.195   4.600
 3706SOL    HW112017   1.635   3.286   4.638
 3706SOL    HW212018   1.654   3.128   4.675
 3707SOL     OW12019   5.216   2.607   5.738
 3707SOL    HW112020   5.139   2.575   5.682
 3707SOL    HW212021   5.183   2.629   5.830
 3708SOL     OW12022   6.357   0.824   6.555
 3708SOL    HW112023   6.388   0.732   6.529
 3708SOL    HW212024   6.323   0.871   6.473
 3709SOL     OW12025   3.827   0.939   5.800
 3709SOL    HW112026   3.767   0.990   5.862
 3709SOL    HW212027   3.904   0.902   5.852
 3710SOL     OW12028   6.645   5.652   0.321
 3710SOL    HW112029   6.685   5.713   0.252
 3710SOL    HW212030   6.713   5.634   0.392
 3711SOL     OW12031   0.361   6.056   2.239
 3711SOL    HW112032   0.430   6.121   2.270
 3711SOL    HW212033   0.293   6.043   2.311
 3712SOL     OW12034   0.406   6.659   6.615
 3712SOL    HW112035   0.476   6.712   6.662
 3712SOL    HW212036   0.345   6.617   6.682
 3713SOL     OW12037   2.242   6.069   5.097
 3713SOL    HW112038   2.162   6.058   5.156
 3713SOL    HW212039   2.325   6.058   5.150
 3714SOL     OW12040   4.899   6.656   4.351
 3714SOL    HW112041   4.874   6.715   4.275
 3714SOL    HW212042   4.975   6.596   4.324
 3715SOL     OW12043   5.890   4.922   4.132
 3715SOL    HW112044   5.841   5.000   4.170
 3715SOL    HW212045   5.960   4.892   4.197
 3716SOL     OW12046   6.249   0.313   4.273
 3716SOL    HW112047   6.318   0.309   4.201
 3716SOL    HW212048   6.164   0.351   4.235
 3717SOL     OW12049   6.311   5.566   0.865
 3717SOL    HW112050   6.357   5.644   0.822
 3717SOL    HW212051   6.264   5.513   0.795
 3718SOL     OW12052   1.032   0.140   6.768
 3718SOL    HW112053   1.090   0.177   6.841
 3718SOL    HW212054   1.088   0.119   6.688
 3719SOL     OW12055   5.319   4.824   0.335
 3719SOL    HW112056   5.238   4.867   0.375
 3719SOL    HW212057   5.291   4.747   0.278
 3720SOL     OW12058   6.607   2.008   6.599
 3720SOL    HW112059   6.698   2.037   6.629
 3720SOL    HW212060   6.553   1.981   6.679
 3721SOL     OW12061   6.154   4.808   6.576
 3721SOL    HW112062   6.086   4.827   6.646
 3721SOL    HW212063   6.202   4.892   6.551
 3722SOL     OW12064   6.782   5.973   2.587
 3722SOL    HW112065   6.736   6.060   2.569
 3722SOL    HW212066   6.744   5.901   2.529
 3723SOL     OW12067   5.481   6.338   2.059
 3723SOL    HW112068   5.436   6.290   2.134
 3723SOL    HW212069   5.580   6.333   2.071
 3724SOL     OW12070   1.513   5.151   7.006
 3724SOL    HW112071   1.525   5.073   6.943
 3724SOL    HW212072   1.432   5.136   0.042
 3725SOL     OW12073   6.269   6.198   6.928
 3725SOL    HW112074   6.238   6.238   6.841
 3725SOL    HW212075   6.197   6.208   6.997
 3726SOL     OW12076   6.388   3.825   1.934
 3726SOL    HW112077   6.405   3.868   2.023
 3726SOL    HW212078   6.302   3.858   1.897
 3727SOL     OW12079   0.707   3.173   5.681
 3727SOL    HW112080   0.719   3.249   5.745
 3727SOL    HW212081   0.781   3.176   5.613
 3728SOL     OW12082   2.139   3.198   0.604
 3728SOL    HW112083   2.212   3.148   0.651
 3728SOL    HW212084   2.088   3.253   0.670
 3729SOL     OW12085   0.751   2.310   3.097
 3729SOL    HW112086   0.668   2.357   3.129
 3729SOL    HW212087   0.816   2.302   3.172
 3730SOL     OW12088   2.754   0.798   7.019
 3730SOL    HW112089   2.690   0.861   6.974
 3730SOL    HW212090   2.738   0.705   6.987
 3731SOL     OW12091   4.817   1.856   1.127
 3731SOL    HW112092   4.827   1.846   1.226
 3731SOL    HW212093   4.736   1.806   1.097
 3732SOL     OW12094   2.349   3.272   5.803
 3732SOL    HW112095   2.262   3.317   5.823
 3732SOL    HW212096   2.403   3.264   5.887
 3733SOL     OW12097   2.616   4.106   1.583
 3733SOL    HW112098   2.689   4.038   1.596
 3733SOL    HW212099   2.544   4.090   1.651
 3734SOL     OW12100   4.587   0.901   2.560
 3734SOL    HW112101   4.617   0.975   2.621
 3734SOL    HW212102   4.515   0.936   2.499
 3735SOL     OW12103   1.273   2.352   2.661
 3735SOL    HW112104   1.216   2.431   2.684
 3735SOL    HW212105   1.328   2.327   2.741
 3736SOL     OW12106   0.150   3.046   0.972
 3736SOL    HW112107   0.190   3.030   0.882
 3736SOL    HW212108   0.055   3.014   0.972
 3737SOL     OW12109   5.347   0.188   3.174
 3737SOL    HW112110   5.281   0.207   3.101
 3737SOL    HW212111   5.371   0.091   3.173
 3738SOL     OW12112   6.112   5.938   3.103
 3738SOL    HW112113   6.212   5.941   3.106
 3738SOL    HW212114   6.082   5.857   3.053
 3739SOL     OW12115   1.727   3.991   2.469
 3739SOL    HW112116   1.762   3.981   2.376
 3739SOL    HW212117   1.692   3.903   2.501
 3740SOL     OW12118   4.687   1.054   6.779
 3740SOL    HW112119   4.768   1.045   6.838
 3740SOL    HW212120   4.664   0.965   6.740
 3741SOL     OW12121   4.302   3.490   0.922
 3741SOL    HW112122   4.354   3.406   0.939
 3741SOL    HW212123   4.205   3.467   0.911
 3742SOL     OW12124   3.288   2.173   6.202
 3742SOL    HW112125   3.286   2.176   6.302
 3742SOL    HW212126   3.349   2.244   6.168
 3743SOL     OW12127   6.551   5.248   0.386
 3743SOL    HW112128   6.647   5.256   0.356
 3743SOL    HW212129   6.534   5.313   0.460
 3744SOL     OW12130   0.603   4.860   3.936
 3744SOL    HW112131   0.668   4.835   3.865
 3744SOL    HW212132   0.544   4.782   3.957
 3745SOL     OW12133   3.423   5.158   2.602
 3745SOL    HW112134   3.354   5.191   2.667
 3745SOL    HW212135   3.492   5.105   2.651
 3746SOL     OW12136   4.490   1.765   1.529
 3746SOL    HW112137   4.518   1.767   1.625
 3746SOL    HW212138   4.550   1.702   1.479
 3747SOL     OW12139   3.438   6.327   6.504
 3747SOL    HW112140   3.377   6.389   6.553
 3747SOL    HW212141   3.385   6.273   6.438
 3748SOL     OW12142   6.098   1.117   1.677
 3748SOL    HW112143   6.158   1.112   1.597
 3748SOL    HW212144   6.148   1.158   1.753
 3749SOL     OW12145   1.605   6.806   4.223
 3749SOL    HW112146   1.656   6.740   4.168
 3749SOL    HW212147   1.516   6.824   4.180
 3750SOL     OW12148   0.451   3.906   0.277
 3750SOL    HW112149   0.370   3.893   0.333
 3750SOL    HW212150   0.513   3.828   0.288
 3751SOL     OW12151   0.214   3.931   3.258
 3751SOL    HW112152   0.207   4.031   3.258
 3751SOL    HW212153   0.123   3.891   3.249
 3752SOL     OW12154   5.815   1.058   5.940
 3752SOL    HW112155   5.900   1.064   5.993
 3752SOL    HW212156   5.829   0.998   5.861
 3753SOL     OW12157   6.389   1.387   4.202
 3753SOL    HW112158   6.325   1.353   4.134
 3753SOL    HW212159   6.407   1.484   4.185
 3754SOL     OW12160   2.293   1.465   2.248
 3754SOL    HW112161   2.319   1.448   2.153
 3754SOL    HW212162   2.287   1.377   2.297
 3755SOL     OW12163   2.997   4.887   4.295
 3755SOL    HW112164   2.938   4.871   4.374
 3755SOL    HW212165   2.948   4.859   4.212
 3756SOL     OW12166   2.269   5.951   0.074
 3756SOL    HW112167   2.301   5.897   0.151
 3756SOL    HW212168   2.338   6.019   0.049
 3757SOL     OW12169   6.215   4.529   1.818
 3757SOL    HW112170   6.299   4.484   1.847
 3757SOL    HW212171   6.188   4.598   1.885
 3758SOL     OW12172   1.699   0.634   3.485
 3758SOL    HW112173   1.656   0.619   3.396
 3758SOL    HW212174   1.639   0.601   3.558
 3759SOL     OW12175   5.426   0.683   4.089
 3759SOL    HW112176   5.353   0.717   4.148
 3759SOL    HW212177   5.411   0.587   4.068
 3760SOL     OW12178   6.929   0.532   3.847
 3760SOL    HW112179   6.841   0.488   3.827
 3760SOL    HW212180   6.994   0.463   3.877
 3761SOL     OW12181   5.389   1.419   4.475
 3761SOL    HW112182   5.323   1.417   4.400
 3761SOL    HW212183   5.349   1.375   4.556
 3762SOL     OW12184   1.117   3.989   2.753
 3762SOL    HW112185   1.120   3.893   2.725
 3762SOL    HW212186   1.178   4.043   2.695
 3763SOL     OW12187   0.124   4.387   0.368
 3763SOL    HW112188   0.114   4.383   0.268
 3763SOL    HW212189   0.176   4.469   0.393
 3764SOL     OW12190   1.960   0.443   3.282
 3764SOL    HW112191   2.033   0.377   3.295
 3764SOL    HW212192   1.995   0.523   3.233
 3765SOL     OW12193   6.331   1.959   1.159
 3765SOL    HW112194   6.428   1.937   1.168
 3765SOL    HW212195   6.295   1.919   1.075
 3766SOL     OW12196   1.701   3.145   3.437
 3766SOL    HW112197   1.616   3.123   3.389
 3766SOL    HW212198   1.678   3.183   3.527
 3767SOL     OW12199   3.254   4.376   6.086
 3767SOL    HW112200   3.301   4.461   6.110
 3767SOL    HW212201   3.185   4.355   6.155
 3768SOL     OW12202   1.423   0.390   4.688
 3768SOL    HW112203   1.331   0.354   4.699
 3768SOL    HW212204   1.455   0.374   4.595
 3769SOL     OW12205   4.754   5.929   4.898
 3769SOL    HW112206   4.708   5.885   4.975
 3769SOL    HW212207   4.758   5.865   4.821
 3770SOL     OW12208   1.332   1.358   0.801
 3770SOL    HW112209   1.245   1.312   0.786
 3770SOL    HW212210   1.349   1.422   0.726
 3771SOL     OW12211   0.218   4.802   0.505
 3771SOL    HW112212   0.283   4.786   0.431
 3771SOL    HW212213   0.266   4.837   0.585
 3772SOL     OW12214   1.143   5.993   0.688
 3772SOL    HW112215   1.060   5.958   0.731
 3772SOL    HW212216   1.148   5.960   0.594
 3773SOL     OW12217   6.159   3.174   6.071
 3773SOL    HW112218   6.071   3.142   6.036
 3773SOL    HW212219   6.189   3.114   6.144
 3774SOL     OW12220   5.570   5.915   1.340
 3774SOL    HW112221   5.546   5.987   1.404
 3774SOL    HW212222   5.666   5.890   1.351
 3775SOL     OW12223   4.249   5.006   3.126
 3775SOL    HW112224   4.329   5.064   3.116
 3775SOL    HW212225   4.166   5.063   3.123
 3776SOL     OW12226   3.626   2.919   6.807
 3776SOL    HW112227   3.678   2.891   6.888
 3776SOL    HW212228   3.576   3.003   6.827
 3777SOL     OW12229   2.599   6.123   4.247
 3777SOL    HW112230   2.526   6.163   4.301
 3777SOL    HW212231   2.664   6.077   4.309
 3778SOL     OW12232   3.079   5.498   5.161
 3778SOL    HW112233   3.066   5.410   5.207
 3778SOL    HW212234   2.994   5.525   5.116
 3779SOL     OW12235   6.848   5.515   0.499
 3779SOL    HW112236   6.931   5.569   0.488
 3779SOL    HW212237   6.834   5.494   0.596
 3780SOL     OW12238   6.421   3.214   1.535
 3780SOL    HW112239   6.361   3.184   1.461
 3780SOL    HW212240   6.455   3.133   1.584
 3781SOL     OW12241   1.972   6.410   5.218
 3781SOL    HW112242   1.944   6.415   5.314
 3781SOL    HW212243   1.909   6.464   5.162
 3782SOL     OW12244   4.661   6.199   1.702
 3782SOL    HW112245   4.709   6.135   1.762
 3782SOL    HW212246   4.725   6.270   1.671
 3783SOL     OW12247   5.412   5.201   5.701
 3783SOL    HW112248   5.385   5.200   5.604
 3783SOL    HW212249   5.467   5.283   5.719
 3784SOL     OW12250   5.098   2.287   3.378
 3784SOL    HW112251   5.087   2.285   3.278
 3784SOL    HW212252   5.101   2.382   3.409
 3785SOL     OW12253   0.860   3.470   4.337
 3785SOL    HW112254   0.861   3.404   4.413
 3785SOL    HW212255   0.770   3.512   4.331
 3786SOL     OW12256   2.409   2.519   4.552
 3786SOL    HW112257   2.467   2.535   4.472
 3786SOL    HW212258   2.345   2.445   4.532
 3787SOL     OW12259   4.167   0.218   3.477
 3787SOL    HW112260   4.202   0.128   3.450
 3787SOL    HW212261   4.067   0.216   3.476
 3788SOL     OW12262   0.610   3.319   5.148
 3788SOL    HW112263   0.518   3.291   5.121
 3788SOL    HW212264   0.653   3.370   5.073
 3789SOL     OW12265   1.517   2.496   2.817
 3789SOL    HW112266   1.570   2.580   2.821
 3789SOL    HW212267   1.434   2.505   2.872
 3790SOL     OW12268   0.504   6.375   0.797
 3790SOL    HW112269   0.415   6.410   0.824
 3790SOL    HW212270   0.576   6.421   0.849
 3791SOL     OW12271   5.661   0.891   6.133
 3791SOL    HW112272   5.706   0.918   6.048
 3791SOL    HW212273   5.562   0.896   6.123
 3792SOL     OW12274   0.739   0.867   4.022
 3792SOL    HW112275   0.773   0.910   4.107
 3792SOL    HW212276   0.694   0.780   4.044
 3793SOL     OW12277   6.474   6.373   0.646
 3793SOL    HW112278   6.505   6.412   0.559
 3793SOL    HW212279   6.549   6.322   0.687
 3794SOL     OW12280   2.099   4.278   0.867
 3794SOL    HW112281   2.053   4.263   0.954
 3794SOL    HW212282   2.188   4.322   0.883
 3795SOL     OW12283   2.739   5.813   0.939
 3795SOL    HW112284   2.651   5.781   0.975
 3795SOL    HW212285   2.814   5.765   0.985
 3796SOL     OW12286   4.383   1.873   0.333
 3796SOL    HW112287   4.374   1.957   0.388
 3796SOL    HW212288   4.406   1.897   0.239
 3797SOL     OW12289   0.821   4.253   2.991
 3797SOL    HW112290   0.764   4.172   2.976
 3797SOL    HW212291   0.880   4.238   3.070
 3798SOL     OW12292   2.321   6.427   2.871
 3798SOL    HW112293   2.272   6.401   2.788
 3798SOL    HW212294   2.285   6.513   2.906
 3799SOL     OW12295   6.432   2.574   3.239
 3799SOL    HW112296   6.442   2.637   3.161
 3799SOL    HW212297   6.521   2.560   3.282
 3800SOL     OW12298   5.368   1.695   3.104
 3800SOL    HW112299   5.323   1.693   3.193
 3800SOL    HW212300   5.422   1.611   3.091
 3801SOL     OW12301   5.530   6.841   2.059
 3801SOL    HW112302   5.442   6.805   2.090
 3801SOL    HW212303   5.604   6.792   2.105
 3802SOL     OW12304   6.478   2.060   2.053
 3802SOL    HW112305   6.546   1.989   2.074
 3802SOL    HW212306   6.512   2.117   1.978
 3803SOL     OW12307   3.109   3.631   4.148
 3803SOL    HW112308   3.031   3.638   4.086
 3803SOL    HW212309   3.141   3.722   4.173
 3804SOL     OW12310   3.749   0.207   4.767
 3804SOL    HW112311   3.719   0.302   4.776
 3804SOL    HW212312   3.832   0.203   4.712
 3805SOL     OW12313   2.049   3.229   0.328
 3805SOL    HW112314   2.105   3.169   0.271
 3805SOL    HW212315   2.076   3.220   0.424
 3806SOL     OW12316   4.366   4.398   6.565
 3806SOL    HW112317   4.384   4.485   6.611
 3806SOL    HW212318   4.424   4.391   6.483
 3807SOL     OW12319   1.234   5.391   3.916
 3807SOL    HW112320   1.271   5.467   3.970
 3807SOL    HW212321   1.193   5.427   3.832
 3808SOL     OW12322   4.977   0.106   5.948
 3808SOL    HW112323   5.039   0.165   5.895
 3808SOL    HW212324   4.945   0.031   5.891
 3809SOL     OW12325   5.695   2.001   1.277
 3809SOL    HW112326   5.597   2.003   1.297
 3809SOL    HW212327   5.713   1.928   1.210
 3810SOL     OW12328   6.895   2.539   2.585
 3810SOL    HW112329   6.951   2.598   2.643
 3810SOL    HW212330   6.949   2.460   2.555
 3811SOL     OW12331   6.990   5.265   5.156
 3811SOL    HW112332   6.923   5.278   5.084
 3811SOL    HW212333   0.056   5.308   5.129
 3812SOL     OW12334   3.750   6.067   6.789
 3812SOL    HW112335   3.684   6.090   6.860
 3812SOL    HW212336   3.842   6.094   6.819
 3813SOL     OW12337   6.381   3.590   0.858
 3813SOL    HW112338   6.327   3.525   0.910
 3813SOL    HW212339   6.354   3.587   0.762
 3814SOL     OW12340   6.552   6.994   4.516
 3814SOL    HW112341   6.529   6.984   4.613
 3814SOL    HW212342   6.469   7.011   4.464
 3815SOL     OW12343   4.917   3.289   0.461
 3815SOL    HW112344   4.885   3.375   0.422
 3815SOL    HW212345   4.846   3.251   0.521
 3816SOL     OW12346   1.030   6.138   5.457
 3816SOL    HW112347   1.098   6.155   5.385
 3816SOL    HW212348   0.957   6.080   5.421
 3817SOL     OW12349   4.916   3.587   2.612
 3817SOL    HW112350   4.971   3.668   2.633
 3817SOL    HW212351   4.905   3.579   2.513
 3818SOL     OW12352   0.496   0.749   1.859
 3818SOL    HW112353   0.498   0.674   1.793
 3818SOL    HW212354   0.466   0.715   1.948
 3819SOL     OW12355   6.577   4.462   3.388
 3819SOL    HW112356   6.657   4.515   3.359
 3819SOL    HW212357   6.606   4.385   3.444
 3820SOL     OW12358   5.763   6.784   4.433
 3820SOL    HW112359   5.825   6.721   4.480
 3820SOL    HW212360   5.723   6.739   4.354
 3821SOL     OW12361   0.620   0.038   6.693
 3821SOL    HW112362   0.528   0.071   6.715
 3821SOL    HW212363   0.687   0.106   6.724
 3822SOL     OW12364   3.814   0.950   0.156
 3822SOL    HW112365   3.904   0.924   0.192
 3822SOL    HW212366   3.776   1.024   0.211
 3823SOL     OW12367   4.922   4.787   5.886
 3823SOL    HW112368   4.969   4.835   5.960
 3823SOL    HW212369   4.829   4.823   5.877
 3824SOL     OW12370   1.365   3.254   0.190
 3824SOL    HW112371   1.367   3.211   0.100
 3824SOL    HW212372   1.308   3.200   0.252
 3825SOL     OW12373   1.307   4.148   0.129
 3825SOL    HW112374   1.301   4.094   0.045
 3825SOL    HW212375   1.401   4.179   0.142
 3826SOL     OW12376   6.353   4.295   2.177
 3826SOL    HW112377   6.258   4.285   2.147
 3826SOL    HW212378   6.362   4.261   2.271
 3827SOL     OW12379   0.929   0.858   1.558
 3827SOL    HW112380   0.839   0.881   1.594
 3827SOL    HW212381   0.979   0.942   1.537
 3828SOL     OW12382   3.378   4.178   4.566
 3828SOL    HW112383   3.413   4.175   4.472
 3828SOL    HW212384   3.454   4.174   4.630
 3829SOL     OW12385   0.335   4.812   2.275
 3829SOL    HW112386   0.368   4.906   2.264
 3829SOL    HW212387   0.376   4.772   2.358
 3830SOL     OW12388   0.640   0.468   5.141
 3830SOL    HW112389   0.569   0.442   5.207
 3830SOL    HW212390   0.631   0.565   5.118
 3831SOL     OW12391   4.559   1.754   3.292
 3831SOL    HW112392   4.625   1.784   3.223
 3831SOL    HW212393   4.476   1.810   3.286
 3832SOL     OW12394   0.521   0.389   2.166
 3832SOL    HW112395   0.536   0.400   2.068
 3832SOL    HW212396   0.607   0.369   2.212
 3833SOL     OW12397   1.323   6.664   6.108
 3833SOL    HW112398   1.299   6.605   6.185
 3833SOL    HW212399   1.251   6.662   6.039
 3834SOL     OW12400   4.406   4.457   1.089
 3834SOL    HW112401   4.404   4.551   1.122
 3834SOL    HW212402   4.418   4.457   0.990
 3835SOL     OW12403   3.386   5.907   5.555
 3835SOL    HW112404   3.394   5.920   5.456
 3835SOL    HW212405   3.450   5.968   5.602
 3836SOL     OW12406   0.590   5.387   6.467
 3836SOL    HW112407   0.499   5.419   6.441
 3836SOL    HW212408   0.654   5.464   6.471
 3837SOL     OW12409   3.990   4.933   5.017
 3837SOL    HW112410   3.951   4.903   5.104
 3837SOL    HW212411   3.941   5.014   4.984
 3838SOL     OW12412   1.786   0.891   3.456
 3838SOL    HW112413   1.691   0.921   3.449
 3838SOL    HW212414   1.789   0.799   3.496
 3839SOL     OW12415   4.522   0.067   3.293
 3839SOL    HW112416   4.462   0.048   3.371
 3839SOL    HW212417   4.524   7.009   3.232
 3840SOL     OW12418   2.438   0.486   6.917
 3840SOL    HW112419   2.378   0.477   6.838
 3840SOL    HW212420   2.520   0.431   6.903
 3841SOL     OW12421   6.895   4.646   4.314
 3841SOL    HW112422   6.879   4.736   4.354
 3841SOL    HW212423   6.965   4.653   4.242
 3842SOL     OW12424   2.219   2.743   4.608
 3842SOL    HW112425   2.153   2.668   4.613
 3842SOL    HW212426   2.307   2.709   4.576
 3843SOL     OW12427   5.080   3.091   0.953
 3843SOL    HW112428   5.027   3.157   0.900
 3843SOL    HW212429   5.086   3.120   1.048
 3844SOL     OW12430   1.216   5.287   0.591
 3844SOL    HW112431   1.216   5.267   0.493
 3844SOL    HW212432   1.125   5.317   0.619
 3845SOL     OW12433   2.006   5.813   0.282
 3845SOL    HW112434   1.935   5.855   0.339
 3845SOL    HW212435   1.999   5.848   0.189
 3846SOL     OW12436   0.458   2.835   4.704
 3846SOL    HW112437   0.449   2.750   4.757
 3846SOL    HW212438   0.504   2.904   4.760
 3847SOL     OW12439   5.439   1.885   4.763
 3847SOL    HW112440   5.350   1.914   4.799
 3847SOL    HW212441   5.432   1.792   4.728
 3848SOL     OW12442   4.783   2.972   2.847
 3848SOL    HW112443   4.773   2.974   2.747
 3848SOL    HW212444   4.754   2.883   2.881
 3849SOL     OW12445   0.755   6.502   6.254
 3849SOL    HW112446   0.672   6.510   6.310
 3849SOL    HW212447   0.798   6.592   6.245
 3850SOL     OW12448   2.841   2.766   1.540
 3850SOL    HW112449   2.800   2.796   1.626
 3850SOL    HW212450   2.940   2.782   1.542
 3851SOL     OW12451   0.204   5.231   3.426
 3851SOL    HW112452   0.113   5.222   3.467
 3851SOL    HW212453   0.272   5.239   3.499
 3852SOL     OW12454   2.904   6.881   4.167
 3852SOL    HW112455   2.902   6.980   4.151
 3852SOL    HW212456   2.893   6.833   4.080
 3853SOL     OW12457   2.219   1.616   3.941
 3853SOL    HW112458   2.307   1.581   3.971
 3853SOL    HW212459   2.150   1.544   3.951
 3854SOL     OW12460   1.658   2.993   3.010
 3854SOL    HW112461   1.576   3.004   2.955
 3854SOL    HW212462   1.633   2.969   3.104
 3855SOL     OW12463   4.441   6.334   0.743
 3855SOL    HW112464   4.432   6.429   0.714
 3855SOL    HW212465   4.415   6.274   0.667
 3856SOL     OW12466   0.701   2.127   6.443
 3856SOL    HW112467   0.761   2.124   6.363
 3856SOL    HW212468   0.706   2.039   6.491
 3857SOL     OW12469   2.425   6.558   5.764
 3857SOL    HW112470   2.464   6.630   5.708
 3857SOL    HW212471   2.431   6.584   5.861
 3858SOL     OW12472   3.780   1.560   5.914
 3858SOL    HW112473   3.713   1.596   5.850
 3858SOL    HW212474   3.745   1.476   5.956
 3859SOL     OW12475   6.048   0.923   1.174
 3859SOL    HW112476   5.983   0.882   1.110
 3859SOL    HW212477   6.015   0.911   1.268
 3860SOL     OW12478   1.901   0.398   4.566
 3860SOL    HW112479   1.952   0.363   4.487
 3860SOL    HW212480   1.960   0.456   4.621
 3861SOL     OW12481   4.223   5.888   2.800
 3861SOL    HW112482   4.298   5.932   2.850
 3861SOL    HW212483   4.207   5.936   2.714
 3862SOL     OW12484   0.610   0.656   4.137
 3862SOL    HW112485   0.519   0.631   4.103
 3862SOL    HW212486   0.667   0.575   4.145
 3863SOL     OW12487   5.429   0.933   0.429
 3863SOL    HW112488   5.516   0.979   0.412
 3863SOL    HW212489   5.440   0.834   0.418
 3864SOL     OW12490   2.413   0.828   4.986
 3864SOL    HW112491   2.357   0.889   4.930
 3864SOL    HW212492   2.373   0.736   4.985
 3865SOL     OW12493   4.539   0.650   0.503
 3865SOL    HW112494   4.453   0.700   0.511
 3865SOL    HW212495   4.609   0.710   0.465
 3866SOL     OW12496   4.032   1.489   6.685
 3866SOL    HW112497   4.046   1.569   6.743
 3866SOL    HW212498   4.112   1.476   6.625
 3867SOL     OW12499   1.393   4.791   3.313
 3867SOL    HW112500   1.308   4.811   3.362
 3867SOL    HW212501   1.404   4.692   3.306
 3868SOL     OW12502   4.191   0.194   6.631
 3868SOL    HW112503   4.218   0.108   6.587
 3868SOL    HW212504   4.181   0.265   6.562
 3869SOL     OW12505   6.759   3.225   3.999
 3869SOL    HW112506   6.787   3.320   3.985
 3869SOL    HW212507   6.687   3.201   3.935
 3870SOL     OW12508   6.525   6.891   2.413
 3870SOL    HW112509   6.568   6.965   2.361
 3870SOL    HW212510   6.426   6.907   2.419
 3871SOL     OW12511   2.976   6.832   3.438
 3871SOL    HW112512   2.994   6.915   3.491
 3871SOL    HW212513   2.956   6.756   3.501
 3872SOL     OW12514   3.155   3.034   3.847
 3872SOL    HW112515   3.246   3.074   3.842
 3872SOL    HW212516   3.132   2.994   3.758
 3873SOL     OW12517   5.007   3.888   0.865
 3873SOL    HW112518   4.956   3.907   0.782
 3873SOL    HW212519   5.010   3.789   0.881
 3874SOL     OW12520   4.137   0.447   0.410
 3874SOL    HW112521   4.116   0.454   0.312
 3874SOL    HW212522   4.223   0.398   0.422
 3875SOL     OW12523   1.836   3.177   3.988
 3875SOL    HW112524   1.792   3.232   4.059
 3875SOL    HW212525   1.846   3.083   4.020
 3876SOL     OW12526   3.327   5.673   0.962
 3876SOL    HW112527   3.290   5.701   1.050
 3876SOL    HW212528   3.274   5.595   0.927
 3877SOL     OW12529   6.421   2.277   0.980
 3877SOL    HW112530   6.340   2.288   0.922
 3877SOL    HW212531   6.485   2.213   0.937
 3878SOL     OW12532   4.725   6.724   4.699
 3878SOL    HW112533   4.781   6.641   4.702
 3878SOL    HW212534   4.653   6.719   4.768
 3879SOL     OW12535   5.949   4.966   0.332
 3879SOL    HW112536   5.858   5.002   0.351
 3879SOL    HW212537   5.972   4.894   0.397
 3880SOL     OW12538   4.828   3.778   4.507
 3880SOL    HW112539   4.791   3.804   4.418
 3880SOL    HW212540   4.927   3.772   4.501
 3881SOL     OW12541   1.667   3.631   1.064
 3881SOL    HW112542   1.741   3.566   1.049
 3881SOL    HW212543   1.590   3.607   1.005
 3882SOL     OW12544   1.346   1.456   0.041
 3882SOL    HW112545   1.368   1.360   0.021
 3882SOL    HW212546   1.399   1.487   0.119
 3883SOL     OW12547   4.479   0.750   2.754
 3883SOL    HW112548   4.383   0.750   2.728
 3883SOL    HW212549   4.529   0.816   2.697
 3884SOL     OW12550   0.588   5.719   2.398
 3884SOL    HW112551   0.685   5.705   2.420
 3884SOL    HW212552   0.533   5.704   2.481
 3885SOL     OW12553   5.969   6.101   3.506
 3885SOL    HW112554   6.058   6.066   3.537
 3885SOL    HW212555   5.928   6.156   3.579
 3886SOL     OW12556   4.555   6.039   5.543
 3886SOL    HW112557   4.476   6.081   5.498
 3886SOL    HW212558   4.556   6.068   5.639
 3887SOL     OW12559   0.867   6.494   0.325
 3887SOL    HW112560   0.951   6.541   0.353
 3887SOL    HW212561   0.885   6.395   0.319
 3888SOL     OW12562   6.325   6.298   4.885
 3888SOL    HW112563   6.227   6.275   4.887
 3888SOL    HW212564   6.376   6.231   4.940
 3889SOL     OW12565   6.589   2.708   6.863
 3889SOL    HW112566   6.532   2.766   6.804
 3889SOL    HW212567   6.553   2.614   6.862
 3890SOL     OW12568   6.039   4.762   3.527
 3890SOL    HW112569   6.090   4.695   3.582
 3890SOL    HW212570   5.979   4.815   3.586
 3891SOL     OW12571   4.894   3.906   3.666
 3891SOL    HW112572   4.921   3.818   3.626
 3891SOL    HW212573   4.898   3.976   3.595
 3892SOL     OW12574   0.505   2.784   1.155
 3892SOL    HW112575   0.591   2.832   1.172
 3892SOL    HW212576   0.514   2.724   1.076
 3893SOL     OW12577   4.023   4.136   0.959
 3893SOL    HW112578   3.996   4.203   0.890
 3893SOL    HW212579   4.087   4.177   1.023
 3894SOL     OW12580   5.643   0.637   6.627
 3894SOL    HW112581   5.658   0.701   6.551
 3894SOL    HW212582   5.676   0.546   6.601
 3895SOL     OW12583   1.513   6.810   5.311
 3895SOL    HW112584   1.463   6.843   5.391
 3895SOL    HW212585   1.608   6.793   5.336
 3896SOL     OW12586   0.961   1.270   6.604
 3896SOL    HW112587   0.979   1.197   6.669
 3896SOL    HW212588   0.877   1.318   6.629
 3897SOL     OW12589   3.984   5.486   2.768
 3897SOL    HW112590   3.894   5.443   2.765
 3897SOL    HW212591   4.008   5.518   2.676
 3898SOL     OW12592   3.322   1.987   0.001
 3898SOL    HW112593   3.413   2.019   6.994
 3898SOL    HW212594   3.302   2.022   0.093
 3899SOL     OW12595   4.599   6.784   5.919
 3899SOL    HW112596   4.675   6.792   5.983
 3899SOL    HW212597   4.516   6.759   5.970
 3900SOL     OW12598   4.787   2.522   3.685
 3900SOL    HW112599   4.865   2.466   3.712
 3900SOL    HW212600   4.796   2.614   3.724
 3901SOL     OW12601   3.446   0.770   6.115
 3901SOL    HW112602   3.472   0.674   6.114
 3901SOL    HW212603   3.459   0.807   6.207
 3902SOL     OW12604   6.166   2.954   2.213
 3902SOL    HW112605   6.135   2.935   2.120
 3902SOL    HW212606   6.090   2.937   2.277
 3903SOL     OW12607   3.525   6.813   0.258
 3903SOL    HW112608   3.562   6.886   0.314
 3903SOL    HW212609   3.566   6.816   0.167
 3904SOL     OW12610   1.974   0.371   6.734
 3904SOL    HW112611   1.893   0.365   6.676
 3904SOL    HW212612   1.974   0.459   6.782
 3905SOL     OW12613   6.478   6.699   5.903
 3905SOL    HW112614   6.564   6.695   5.853
 3905SOL    HW212615   6.428   6.782   5.876
 3906SOL     OW12616   5.728   6.721   5.568
 3906SOL    HW112617   5.632   6.737   5.589
 3906SOL    HW212618   5.785   6.756   5.642
 3907SOL     OW12619   5.938   0.808   4.170
 3907SOL    HW112620   5.838   0.802   4.163
 3907SOL    HW212621   5.970   0.744   4.240
 3908SOL     OW12622   0.738   2.490   6.604
 3908SOL    HW112623   0.816   2.551   6.622
 3908SOL    HW212624   0.756   2.401   6.646
 3909SOL     OW12625   5.936   6.085   4.429
 3909SOL    HW112626   5.973   6.178   4.425
 3909SOL    HW212627   6.011   6.020   4.445
 3910SOL     OW12628   3.371   3.679   2.285
 3910SOL    HW112629   3.444   3.707   2.223
 3910SOL    HW212630   3.333   3.591   2.256
 3911SOL     OW12631   5.836   1.628   5.302
 3911SOL    HW112632   5.739   1.651   5.295
 3911SOL    HW212633   5.849   1.561   5.375
 3912SOL     OW12634   5.732   0.176   5.142
 3912SOL    HW112635   5.671   0.139   5.072
 3912SOL    HW212636   5.763   0.267   5.114
 3913SOL     OW12637   2.392   6.530   6.062
 3913SOL    HW112638   2.304   6.534   6.108
 3913SOL    HW212639   2.424   6.435   6.059
 3914SOL     OW12640   2.883   0.751   1.508
 3914SOL    HW112641   2.889   0.846   1.476
 3914SOL    HW212642   2.968   0.726   1.554
 3915SOL     OW12643   5.355   6.074   0.933
 3915SOL    HW112644   5.256   6.061   0.927
 3915SOL    HW212645   5.401   5.998   0.888
 3916SOL     OW12646   1.011   0.226   3.678
 3916SOL    HW112647   1.001   0.317   3.717
 3916SOL    HW212648   1.107   0.198   3.681
 3917SOL     OW12649   6.606   6.318   6.712
 3917SOL    HW112650   6.686   6.338   6.770
 3917SOL    HW212651   6.625   6.348   6.619
 3918SOL     OW12652   5.937   5.709   1.290
 3918SOL    HW112653   5.886   5.757   1.219
 3918SOL    HW212654   6.009   5.769   1.325
 3919SOL     OW12655   4.691   6.772   0.493
 3919SOL    HW112656   4.725   6.681   0.469
 3919SOL    HW212657   4.765   6.839   0.484
 3920SOL     OW12658   2.751   3.467   0.349
 3920SOL    HW112659   2.789   3.536   0.288
 3920SOL    HW212660   2.818   3.444   0.420
 3921SOL     OW12661   0.042   3.471   1.657
 3921SOL    HW112662   0.025   3.508   1.566
 3921SOL    HW212663   0.082   3.380   1.649
 3922SOL     OW12664   6.509   3.561   1.910
 3922SOL    HW112665   6.467   3.505   1.838
 3922SOL    HW212666   6.462   3.649   1.916
 3923SOL     OW12667   0.437   1.134   0.579
 3923SOL    HW112668   0.442   1.200   0.504
 3923SOL    HW212669   0.426   1.181   0.666
 3924SOL     OW12670   5.570   4.876   3.764
 3924SOL    HW112671   5.536   4.928   3.685
 3924SOL    HW212672   5.654   4.918   3.799
 3925SOL     OW12673   2.077   5.512   1.017
 3925SOL    HW112674   2.114   5.483   0.929
 3925SOL    HW212675   2.083   5.436   1.082
 3926SOL     OW12676   5.856   5.103   2.480
 3926SOL    HW112677   5.904   5.035   2.536
 3926SOL    HW212678   5.799   5.057   2.412
 3927SOL     OW12679   5.896   2.402   4.922
 3927SOL    HW112680   5.940   2.492   4.932
 3927SOL    HW212681   5.814   2.412   4.866
 3928SOL     OW12682   4.018   6.084   6.557
 3928SOL    HW112683   3.976   6.069   6.646
 3928SOL    HW212684   4.087   6.156   6.563
 3929SOL     OW12685   0.460   0.516   4.657
 3929SOL    HW112686   0.463   0.482   4.751
 3929SOL    HW212687   0.397   0.594   4.651
 3930SOL     OW12688   3.006   2.174   4.097
 3930SOL    HW112689   3.083   2.168   4.034
 3930SOL    HW212690   2.937   2.105   4.073
 3931SOL     OW12691   1.744   1.632   1.183
 3931SOL    HW112692   1.732   1.658   1.279
 3931SOL    HW212693   1.695   1.547   1.165
 3932SOL     OW12694   1.249   4.219   3.728
 3932SOL    HW112695   1.264   4.249   3.634
 3932SOL    HW212696   1.151   4.207   3.744
 3933SOL     OW12697   1.877   6.217   6.923
 3933SOL    HW112698   1.824   6.133   6.933
 3933SOL    HW212699   1.971   6.194   6.896
 3934SOL     OW12700   0.227   0.979   0.024
 3934SOL    HW112701   0.295   1.016   0.088
 3934SOL    HW212702   0.206   0.884   0.049
 3935SOL     OW12703   2.852   6.725   6.786
 3935SOL    HW112704   2.837   6.793   6.715
 3935SOL    HW212705   2.819   6.760   6.873
 3936SOL     OW12706   6.892   5.004   5.360
 3936SOL    HW112707   6.819   5.061   5.321
 3936SOL    HW212708   6.977   5.022   5.310
 3937SOL     OW12709   0.153   1.552   2.979
 3937SOL    HW112710   0.129   1.569   2.884
 3937SOL    HW212711   0.253   1.551   2.989
 3938SOL     OW12712   0.391   2.240   3.497
 3938SOL    HW112713   0.310   2.181   3.492
 3938SOL    HW212714   0.365   2.329   3.534
 3939SOL     OW12715   1.930   3.038   3.101
 3939SOL    HW112716   1.853   3.001   3.048
 3939SOL    HW212717   1.910   3.131   3.129
 3940SOL     OW12718   5.032   4.466   1.533
 3940SOL    HW112719   5.082   4.516   1.462
 3940SOL    HW212720   5.009   4.375   1.500
 3941SOL     OW12721   5.281   3.421   5.387
 3941SOL    HW112722   5.338   3.378   5.317
 3941SOL    HW212723   5.187   3.388   5.378
 3942SOL     OW12724   0.222   6.772   6.191
 3942SOL    HW112725   0.256   6.686   6.155
 3942SOL    HW212726   0.289   6.844   6.176
 3943SOL     OW12727   6.698   2.616   3.040
 3943SOL    HW112728   6.648   2.557   2.976
 3943SOL    HW212729   6.762   2.560   3.093
 3944SOL     OW12730   4.703   2.418   4.832
 3944SOL    HW112731   4.792   2.382   4.860
 3944SOL    HW212732   4.631   2.356   4.864
 3945SOL     OW12733   1.007   2.235   0.207
 3945SOL    HW112734   1.105   2.242   0.189
 3945SOL    HW212735   0.983   2.139   0.222
 3946SOL     OW12736   5.359   4.854   4.350
 3946SOL    HW112737   5.419   4.795   4.296
 3946SOL    HW212738   5.288   4.892   4.292
 3947SOL     OW12739   5.052   6.496   6.861
 3947SOL    HW112740   5.128   6.477   6.799
 3947SOL    HW212741   5.088   6.527   6.949
 3948SOL     OW12742   0.119   5.020   2.420
 3948SOL    HW112743   0.186   4.950   2.396
 3948SOL    HW212744   0.091   5.069   2.337
 3949SOL     OW12745   4.872   0.118   3.465
 3949SOL    HW112746   4.859   0.137   3.368
 3949SOL    HW212747   4.795   0.063   3.499
 3950SOL     OW12748   1.993   4.620   0.552
 3950SOL    HW112749   1.957   4.550   0.613
 3950SOL    HW212750   1.928   4.696   0.548
 3951SOL     OW12751   4.533   0.353   1.304
 3951SOL    HW112752   4.499   0.260   1.293
 3951SOL    HW212753   4.523   0.380   1.400
 3952SOL     OW12754   6.816   2.599   2.116
 3952SOL    HW112755   6.788   2.569   2.208
 3952SOL    HW212756   6.803   2.697   2.108
 3953SOL     OW12757   4.026   5.095   1.207
 3953SOL    HW112758   4.002   4.999   1.215
 3953SOL    HW212759   3.943   5.151   1.210
 3954SOL     OW12760   4.065   5.291   5.074
 3954SOL    HW112761   4.138   5.325   5.015
 3954SOL    HW212762   3.989   5.258   5.017
 3955SOL     OW12763   2.994   6.914   6.268
 3955SOL    HW112764   2.905   6.920   6.224
 3955SOL    HW212765   3.057   6.978   6.225
 3956SOL     OW12766   1.166   0.820   2.787
 3956SOL    HW112767   1.087   0.812   2.726
 3956SOL    HW212768   1.249   0.831   2.732
 3957SOL     OW12769   4.815   6.773   4.116
 3957SOL    HW112770   4.892   6.829   4.087
 3957SOL    HW212771   4.819   6.684   4.069
 3958SOL     OW12772   5.797   1.322   4.639
 3958SOL    HW112773   5.782   1.409   4.686
 3958SOL    HW212774   5.854   1.263   4.696
 3959SOL     OW12775   4.470   6.748   0.340
 3959SOL    HW112776   4.561   6.747   0.382
 3959SOL    HW212777   4.417   6.672   0.376
 3960SOL     OW12778   5.160   1.054   6.085
 3960SOL    HW112779   5.202   0.989   6.148
 3960SOL    HW212780   5.147   1.142   6.130
 3961SOL     OW12781   5.452   1.364   2.343
 3961SOL    HW112782   5.407   1.283   2.382
 3961SOL    HW212783   5.550   1.347   2.336
 3962SOL     OW12784   2.418   4.770   6.832
 3962SOL    HW112785   2.457   4.725   6.912
 3962SOL    HW212786   2.318   4.763   6.835
 3963SOL     OW12787   4.560   5.331   3.112
 3963SOL    HW112788   4.495   5.275   3.060
 3963SOL    HW212789   4.651   5.290   3.106
 3964SOL     OW12790   4.322   5.100   3.391
 3964SOL    HW112791   4.277   5.143   3.314
 3964SOL    HW212792   4.278   5.130   3.476
 3965SOL     OW12793   4.856   2.978   4.273
 3965SOL    HW112794   4.874   3.008   4.179
 3965SOL    HW212795   4.855   3.058   4.333
 3966SOL     OW12796   4.724   6.203   6.056
 3966SOL    HW112797   4.665   6.163   6.126
 3966SOL    HW212798   4.790   6.135   6.025
 3967SOL     OW12799   2.185   3.854   2.355
 3967SOL    HW112800   2.126   3.831   2.432
 3967SOL    HW212801   2.280   3.831   2.377
 3968SOL     OW12802   4.654   0.644   1.041
 3968SOL    HW112803   4.712   0.724   1.059
 3968SOL    HW212804   4.635   0.639   0.943
 3969SOL     OW12805   0.731   4.502   2.401
 3969SOL    HW112806   0.686   4.501   2.312
 3969SOL    HW212807   0.807   4.438   2.401
 3970SOL     OW12808   5.434   6.500   3.343
 3970SOL    HW112809   5.406   6.517   3.437
 3970SOL    HW212810   5.353   6.473   3.289
 3971SOL     OW12811   3.324   5.409   3.769
 3971SOL    HW112812   3.327   5.405   3.670
 3971SOL    HW212813   3.415   5.388   3.806
 3972SOL     OW12814   1.228   3.939   0.635
 3972SOL    HW112815   1.307   3.950   0.695
 3972SOL    HW212816   1.145   3.965   0.685
 3973SOL     OW12817   1.612   5.761   6.379
 3973SOL    HW112818   1.640   5.696   6.308
 3973SOL    HW212819   1.690   5.783   6.437
 3974SOL     OW12820   2.042   0.027   5.336
 3974SOL    HW112821   2.009   6.965   5.291
 3974SOL    HW212822   2.108   0.002   5.408
 3975SOL     OW12823   5.304   1.381   6.066
 3975SOL    HW112824   5.229   1.351   6.125
 3975SOL    HW212825   5.351   1.458   6.109
 3976SOL     OW12826   1.472   6.084   1.912
 3976SOL    HW112827   1.563   6.043   1.911
 3976SOL    HW212828   1.455   6.128   2.000
 3977SOL     OW12829   2.058   3.167   6.019
 3977SOL    HW112830   1.970   3.118   6.020
 3977SOL    HW212831   2.125   3.115   6.073
 3978SOL     OW12832   5.816   5.338   3.424
 3978SOL    HW112833   5.750   5.272   3.388
 3978SOL    HW212834   5.880   5.291   3.484
 3979SOL     OW12835   3.918   1.014   6.918
 3979SOL    HW112836   3.837   1.050   6.871
 3979SOL    HW212837   3.891   0.979   7.008
 3980SOL     OW12838   5.670   6.101   6.969
 3980SOL    HW112839   5.707   6.082   6.879
 3980SOL    HW212840   5.606   6.178   6.963
 3981SOL     OW12841   3.396   0.152   0.701
 3981SOL    HW112842   3.406   0.228   0.765
 3981SOL    HW212843   3.474   0.150   0.638
 3982SOL     OW12844   2.559   6.620   3.396
 3982SOL    HW112845   2.600   6.652   3.310
 3982SOL    HW212846   2.611   6.657   3.473
 3983SOL     OW12847   4.962   4.894   4.289
 3983SOL    HW112848   4.938   4.835   4.366
 3983SOL    HW212849   5.032   4.849   4.233
 3984SOL     OW12850   6.750   1.173   2.235
 3984SOL    HW112851   6.704   1.233   2.170
 3984SOL    HW212852   6.835   1.139   2.194
 3985SOL     OW12853   2.709   4.602   6.718
 3985SOL    HW112854   2.699   4.585   6.816
 3985SOL    HW212855   2.640   4.549   6.668
 3986SOL     OW12856   4.901   1.401   2.625
 3986SOL    HW112857   4.889   1.445   2.536
 3986SOL    HW212858   4.990   1.426   2.662
 3987SOL     OW12859   3.812   4.955   3.384
 3987SOL    HW112860   3.841   4.894   3.457
 3987SOL    HW212861   3.719   4.932   3.356
 3988SOL     OW12862   2.959   5.209   0.046
 3988SOL    HW112863   2.985   5.302   0.072
 3988SOL    HW212864   3.012   5.181   6.987
 3989SOL     OW12865   6.832   2.654   6.709
 3989SOL    HW112866   6.914   2.674   6.763
 3989SOL    HW212867   6.751   2.688   6.757
 3990SOL     OW12868   4.403   2.164   2.449
 3990SOL    HW112869   4.430   2.069   2.435
 3990SOL    HW212870   4.397   2.211   2.361
 3991SOL     OW12871   6.844   1.407   2.350
 3991SOL    HW112872   6.817   1.312   2.341
 3991SOL    HW212873   6.938   1.419   2.316
 3992SOL     OW12874   3.608   1.425   6.946
 3992SOL    HW112875   3.638   1.469   6.862
 3992SOL    HW212876   3.682   1.426   7.013
 3993SOL     OW12877   1.291   2.732   2.093
 3993SOL    HW112878   1.229   2.803   2.060
 3993SOL    HW212879   1.285   2.727   2.193
 3994SOL     OW12880   2.072   6.773   6.221
 3994SOL    HW112881   2.056   6.686   6.174
 3994SOL    HW212882   2.012   6.843   6.181
 3995SOL     OW12883   1.909   3.971   6.116
 3995SOL    HW112884   1.918   4.061   6.157
 3995SOL    HW212885   1.818   3.961   6.076
 3996SOL     OW12886   0.490   6.573   4.904
 3996SOL    HW112887   0.405   6.528   4.877
 3996SOL    HW212888   0.473   6.671   4.917
 3997SOL     OW12889   5.555   1.509   3.075
 3997SOL    HW112890   5.575   1.527   3.171
 3997SOL    HW212891   5.572   1.413   3.055
 3998SOL     OW12892   3.696   1.201   3.867
 3998SOL    HW112893   3.772   1.201   3.933
 3998SOL    HW212894   3.692   1.112   3.821
 3999SOL     OW12895   5.812   2.491   4.163
 3999SOL    HW112896   5.793   2.588   4.148
 3999SOL    HW212897   5.758   2.458   4.241
 4000SOL     OW12898   2.920   0.021   3.601
 4000SOL    HW112899   3.004   0.028   3.655
 4000SOL    HW212900   2.915   0.097   3.536
 4001SOL     OW12901   2.513   1.589   3.968
 4001SOL    HW112902   2.527   1.668   3.908
 4001SOL    HW212903   2.507   1.620   4.063
 4002SOL     OW12904   3.303   4.153   0.968
 4002SOL    HW112905   3.260   4.242   0.952
 4002SOL    HW212906   3.330   4.114   0.880
 4003SOL     OW12907   3.184   0.118   3.928
 4003SOL    HW112908   3.160   0.059   4.005
 4003SOL    HW212909   3.284   0.128   3.923
 4004SOL     OW12910   5.518   2.034   4.316
 4004SOL    HW112911   5.507   2.015   4.218
 4004SOL    HW212912   5.611   2.008   4.345
 4005SOL     OW12913   5.048   5.546   6.757
 4005SOL    HW112914   5.082   5.609   6.826
 4005SOL    HW212915   5.025   5.459   6.799
 4006SOL     OW12916   4.556   5.114   2.364
 4006SOL    HW112917   4.587   5.080   2.276
 4006SOL    HW212918   4.460   5.142   2.356
 4007SOL     OW12919   0.267   2.690   6.690
 4007SOL    HW112920   0.327   2.766   6.667
 4007SOL    HW212921   0.184   2.695   6.636
 4008SOL     OW12922   2.810   2.033   4.937
 4008SOL    HW112923   2.772   1.964   4.999
 4008SOL    HW212924   2.790   2.124   4.973
 4009SOL     OW12925   4.684   2.982   1.439
 4009SOL    HW112926   4.689   3.018   1.532
 4009SOL    HW212927   4.602   2.926   1.430
 4010SOL     OW12928   2.375   3.010   1.343
 4010SOL    HW112929   2.461   2.978   1.383
 4010SOL    HW212930   2.340   2.941   1.281
 4011SOL     OW12931   1.014   1.490   2.125
 4011SOL    HW112932   1.076   1.453   2.195
 4011SOL    HW212933   1.045   1.461   2.035
 4012SOL     OW12934   6.938   4.332   1.670
 4012SOL    HW112935   6.858   4.344   1.728
 4012SOL    HW212936   6.910   4.327   1.574
 4013SOL     OW12937   3.655   1.553   4.998
 4013SOL    HW112938   3.641   1.646   4.966
 4013SOL    HW212939   3.747   1.522   4.974
 4014SOL     OW12940   5.630   6.300   2.355
 4014SOL    HW112941   5.614   6.388   2.401
 4014SOL    HW212942   5.542   6.257   2.335
 4015SOL     OW12943   5.007   4.785   6.231
 4015SOL    HW112944   4.976   4.875   6.200
 4015SOL    HW212945   4.928   4.724   6.239
 4016SOL     OW12946   2.379   6.215   6.112
 4016SOL    HW112947   2.308   6.145   6.107
 4016SOL    HW212948   2.411   6.223   6.206
 4017SOL     OW12949   6.880   6.118   0.566
 4017SOL    HW112950   6.872   6.027   0.527
 4017SOL    HW212951   6.952   6.118   0.636
 4018SOL     OW12952   3.909   5.815   2.246
 4018SOL    HW112953   3.988   5.760   2.218
 4018SOL    HW212954   3.867   5.774   2.327
 4019SOL     OW12955   5.062   4.525   3.127
 4019SOL    HW112956   5.086   4.622   3.138
 4019SOL    HW212957   5.095   4.473   3.206
 4020SOL     OW12958   4.529   1.930   5.298
 4020SOL    HW112959   4.469   1.891   5.368
 4020SOL    HW212960   4.495   1.905   5.207
 4021SOL     OW12961   3.499   5.080   6.721
 4021SOL    HW112962   3.527   5.075   6.625
 4021SOL    HW212963   3.414   5.131   6.728
 4022SOL     OW12964   4.737   1.558   0.052
 4022SOL    HW112965   4.732   1.656   0.075
 4022SOL    HW212966   4.821   1.520   0.092
 4023SOL     OW12967   6.322   1.953   4.884
 4023SOL    HW112968   6.323   1.856   4.859
 4023SOL    HW212969   6.258   1.967   4.960
 4024SOL     OW12970   3.725   5.987   4.651
 4024SOL    HW112971   3.660   5.963   4.724
 4024SOL    HW212972   3.735   6.086   4.648
 4025SOL     OW12973   0.810   3.562   3.109
 4025SOL    HW112974   0.902   3.600   3.102
 4025SOL    HW212975   0.797   3.522   3.200
 4026SOL     OW12976   5.284   6.018   4.035
 4026SOL    HW112977   5.288   6.100   4.092
 4026SOL    HW212978   5.377   5.991   4.010
 4027SOL     OW12979   3.548   4.199   1.788
 4027SOL    HW112980   3.607   4.135   1.739
 4027SOL    HW212981   3.593   4.288   1.794
 4028SOL     OW12982   1.851   2.300   4.115
 4028SOL    HW112983   1.926   2.338   4.170
 4028SOL    HW212984   1.857   2.201   4.114
 4029SOL     OW12985   2.068   3.575   5.277
 4029SOL    HW112986   2.113   3.524   5.350
 4029SOL    HW212987   2.136   3.603   5.209
 4030SOL     OW12988   0.501   1.751   5.543
 4030SOL    HW112989   0.512   1.773   5.446
 4030SOL    HW212990   0.581   1.700   5.575
 4031SOL     OW12991   4.458   5.539   3.610
 4031SOL    HW112992   4.408   5.553   3.525
 4031SOL    HW212993   4.423   5.600   3.680
 4032SOL     OW12994   5.677   6.768   3.865
 4032SOL    HW112995   5.715   6.850   3.822
 4032SOL    HW212996   5.666   6.696   3.797
 4033SOL     OW12997   2.924   3.480   4.482
 4033SOL    HW112998   2.975   3.394   4.486
 4033SOL    HW212999   2.841   3.467   4.428
 4034SOL     OW13000   6.601   1.532   4.473
 4034SOL    HW113001   6.585   1.545   4.375
 4034SOL    HW213002   6.695   1.557   4.496
 4035SOL     OW13003   0.448   4.254   6.661
 4035SOL    HW113004   0.503   4.251   6.578
 4035SOL    HW213005   0.453   4.345   6.702
 4036SOL     OW13006   6.030   6.129   2.783
 4036SOL    HW113007   5.976   6.162   2.706
 4036SOL    HW213008   5.997   6.038   2.809
 4037SOL     OW13009   0.851   3.564   6.598
 4037SOL    HW113010   0.948   3.577   6.618
 4037SOL    HW213011   0.840   3.538   6.502
 4038SOL     OW13012   5.201   4.414   3.339
 4038SOL    HW113013   5.216   4.316   3.350
 4038SOL    HW213014   5.286   4.463   3.360
 4039SOL     OW13015   5.376   6.261   0.363
 4039SOL    HW113016   5.472   6.288   0.364
 4039SOL    HW213017   5.356   6.206   0.444
 4040SOL     OW13018   3.040   6.834   1.278
 4040SOL    HW113019   3.051   6.933   1.277
 4040SOL    HW213020   3.130   6.791   1.286
 4041SOL     OW13021   1.357   6.474   3.524
 4041SOL    HW113022   1.266   6.502   3.556
 4041SOL    HW213023   1.426   6.534   3.565
 4042SOL     OW13024   5.654   5.543   1.727
 4042SOL    HW113025   5.571   5.491   1.747
 4042SOL    HW213026   5.649   5.578   1.633
 4043SOL     OW13027   5.446   2.022   2.410
 4043SOL    HW113028   5.348   2.016   2.390
 4043SOL    HW213029   5.499   2.006   2.327
 4044SOL     OW13030   6.018   7.011   3.459
 4044SOL    HW113031   6.096   6.976   3.408
 4044SOL    HW213032   5.994   0.082   3.425
 4045SOL     OW13033   1.726   5.111   6.681
 4045SOL    HW113034   1.757   5.087   6.773
 4045SOL    HW213035   1.787   5.181   6.643
 4046SOL     OW13036   0.906   2.703   1.714
 4046SOL    HW113037   0.816   2.695   1.758
 4046SOL    HW213038   0.899   2.767   1.637
 4047SOL     OW13039   3.140   3.639   1.696
 4047SOL    HW113040   3.208   3.676   1.633
 4047SOL    HW213041   3.072   3.709   1.716
 4048SOL     OW13042   5.157   0.545   0.894
 4048SOL    HW113043   5.192   0.470   0.839
 4048SOL    HW213044   5.118   0.509   0.979
 4049SOL     OW13045   5.455   6.594   5.528
 4049SOL    HW113046   5.466   6.514   5.587
 4049SOL    HW213047   5.363   6.632   5.540
 4050SOL     OW13048   1.432   6.284   0.681
 4050SOL    HW113049   1.512   6.336   0.713
 4050SOL    HW213050   1.463   6.201   0.634
 4051SOL     OW13051   3.123   4.505   0.698
 4051SOL    HW113052   3.147   4.423   0.647
 4051SOL    HW213053   3.136   4.490   0.796
 4052SOL     OW13054   0.645   0.622   0.246
 4052SOL    HW113055   0.612   0.616   0.340
 4052SOL    HW213056   0.643   0.718   0.216
 4053SOL     OW13057   3.369   4.962   3.713
 4053SOL    HW113058   3.467   4.955   3.731
 4053SOL    HW213059   3.318   4.946   3.798
 4054SOL     OW13060   3.714   2.290   1.063
 4054SOL    HW113061   3.619   2.261   1.049
 4054SOL    HW213062   3.714   2.381   1.105
 4055SOL     OW13063   3.778   1.979   6.031
 4055SOL    HW113064   3.678   1.984   6.038
 4055SOL    HW213065   3.818   1.979   6.122
 4056SOL     OW13066   3.755   3.325   6.893
 4056SOL    HW113067   3.793   3.311   6.802
 4056SOL    HW213068   3.673   3.269   6.904
 4057SOL     OW13069   4.480   2.921   6.444
 4057SOL    HW113070   4.494   2.824   6.429
 4057SOL    HW213071   4.386   2.946   6.419
 4058SOL     OW13072   2.104   1.233   5.671
 4058SOL    HW113073   2.125   1.208   5.765
 4058SOL    HW213074   2.100   1.333   5.662
 4059SOL     OW13075   1.410   1.928   5.256
 4059SOL    HW113076   1.343   1.854   5.249
 4059SOL    HW213077   1.500   1.889   5.279
 4060SOL     OW13078   4.144   5.135   4.197
 4060SOL    HW113079   4.194   5.192   4.262
 4060SOL    HW213080   4.125   5.046   4.239
 4061SOL     OW13081   2.983   3.781   2.086
 4061SOL    HW113082   3.066   3.835   2.098
 4061SOL    HW213083   2.947   3.755   2.176
 4062SOL     OW13084   3.057   0.672   3.038
 4062SOL    HW113085   3.041   0.659   2.940
 4062SOL    HW213086   3.152   0.647   3.060
 4063SOL     OW13087   2.913   5.119   5.822
 4063SOL    HW113088   2.879   5.131   5.915
 4063SOL    HW213089   2.945   5.025   5.811
 4064SOL     OW13090   6.940   0.774   3.740
 4064SOL    HW113091   6.861   0.777   3.677
 4064SOL    HW213092   6.947   0.682   3.778
 4065SOL     OW13093   6.735   6.957   0.420
 4065SOL    HW113094   6.740   6.933   0.517
 4065SOL    HW213095   6.824   6.989   0.388
 4066SOL     OW13096   5.869   4.262   1.630
 4066SOL    HW113097   5.941   4.331   1.631
 4066SOL    HW213098   5.853   4.230   1.537
 4067SOL     OW13099   6.418   1.765   2.624
 4067SOL    HW113100   6.331   1.802   2.658
 4067SOL    HW213101   6.424   1.780   2.525
 4068SOL     OW13102   5.974   0.236   3.435
 4068SOL    HW113103   5.970   0.212   3.532
 4068SOL    HW213104   5.999   0.333   3.425
 4069SOL     OW13105   5.507   5.510   1.009
 4069SOL    HW113106   5.498   5.602   1.048
 4069SOL    HW213107   5.550   5.517   0.918
 4070SOL     OW13108   2.001   3.742   3.479
 4070SOL    HW113109   1.996   3.651   3.520
 4070SOL    HW213110   2.049   3.736   3.391
 4071SOL     OW13111   1.354   0.361   3.960
 4071SOL    HW113112   1.443   0.367   3.913
 4071SOL    HW213113   1.294   0.299   3.909
 4072SOL     OW13114   1.373   0.071   4.946
 4072SOL    HW113115   1.397   0.139   5.015
 4072SOL    HW213116   1.454   0.019   4.921
 4073SOL     OW13117   2.691   5.990   6.963
 4073SOL    HW113118   2.788   6.000   6.942
 4073SOL    HW213119   2.638   5.987   6.878
 4074SOL     OW13120   1.650   2.539   0.865
 4074SOL    HW113121   1.624   2.600   0.789
 4074SOL    HW213122   1.653   2.445   0.832
 4075SOL     OW13123   5.038   1.415   3.116
 4075SOL    HW113124   4.965   1.455   3.172
 4075SOL    HW213125   5.006   1.328   3.077
 4076SOL     OW13126   1.764   3.545   4.320
 4076SOL    HW113127   1.696   3.607   4.282
 4076SOL    HW213128   1.854   3.588   4.317
 4077SOL     OW13129   3.660   1.247   1.106
 4077SOL    HW113130   3.608   1.198   1.175
 4077SOL    HW213131   3.675   1.341   1.136
 4078SOL     OW13132   6.240   4.017   1.357
 4078SOL    HW113133   6.251   4.102   1.305
 4078SOL    HW213134   6.162   4.027   1.420
 4079SOL     OW13135   0.363   0.584   4.075
 4079SOL    HW113136   0.284   0.538   4.117
 4079SOL    HW213137   0.342   0.605   3.980
 4080SOL     OW13138   3.446   3.653   1.866
 4080SOL    HW113139   3.397   3.574   1.827
 4080SOL    HW213140   3.463   3.720   1.793
 4081SOL     OW13141   1.886   1.910   5.560
 4081SOL    HW113142   1.852   1.816   5.572
 4081SOL    HW213143   1.981   1.915   5.591
 4082SOL     OW13144   1.250   2.835   4.546
 4082SOL    HW113145   1.188   2.889   4.489
 4082SOL    HW213146   1.301   2.771   4.489
 4083SOL     OW13147   5.437   5.076   3.032
 4083SOL    HW113148   5.368   5.132   3.078
 4083SOL    HW213149   5.480   5.130   2.960
 4084SOL     OW13150   4.302   0.832   3.424
 4084SOL    HW113151   4.257   0.874   3.345
 4084SOL    HW213152   4.317   0.902   3.494
 4085SOL     OW13153   3.260   4.902   2.173
 4085SOL    HW113154   3.260   4.856   2.084
 4085SOL    HW213155   3.350   4.891   2.216
 4086SOL     OW13156   6.415   5.408   6.122
 4086SOL    HW113157   6.389   5.360   6.038
 4086SOL    HW213158   6.489   5.358   6.167
 4087SOL     OW13159   2.777   0.191   2.596
 4087SOL    HW113160   2.762   0.097   2.627
 4087SOL    HW213161   2.833   0.191   2.513
 4088SOL     OW13162   0.619   1.646   5.844
 4088SOL    HW113163   0.620   1.561   5.896
 4088SOL    HW213164   0.630   1.626   5.747
 4089SOL     OW13165   0.392   6.981   3.971
 4089SOL    HW113166   0.367   6.949   3.880
 4089SOL    HW213167   0.364   0.056   3.982
 4090SOL     OW13168   2.917   0.465   5.497
 4090SOL    HW113169   2.895   0.561   5.483
 4090SOL    HW213170   3.016   0.453   5.489
 4091SOL     OW13171   2.145   5.409   1.415
 4091SOL    HW113172   2.097   5.495   1.396
 4091SOL    HW213173   2.102   5.364   1.493
 4092SOL     OW13174   4.967   3.255   3.833
 4092SOL    HW113175   5.065   3.269   3.850
 4092SOL    HW213176   4.928   3.338   3.795
 4093SOL     OW13177   4.455   5.577   3.063
 4093SOL    HW113178   4.503   5.491   3.080
 4093SOL    HW213179   4.360   5.558   3.039
 4094SOL     OW13180   7.005   5.626   6.812
 4094SOL    HW113181   0.023   5.544   6.856
 4094SOL    HW213182   6.972   5.602   6.721
 4095SOL     OW13183   0.446   5.110   6.736
 4095SOL    HW113184   0.530   5.162   6.751
 4095SOL    HW213185   0.393   5.152   6.662
 4096SOL     OW13186   1.509   1.741   6.641
 4096SOL    HW113187   1.421   1.698   6.626
 4096SOL    HW213188   1.568   1.681   6.695
 4097SOL     OW13189   0.023   4.486   4.728
 4097SOL    HW113190   6.966   4.531   4.772
 4097SOL    HW213191   0.108   4.529   4.757
 4098SOL     OW13192   1.959   5.170   3.071
 4098SOL    HW113193   1.872   5.171   3.021
 4098SOL    HW213194   1.993   5.076   3.076
 4099SOL     OW13195   4.561   4.901   6.085
 4099SOL    HW113196   4.600   4.923   6.174
 4099SOL    HW213197   4.470   4.940   6.077
 4100SOL     OW13198   1.283   0.640   3.769
 4100SOL    HW113199   1.279   0.575   3.845
 4100SOL    HW213200   1.200   0.632   3.714
 4101SOL     OW13201   6.415   0.635   0.438
 4101SOL    HW113202   6.396   0.733   0.431
 4101SOL    HW213203   6.383   0.589   0.355
 4102SOL     OW13204   1.620   0.850   6.687
 4102SOL    HW113205   1.658   0.776   6.743
 4102SOL    HW213206   1.663   0.937   6.713
 4103SOL     OW13207   1.587   6.309   2.570
 4103SOL    HW113208   1.501   6.259   2.554
 4103SOL    HW213209   1.572   6.378   2.640
 4104SOL     OW13210   0.430   5.576   4.001
 4104SOL    HW113211   0.428   5.477   3.984
 4104SOL    HW213212   0.456   5.623   3.916
 4105SOL     OW13213   4.587   1.243   1.164
 4105SOL    HW113214   4.602   1.224   1.261
 4105SOL    HW213215   4.664   1.208   1.111
 4106SOL     OW13216   6.814   2.349   3.861
 4106SOL    HW113217   6.814   2.257   3.899
 4106SOL    HW213218   6.871   2.351   3.778
 4107SOL     OW13219   6.710   6.428   6.492
 4107SOL    HW113220   6.748   6.521   6.497
 4107SOL    HW213221   6.769   6.371   6.435
 4108SOL     OW13222   6.256   5.269   3.855
 4108SOL    HW113223   6.314   5.324   3.915
 4108SOL    HW213224   6.182   5.230   3.909
 4109SOL     OW13225   6.039   6.641   3.108
 4109SOL    HW113226   6.018   6.597   3.020
 4109SOL    HW213227   6.025   6.575   3.182
 4110SOL     OW13228   4.547   4.206   0.066
 4110SOL    HW113229   4.485   4.275   0.030
 4110SOL    HW213230   4.617   4.186   7.019
 4111SOL     OW13231   6.561   4.044   3.998
 4111SOL    HW113232   6.601   4.104   4.068
 4111SOL    HW213233   6.604   3.953   4.004
 4112SOL     OW13234   5.003   0.095   5.274
 4112SOL    HW113235   5.082   0.086   5.335
 4112SOL    HW213236   5.015   0.036   5.195
 4113SOL     OW13237   4.050   4.838   4.684
 4113SOL    HW113238   4.095   4.794   4.606
 4113SOL    HW213239   4.015   4.767   4.746
 4114SOL     OW13240   0.349   1.824   2.163
 4114SOL    HW113241   0.293   1.845   2.082
 4114SOL    HW213242   0.397   1.737   2.148
 4115SOL     OW13243   3.784   4.948   4.151
 4115SOL    HW113244   3.797   4.905   4.240
 4115SOL    HW213245   3.702   4.911   4.108
 4116SOL     OW13246   5.393   2.590   3.527
 4116SOL    HW113247   5.407   2.661   3.458
 4116SOL    HW213248   5.421   2.624   3.617
 4117SOL     OW13249   1.125   2.370   3.102
 4117SOL    HW113250   1.160   2.314   3.027
 4117SOL    HW213251   1.065   2.315   3.160
 4118SOL     OW13252   6.883   6.805   5.878
 4118SOL    HW113253   6.813   6.740   5.849
 4118SOL    HW213254   6.899   6.871   5.804
 4119SOL     OW13255   2.185   1.451   3.566
 4119SOL    HW113256   2.247   1.374   3.552
 4119SOL    HW213257   2.095   1.417   3.594
 4120SOL     OW13258   2.165   0.984   6.545
 4120SOL    HW113259   2.076   0.958   6.509
 4120SOL    HW213260   2.157   1.002   6.643
 4121SOL     OW13261   6.764   6.865   1.631
 4121SOL    HW113262   6.858   6.895   1.649
 4121SOL    HW213263   6.744   6.874   1.533
 4122SOL     OW13264   6.639   4.737   4.026
 4122SOL    HW113265   6.717   4.799   4.016
 4122SOL    HW213266   6.595   4.754   4.114
 4123SOL     OW13267   3.659   4.985   2.455
 4123SOL    HW113268   3.756   4.995   2.433
 4123SOL    HW213269   3.649   4.942   2.545
 4124SOL     OW13270   6.832   5.565   0.074
 4124SOL    HW113271   6.913   5.600   0.123
 4124SOL    HW213272   6.802   5.633   0.007
 4125SOL     OW13273   5.396   1.701   2.114
 4125SOL    HW113274   5.425   1.607   2.135
 4125SOL    HW213275   5.337   1.735   2.187
 4126SOL     OW13276   1.356   3.526   2.185
 4126SOL    HW113277   1.347   3.439   2.232
 4126SOL    HW213278   1.285   3.589   2.217
 4127SOL     OW13279   3.720   1.879   4.093
 4127SOL    HW113280   3.818   1.886   4.112
 4127SOL    HW213281   3.692   1.958   4.038
 4128SOL     OW13282   6.952   3.372   0.788
 4128SOL    HW113283   6.975   3.439   0.859
 4128SOL    HW213284   6.889   3.304   0.826
 4129SOL     OW13285   2.573   2.704   0.594
 4129SOL    HW113286   2.631   2.624   0.606
 4129SOL    HW213287   2.606   2.778   0.652
 4130SOL     OW13288   5.680   2.978   1.497
 4130SOL    HW113289   5.669   2.886   1.460
 4130SOL    HW213290   5.777   3.004   1.495
 4131SOL     OW13291   4.534   0.510   2.838
 4131SOL    HW113292   4.509   0.605   2.819
 4131SOL    HW213293   4.524   0.455   2.755
 4132SOL     OW13294   7.014   4.168   4.213
 4132SOL    HW113295   0.021   4.251   4.165
 4132SOL    HW213296   0.068   4.138   4.273
 4133SOL     OW13297   5.654   0.093   2.015
 4133SOL    HW113298   5.604   0.014   2.052
 4133SOL    HW213299   5.595   0.145   1.954
 4134SOL     OW13300   2.243   3.223   1.090
 4134SOL    HW113301   2.145   3.204   1.095
 4134SOL    HW213302   2.292   3.140   1.061
 4135SOL     OW13303   0.101   1.469   2.304
 4135SOL    HW113304   0.177   1.470   2.240
 4135SOL    HW213305   0.130   1.427   2.390
 4136SOL     OW13306   1.544   4.469   2.060
 4136SOL    HW113307   1.589   4.392   2.015
 4136SOL    HW213308   1.604   4.507   2.130
 4137SOL     OW13309   1.754   2.443   0.176
 4137SOL    HW113310   1.797   2.529   0.148
 4137SOL    HW213311   1.813   2.396   0.241
 4138SOL     OW13312   4.727   6.710   0.868
 4138SOL    HW113313   4.811   6.695   0.921
 4138SOL    HW213314   4.731   6.801   0.826
 4139SOL     OW13315   2.086   2.725   2.770
 4139SOL    HW113316   2.053   2.740   2.676
 4139SOL    HW213317   2.010   2.739   2.834
 4140SOL     OW13318   2.592   2.390   5.265
 4140SOL    HW113319   2.507   2.372   5.315
 4140SOL    HW213320   2.665   2.333   5.301
 4141SOL     OW13321   4.765   7.016   6.602
 4141SOL    HW113322   4.815   0.068   6.555
 4141SOL    HW213323   4.798   6.927   6.571
 4142SOL     OW13324   6.867   4.292   3.255
 4142SOL    HW113325   6.904   4.381   3.280
 4142SOL    HW213326   6.794   4.305   3.188
 4143SOL     OW13327   5.847   2.921   0.470
 4143SOL    HW113328   5.785   2.860   0.421
 4143SOL    HW213329   5.888   2.986   0.407
 4144SOL     OW13330   5.778   2.230   0.787
 4144SOL    HW113331   5.743   2.227   0.694
 4144SOL    HW213332   5.708   2.194   0.850
 4145SOL     OW13333   0.339   6.933   1.741
 4145SOL    HW113334   0.362   6.973   1.653
 4145SOL    HW213335   0.303   6.841   1.728
 4146SOL     OW13336   5.261   6.510   3.561
 4146SOL    HW113337   5.247   6.597   3.608
 4146SOL    HW213338   5.176   6.456   3.564
 4147SOL     OW13339   5.013   4.048   5.642
 4147SOL    HW113340   5.071   4.125   5.616
 4147SOL    HW213341   5.001   3.988   5.563
 4148SOL     OW13342   3.043   1.018   5.951
 4148SOL    HW113343   3.135   0.980   5.961
 4148SOL    HW213344   2.980   0.946   5.922
 4149SOL     OW13345   2.078   2.785   0.296
 4149SOL    HW113346   2.098   2.845   0.373
 4149SOL    HW213347   2.125   2.698   0.308
 4150SOL     OW13348   5.864   2.476   6.407
 4150SOL    HW113349   5.941   2.495   6.346
 4150SOL    HW213350   5.780   2.469   6.354
 4151SOL     OW13351   2.326   6.491   4.656
 4151SOL    HW113352   2.257   6.523   4.720
 4151SOL    HW213353   2.417   6.499   4.698
 4152SOL     OW13354   2.900   5.203   1.517
 4152SOL    HW113355   2.966   5.139   1.478
 4152SOL    HW213356   2.822   5.153   1.554
 4153SOL     OW13357   6.768   4.971   1.372
 4153SOL    HW113358   6.859   4.935   1.391
 4153SOL    HW213359   6.715   4.902   1.323
 4154SOL     OW13360   1.339   5.975   4.397
 4154SOL    HW113361   1.345   6.072   4.420
 4154SOL    HW213362   1.339   5.920   4.480
 4155SOL     OW13363   0.807   2.211   1.615
 4155SOL    HW113364   0.869   2.275   1.571
 4155SOL    HW213365   0.720   2.256   1.634
 4156SOL     OW13366   6.692   4.936   5.100
 4156SOL    HW113367   6.782   4.907   5.068
 4156SOL    HW213368   6.699   5.025   5.145
 4157SOL     OW13369   6.770   6.108   2.147
 4157SOL    HW113370   6.758   6.134   2.243
 4157SOL    HW213371   6.844   6.041   2.140
 4158SOL     OW13372   1.309   2.710   2.362
 4158SOL    HW113373   1.367   2.660   2.426
 4158SOL    HW213374   1.215   2.675   2.368
 4159SOL     OW13375   2.896   1.527   3.876
 4159SOL    HW113376   2.961   1.599   3.901
 4159SOL    HW213377   2.834   1.510   3.953
 4160SOL     OW13378   6.265   0.399   6.318
 4160SOL    HW113379   6.302   0.445   6.238
 4160SOL    HW213380   6.337   0.348   6.364
 4161SOL     OW13381   3.054   2.300   1.332
 4161SOL    HW113382   3.072   2.261   1.423
 4161SOL    HW213383   3.091   2.239   1.262
 4162SOL     OW13384   6.232   6.285   1.598
 4162SOL    HW113385   6.309   6.274   1.535
 4162SOL    HW213386   6.254   6.242   1.685
 4163SOL     OW13387   3.619   6.677   1.306
 4163SOL    HW113388   3.616   6.597   1.247
 4163SOL    HW213389   3.694   6.737   1.278
 4164SOL     OW13390   6.564   6.972   4.798
 4164SOL    HW113391   6.620   7.018   4.868
 4164SOL    HW213392   6.533   6.884   4.834
 4165SOL     OW13393   4.924   1.052   5.604
 4165SOL    HW113394   4.914   1.033   5.702
 4165SOL    HW213395   5.021   1.064   5.582
 4166SOL     OW13396   5.743   0.921   2.451
 4166SOL    HW113397   5.838   0.946   2.464
 4166SOL    HW213398   5.690   0.940   2.534
 4167SOL     OW13399   4.111   5.323   5.493
 4167SOL    HW113400   4.128   5.246   5.432
 4167SOL    HW213401   4.014   5.327   5.515
 4168SOL     OW13402   5.448   4.464   0.123
 4168SOL    HW113403   5.413   4.398   0.190
 4168SOL    HW213404   5.397   4.455   0.038
 4169SOL     OW13405   4.853   3.889   4.986
 4169SOL    HW113406   4.866   3.793   5.012
 4169SOL    HW213407   4.864   3.899   4.888
 4170SOL     OW13408   5.951   3.745   4.645
 4170SOL    HW113409   5.868   3.733   4.592
 4170SOL    HW213410   5.940   3.822   4.708
 4171SOL     OW13411   1.115   3.951   1.057
 4171SOL    HW113412   1.074   3.965   0.967
 4171SOL    HW213413   1.153   3.859   1.063
 4172SOL     OW13414   2.698   4.176   0.548
 4172SOL    HW113415   2.650   4.178   0.636
 4172SOL    HW213416   2.657   4.107   0.489
 4173SOL     OW13417   4.824   2.925   4.953
 4173SOL    HW113418   4.829   2.839   4.902
 4173SOL    HW213419   4.736   2.970   4.934
 4174SOL     OW13420   4.333   0.741   4.488
 4174SOL    HW113421   4.318   0.669   4.556
 4174SOL    HW213422   4.431   0.755   4.474
 4175SOL     OW13423   1.881   4.612   6.569
 4175SOL    HW113424   1.889   4.640   6.665
 4175SOL    HW213425   1.789   4.576   6.552
 4176SOL     OW13426   4.788   6.546   6.177
 4176SOL    HW113427   4.812   6.631   6.131
 4176SOL    HW213428   4.871   6.504   6.213
 4177SOL     OW13429   4.480   4.494   3.890
 4177SOL    HW113430   4.482   4.456   3.797
 4177SOL    HW213431   4.389   4.480   3.929
 4178SOL     OW13432   3.523   5.513   2.090
 4178SOL    HW113433   3.531   5.485   1.994
 4178SOL    HW213434   3.527   5.432   2.149
 4179SOL     OW13435   4.852   3.051   4.011
 4179SOL    HW113436   4.862   3.141   3.969
 4179SOL    HW213437   4.894   2.982   3.953
 4180SOL     OW13438   5.367   3.374   0.282
 4180SOL    HW113439   5.346   3.311   0.357
 4180SOL    HW213440   5.445   3.339   0.230
 4181SOL     OW13441   5.286   0.112   5.407
 4181SOL    HW113442   5.331   0.042   5.351
 4181SOL    HW213443   5.245   0.069   5.487
 4182SOL     OW13444   6.923   6.186   4.105
 4182SOL    HW113445   6.978   6.252   4.157
 4182SOL    HW213446   6.878   6.123   4.168
 4183SOL     OW13447   2.841   1.344   1.879
 4183SOL    HW113448   2.884   1.315   1.965
 4183SOL    HW213449   2.762   1.402   1.900
 4184SOL     OW13450   3.168   5.815   3.376
 4184SOL    HW113451   3.138   5.860   3.460
 4184SOL    HW213452   3.090   5.803   3.315
 4185SOL     OW13453   6.678   3.621   3.439
 4185SOL    HW113454   6.770   3.656   3.423
 4185SOL    HW213455   6.628   3.684   3.497
 4186SOL     OW13456   1.438   5.924   0.239
 4186SOL    HW113457   1.534   5.928   0.211
 4186SOL    HW213458   1.382   5.902   0.160
 4187SOL     OW13459   1.670   3.737   0.011
 4187SOL    HW113460   1.635   3.740   6.938
 4187SOL    HW213461   1.615   3.797   0.069
 4188SOL     OW13462   4.804   0.333   6.842
 4188SOL    HW113463   4.897   0.297   6.838
 4188SOL    HW213464   4.770   0.348   6.749
 4189SOL     OW13465   4.540   5.864   3.022
 4189SOL    HW113466   4.474   5.916   2.967
 4189SOL    HW213467   4.508   5.770   3.033
 4190SOL     OW13468   0.258   0.139   0.929
 4190SOL    HW113469   0.216   0.067   0.984
 4190SOL    HW213470   0.301   0.099   0.848
 4191SOL     OW13471   4.653   4.234   5.930
 4191SOL    HW113472   4.705   4.195   6.006
 4191SOL    HW213473   4.558   4.200   5.934
 4192SOL     OW13474   1.546   2.037   2.170
 4192SOL    HW113475   1.624   2.094   2.144
 4192SOL    HW213476   1.466   2.094   2.187
 4193SOL     OW13477   6.428   0.668   0.973
 4193SOL    HW113478   6.402   0.593   1.034
 4193SOL    HW213479   6.346   0.708   0.933
 4194SOL     OW13480   4.436   1.007   5.405
 4194SOL    HW113481   4.524   1.052   5.421
 4194SOL    HW213482   4.384   1.059   5.338
 4195SOL     OW13483   4.651   5.863   1.660
 4195SOL    HW113484   4.558   5.889   1.686
 4195SOL    HW213485   4.713   5.875   1.738
 4196SOL     OW13486   6.699   2.178   3.367
 4196SOL    HW113487   6.696   2.079   3.382
 4196SOL    HW213488   6.773   2.200   3.303
 4197SOL     OW13489   3.578   6.628   6.413
 4197SOL    HW113490   3.605   6.532   6.400
 4197SOL    HW213491   3.490   6.632   6.461
 4198SOL     OW13492   6.762   0.774   2.440
 4198SOL    HW113493   6.765   0.763   2.539
 4198SOL    HW213494   6.684   0.830   2.414
 4199SOL     OW13495   1.298   4.232   6.117
 4199SOL    HW113496   1.361   4.254   6.043
 4199SOL    HW213497   1.251   4.146   6.097
 4200SOL     OW13498   4.471   0.641   4.965
 4200SOL    HW113499   4.546   0.691   4.921
 4200SOL    HW213500   4.389   0.699   4.968
 4201SOL     OW13501   5.970   0.156   3.737
 4201SOL    HW113502   6.011   0.205   3.814
 4201SOL    HW213503   5.871   0.152   3.750
 4202SOL     OW13504   3.798   5.755   0.473
 4202SOL    HW113505   3.817   5.752   0.375
 4202SOL    HW213506   3.813   5.665   0.513
 4203SOL     OW13507   5.847   5.467   7.005
 4203SOL    HW113508   5.846   5.426   6.914
 4203SOL    HW213509   5.809   5.559   7.000
 4204SOL     OW13510   3.270   3.647   5.689
 4204SOL    HW113511   3.218   3.566   5.712
 4204SOL    HW213512   3.302   3.691   5.773
 4205SOL     OW13513   3.814   5.527   5.234
 4205SOL    HW113514   3.906   5.539   5.271
 4205SOL    HW213515   3.818   5.466   5.154
 4206SOL     OW13516   1.890   2.216   4.902
 4206SOL    HW113517   1.914   2.235   4.806
 4206SOL    HW213518   1.968   2.237   4.960
 4207SOL     OW13519   2.072   2.230   1.681
 4207SOL    HW113520   1.997   2.166   1.698
 4207SOL    HW213521   2.037   2.311   1.634
 4208SOL     OW13522   1.896   4.053   4.810
 4208SOL    HW113523   1.993   4.031   4.801
 4208SOL    HW213524   1.841   3.983   4.765
 4209SOL     OW13525   0.126   5.738   2.519
 4209SOL    HW113526   0.090   5.828   2.545
 4209SOL    HW213527   0.086   5.711   2.431
 4210SOL     OW13528   4.163   3.508   4.741
 4210SOL    HW113529   4.256   3.522   4.708
 4210SOL    HW213530   4.119   3.435   4.689
 4211SOL     OW13531   3.584   2.146   5.440
 4211SOL    HW113532   3.588   2.070   5.375
 4211SOL    HW213533   3.514   2.211   5.411
 4212SOL     OW13534   6.867   1.572   3.670
 4212SOL    HW113535   6.885   1.524   3.755
 4212SOL    HW213536   6.899   1.667   3.678
 4213SOL     OW13537   2.952   0.898   2.912
 4213SOL    HW113538   2.963   0.976   2.974
 4213SOL    HW213539   2.983   0.815   2.958
 4214SOL     OW13540   0.869   5.171   4.335
 4214SOL    HW113541   0.915   5.259   4.352
 4214SOL    HW213542   0.905   5.130   4.251
 4215SOL     OW13543   5.154   6.288   4.881
 4215SOL    HW113544   5.090   6.253   4.813
 4215SOL    HW213545   5.133   6.247   4.970
 4216SOL     OW13546   2.085   0.316   2.747
 4216SOL    HW113547   2.003   0.307   2.804
 4216SOL    HW213548   2.123   0.408   2.756
 4217SOL     OW13549   1.534   0.324   2.189
 4217SOL    HW113550   1.505   0.253   2.253
 4217SOL    HW213551   1.561   0.283   2.103
 4218SOL     OW13552   3.536   1.617   1.068
 4218SOL    HW113553   3.550   1.542   1.133
 4218SOL    HW213554   3.439   1.644   1.069
 4219SOL     OW13555   4.231   6.582   4.380
 4219SOL    HW113556   4.171   6.565   4.302
 4219SOL    HW213557   4.186   6.551   4.464
 4220SOL     OW13558   4.748   2.151   1.581
 4220SOL    HW113559   4.735   2.224   1.515
 4220SOL    HW213560   4.715   2.065   1.543
 4221SOL     OW13561   6.741   5.514   6.361
 4221SOL    HW113562   6.728   5.533   6.264
 4221SOL    HW213563   6.653   5.518   6.408
 4222SOL     OW13564   5.194   1.921   3.644
 4222SOL    HW113565   5.247   1.866   3.709
 4222SOL    HW213566   5.255   1.984   3.596
 4223SOL     OW13567   4.116   4.213   1.418
 4223SOL    HW113568   4.154   4.194   1.509
 4223SOL    HW213569   4.111   4.312   1.405
 4224SOL     OW13570   5.062   4.140   4.625
 4224SOL    HW113571   5.134   4.160   4.691
 4224SOL    HW213572   5.016   4.226   4.600
 4225SOL     OW13573   1.074   2.174   5.224
 4225SOL    HW113574   1.120   2.233   5.157
 4225SOL    HW213575   0.977   2.197   5.229
 4226SOL     OW13576   0.414   5.539   4.558
 4226SOL    HW113577   0.399   5.444   4.583
 4226SOL    HW213578   0.495   5.546   4.500
 4227SOL     OW13579   5.116   5.741   1.713
 4227SOL    HW113580   5.043   5.794   1.757
 4227SOL    HW213581   5.116   5.648   1.750
 4228SOL     OW13582   1.270   5.835   4.631
 4228SOL    HW113583   1.175   5.802   4.629
 4228SOL    HW213584   1.296   5.858   4.724
 4229SOL     OW13585   5.561   5.393   6.080
 4229SOL    HW113586   5.636   5.341   6.040
 4229SOL    HW213587   5.486   5.399   6.015
 4230SOL     OW13588   1.579   0.056   2.668
 4230SOL    HW113589   1.570   0.004   2.583
 4230SOL    HW213590   1.633   0.138   2.651
 4231SOL     OW13591   5.436   0.791   5.299
 4231SOL    HW113592   5.408   0.863   5.362
 4231SOL    HW213593   5.519   0.747   5.334
 4232SOL     OW13594   2.251   5.514   3.355
 4232SOL    HW113595   2.238   5.415   3.357
 4232SOL    HW213596   2.336   5.538   3.403
 4233SOL     OW13597   6.075   6.474   3.966
 4233SOL    HW113598   6.004   6.528   4.009
 4233SOL    HW213599   6.163   6.521   3.973
 4234SOL     OW13600   2.238   5.419   5.506
 4234SOL    HW113601   2.218   5.360   5.585
 4234SOL    HW213602   2.303   5.490   5.533
 4235SOL     OW13603   6.584   4.552   5.397
 4235SOL    HW113604   6.635   4.635   5.373
 4235SOL    HW213605   6.575   4.494   5.316
 4236SOL     OW13606   0.449   5.380   2.519
 4236SOL    HW113607   0.543   5.406   2.545
 4236SOL    HW213608   0.450   5.342   2.427
 4237SOL     OW13609   6.671   3.829   4.103
 4237SOL    HW113610   6.738   3.871   4.164
 4237SOL    HW213611   6.701   3.736   4.079
 4238SOL     OW13612   1.565   0.887   3.045
 4238SOL    HW113613   1.586   0.982   3.070
 4238SOL    HW213614   1.465   0.876   3.038
 4239SOL     OW13615   4.354   0.933   3.105
 4239SOL    HW113616   4.350   0.835   3.123
 4239SOL    HW213617   4.444   0.968   3.134
 4240SOL     OW13618   1.564   5.225   0.523
 4240SOL    HW113619   1.582   5.297   0.456
 4240SOL    HW213620   1.583   5.259   0.615
 4241SOL     OW13621   0.333   2.022   0.395
 4241SOL    HW113622   0.262   1.953   0.405
 4241SOL    HW213623   0.303   2.092   0.329
 4242SOL     OW13624   2.546   2.260   4.267
 4242SOL    HW113625   2.502   2.349   4.270
 4242SOL    HW213626   2.643   2.271   4.247
 4243SOL     OW13627   5.181   0.860   2.824
 4243SOL    HW113628   5.214   0.783   2.768
 4243SOL    HW213629   5.088   0.841   2.853
 4244SOL     OW13630   3.809   3.725   2.205
 4244SOL    HW113631   3.780   3.776   2.124
 4244SOL    HW213632   3.832   3.788   2.278
 4245SOL     OW13633   6.897   2.011   5.851
 4245SOL    HW113634   6.801   2.027   5.827
 4245SOL    HW213635   6.943   1.966   5.775
 4246SOL     OW13636   6.592   3.929   2.937
 4246SOL    HW113637   6.495   3.924   2.911
 4246SOL    HW213638   6.619   3.843   2.980
 4247SOL     OW13639   6.970   6.001   4.883
 4247SOL    HW113640   7.018   6.001   4.795
 4247SOL    HW213641   7.019   6.060   4.947
 4248SOL     OW13642   1.532   2.444   5.479
 4248SOL    HW113643   1.550   2.485   5.390
 4248SOL    HW213644   1.498   2.351   5.467
 4249SOL     OW13645   6.716   2.999   5.540
 4249SOL    HW113646   6.757   3.089   5.523
 4249SOL    HW213647   6.703   2.987   5.639
 4250SOL     OW13648   6.854   4.876   3.505
 4250SOL    HW113649   6.804   4.798   3.542
 4250SOL    HW213650   6.951   4.868   3.528
 4251SOL     OW13651   5.762   4.020   0.482
 4251SOL    HW113652   5.819   4.025   0.564
 4251SOL    HW213653   5.753   3.925   0.453
 4252SOL     OW13654   6.519   5.769   4.911
 4252SOL    HW113655   6.455   5.761   4.987
 4252SOL    HW213656   6.597   5.826   4.939
 4253SOL     OW13657   4.309   0.749   1.534
 4253SOL    HW113658   4.372   0.720   1.462
 4253SOL    HW213659   4.233   0.800   1.493
 4254SOL     OW13660   1.568   3.067   1.698
 4254SOL    HW113661   1.521   2.979   1.707
 4254SOL    HW213662   1.534   3.130   1.769
 4255SOL     OW13663   5.770   2.586   3.810
 4255SOL    HW113664   5.730   2.503   3.850
 4255SOL    HW213665   5.787   2.653   3.883
 4256SOL     OW13666   1.556   6.982   1.277
 4256SOL    HW113667   1.533   6.966   1.373
 4256SOL    HW213668   1.557   6.895   1.228
 4257SOL     OW13669   3.297   1.691   5.272
 4257SOL    HW113670   3.254   1.686   5.362
 4257SOL    HW213671   3.349   1.608   5.256
 4258SOL     OW13672   5.787   6.709   2.202
 4258SOL    HW113673   5.848   6.751   2.270
 4258SOL    HW213674   5.786   6.610   2.216
 4259SOL     OW13675   2.393   1.227   6.735
 4259SOL    HW113676   2.319   1.162   6.750
 4259SOL    HW213677   2.355   1.317   6.713
 4260SOL     OW13678   4.226   5.947   3.782
 4260SOL    HW113679   4.137   5.991   3.789
 4260SOL    HW213680   4.295   6.015   3.756
 4261SOL     OW13681   2.760   6.585   1.417
 4261SOL    HW113682   2.677   6.559   1.467
 4261SOL    HW213683   2.811   6.653   1.471
 4262SOL     OW13684   1.663   5.139   5.756
 4262SOL    HW113685   1.741   5.178   5.706
 4262SOL    HW213686   1.579   5.183   5.726
 4263SOL     OW13687   2.640   6.147   4.641
 4263SOL    HW113688   2.630   6.191   4.730
 4263SOL    HW213689   2.572   6.184   4.577
 4264SOL     OW13690   0.140   1.660   0.233
 4264SOL    HW113691   0.121   1.733   0.300
 4264SOL    HW213692   0.056   1.611   0.213
 4265SOL     OW13693   6.651   2.026   0.416
 4265SOL    HW113694   6.626   2.061   0.506
 4265SOL    HW213695   6.569   2.017   0.360
 4266SOL     OW13696   3.042   5.465   0.141
 4266SOL    HW113697   3.069   5.501   0.052
 4266SOL    HW213698   2.984   5.532   0.188
 4267SOL     OW13699   2.148   3.976   4.839
 4267SOL    HW113700   2.220   4.000   4.904
 4267SOL    HW213701   2.140   3.877   4.834
 4268SOL     OW13702   1.376   6.391   0.211
 4268SOL    HW113703   1.366   6.490   0.219
 4268SOL    HW213704   1.464   6.370   0.168
 4269SOL     OW13705   2.736   2.430   0.280
 4269SOL    HW113706   2.659   2.378   0.316
 4269SOL    HW213707   2.715   2.528   0.282
 4270SOL     OW13708   3.787   3.270   4.645
 4270SOL    HW113709   3.762   3.363   4.672
 4270SOL    HW213710   3.740   3.247   4.559
 4271SOL     OW13711   0.059   0.220   5.100
 4271SOL    HW113712   0.014   0.296   5.147
 4271SOL    HW213713   0.124   0.177   5.163
 4272SOL     OW13714   6.943   4.825   5.030
 4272SOL    HW113715   6.983   4.906   5.074
 4272SOL    HW213716   6.978   4.743   5.074
 4273SOL     OW13717   4.706   6.149   4.766
 4273SOL    HW113718   4.797   6.177   4.735
 4273SOL    HW213719   4.715   6.067   4.822
 4274SOL     OW13720   0.715   6.709   3.289
 4274SOL    HW113721   0.702   6.610   3.299
 4274SOL    HW213722   0.629   6.755   3.313
 4275SOL     OW13723   0.114   0.591   5.852
 4275SOL    HW113724   0.089   0.498   5.880
 4275SOL    HW213725   0.040   0.654   5.876
 4276SOL     OW13726   1.583   5.308   2.651
 4276SOL    HW113727   1.634   5.313   2.565
 4276SOL    HW213728   1.557   5.214   2.669
 4277SOL     OW13729   6.912   4.896   3.968
 4277SOL    HW113730   6.933   4.806   3.931
 4277SOL    HW213731   6.950   4.967   3.908
 4278SOL     OW13732   6.872   6.621   5.006
 4278SOL    HW113733   6.878   6.533   5.054
 4278SOL    HW213734   6.781   6.659   5.017
 4279SOL     OW13735   3.671   6.489   5.449
 4279SOL    HW113736   3.639   6.414   5.391
 4279SOL    HW213737   3.640   6.576   5.412
 4280SOL     OW13738   6.429   1.424   5.202
 4280SOL    HW113739   6.392   1.510   5.237
 4280SOL    HW213740   6.462   1.368   5.278
 4281SOL     OW13741   1.652   4.784   4.595
 4281SOL    HW113742   1.608   4.803   4.508
 4281SOL    HW213743   1.745   4.749   4.578
 4282SOL     OW13744   3.032   2.351   6.966
 4282SOL    HW113745   3.089   2.343   0.027
 4282SOL    HW213746   2.940   2.318   6.987
 4283SOL     OW13747   1.425   0.291   3.609
 4283SOL    HW113748   1.477   0.351   3.670
 4283SOL    HW213749   1.346   0.340   3.574
 4284SOL     OW13750   5.760   0.311   2.758
 4284SOL    HW113751   5.815   0.316   2.841
 4284SOL    HW213752   5.701   0.231   2.762
 4285SOL     OW13753   0.122   7.020   5.884
 4285SOL    HW113754   0.057   0.012   5.958
 4285SOL    HW213755   0.081   6.963   5.813
 4286SOL     OW13756   4.832   5.509   6.415
 4286SOL    HW113757   4.902   5.444   6.444
 4286SOL    HW213758   4.746   5.486   6.460
 4287SOL     OW13759   5.757   0.406   4.923
 4287SOL    HW113760   5.836   0.429   4.981
 4287SOL    HW213761   5.674   0.410   4.979
 4288SOL     OW13762   0.932   6.945   3.697
 4288SOL    HW113763   0.959   0.013   3.733
 4288SOL    HW213764   0.872   6.957   3.618
 4289SOL     OW13765   5.408   2.359   1.875
 4289SOL    HW113766   5.415   2.361   1.974
 4289SOL    HW213767   5.321   2.399   1.846
 4290SOL     OW13768   2.099   6.784   1.382
 4290SOL    HW113769   2.002   6.763   1.397
 4290SOL    HW213770   2.123   6.866   1.433
 4291SOL     OW13771   5.133   3.171   1.216
 4291SOL    HW113772   5.139   3.264   1.179
 4291SOL    HW213773   5.132   3.174   1.316
 4292SOL     OW13774   6.088   4.680   5.354
 4292SOL    HW113775   6.079   4.739   5.435
 4292SOL    HW213776   6.152   4.722   5.289
 4293SOL     OW13777   6.469   3.660   6.476
 4293SOL    HW113778   6.559   3.649   6.434
 4293SOL    HW213779   6.452   3.585   6.540
 4294SOL     OW13780   4.088   2.802   6.779
 4294SOL    HW113781   4.023   2.867   6.740
 4294SOL    HW213782   4.172   2.851   6.805
 4295SOL     OW13783   3.743   6.952   4.585
 4295SOL    HW113784   3.788   0.020   4.579
 4295SOL    HW213785   3.719   6.934   4.680
 4296SOL     OW13786   3.012   2.137   0.378
 4296SOL    HW113787   3.038   2.231   0.352
 4296SOL    HW213788   2.981   2.088   0.297
 4297SOL     OW13789   4.895   6.636   5.102
 4297SOL    HW113790   4.955   6.671   5.031
 4297SOL    HW213791   4.856   6.548   5.073
 4298SOL     OW13792   1.209   5.643   0.886
 4298SOL    HW113793   1.289   5.702   0.897
 4298SOL    HW213794   1.227   5.554   0.928
 4299SOL     OW13795   1.368   3.649   6.088
 4299SOL    HW113796   1.352   3.555   6.056
 4299SOL    HW213797   1.411   3.647   6.178
 4300SOL     OW13798   2.658   0.986   6.026
 4300SOL    HW113799   2.697   1.075   6.050
 4300SOL    HW213800   2.728   0.928   5.985
 4301SOL     OW13801   2.861   1.798   0.344
 4301SOL    HW113802   2.881   1.759   0.254
 4301SOL    HW213803   2.937   1.857   0.372
 4302SOL     OW13804   1.389   5.920   6.051
 4302SOL    HW113805   1.312   5.860   6.029
 4302SOL    HW213806   1.367   6.014   6.025
 4303SOL     OW13807   6.227   4.423   3.051
 4303SOL    HW113808   6.237   4.364   2.971
 4303SOL    HW213809   6.157   4.493   3.032
 4304SOL     OW13810   3.276   3.595   4.412
 4304SOL    HW113811   3.244   3.584   4.318
 4304SOL    HW213812   3.281   3.692   4.435
 4305SOL     OW13813   6.113   1.439   3.630
 4305SOL    HW113814   6.177   1.365   3.607
 4305SOL    HW213815   6.029   1.400   3.667
 4306SOL     OW13816   6.993   3.724   6.260
 4306SOL    HW113817   6.919   3.670   6.300
 4306SOL    HW213818   0.042   3.743   6.329
 4307SOL     OW13819   4.732   4.087   5.572
 4307SOL    HW113820   4.781   4.033   5.640
 4307SOL    HW213821   4.732   4.183   5.598
 4308SOL     OW13822   4.844   6.044   5.829
 4308SOL    HW113823   4.834   6.143   5.823
 4308SOL    HW213824   4.756   6.000   5.811
 4309SOL     OW13825   1.203   0.470   0.333
 4309SOL    HW113826   1.199   0.508   0.425
 4309SOL    HW213827   1.210   0.371   0.338
 4310SOL     OW13828   1.714   2.624   3.804
 4310SOL    HW113829   1.797   2.678   3.815
 4310SOL    HW213830   1.723   2.537   3.853
 4311SOL     OW13831   1.133   6.324   2.878
 4311SOL    HW113832   1.068   6.249   2.890
 4311SOL    HW213833   1.201   6.321   2.951
 4312SOL     OW13834   1.434   5.340   1.901
 4312SOL    HW113835   1.479   5.284   1.971
 4312SOL    HW213836   1.487   5.423   1.885
 4313SOL     OW13837   5.865   1.010   1.793
 4313SOL    HW113838   5.776   1.009   1.746
 4313SOL    HW213839   5.936   1.037   1.728
 4314SOL     OW13840   4.777   2.722   2.948
 4314SOL    HW113841   4.713   2.685   3.016
 4314SOL    HW213842   4.791   2.655   2.875
 4315SOL     OW13843   2.765   0.635   2.245
 4315SOL    HW113844   2.732   0.725   2.276
 4315SOL    HW213845   2.687   0.577   2.222
 4316SOL     OW13846   5.040   0.116   1.150
 4316SOL    HW113847   5.112   0.087   1.087
 4316SOL    HW213848   5.023   0.214   1.140
 4317SOL     OW13849   3.151   1.163   5.551
 4317SOL    HW113850   3.111   1.142   5.462
 4317SOL    HW213851   3.084   1.212   5.607
 4318SOL     OW13852   0.918   3.627   4.130
 4318SOL    HW113853   0.884   3.559   4.195
 4318SOL    HW213854   0.957   3.704   4.179
 4319SOL     OW13855   2.239   3.548   6.644
 4319SOL    HW113856   2.216   3.618   6.576
 4319SOL    HW213857   2.308   3.585   6.707
 4320SOL     OW13858   1.470   6.203   2.152
 4320SOL    HW113859   1.415   6.267   2.206
 4320SOL    HW213860   1.565   6.207   2.183
 4321SOL     OW13861   5.948   0.670   4.765
 4321SOL    HW113862   5.882   0.673   4.689
 4321SOL    HW213863   6.009   0.592   4.754
 4322SOL     OW13864   6.594   1.388   6.689
 4322SOL    HW113865   6.594   1.480   6.652
 4322SOL    HW213866   6.688   1.360   6.711
 4323SOL     OW13867   5.626   2.902   2.312
 4323SOL    HW113868   5.545   2.924   2.365
 4323SOL    HW213869   5.600   2.853   2.229
 4324SOL     OW13870   5.860   3.992   6.394
 4324SOL    HW113871   5.885   4.088   6.381
 4324SOL    HW213872   5.934   3.945   6.443
 4325SOL     OW13873   2.004   0.708   0.304
 4325SOL    HW113874   1.911   0.745   0.310
 4325SOL    HW213875   2.035   0.712   0.209
 4326SOL     OW13876   6.382   2.994   5.101
 4326SOL    HW113877   6.473   3.011   5.064
 4326SOL    HW213878   6.352   2.902   5.076
 4327SOL     OW13879   5.481   4.938   2.224
 4327SOL    HW113880   5.426   4.995   2.285
 4327SOL    HW213881   5.426   4.862   2.189
 4328SOL     OW13882   4.333   4.962   5.743
 4328SOL    HW113883   4.325   5.045   5.798
 4328SOL    HW213884   4.429   4.941   5.728
 4329SOL     OW13885   3.259   1.648   6.007
 4329SOL    HW113886   3.344   1.639   6.060
 4329SOL    HW213887   3.213   1.733   6.033
 4330SOL     OW13888   2.839   0.260   5.662
 4330SOL    HW113889   2.867   0.342   5.612
 4330SOL    HW213890   2.778   0.205   5.605
 4331SOL     OW13891   5.158   3.356   0.590
 4331SOL    HW113892   5.067   3.336   0.553
 4331SOL    HW213893   5.190   3.277   0.643
 4332SOL     OW13894   5.268   3.591   1.899
 4332SOL    HW113895   5.214   3.534   1.836
 4332SOL    HW213896   5.354   3.545   1.919
 4333SOL     OW13897   5.236   1.431   5.311
 4333SOL    HW113898   5.143   1.427   5.273
 4333SOL    HW213899   5.242   1.369   5.389
 4334SOL     OW13900   2.840   2.127   1.841
 4334SOL    HW113901   2.766   2.166   1.787
 4334SOL    HW213902   2.875   2.197   1.904
 4335SOL     OW13903   2.915   3.699   4.005
 4335SOL    HW113904   2.883   3.655   3.921
 4335SOL    HW213905   2.957   3.787   3.982
 4336SOL     OW13906   1.179   6.190   5.231
 4336SOL    HW113907   1.173   6.115   5.166
 4336SOL    HW213908   1.222   6.269   5.187
 4337SOL     OW13909   0.686   5.396   7.015
 4337SOL    HW113910   0.728   5.305   7.016
 4337SOL    HW213911   0.746   5.460   6.966
 4338SOL     OW13912   5.398   5.157   4.867
 4338SOL    HW113913   5.332   5.192   4.934
 4338SOL    HW213914   5.470   5.107   4.914
 4339SOL     OW13915   5.633   2.662   4.741
 4339SOL    HW113916   5.610   2.715   4.823
 4339SOL    HW213917   5.631   2.565   4.762
 4340SOL     OW13918   6.654   3.236   2.186
 4340SOL    HW113919   6.676   3.176   2.108
 4340SOL    HW213920   6.656   3.331   2.157
 4341SOL     OW13921   1.291   3.872   1.979
 4341SOL    HW113922   1.366   3.902   1.920
 4341SOL    HW213923   1.233   3.807   1.929
 4342SOL     OW13924   6.828   2.644   3.383
 4342SOL    HW113925   6.819   2.744   3.377
 4342SOL    HW213926   6.749   2.607   3.430
 4343SOL     OW13927   3.664   0.759   0.032
 4343SOL    HW113928   3.667   0.776   6.954
 4343SOL    HW213929   3.704   0.837   0.080
 4344SOL     OW13930   1.718   4.937   3.001
 4344SOL    HW113931   1.658   4.951   3.080
 4344SOL    HW213932   1.722   5.022   2.948
 4345SOL     OW13933   1.840   3.060   5.448
 4345SOL    HW113934   1.939   3.072   5.448
 4345SOL    HW213935   1.801   3.093   5.534
 4346SOL     OW13936   2.348   3.122   1.774
 4346SOL    HW113937   2.416   3.195   1.772
 4346SOL    HW213938   2.264   3.153   1.729
 4347SOL     OW13939   6.982   0.689   1.861
 4347SOL    HW113940   0.059   0.672   1.874
 4347SOL    HW213941   6.933   0.601   1.856
 4348SOL     OW13942   0.438   3.300   2.288
 4348SOL    HW113943   0.428   3.239   2.366
 4348SOL    HW213944   0.354   3.352   2.274
 4349SOL     OW13945   0.434   1.534   3.012
 4349SOL    HW113946   0.474   1.593   2.942
 4349SOL    HW213947   0.464   1.565   3.102
 4350SOL     OW13948   4.839   2.284   4.377
 4350SOL    HW113949   4.803   2.219   4.310
 4350SOL    HW213950   4.796   2.268   4.466
 4351SOL     OW13951   2.508   6.437   1.610
 4351SOL    HW113952   2.517   6.349   1.656
 4351SOL    HW213953   2.438   6.492   1.656
 4352SOL     OW13954   0.379   2.142   1.763
 4352SOL    HW113955   0.426   2.183   1.841
 4352SOL    HW213956   0.447   2.103   1.700
 4353SOL     OW13957   2.271   5.699   1.114
 4353SOL    HW113958   2.315   5.745   1.037
 4353SOL    HW213959   2.193   5.646   1.082
 4354SOL     OW13960   2.409   6.698   6.857
 4354SOL    HW113961   2.322   6.650   6.866
 4354SOL    HW213962   2.464   6.681   6.939
 4355SOL     OW13963   4.220   0.575   1.889
 4355SOL    HW113964   4.314   0.596   1.918
 4355SOL    HW213965   4.221   0.542   1.795
 4356SOL     OW13966   4.692   4.080   1.762
 4356SOL    HW113967   4.757   4.146   1.724
 4356SOL    HW213968   4.608   4.128   1.786
 4357SOL     OW13969   5.889   0.776   0.406
 4357SOL    HW113970   5.886   0.715   0.327
 4357SOL    HW213971   5.804   0.829   0.411
 4358SOL     OW13972   6.949   6.580   0.986
 4358SOL    HW113973   0.004   6.600   0.923
 4358SOL    HW213974   6.915   6.488   0.968
 4359SOL     OW13975   1.417   2.368   4.668
 4359SOL    HW113976   1.367   2.367   4.754
 4359SOL    HW213977   1.437   2.462   4.641
 4360SOL     OW13978   0.596   4.052   2.374
 4360SOL    HW113979   0.674   4.080   2.430
 4360SOL    HW213980   0.629   4.011   2.289
 4361SOL     OW13981   3.751   2.978   1.637
 4361SOL    HW113982   3.818   2.947   1.705
 4361SOL    HW213983   3.691   2.902   1.612
 4362SOL     OW13984   6.212   3.374   5.649
 4362SOL    HW113985   6.134   3.435   5.662
 4362SOL    HW213986   6.212   3.340   5.555
 4363SOL     OW13987   4.640   2.283   5.907
 4363SOL    HW113988   4.728   2.289   5.861
 4363SOL    HW213989   4.597   2.196   5.886
 4364SOL     OW13990   2.936   3.742   5.488
 4364SOL    HW113991   2.976   3.805   5.555
 4364SOL    HW213992   3.009   3.696   5.437
 4365SOL     OW13993   3.272   1.761   2.333
 4365SOL    HW113994   3.316   1.824   2.269
 4365SOL    HW213995   3.231   1.685   2.282
 4366SOL     OW13996   5.999   6.447   1.276
 4366SOL    HW113997   6.060   6.370   1.258
 4366SOL    HW213998   5.929   6.452   1.206
 4367SOL     OW13999   0.949   4.726   5.137
 4367SOL    HW114000   0.958   4.627   5.136
 4367SOL    HW214001   1.038   4.766   5.162
 4368SOL     OW14002   4.800   5.166   1.291
 4368SOL    HW114003   4.834   5.253   1.256
 4368SOL    HW214004   4.835   5.091   1.235
 4369SOL     OW14005   5.208   5.172   2.284
 4369SOL    HW114006   5.122   5.218   2.308
 4369SOL    HW214007   5.250   5.219   2.206
 4370SOL     OW14008   6.084   4.683   3.000
 4370SOL    HW114009   6.078   4.696   3.099
 4370SOL    HW214010   6.166   4.729   2.965
 4371SOL     OW14011   6.472   0.866   2.134
 4371SOL    HW114012   6.521   0.817   2.062
 4371SOL    HW214013   6.473   0.964   2.115
 4372SOL     OW14014   4.669   0.859   2.958
 4372SOL    HW114015   4.594   0.809   2.914
 4372SOL    HW214016   4.644   0.956   2.963
 4373SOL     OW14017   6.794   3.033   6.336
 4373SOL    HW114018   6.701   3.060   6.310
 4373SOL    HW214019   6.791   2.984   6.423
 4374SOL     OW14020   1.640   2.052   1.765
 4374SOL    HW114021   1.545   2.081   1.755
 4374SOL    HW214022   1.647   1.984   1.839
 4375SOL     OW14023   2.286   6.874   3.839
 4375SOL    HW114024   2.282   6.887   3.740
 4375SOL    HW214025   2.373   6.907   3.874
 4376SOL     OW14026   6.570   0.168   2.393
 4376SOL    HW114027   6.617   0.139   2.309
 4376SOL    HW214028   6.475   0.188   2.372
 4377SOL     OW14029   5.494   3.597   0.353
 4377SOL    HW114030   5.431   3.674   0.339
 4377SOL    HW214031   5.445   3.511   0.335
 4378SOL     OW14032   2.215   0.475   3.623
 4378SOL    HW114033   2.122   0.491   3.588
 4378SOL    HW214034   2.231   0.536   3.701
 4379SOL     OW14035   2.456   0.975   4.566
 4379SOL    HW114036   2.409   0.909   4.624
 4379SOL    HW214037   2.540   0.933   4.530
 4380SOL     OW14038   1.405   0.975   1.254
 4380SOL    HW114039   1.427   1.067   1.287
 4380SOL    HW214040   1.461   0.954   1.174
 4381SOL     OW14041   1.054   5.624   4.704
 4381SOL    HW114042   1.112   5.546   4.678
 4381SOL    HW214043   1.003   5.601   4.787
 4382SOL     OW14044   6.646   3.246   5.784
 4382SOL    HW114045   6.611   3.275   5.873
 4382SOL    HW214046   6.570   3.241   5.719
 4383SOL     OW14047   5.846   3.352   6.376
 4383SOL    HW114048   5.757   3.377   6.414
 4383SOL    HW214049   5.867   3.257   6.401
 4384SOL     OW14050   6.658   1.122   3.231
 4384SOL    HW114051   6.755   1.145   3.223
 4384SOL    HW214052   6.610   1.195   3.280
 4385SOL     OW14053   4.673   2.195   4.598
 4385SOL    HW114054   4.605   2.269   4.595
 4385SOL    HW214055   4.629   2.109   4.575
 4386SOL     OW14056   1.010   4.216   5.876
 4386SOL    HW114057   0.967   4.304   5.897
 4386SOL    HW214058   1.022   4.163   5.960
 4387SOL     OW14059   5.896   3.232   1.188
 4387SOL    HW114060   5.847   3.174   1.122
 4387SOL    HW214061   5.925   3.176   1.266
 4388SOL     OW14062   5.398   1.858   6.139
 4388SOL    HW114063   5.476   1.895   6.089
 4388SOL    HW214064   5.388   1.907   6.226
 4389SOL     OW14065   6.712   3.526   1.734
 4389SOL    HW114066   6.736   3.608   1.681
 4389SOL    HW214067   6.651   3.551   1.809
 4390SOL     OW14068   5.572   0.007   0.563
 4390SOL    HW114069   5.524   0.065   0.628
 4390SOL    HW214070   5.671   0.014   0.577
 4391SOL     OW14071   1.950   5.261   6.600
 4391SOL    HW114072   1.948   5.348   6.551
 4391SOL    HW214073   2.044   5.235   6.620
 4392SOL     OW14074   0.783   1.570   4.145
 4392SOL    HW114075   0.865   1.544   4.093
 4392SOL    HW214076   0.792   1.664   4.177
 4393SOL     OW14077   6.493   0.691   1.863
 4393SOL    HW114078   6.457   0.783   1.851
 4393SOL    HW214079   6.473   0.637   1.781
 4394SOL     OW14080   0.949   0.384   1.343
 4394SOL    HW114081   1.002   0.415   1.264
 4394SOL    HW214082   0.984   0.428   1.426
 4395SOL     OW14083   1.990   0.275   1.969
 4395SOL    HW114084   2.036   0.273   1.880
 4395SOL    HW214085   2.038   0.337   2.031
 4396SOL     OW14086   1.526   1.575   3.635
 4396SOL    HW114087   1.457   1.504   3.649
 4396SOL    HW214088   1.572   1.561   3.547
 4397SOL     OW14089   2.251   2.867   3.723
 4397SOL    HW114090   2.325   2.817   3.679
 4397SOL    HW214091   2.219   2.816   3.803
 4398SOL     OW14092   1.964   3.503   6.185
 4398SOL    HW114093   2.002   3.574   6.125
 4398SOL    HW214094   2.016   3.418   6.171
 4399SOL     OW14095   1.961   6.548   1.756
 4399SOL    HW114096   2.061   6.553   1.746
 4399SOL    HW214097   1.937   6.461   1.798
 4400SOL     OW14098   1.130   6.754   3.738
 4400SOL    HW114099   1.045   6.805   3.724
 4400SOL    HW214100   1.126   6.669   3.686
 4401SOL     OW14101   3.904   6.229   5.231
 4401SOL    HW114102   3.978   6.229   5.164
 4401SOL    HW214103   3.840   6.154   5.210
 4402SOL     OW14104   1.414   0.761   2.091
 4402SOL    HW114105   1.389   0.799   2.180
 4402SOL    HW214106   1.482   0.689   2.103
 4403SOL     OW14107   1.078   5.756   1.312
 4403SOL    HW114108   1.143   5.680   1.306
 4403SOL    HW214109   1.000   5.729   1.368
 4404SOL     OW14110   1.132   5.451   5.400
 4404SOL    HW114111   1.217   5.406   5.371
 4404SOL    HW214112   1.100   5.411   5.486
 4405SOL     OW14113   2.735   5.048   3.245
 4405SOL    HW114114   2.758   4.956   3.277
 4405SOL    HW214115   2.671   5.042   3.169
 4406SOL     OW14116   6.257   3.006   1.735
 4406SOL    HW114117   6.281   3.103   1.743
 4406SOL    HW214118   6.339   2.953   1.712
 4407SOL     OW14119   0.088   6.061   1.942
 4407SOL    HW114120   0.174   6.098   1.976
 4407SOL    HW214121   0.036   6.022   2.019
 4408SOL     OW14122   3.748   6.652   6.823
 4408SOL    HW114123   3.726   6.556   6.811
 4408SOL    HW214124   3.743   6.698   6.734
 4409SOL     OW14125   3.998   0.605   2.682
 4409SOL    HW114126   3.909   0.634   2.648
 4409SOL    HW214127   3.998   0.505   2.695
 4410SOL     OW14128   0.012   6.335   1.205
 4410SOL    HW114129   0.006   6.238   1.183
 4410SOL    HW214130   0.093   6.374   1.162
 4411SOL     OW14131   3.544   4.751   5.484
 4411SOL    HW114132   3.562   4.655   5.507
 4411SOL    HW214133   3.454   4.759   5.442
 4412SOL     OW14134   5.389   6.818   4.190
 4412SOL    HW114135   5.417   6.858   4.277
 4412SOL    HW214136   5.301   6.857   4.163
 4413SOL     OW14137   3.128   6.788   4.306
 4413SOL    HW114138   3.041   6.776   4.259
 4413SOL    HW214139   3.196   6.826   4.243
 4414SOL     OW14140   5.078   5.406   1.559
 4414SOL    HW114141   4.981   5.391   1.575
 4414SOL    HW214142   5.128   5.321   1.578
 4415SOL     OW14143   3.263   3.992   1.565
 4415SOL    HW114144   3.171   3.963   1.539
 4415SOL    HW214145   3.304   4.045   1.491
 4416SOL     OW14146   3.994   1.467   4.240
 4416SOL    HW114147   3.954   1.446   4.151
 4416SOL    HW214148   3.927   1.519   4.294
 4417SOL     OW14149   6.695   2.756   4.014
 4417SOL    HW114150   6.669   2.683   3.952
 4417SOL    HW214151   6.795   2.768   4.013
 4418SOL     OW14152   6.659   1.473   1.667
 4418SOL    HW114153   6.679   1.510   1.758
 4418SOL    HW214154   6.725   1.400   1.646
 4419SOL     OW14155   6.308   6.116   6.001
 4419SOL    HW114156   6.369   6.159   5.935
 4419SOL    HW214157   6.359   6.093   6.084
 4420SOL     OW14158   4.028   2.408   1.567
 4420SOL    HW114159   3.946   2.368   1.609
 4420SOL    HW214160   4.012   2.419   1.469
 4421SOL     OW14161   1.484   3.143   4.909
 4421SOL    HW114162   1.563   3.082   4.898
 4421SOL    HW214163   1.410   3.094   4.955
 4422SOL     OW14164   1.202   5.250   0.017
 4422SOL    HW114165   1.165   5.339   7.014
 4422SOL    HW214166   1.128   5.184   0.028
 4423SOL     OW14167   6.381   4.296   5.752
 4423SOL    HW114168   6.353   4.211   5.707
 4423SOL    HW214169   6.445   4.345   5.692
 4424SOL     OW14170   4.651   5.877   4.173
 4424SOL    HW114171   4.638   5.852   4.077
 4424SOL    HW214172   4.710   5.957   4.178
 4425SOL     OW14173   2.175   5.296   1.160
 4425SOL    HW114174   2.168   5.334   1.253
 4425SOL    HW214175   2.110   5.220   1.151
 4426SOL     OW14176   0.999   0.338   4.058
 4426SOL    HW114177   0.958   0.249   4.040
 4426SOL    HW214178   1.081   0.326   4.114
 4427SOL     OW14179   3.390   6.433   2.675
 4427SOL    HW114180   3.392   6.481   2.587
 4427SOL    HW214181   3.447   6.351   2.669
 4428SOL     OW14182   5.259   0.456   4.388
 4428SOL    HW114183   5.350   0.422   4.363
 4428SOL    HW214184   5.245   0.546   4.347
 4429SOL     OW14185   2.827   6.612   3.200
 4429SOL    HW114186   2.905   6.660   3.159
 4429SOL    HW214187   2.743   6.646   3.159
 4430SOL     OW14188   5.653   4.615   3.700
 4430SOL    HW114189   5.735   4.577   3.743
 4430SOL    HW214190   5.627   4.699   3.748
 4431SOL     OW14191   3.285   0.336   3.689
 4431SOL    HW114192   3.239   0.331   3.601
 4431SOL    HW214193   3.315   0.244   3.716
 4432SOL     OW14194   1.603   4.075   6.798
 4432SOL    HW114195   1.557   4.156   6.764
 4432SOL    HW214196   1.651   4.030   6.722
 4433SOL     OW14197   0.973   1.877   4.760
 4433SOL    HW114198   0.905   1.810   4.728
 4433SOL    HW214199   1.002   1.934   4.684
 4434SOL     OW14200   0.237   1.752   1.551
 4434SOL    HW114201   0.220   1.848   1.574
 4434SOL    HW214202   0.336   1.735   1.551
 4435SOL     OW14203   2.896   3.804   0.679
 4435SOL    HW114204   2.928   3.878   0.620
 4435SOL    HW214205   2.802   3.779   0.653
 4436SOL     OW14206   4.466   2.249   1.333
 4436SOL    HW114207   4.483   2.175   1.398
 4436SOL    HW214208   4.471   2.215   1.240
 4437SOL     OW14209   0.140   3.639   2.517
 4437SOL    HW114210   0.143   3.570   2.444
 4437SOL    HW214211   0.109   3.597   2.602
 4438SOL     OW14212   4.325   6.637   5.368
 4438SOL    HW114213   4.265   6.694   5.424
 4438SOL    HW214214   4.378   6.695   5.305
 4439SOL     OW14215   1.403   6.705   2.904
 4439SOL    HW114216   1.320   6.752   2.873
 4439SOL    HW214217   1.383   6.657   2.990
 4440SOL     OW14218   1.975   4.869   0.883
 4440SOL    HW114219   1.891   4.852   0.831
 4440SOL    HW214220   2.017   4.954   0.852
 4441SOL     OW14221   1.384   1.986   0.876
 4441SOL    HW114222   1.386   2.007   0.974
 4441SOL    HW214223   1.327   2.052   0.829
 4442SOL     OW14224   1.422   5.246   5.619
 4442SOL    HW114225   1.329   5.232   5.653
 4442SOL    HW214226   1.431   5.205   5.528
 4443SOL     OW14227   0.618   4.705   6.285
 4443SOL    HW114228   0.634   4.762   6.365
 4443SOL    HW214229   0.584   4.616   6.314
 4444SOL     OW14230   4.739   4.339   0.829
 4444SOL    HW114231   4.794   4.328   0.746
 4444SOL    HW214232   4.783   4.406   0.889
 4445SOL     OW14233   0.283   5.222   6.538
 4445SOL    HW114234   0.259   5.318   6.548
 4445SOL    HW214235   0.305   5.202   6.442
 4446SOL     OW14236   4.862   1.555   0.824
 4446SOL    HW114237   4.908   1.618   0.887
 4446SOL    HW214238   4.926   1.525   0.753
 4447SOL     OW14239   5.093   4.470   5.043
 4447SOL    HW114240   5.165   4.473   5.113
 4447SOL    HW214241   5.135   4.456   4.953
 4448SOL     OW14242   2.850   6.320   1.345
 4448SOL    HW114243   2.873   6.270   1.428
 4448SOL    HW214244   2.821   6.413   1.369
 4449SOL     OW14245   4.491   1.260   6.379
 4449SOL    HW114246   4.460   1.200   6.453
 4449SOL    HW214247   4.590   1.274   6.387
 4450SOL     OW14248   4.142   1.196   0.221
 4450SOL    HW114249   4.144   1.126   0.150
 4450SOL    HW214250   4.120   1.285   0.179
 4451SOL     OW14251   4.814   4.847   3.622
 4451SOL    HW114252   4.739   4.909   3.642
 4451SOL    HW214253   4.794   4.757   3.660
 4452SOL     OW14254   5.288   6.149   4.453
 4452SOL    HW114255   5.373   6.183   4.493
 4452SOL    HW214256   5.289   6.049   4.452
 4453SOL     OW14257   0.220   3.423   1.305
 4453SOL    HW114258   0.140   3.453   1.356
 4453SOL    HW214259   0.192   3.383   1.218
 4454SOL     OW14260   0.665   1.757   0.156
 4454SOL    HW114261   0.631   1.837   0.107
 4454SOL    HW214262   0.635   1.761   0.252
 4455SOL     OW14263   5.966   5.621   4.946
 4455SOL    HW114264   5.971   5.552   4.873
 4455SOL    HW214265   5.980   5.711   4.906
 4456SOL     OW14266   1.994   6.539   3.749
 4456SOL    HW114267   2.077   6.592   3.734
 4456SOL    HW214268   1.968   6.543   3.845
 4457SOL     OW14269   1.041   2.076   4.592
 4457SOL    HW114270   1.132   2.064   4.631
 4457SOL    HW214271   1.048   2.098   4.495
 4458SOL     OW14272   2.055   3.608   1.785
 4458SOL    HW114273   2.111   3.691   1.786
 4458SOL    HW214274   2.082   3.549   1.862
 4459SOL     OW14275   1.354   2.084   4.634
 4459SOL    HW114276   1.426   2.027   4.674
 4459SOL    HW214277   1.380   2.180   4.641
 4460SOL     OW14278   0.202   2.856   4.182
 4460SOL    HW114279   0.166   2.945   4.211
 4460SOL    HW214280   0.172   2.785   4.247
 4461SOL     OW14281   2.420   0.687   1.774
 4461SOL    HW114282   2.343   0.686   1.838
 4461SOL    HW214283   2.489   0.751   1.808
 4462SOL     OW14284   5.872   3.458   2.040
 4462SOL    HW114285   5.831   3.498   1.958
 4462SOL    HW214286   5.855   3.517   2.118
 4463SOL     OW14287   5.906   1.349   0.948
 4463SOL    HW114288   5.994   1.332   0.994
 4463SOL    HW214289   5.848   1.268   0.957
 4464SOL     OW14290   0.738   5.494   0.706
 4464SOL    HW114291   0.676   5.565   0.673
 4464SOL    HW214292   0.686   5.410   0.723
 4465SOL     OW14293   2.370   6.071   0.556
 4465SOL    HW114294   2.425   6.131   0.615
 4465SOL    HW214295   2.381   6.100   0.461
 4466SOL     OW14296   2.256   2.101   4.011
 4466SOL    HW114297   2.159   2.122   3.999
 4466SOL    HW214298   2.309   2.144   3.938
 4467SOL     OW14299   2.913   5.957   3.849
 4467SOL    HW114300   2.978   5.882   3.857
 4467SOL    HW214301   2.962   6.044   3.860
 4468SOL     OW14302   0.894   2.866   1.499
 4468SOL    HW114303   0.966   2.916   1.451
 4468SOL    HW214304   0.811   2.922   1.501
 4469SOL     OW14305   2.930   6.834   1.526
 4469SOL    HW114306   2.952   6.754   1.582
 4469SOL    HW214307   2.955   6.815   1.431
 4470SOL     OW14308   1.179   0.666   2.401
 4470SOL    HW114309   1.150   0.606   2.326
 4470SOL    HW214310   1.276   0.688   2.391
 4471SOL     OW14311   2.170   2.286   6.586
 4471SOL    HW114312   2.166   2.383   6.610
 4471SOL    HW214313   2.254   2.246   6.622
 4472SOL     OW14314   2.084   2.924   1.249
 4472SOL    HW114315   2.085   2.848   1.313
 4472SOL    HW214316   2.125   3.005   1.292
 4473SOL     OW14317   0.081   2.708   3.830
 4473SOL    HW114318   0.068   2.806   3.814
 4473SOL    HW214319   0.178   2.687   3.831
 4474SOL     OW14320   3.022   0.941   2.233
 4474SOL    HW114321   3.073   1.027   2.222
 4474SOL    HW214322   2.984   0.913   2.145
 4475SOL     OW14323   1.052   3.555   2.501
 4475SOL    HW114324   1.077   3.587   2.410
 4475SOL    HW214325   1.038   3.456   2.500
 4476SOL     OW14326   5.528   1.345   4.179
 4476SOL    HW114327   5.483   1.435   4.175
 4476SOL    HW214328   5.574   1.335   4.267
 4477SOL     OW14329   3.000   0.044   5.507
 4477SOL    HW114330   2.916   0.096   5.494
 4477SOL    HW214331   3.068   0.101   5.554
 4478SOL     OW14332   1.054   0.196   0.594
 4478SOL    HW114333   0.967   0.245   0.587
 4478SOL    HW214334   1.036   0.097   0.597
 4479SOL     OW14335   0.968   2.444   7.011
 4479SOL    HW114336   1.037   2.380   0.025
 4479SOL    HW214337   0.890   2.446   0.052
 4480SOL     OW14338   6.782   4.848   4.470
 4480SOL    HW114339   6.749   4.793   4.547
 4480SOL    HW214340   6.854   4.910   4.501
 4481SOL     OW14341   2.260   4.659   5.755
 4481SOL    HW114342   2.279   4.583   5.818
 4481SOL    HW214343   2.168   4.648   5.718
 4482SOL     OW14344   2.922   4.681   6.405
 4482SOL    HW114345   2.839   4.702   6.455
 4482SOL    HW214346   2.900   4.665   6.309
 4483SOL     OW14347   0.640   3.376   2.131
 4483SOL    HW114348   0.615   3.392   2.035
 4483SOL    HW214349   0.564   3.331   2.178
 4484SOL     OW14350   2.546   3.296   7.020
 4484SOL    HW114351   2.536   3.321   0.096
 4484SOL    HW214352   2.458   3.304   6.974
 4485SOL     OW14353   4.500   2.573   4.722
 4485SOL    HW114354   4.436   2.607   4.791
 4485SOL    HW214355   4.571   2.518   4.767
 4486SOL     OW14356   5.560   4.416   5.311
 4486SOL    HW114357   5.543   4.486   5.381
 4486SOL    HW214358   5.658   4.408   5.293
 4487SOL     OW14359   1.839   2.734   0.156
 4487SOL    HW114360   1.920   2.769   0.203
 4487SOL    HW214361   1.791   2.810   0.112
 4488SOL     OW14362   0.777   4.393   3.959
 4488SOL    HW114363   0.865   4.348   3.944
 4488SOL    HW214364   0.703   4.327   3.943
 4489SOL     OW14365   4.572   5.378   5.141
 4489SOL    HW114366   4.629   5.371   5.059
 4489SOL    HW214367   4.582   5.469   5.181
 4490SOL     OW14368   5.644   2.098   0.971
 4490SOL    HW114369   5.593   2.146   1.042
 4490SOL    HW214370   5.679   2.012   1.006
 4491SOL     OW14371   1.081   3.030   2.758
 4491SOL    HW114372   1.119   2.989   2.841
 4491SOL    HW214373   1.119   2.983   2.678
 4492SOL     OW14374   5.509   0.692   1.886
 4492SOL    HW114375   5.558   0.765   1.934
 4492SOL    HW214376   5.419   0.725   1.859
 4493SOL     OW14377   5.357   6.721   5.042
 4493SOL    HW114378   5.396   6.801   4.995
 4493SOL    HW214379   5.425   6.684   5.105
 4494SOL     OW14380   0.669   0.541   6.468
 4494SOL    HW114381   0.701   0.631   6.498
 4494SOL    HW214382   0.624   0.495   6.544
 4495SOL     OW14383   4.099   5.807   1.917
 4495SOL    HW114384   4.000   5.807   1.935
 4495SOL    HW214385   4.149   5.798   2.003
 4496SOL     OW14386   4.405   6.372   6.155
 4496SOL    HW114387   4.435   6.378   6.060
 4496SOL    HW214388   4.484   6.357   6.214
 4497SOL     OW14389   4.178   2.038   7.013
 4497SOL    HW114390   4.239   2.019   6.936
 4497SOL    HW214391   4.143   2.131   7.006
 4498SOL     OW14392   6.969   5.110   5.832
 4498SOL    HW114393   6.902   5.042   5.864
 4498SOL    HW214394   0.040   5.071   5.838
 4499SOL     OW14395   6.573   1.934   2.773
 4499SOL    HW114396   6.642   1.902   2.708
 4499SOL    HW214397   6.482   1.912   2.738
 4500SOL     OW14398   4.026   5.180   0.382
 4500SOL    HW114399   4.032   5.229   0.469
 4500SOL    HW214400   3.945   5.211   0.332
 4501SOL     OW14401   6.503   1.699   1.995
 4501SOL    HW114402   6.551   1.631   2.050
 4501SOL    HW214403   6.423   1.732   2.044
 4502SOL     OW14404   0.987   3.187   6.823
 4502SOL    HW114405   1.041   3.229   6.750
 4502SOL    HW214406   0.986   3.088   6.810
 4503SOL     OW14407   2.921   0.240   2.377
 4503SOL    HW114408   2.966   0.174   2.317
 4503SOL    HW214409   2.923   0.331   2.336
 4504SOL     OW14410   0.297   1.946   3.514
 4504SOL    HW114411   0.205   1.954   3.554
 4504SOL    HW214412   0.352   1.885   3.570
 4505SOL     OW14413   6.703   4.240   2.788
 4505SOL    HW114414   6.679   4.201   2.877
 4505SOL    HW214415   6.771   4.311   2.801
 4506SOL     OW14416   5.071   2.475   4.583
 4506SOL    HW114417   5.001   2.494   4.514
 4506SOL    HW214418   5.039   2.404   4.645
 4507SOL     OW14419   6.291   3.345   3.784
 4507SOL    HW114420   6.229   3.296   3.846
 4507SOL    HW214421   6.286   3.443   3.804
 4508SOL     OW14422   0.556   4.933   0.513
 4508SOL    HW114423   0.490   4.988   0.463
 4508SOL    HW214424   0.543   4.836   0.489
 4509SOL     OW14425   4.151   1.637   2.630
 4509SOL    HW114426   4.104   1.638   2.542
 4509SOL    HW214427   4.190   1.727   2.649
 4510SOL     OW14428   4.534   1.702   4.226
 4510SOL    HW114429   4.566   1.757   4.148
 4510SOL    HW214430   4.436   1.716   4.238
 4511SOL     OW14431   0.047   4.523   0.999
 4511SOL    HW114432   0.008   4.442   0.954
 4511SOL    HW214433   0.134   4.546   0.957
 4512SOL     OW14434   3.660   2.002   5.677
 4512SOL    HW114435   3.618   2.049   5.600
 4512SOL    HW214436   3.589   1.962   5.735
 4513SOL     OW14437   1.345   5.844   6.584
 4513SOL    HW114438   1.337   5.886   6.494
 4513SOL    HW214439   1.265   5.788   6.603
 4514SOL     OW14440   3.241   3.050   6.246
 4514SOL    HW114441   3.233   2.960   6.203
 4514SOL    HW214442   3.283   3.040   6.337
 4515SOL     OW14443   5.692   0.024   4.811
 4515SOL    HW114444   5.778   0.067   4.785
 4515SOL    HW214445   5.695   6.947   4.789
 4516SOL     OW14446   3.123   1.913   5.828
 4516SOL    HW114447   3.119   2.011   5.850
 4516SOL    HW214448   3.210   1.875   5.859
 4517SOL     OW14449   4.506   0.688   6.103
 4517SOL    HW114450   4.564   0.610   6.080
 4517SOL    HW214451   4.446   0.710   6.026
 4518SOL     OW14452   2.083   6.733   0.908
 4518SOL    HW114453   1.987   6.737   0.935
 4518SOL    HW214454   2.137   6.694   0.983
 4519SOL     OW14455   5.551   6.623   0.313
 4519SOL    HW114456   5.611   6.703   0.307
 4519SOL    HW214457   5.599   6.549   0.361
 4520SOL     OW14458   4.140   6.485   5.214
 4520SOL    HW114459   4.167   6.551   5.285
 4520SOL    HW214460   4.212   6.480   5.145
 4521SOL     OW14461   5.030   2.652   5.247
 4521SOL    HW114462   4.969   2.589   5.295
 4521SOL    HW214463   5.120   2.609   5.238
 4522SOL     OW14464   5.300   3.153   3.282
 4522SOL    HW114465   5.238   3.192   3.214
 4522SOL    HW214466   5.394   3.173   3.257
 4523SOL     OW14467   0.339   3.615   6.382
 4523SOL    HW114468   0.288   3.653   6.459
 4523SOL    HW214469   0.277   3.602   6.304
 4524SOL     OW14470   0.378   3.070   2.825
 4524SOL    HW114471   0.440   3.132   2.873
 4524SOL    HW214472   0.290   3.067   2.872
 4525SOL     OW14473   2.384   2.381   5.930
 4525SOL    HW114474   2.413   2.364   5.836
 4525SOL    HW214475   2.296   2.428   5.930
 4526SOL     OW14476   0.680   0.294   6.087
 4526SOL    HW114477   0.655   0.223   6.154
 4526SOL    HW214478   0.710   0.376   6.135
 4527SOL     OW14479   6.703   0.198   3.079
 4527SOL    HW114480   6.704   0.168   2.984
 4527SOL    HW214481   6.752   0.131   3.135
 4528SOL     OW14482   4.114   1.026   5.494
 4528SOL    HW114483   4.146   0.935   5.465
 4528SOL    HW214484   4.188   1.092   5.483
 4529SOL     OW14485   2.593   0.821   5.446
 4529SOL    HW114486   2.545   0.835   5.532
 4529SOL    HW214487   2.543   0.866   5.372
 4530SOL     OW14488   2.215   6.344   5.079
 4530SOL    HW114489   2.147   6.351   5.151
 4530SOL    HW214490   2.215   6.251   5.042
 4531SOL     OW14491   1.349   5.159   6.380
 4531SOL    HW114492   1.325   5.253   6.407
 4531SOL    HW214493   1.392   5.113   6.457
 4532SOL     OW14494   5.652   0.723   2.931
 4532SOL    HW114495   5.557   0.750   2.947
 4532SOL    HW214496   5.703   0.730   3.017
 4533SOL     OW14497   2.166   0.422   2.294
 4533SOL    HW114498   2.096   0.370   2.342
 4533SOL    HW214499   2.231   0.460   2.360
 4534SOL     OW14500   4.509   1.717   4.668
 4534SOL    HW114501   4.423   1.677   4.637
 4534SOL    HW214502   4.577   1.644   4.680
 4535SOL     OW14503   3.463   2.247   0.964
 4535SOL    HW114504   3.422   2.164   0.999
 4535SOL    HW214505   3.472   2.241   0.864
 4536SOL     OW14506   2.439   1.738   5.848
 4536SOL    HW114507   2.500   1.777   5.779
 4536SOL    HW214508   2.466   1.644   5.867
 4537SOL     OW14509   3.291   3.857   4.495
 4537SOL    HW114510   3.223   3.925   4.467
 4537SOL    HW214511   3.383   3.896   4.488
 4538SOL     OW14512   6.817   2.719   1.344
 4538SOL    HW114513   6.786   2.713   1.440
 4538SOL    HW214514   6.833   2.627   1.309
 4539SOL     OW14515   1.786   5.419   5.242
 4539SOL    HW114516   1.713   5.360   5.275
 4539SOL    HW214517   1.863   5.416   5.305
 4540SOL     OW14518   0.449   0.859   0.713
 4540SOL    HW114519   0.368   0.799   0.711
 4540SOL    HW214520   0.432   0.940   0.658
 4541SOL     OW14521   4.163   1.836   6.249
 4541SOL    HW114522   4.217   1.892   6.187
 4541SOL    HW214523   4.168   1.740   6.220
 4542SOL     OW14524   0.232   2.437   0.649
 4542SOL    HW114525   0.216   2.352   0.699
 4542SOL    HW214526   0.327   2.440   0.619
 4543SOL     OW14527   3.713   2.234   0.229
 4543SOL    HW114528   3.768   2.153   0.208
 4543SOL    HW214529   3.754   2.283   0.306
 4544SOL     OW14530   5.603   5.062   0.522
 4544SOL    HW114531   5.585   4.982   0.464
 4544SOL    HW214532   5.599   5.035   0.618
 4545SOL     OW14533   0.886   4.006   4.877
 4545SOL    HW114534   0.882   3.924   4.933
 4545SOL    HW214535   0.924   3.983   4.787
 4546SOL     OW14536   2.487   1.061   5.721
 4546SOL    HW114537   2.416   1.038   5.654
 4546SOL    HW214538   2.454   1.038   5.813
 4547SOL     OW14539   6.133   0.760   0.571
 4547SOL    HW114540   6.050   0.727   0.527
 4547SOL    HW214541   6.190   0.807   0.504
 4548SOL     OW14542   2.213   3.066   2.646
 4548SOL    HW114543   2.151   3.072   2.724
 4548SOL    HW214544   2.176   3.119   2.570
 4549SOL     OW14545   5.689   4.333   2.603
 4549SOL    HW114546   5.664   4.368   2.693
 4549SOL    HW214547   5.718   4.408   2.544
 4550SOL     OW14548   0.623   4.661   2.778
 4550SOL    HW114549   0.581   4.570   2.788
 4550SOL    HW214550   0.705   4.666   2.834
 4551SOL     OW14551   1.665   3.511   5.120
 4551SOL    HW114552   1.716   3.554   5.195
 4551SOL    HW214553   1.688   3.414   5.115
 4552SOL     OW14554   6.064   1.412   1.666
 4552SOL    HW114555   6.040   1.317   1.648
 4552SOL    HW214556   6.160   1.418   1.693
 4553SOL     OW14557   5.371   4.884   6.276
 4553SOL    HW114558   5.451   4.926   6.320
 4553SOL    HW214559   5.402   4.824   6.202
 4554SOL     OW14560   0.532   6.227   1.473
 4554SOL    HW114561   0.462   6.156   1.488
 4554SOL    HW214562   0.517   6.270   1.384
 4555SOL     OW14563   1.211   1.342   6.700
 4555SOL    HW114564   1.201   1.283   6.780
 4555SOL    HW214565   1.139   1.321   6.633
 4556SOL     OW14566   6.093   3.143   5.730
 4556SOL    HW114567   6.097   3.239   5.700
 4556SOL    HW214568   6.124   3.137   5.825
 4557SOL     OW14569   5.957   5.189   3.611
 4557SOL    HW114570   5.960   5.092   3.636
 4557SOL    HW214571   6.049   5.228   3.617
 4558SOL     OW14572   6.162   2.869   5.461
 4558SOL    HW114573   6.144   2.937   5.390
 4558SOL    HW214574   6.226   2.907   5.528
 4559SOL     OW14575   0.744   2.939   2.943
 4559SOL    HW114576   0.772   3.035   2.939
 4559SOL    HW214577   0.744   2.901   2.851
 4560SOL     OW14578   6.741   4.622   1.557
 4560SOL    HW114579   6.836   4.654   1.550
 4560SOL    HW214580   6.699   4.660   1.639
 4561SOL     OW14581   3.205   2.121   4.306
 4561SOL    HW114582   3.150   2.168   4.237
 4561SOL    HW214583   3.300   2.115   4.274
 4562SOL     OW14584   1.931   0.037   0.711
 4562SOL    HW114585   1.843   7.011   0.709
 4562SOL    HW214586   1.917   0.135   0.697
 4563SOL     OW14587   0.264   2.884   1.543
 4563SOL    HW114588   0.184   2.877   1.602
 4563SOL    HW214589   0.252   2.962   1.481
 4564SOL     OW14590   0.101   4.234   1.967
 4564SOL    HW114591   0.132   4.210   1.875
 4564SOL    HW214592   0.124   4.160   2.030
 4565SOL     OW14593   1.760   0.275   5.222
 4565SOL    HW114594   1.818   0.354   5.201
 4565SOL    HW214595   1.740   0.274   5.320
 4566SOL     OW14596   6.844   4.308   1.393
 4566SOL    HW114597   6.899   4.380   1.350
 4566SOL    HW214598   6.763   4.290   1.337
 4567SOL     OW14599   6.705   7.013   6.071
 4567SOL    HW114600   6.656   6.932   6.101
 4567SOL    HW214601   6.707   7.016   5.971
 4568SOL     OW14602   0.949   4.645   4.167
 4568SOL    HW114603   0.946   4.563   4.110
 4568SOL    HW214604   1.030   4.698   4.145
 4569SOL     OW14605   3.044   1.483   3.061
 4569SOL    HW114606   2.947   1.501   3.078
 4569SOL    HW214607   3.089   1.461   3.148
 4570SOL     OW14608   6.661   5.740   1.211
 4570SOL    HW114609   6.652   5.640   1.207
 4570SOL    HW214610   6.716   5.765   1.291
 4571SOL     OW14611   3.761   2.976   6.556
 4571SOL    HW114612   3.825   3.051   6.575
 4571SOL    HW214613   3.710   2.953   6.639
 4572SOL     OW14614   2.669   2.709   0.285
 4572SOL    HW114615   2.716   2.790   0.322
 4572SOL    HW214616   2.583   2.695   0.333
 4573SOL     OW14617   1.113   6.474   1.240
 4573SOL    HW114618   1.191   6.421   1.275
 4573SOL    HW214619   1.043   6.480   1.311
 4574SOL     OW14620   6.459   3.381   0.238
 4574SOL    HW114621   6.432   3.330   0.156
 4574SOL    HW214622   6.555   3.362   0.259
 4575SOL     OW14623   6.212   0.745   4.552
 4575SOL    HW114624   6.263   0.694   4.621
 4575SOL    HW214625   6.204   0.840   4.580
 4576SOL     OW14626   2.891   5.194   5.113
 4576SOL    HW114627   2.832   5.141   5.174
 4576SOL    HW214628   2.834   5.248   5.051
 4577SOL     OW14629   1.821   1.997   3.320
 4577SOL    HW114630   1.796   1.908   3.357
 4577SOL    HW214631   1.864   1.985   3.231
 4578SOL     OW14632   1.643   0.677   2.694
 4578SOL    HW114633   1.610   0.632   2.611
 4578SOL    HW214634   1.626   0.618   2.773
 4579SOL     OW14635   4.245   0.070   2.037
 4579SOL    HW114636   4.193   0.057   2.121
 4579SOL    HW214637   4.341   0.046   2.053
 4580SOL     OW14638   6.145   3.489   0.234
 4580SOL    HW114639   6.113   3.575   0.273
 4580SOL    HW214640   6.245   3.488   0.232
 4581SOL     OW14641   3.386   6.575   1.934
 4581SOL    HW114642   3.313   6.593   1.999
 4581SOL    HW214643   3.465   6.633   1.956
 4582SOL     OW14644   5.345   0.812   3.030
 4582SOL    HW114645   5.400   0.883   3.073
 4582SOL    HW214646   5.305   0.846   2.945
 4583SOL     OW14647   1.973   0.112   6.545
 4583SOL    HW114648   1.950   0.018   6.519
 4583SOL    HW214649   1.956   0.125   6.642
 4584SOL     OW14650   1.600   6.889   5.980
 4584SOL    HW114651   1.646   6.953   5.918
 4584SOL    HW214652   1.567   6.810   5.927
 4585SOL     OW14653   1.059   4.299   3.333
 4585SOL    HW114654   1.008   4.292   3.419
 4585SOL    HW214655   1.130   4.369   3.342
 4586SOL     OW14656   5.129   4.378   0.063
 4586SOL    HW114657   5.147   4.300   0.122
 4586SOL    HW214658   5.030   4.385   0.045
 4587SOL     OW14659   3.279   3.531   4.812
 4587SOL    HW114660   3.279   3.613   4.869
 4587SOL    HW214661   3.190   3.521   4.768
 4588SOL     OW14662   2.763   3.840   6.135
 4588SOL    HW114663   2.665   3.841   6.156
 4588SOL    HW214664   2.779   3.783   6.054
 4589SOL     OW14665   5.276   5.975   2.124
 4589SOL    HW114666   5.369   5.973   2.086
 4589SOL    HW214667   5.229   5.889   2.104
 4590SOL     OW14668   3.404   5.873   1.846
 4590SOL    HW114669   3.488   5.927   1.841
 4590SOL    HW214670   3.338   5.908   1.779
 4591SOL     OW14671   2.582   0.031   5.299
 4591SOL    HW114672   2.586   7.012   5.207
 4591SOL    HW214673   2.528   0.115   5.298
 4592SOL     OW14674   2.657   1.173   4.595
 4592SOL    HW114675   2.603   1.257   4.596
 4592SOL    HW214676   2.598   1.095   4.575
 4593SOL     OW14677   0.214   5.905   3.147
 4593SOL    HW114678   0.131   5.960   3.153
 4593SOL    HW214679   0.255   5.897   3.238
 4594SOL     OW14680   2.678   0.122   3.210
 4594SOL    HW114681   2.651   0.098   3.117
 4594SOL    HW214682   2.705   0.039   3.260
 4595SOL     OW14683   4.948   1.616   6.237
 4595SOL    HW114684   5.027   1.606   6.299
 4595SOL    HW214685   4.881   1.678   6.278
 4596SOL     OW14686   0.927   0.879   2.288
 4596SOL    HW114687   1.010   0.831   2.317
 4596SOL    HW214688   0.848   0.819   2.299
 4597SOL     OW14689   2.372   5.303   6.908
 4597SOL    HW114690   2.412   5.223   6.953
 4597SOL    HW214691   2.444   5.369   6.887
 4598SOL     OW14692   2.107   5.331   0.182
 4598SOL    HW114693   2.160   5.323   0.097
 4598SOL    HW214694   2.018   5.288   0.170
 4599SOL     OW14695   1.497   4.133   2.805
 4599SOL    HW114696   1.554   4.073   2.860
 4599SOL    HW214697   1.552   4.173   2.732
 4600SOL     OW14698   6.936   6.275   5.651
 4600SOL    HW114699   0.008   6.309   5.669
 4600SOL    HW214700   6.871   6.322   5.711
 4601SOL     OW14701   0.605   0.810   4.641
 4601SOL    HW114702   0.522   0.847   4.599
 4601SOL    HW214703   0.681   0.817   4.576
 4602SOL     OW14704   2.739   0.594   6.569
 4602SOL    HW114705   2.640   0.603   6.573
 4602SOL    HW214706   2.775   0.579   6.661
 4603SOL     OW14707   4.468   5.840   1.148
 4603SOL    HW114708   4.533   5.863   1.221
 4603SOL    HW214709   4.495   5.885   1.064
 4604SOL     OW14710   4.827   6.949   5.786
 4604SOL    HW114711   4.835   6.929   5.688
 4604SOL    HW214712   4.755   6.892   5.826
 4605SOL     OW14713   2.544   0.100   1.704
 4605SOL    HW114714   2.574   0.148   1.787
 4605SOL    HW214715   2.510   0.009   1.728
 4606SOL     OW14716   6.986   6.642   2.468
 4606SOL    HW114717   7.016   6.727   2.425
 4606SOL    HW214718   0.022   6.623   2.547
 4607SOL     OW14719   2.140   4.024   3.099
 4607SOL    HW114720   2.097   3.934   3.092
 4607SOL    HW214721   2.114   4.066   3.186
 4608SOL     OW14722   6.904   2.940   4.945
 4608SOL    HW114723   6.897   2.920   4.847
 4608SOL    HW214724   6.937   3.033   4.957
 4609SOL     OW14725   4.284   6.705   6.511
 4609SOL    HW114726   4.384   6.711   6.521
 4609SOL    HW214727   4.257   6.756   6.429
 4610SOL     OW14728   5.496   1.876   0.414
 4610SOL    HW114729   5.479   1.947   0.482
 4610SOL    HW214730   5.446   1.899   0.330
 4611SOL     OW14731   0.840   0.704   6.076
 4611SOL    HW114732   0.891   0.786   6.052
 4611SOL    HW214733   0.742   0.721   6.064
 4612SOL     OW14734   2.215   6.405   2.316
 4612SOL    HW114735   2.287   6.432   2.380
 4612SOL    HW214736   2.190   6.310   2.331
 4613SOL     OW14737   1.845   4.546   2.120
 4613SOL    HW114738   1.887   4.562   2.209
 4613SOL    HW214739   1.915   4.557   2.048
 4614SOL     OW14740   5.891   3.481   4.287
 4614SOL    HW114741   5.913   3.384   4.281
 4614SOL    HW214742   5.938   3.521   4.367
 4615SOL     OW14743   1.055   1.079   1.463
 4615SOL    HW114744   1.058   1.179   1.462
 4615SOL    HW214745   1.050   1.046   1.369
 4616SOL     OW14746   6.049   2.656   4.940
 4616SOL    HW114747   5.973   2.715   4.970
 4616SOL    HW214748   6.060   2.664   4.841
 4617SOL     OW14749   0.017   2.797   1.958
 4617SOL    HW114750   0.011   2.702   1.927
 4617SOL    HW214751   6.946   2.832   1.974
 4618SOL     OW14752   2.278   4.014   5.710
 4618SOL    HW114753   2.291   3.918   5.686
 4618SOL    HW214754   2.335   4.072   5.652
 4619SOL     OW14755   2.793   5.994   4.467
 4619SOL    HW114756   2.746   6.045   4.539
 4619SOL    HW214757   2.766   5.898   4.472
 4620SOL     OW14758   0.822   5.199   1.654
 4620SOL    HW114759   0.871   5.284   1.673
 4620SOL    HW214760   0.881   5.121   1.674
 4621SOL     OW14761   5.111   0.454   2.755
 4621SOL    HW114762   5.150   0.454   2.847
 4621SOL    HW214763   5.012   0.442   2.761
 4622SOL     OW14764   4.316   5.551   1.348
 4622SOL    HW114765   4.259   5.491   1.291
 4622SOL    HW214766   4.272   5.563   1.437
 4623SOL     OW14767   3.411   5.311   1.151
 4623SOL    HW114768   3.470   5.246   1.199
 4623SOL    HW214769   3.386   5.273   1.062
 4624SOL     OW14770   3.730   1.266   3.368
 4624SOL    HW114771   3.739   1.169   3.393
 4624SOL    HW214772   3.767   1.281   3.276
 4625SOL     OW14773   1.836   5.375   1.777
 4625SOL    HW114774   1.800   5.283   1.793
 4625SOL    HW214775   1.761   5.436   1.753
 4626SOL     OW14776   3.856   4.170   1.701
 4626SOL    HW114777   3.878   4.266   1.684
 4626SOL    HW214778   3.936   4.124   1.739
 4627SOL     OW14779   6.701   5.989   4.951
 4627SOL    HW114780   6.791   6.031   4.944
 4627SOL    HW214781   6.690   5.949   5.042
 4628SOL     OW14782   4.855   5.286   3.535
 4628SOL    HW114783   4.895   5.202   3.498
 4628SOL    HW214784   4.767   5.303   3.491
 4629SOL     OW14785   1.947   5.640   6.764
 4629SOL    HW114786   2.029   5.615   6.712
 4629SOL    HW214787   1.953   5.603   6.857
 4630SOL     OW14788   1.435   4.531   2.513
 4630SOL    HW114789   1.493   4.495   2.586
 4630SOL    HW214790   1.343   4.493   2.521
 4631SOL     OW14791   0.078   0.368   3.954
 4631SOL    HW114792   0.053   0.271   3.956
 4631SOL    HW214793   0.141   0.389   4.028
 4632SOL     OW14794   3.130   5.210   2.628
 4632SOL    HW114795   3.128   5.271   2.550
 4632SOL    HW214796   3.082   5.125   2.605
 4633SOL     OW14797   5.191   1.432   4.289
 4633SOL    HW114798   5.149   1.346   4.262
 4633SOL    HW214799   5.135   1.509   4.257
 4634SOL     OW14800   2.903   3.819   4.873
 4634SOL    HW114801   2.822   3.761   4.873
 4634SOL    HW214802   2.914   3.862   4.962
 4635SOL     OW14803   5.028   5.212   0.864
 4635SOL    HW114804   5.014   5.200   0.962
 4635SOL    HW214805   5.118   5.252   0.848
 4636SOL     OW14806   2.509   5.252   0.490
 4636SOL    HW114807   2.556   5.335   0.460
 4636SOL    HW214808   2.497   5.191   0.412
 4637SOL     OW14809   1.695   0.230   1.983
 4637SOL    HW114810   1.795   0.227   1.989
 4637SOL    HW214811   1.660   0.139   1.964
 4638SOL     OW14812   3.714   4.791   0.998
 4638SOL    HW114813   3.778   4.858   1.033
 4638SOL    HW214814   3.668   4.745   1.074
 4639SOL     OW14815   2.289   2.791   0.601
 4639SOL    HW114816   2.378   2.764   0.566
 4639SOL    HW214817   2.244   2.711   0.642
 4640SOL     OW14818   5.966   2.969   5.967
 4640SOL    HW114819   5.967   2.913   6.049
 4640SOL    HW214820   5.948   2.911   5.887
 4641SOL     OW14821   0.670   5.941   3.933
 4641SOL    HW114822   0.701   5.864   3.988
 4641SOL    HW214823   0.741   6.011   3.929
 4642SOL     OW14824   1.433   1.711   3.874
 4642SOL    HW114825   1.333   1.719   3.879
 4642SOL    HW214826   1.458   1.667   3.788
 4643SOL     OW14827   0.057   2.496   6.864
 4643SOL    HW114828   0.138   2.452   6.826
 4643SOL    HW214829   0.085   2.558   6.938
 4644SOL     OW14830   1.650   1.433   0.038
 4644SOL    HW114831   1.728   1.373   0.020
 4644SOL    HW214832   1.626   1.429   0.134
 4645SOL     OW14833   1.047   1.029   3.791
 4645SOL    HW114834   1.041   1.097   3.718
 4645SOL    HW214835   0.955   0.993   3.811
 4646SOL     OW14836   2.340   5.379   4.110
 4646SOL    HW114837   2.324   5.305   4.176
 4646SOL    HW214838   2.402   5.347   4.039
 4647SOL     OW14839   2.174   6.389   2.645
 4647SOL    HW114840   2.141   6.297   2.623
 4647SOL    HW214841   2.096   6.452   2.645
 4648SOL     OW14842   3.025   0.882   3.941
 4648SOL    HW114843   2.967   0.869   3.861
 4648SOL    HW214844   3.053   0.793   3.977
 4649SOL     OW14845   5.903   0.635   0.792
 4649SOL    HW114846   5.888   0.724   0.835
 4649SOL    HW214847   5.921   0.566   0.862
 4650SOL     OW14848   5.175   6.252   1.301
 4650SOL    HW114849   5.190   6.166   1.351
 4650SOL    HW214850   5.233   6.324   1.340
 4651SOL     OW14851   6.645   3.731   5.997
 4651SOL    HW114852   6.603   3.820   6.014
 4651SOL    HW214853   6.626   3.703   5.903
 4652SOL     OW14854   0.022   6.179   4.537
 4652SOL    HW114855   0.046   6.231   4.455
 4652SOL    HW214856   0.055   6.085   4.528
 4653SOL     OW14857   4.696   5.893   0.586
 4653SOL    HW114858   4.756   5.971   0.603
 4653SOL    HW214859   4.727   5.815   0.642
 4654SOL     OW14860   0.030   6.316   4.778
 4654SOL    HW114861   0.022   6.267   4.692
 4654SOL    HW214862   0.000   6.257   4.853
 4655SOL     OW14863   5.135   2.638   1.314
 4655SOL    HW114864   5.169   2.547   1.291
 4655SOL    HW214865   5.072   2.670   1.243
 4656SOL     OW14866   0.896   0.796   1.914
 4656SOL    HW114867   0.805   0.790   1.957
 4656SOL    HW214868   0.896   0.870   1.847
 4657SOL     OW14869   5.165   6.665   2.244
 4657SOL    HW114870   5.238   6.702   2.302
 4657SOL    HW214871   5.077   6.677   2.289
 4658SOL     OW14872   2.622   2.709   5.525
 4658SOL    HW114873   2.549   2.715   5.457
 4658SOL    HW214874   2.605   2.777   5.596
 4659SOL     OW14875   3.410   4.489   1.025
 4659SOL    HW114876   3.468   4.567   1.002
 4659SOL    HW214877   3.421   4.417   0.956
 4660SOL     OW14878   1.004   6.429   3.917
 4660SOL    HW114879   0.984   6.346   3.968
 4660SOL    HW214880   0.918   6.477   3.898
 4661SOL     OW14881   2.005   4.020   5.700
 4661SOL    HW114882   2.104   4.006   5.705
 4661SOL    HW214883   1.981   4.052   5.609
 4662SOL     OW14884   2.566   6.557   4.775
 4662SOL    HW114885   2.663   6.532   4.778
 4662SOL    HW214886   2.557   6.653   4.749
 4663SOL     OW14887   1.199   0.228   6.971
 4663SOL    HW114888   1.119   0.267   7.016
 4663SOL    HW214889   1.282   0.263   7.015
 4664SOL     OW14890   6.469   0.126   0.807
 4664SOL    HW114891   6.542   0.175   0.856
 4664SOL    HW214892   6.477   0.028   0.825
 4665SOL     OW14893   2.195   0.405   5.784
 4665SOL    HW114894   2.202   0.505   5.778
 4665SOL    HW214895   2.099   0.379   5.799
 4666SOL     OW14896   1.956   2.763   6.818
 4666SOL    HW114897   1.890   2.737   6.747
 4666SOL    HW214898   1.952   2.861   6.833
 4667SOL     OW14899   6.728   3.469   2.066
 4667SOL    HW114900   6.781   3.534   2.120
 4667SOL    HW214901   6.651   3.516   2.024
 4668SOL     OW14902   4.063   2.140   4.798
 4668SOL    HW114903   4.132   2.178   4.736
 4668SOL    HW214904   4.016   2.064   4.754
 4669SOL     OW14905   5.359   6.984   0.172
 4669SOL    HW114906   5.401   0.053   0.186
 4669SOL    HW214907   5.350   6.937   0.260
 4670SOL     OW14908   1.324   3.578   0.083
 4670SOL    HW114909   1.306   3.676   0.085
 4670SOL    HW214910   1.399   3.556   0.146
 4671SOL     OW14911   0.802   3.158   0.069
 4671SOL    HW114912   0.846   3.143   0.158
 4671SOL    HW214913   0.872   3.177   0.000
 4672SOL     OW14914   3.386   4.307   5.586
 4672SOL    HW114915   3.304   4.354   5.619
 4672SOL    HW214916   3.433   4.264   5.663
 4673SOL     OW14917   5.453   0.627   6.819
 4673SOL    HW114918   5.503   0.616   6.905
 4673SOL    HW214919   5.518   0.625   6.743
 4674SOL     OW14920   0.474   1.363   0.443
 4674SOL    HW114921   0.429   1.450   0.460
 4674SOL    HW214922   0.566   1.365   0.482
 4675SOL     OW14923   3.690   6.153   0.054
 4675SOL    HW114924   3.777   6.125   0.094
 4675SOL    HW214925   3.615   6.125   0.115
 4676SOL     OW14926   0.599   6.218   4.656
 4676SOL    HW114927   0.662   6.271   4.714
 4676SOL    HW214928   0.562   6.142   4.709
 4677SOL     OW14929   3.481   0.390   6.844
 4677SOL    HW114930   3.500   0.393   6.942
 4677SOL    HW214931   3.561   0.354   6.796
 4678SOL     OW14932   2.026   5.066   1.331
 4678SOL    HW114933   2.042   4.984   1.276
 4678SOL    HW214934   1.928   5.080   1.343
 4679SOL     OW14935   2.592   0.750   6.252
 4679SOL    HW114936   2.596   0.816   6.177
 4679SOL    HW214937   2.528   0.782   6.322
 4680SOL     OW14938   1.799   5.217   1.444
 4680SOL    HW114939   1.745   5.142   1.482
 4680SOL    HW214940   1.887   5.222   1.492
 4681SOL     OW14941   0.334   5.420   5.284
 4681SOL    HW114942   0.343   5.322   5.302
 4681SOL    HW214943   0.419   5.467   5.311
 4682SOL     OW14944   4.161   6.399   0.103
 4682SOL    HW114945   4.068   6.397   0.139
 4682SOL    HW214946   4.162   6.451   0.017
 4683SOL     OW14947   6.527   3.803   2.465
 4683SOL    HW114948   6.567   3.805   2.373
 4683SOL    HW214949   6.581   3.862   2.525
 4684SOL     OW14950   1.605   2.735   4.878
 4684SOL    HW114951   1.648   2.720   4.967
 4684SOL    HW214952   1.506   2.725   4.888
 4685SOL     OW14953   5.717   5.308   3.988
 4685SOL    HW114954   5.748   5.294   4.082
 4685SOL    HW214955   5.786   5.359   3.937
 4686SOL     OW14956   5.115   5.756   6.922
 4686SOL    HW114957   5.024   5.787   6.948
 4686SOL    HW214958   5.146   5.808   6.842
 4687SOL     OW14959   6.682   3.968   4.617
 4687SOL    HW114960   6.642   4.022   4.543
 4687SOL    HW214961   6.651   4.005   4.705
 4688SOL     OW14962   0.595   3.682   7.021
 4688SOL    HW114963   0.617   3.612   6.952
 4688SOL    HW214964   0.629   3.651   0.089
 4689SOL     OW14965   0.072   6.679   5.515
 4689SOL    HW114966   0.143   6.746   5.536
 4689SOL    HW214967   0.115   6.592   5.488
 4690SOL     OW14968   1.438   1.179   6.982
 4690SOL    HW114969   1.497   1.187   6.901
 4690SOL    HW214970   1.459   1.093   0.008
 4691SOL     OW14971   2.631   4.243   0.845
 4691SOL    HW114972   2.559   4.183   0.881
 4691SOL    HW214973   2.651   4.314   0.912
 4692SOL     OW14974   0.290   4.786   3.057
 4692SOL    HW114975   0.318   4.764   3.150
 4692SOL    HW214976   0.367   4.825   3.007
 4693SOL     OW14977   0.775   1.225   4.644
 4693SOL    HW114978   0.822   1.148   4.599
 4693SOL    HW214979   0.707   1.189   4.708
 4694SOL     OW14980   2.473   1.654   0.000
 4694SOL    HW114981   2.416   1.594   0.056
 4694SOL    HW214982   2.538   1.702   0.060
 4695SOL     OW14983   3.934   2.895   1.845
 4695SOL    HW114984   3.945   2.827   1.773
 4695SOL    HW214985   4.007   2.962   1.840
 4696SOL     OW14986   0.244   3.673   6.092
 4696SOL    HW114987   0.147   3.685   6.113
 4696SOL    HW214988   0.262   3.700   5.997
 4697SOL     OW14989   1.544   3.883   0.224
 4697SOL    HW114990   1.481   3.916   0.295
 4697SOL    HW214991   1.555   3.955   0.154
 4698SOL     OW14992   5.302   4.569   1.421
 4698SOL    HW114993   5.365   4.626   1.368
 4698SOL    HW214994   5.304   4.596   1.517
 4699SOL     OW14995   0.393   0.334   2.428
 4699SOL    HW114996   0.388   0.376   2.337
 4699SOL    HW214997   0.459   0.384   2.484
 4700SOL     OW14998   5.581   1.631   1.116
 4700SOL    HW114999   5.538   1.615   1.205
 4700SOL    HW215000   5.520   1.688   1.060
 4701SOL     OW15001   1.044   1.490   0.367
 4701SOL    HW115002   1.080   1.545   0.292
 4701SOL    HW215003   1.060   1.537   0.453
 4702SOL     OW15004   3.492   4.142   6.790
 4702SOL    HW115005   3.475   4.057   6.741
 4702SOL    HW215006   3.418   4.206   6.772
 4703SOL     OW15007   1.843   1.202   3.006
 4703SOL    HW115008   1.883   1.180   2.917
 4703SOL    HW215009   1.911   1.190   3.077
 4704SOL     OW15010   0.516   0.084   1.085
 4704SOL    HW115011   0.587   0.155   1.082
 4704SOL    HW215012   0.437   0.114   1.032
 4705SOL     OW15013   3.566   2.951   4.151
 4705SOL    HW115014   3.660   2.985   4.150
 4705SOL    HW215015   3.537   2.933   4.245
 4706SOL     OW15016   3.780   6.375   6.686
 4706SOL    HW115017   3.836   6.301   6.722
 4706SOL    HW215018   3.695   6.381   6.739
 4707SOL     OW15019   1.631   5.634   1.259
 4707SOL    HW115020   1.661   5.668   1.170
 4707SOL    HW215021   1.711   5.619   1.317
 4708SOL     OW15022   3.505   2.529   0.947
 4708SOL    HW115023   3.592   2.507   0.991
 4708SOL    HW215024   3.435   2.467   0.981
 4709SOL     OW15025   4.046   4.927   5.433
 4709SOL    HW115026   4.094   5.004   5.391
 4709SOL    HW215027   3.973   4.896   5.371
 4710SOL     OW15028   4.918   0.961   6.944
 4710SOL    HW115029   4.879   0.873   6.971
 4710SOL    HW215030   4.987   0.947   6.873
 4711SOL     OW15031   3.206   0.103   2.195
 4711SOL    HW115032   3.234   0.172   2.263
 4711SOL    HW215033   3.286   0.052   2.164
 4712SOL     OW15034   1.576   4.845   0.995
 4712SOL    HW115035   1.528   4.844   0.907
 4712SOL    HW215036   1.657   4.904   0.988
 4713SOL     OW15037   2.632   5.605   1.425
 4713SOL    HW115038   2.649   5.681   1.488
 4713SOL    HW215039   2.538   5.609   1.392
 4714SOL     OW15040   2.556   1.332   1.535
 4714SOL    HW115041   2.625   1.353   1.465
 4714SOL    HW215042   2.478   1.288   1.491
 4715SOL     OW15043   6.624   3.160   2.433
 4715SOL    HW115044   6.589   3.067   2.443
 4715SOL    HW215045   6.605   3.193   2.340
 4716SOL     OW15046   3.659   5.464   6.884
 4716SOL    HW115047   3.688   5.437   6.792
 4716SOL    HW215048   3.625   5.385   6.933
 4717SOL     OW15049   1.081   5.681   2.631
 4717SOL    HW115050   1.100   5.611   2.563
 4717SOL    HW215051   1.167   5.722   2.662
 4718SOL     OW15052   5.389   1.557   6.655
 4718SOL    HW115053   5.379   1.564   6.754
 4718SOL    HW215054   5.355   1.468   6.624
 4719SOL     OW15055   5.693   3.583   2.519
 4719SOL    HW115056   5.718   3.619   2.609
 4719SOL    HW215057   5.753   3.506   2.496
 4720SOL     OW15058   2.970   6.536   5.729
 4720SOL    HW115059   2.924   6.458   5.773
 4720SOL    HW215060   3.034   6.578   5.794
 4721SOL     OW15061   1.895   2.201   0.762
 4721SOL    HW115062   1.872   2.200   0.860
 4721SOL    HW215063   1.854   2.121   0.717
 4722SOL     OW15064   1.644   6.516   0.364
 4722SOL    HW115065   1.653   6.507   0.265
 4722SOL    HW215066   1.722   6.566   0.401
 4723SOL     OW15067   2.719   6.409   6.831
 4723SOL    HW115068   2.813   6.431   6.808
 4723SOL    HW215069   2.690   6.328   6.780
 4724SOL     OW15070   3.845   6.457   2.397
 4724SOL    HW115071   3.929   6.433   2.347
 4724SOL    HW215072   3.850   6.417   2.489
 4725SOL     OW15073   5.266   6.342   3.072
 4725SOL    HW115074   5.227   6.362   2.982
 4725SOL    HW215075   5.221   6.261   3.111
 4726SOL     OW15076   1.290   4.218   6.390
 4726SOL    HW115077   1.245   4.297   6.433
 4726SOL    HW215078   1.260   4.211   6.295
 4727SOL     OW15079   0.070   5.639   0.436
 4727SOL    HW115080   0.072   5.632   0.336
 4727SOL    HW215081   0.104   5.729   0.464
 4728SOL     OW15082   6.743   0.969   6.892
 4728SOL    HW115083   6.699   0.960   6.802
 4728SOL    HW215084   6.736   1.063   6.924
 4729SOL     OW15085   2.706   0.205   2.193
 4729SOL    HW115086   2.725   0.270   2.267
 4729SOL    HW215087   2.785   0.144   2.183
 4730SOL     OW15088   2.390   6.297   5.682
 4730SOL    HW115089   2.403   6.394   5.701
 4730SOL    HW215090   2.431   6.243   5.756
 4731SOL     OW15091   5.594   0.981   5.027
 4731SOL    HW115092   5.548   1.049   4.969
 4731SOL    HW215093   5.551   0.892   5.013
 4732SOL     OW15094   0.016   3.244   6.777
 4732SOL    HW115095   6.959   3.242   6.840
 4732SOL    HW215096   7.012   3.294   6.695
 4733SOL     OW15097   0.007   3.291   3.030
 4733SOL    HW115098   0.065   3.370   3.011
 4733SOL    HW215099   6.935   3.323   3.052
 4734SOL     OW15100   4.340   3.501   0.085
 4734SOL    HW115101   4.417   3.446   0.050
 4734SOL    HW215102   4.353   3.597   0.059
 4735SOL     OW15103   0.526   4.263   3.953
 4735SOL    HW115104   0.477   4.347   3.928
 4735SOL    HW215105   0.463   4.198   3.995
 4736SOL     OW15106   1.012   1.272   0.178
 4736SOL    HW115107   1.000   1.352   0.237
 4736SOL    HW215108   1.071   1.206   0.222
 4737SOL     OW15109   2.647   4.953   1.955
 4737SOL    HW115110   2.582   4.884   1.988
 4737SOL    HW215111   2.736   4.910   1.939
 4738SOL     OW15112   6.662   6.440   1.821
 4738SOL    HW115113   6.628   6.532   1.801
 4738SOL    HW215114   6.740   6.420   1.762
 4739SOL     OW15115   4.169   0.358   2.915
 4739SOL    HW115116   4.184   0.355   2.816
 4739SOL    HW215117   4.077   0.390   2.934
 4740SOL     OW15118   0.845   2.022   2.783
 4740SOL    HW115119   0.787   1.970   2.720
 4740SOL    HW215120   0.791   2.047   2.864
 4741SOL     OW15121   4.104   3.098   1.837
 4741SOL    HW115122   4.035   3.166   1.862
 4741SOL    HW215123   4.185   3.144   1.800
 4742SOL     OW15124   3.103   6.975   0.291
 4742SOL    HW115125   3.097   6.982   0.390
 4742SOL    HW215126   3.046   0.025   0.249
 4743SOL     OW15127   1.865   4.404   1.674
 4743SOL    HW115128   1.807   4.324   1.657
 4743SOL    HW215129   1.839   4.478   1.613
 4744SOL     OW15130   2.258   6.672   0.677
 4744SOL    HW115131   2.357   6.658   0.681
 4744SOL    HW215132   2.226   6.709   0.764
 4745SOL     OW15133   1.897   4.439   0.730
 4745SOL    HW115134   1.968   4.372   0.751
 4745SOL    HW215135   1.807   4.395   0.736
 4746SOL     OW15136   4.630   5.325   4.172
 4746SOL    HW115137   4.671   5.248   4.124
 4746SOL    HW215138   4.543   5.349   4.129
 4747SOL     OW15139   1.805   2.863   0.574
 4747SOL    HW115140   1.893   2.907   0.556
 4747SOL    HW215141   1.791   2.787   0.510
 4748SOL     OW15142   1.975   6.566   2.880
 4748SOL    HW115143   1.953   6.658   2.846
 4748SOL    HW215144   1.922   6.498   2.829
 4749SOL     OW15145   1.652   0.217   0.390
 4749SOL    HW115146   1.559   0.201   0.359
 4749SOL    HW215147   1.717   0.179   0.324
 4750SOL     OW15148   5.712   3.775   5.016
 4750SOL    HW115149   5.616   3.782   4.988
 4750SOL    HW215150   5.770   3.817   4.947
 4751SOL     OW15151   4.975   0.859   2.551
 4751SOL    HW115152   4.979   0.822   2.644
 4751SOL    HW215153   4.917   0.801   2.494
 4752SOL     OW15154   4.365   2.214   0.132
 4752SOL    HW115155   4.377   2.307   0.097
 4752SOL    HW215156   4.268   2.199   0.152
 4753SOL     OW15157   2.508   6.364   5.135
 4753SOL    HW115158   2.529   6.372   5.233
 4753SOL    HW215159   2.410   6.375   5.121
 4754SOL     OW15160   4.433   4.627   6.715
 4754SOL    HW115161   4.533   4.633   6.724
 4754SOL    HW215162   4.392   4.713   6.745
 4755SOL     OW15163   1.421   0.727   1.585
 4755SOL    HW115164   1.381   0.667   1.654
 4755SOL    HW215165   1.383   0.705   1.495
 4756SOL     OW15166   6.306   4.551   6.383
 4756SOL    HW115167   6.367   4.572   6.460
 4756SOL    HW215168   6.214   4.534   6.417
 4757SOL     OW15169   1.888   3.096   1.476
 4757SOL    HW115170   1.860   3.143   1.392
 4757SOL    HW215171   1.971   3.043   1.459
 4758SOL     OW15172   2.030   0.039   2.841
 4758SOL    HW115173   2.081   0.081   2.766
 4758SOL    HW215174   1.979   0.109   2.891
 4759SOL     OW15175   0.974   4.977   1.751
 4759SOL    HW115176   1.059   4.934   1.780
 4759SOL    HW215177   0.900   4.910   1.754
 4760SOL     OW15178   1.850   6.560   0.887
 4760SOL    HW115179   1.822   6.611   0.969
 4760SOL    HW215180   1.900   6.478   0.915
 4761SOL     OW15181   0.163   6.763   0.844
 4761SOL    HW115182   0.137   6.823   0.769
 4761SOL    HW215183   0.204   6.818   0.918
 4762SOL     OW15184   1.979   5.312   2.439
 4762SOL    HW115185   1.964   5.329   2.536
 4762SOL    HW215186   2.052   5.244   2.428
 4763SOL     OW15187   4.759   5.790   1.915
 4763SOL    HW115188   4.693   5.770   1.988
 4763SOL    HW215189   4.838   5.730   1.925
 4764SOL     OW15190   4.647   3.901   6.145
 4764SOL    HW115191   4.690   3.881   6.056
 4764SOL    HW215192   4.555   3.861   6.147
 4765SOL     OW15193   3.968   1.541   5.267
 4765SOL    HW115194   3.914   1.606   5.214
 4765SOL    HW215195   3.993   1.582   5.355
 4766SOL     OW15196   6.615   0.010   4.168
 4766SOL    HW115197   6.525   6.997   4.196
 4766SOL    HW215198   6.687   6.982   4.217
 4767SOL     OW15199   2.431   5.273   4.487
 4767SOL    HW115200   2.473   5.256   4.577
 4767SOL    HW215201   2.418   5.371   4.474
 4768SOL     OW15202   4.511   2.416   6.822
 4768SOL    HW115203   4.573   2.492   6.803
 4768SOL    HW215204   4.467   2.386   6.738
 4769SOL     OW15205   3.483   5.844   1.274
 4769SOL    HW115206   3.438   5.928   1.244
 4769SOL    HW215207   3.416   5.769   1.276
 4770SOL     OW15208   0.259   1.430   5.498
 4770SOL    HW115209   0.253   1.463   5.592
 4770SOL    HW215210   0.326   1.485   5.448
 4771SOL     OW15211   2.250   6.990   5.041
 4771SOL    HW115212   2.253   6.930   5.121
 4771SOL    HW215213   2.343   7.014   5.014
 4772SOL     OW15214   2.424   5.836   0.900
 4772SOL    HW115215   2.373   5.917   0.926
 4772SOL    HW215216   2.491   5.859   0.830
 4773SOL     OW15217   2.084   5.414   5.087
 4773SOL    HW115218   1.992   5.450   5.075
 4773SOL    HW215219   2.139   5.481   5.139
 4774SOL     OW15220   1.261   3.930   6.923
 4774SOL    HW115221   1.213   3.846   6.898
 4774SOL    HW215222   1.205   4.009   6.898
 4775SOL     OW15223   5.786   6.725   5.280
 4775SOL    HW115224   5.845   6.657   5.324
 4775SOL    HW215225   5.700   6.682   5.252
 4776SOL     OW15226   1.167   0.557   6.258
 4776SOL    HW115227   1.079   0.518   6.233
 4776SOL    HW215228   1.210   0.500   6.329
 4777SOL     OW15229   0.493   6.288   1.207
 4777SOL    HW115230   0.465   6.221   1.138
 4777SOL    HW215231   0.587   6.317   1.189
 4778SOL     OW15232   1.098   2.609   5.237
 4778SOL    HW115233   1.166   2.617   5.309
 4778SOL    HW215234   1.126   2.539   5.171
 4779SOL     OW15235   5.234   1.273   3.734
 4779SOL    HW115236   5.155   1.284   3.795
 4779SOL    HW215237   5.314   1.248   3.788
 4780SOL     OW15238   6.280   2.384   4.997
 4780SOL    HW115239   6.258   2.358   4.904
 4780SOL    HW215240   6.251   2.478   5.013
 4781SOL     OW15241   2.090   5.732   2.480
 4781SOL    HW115242   2.186   5.736   2.509
 4781SOL    HW215243   2.039   5.672   2.542
 4782SOL     OW15244   5.761   4.949   4.813
 4782SOL    HW115245   5.714   4.863   4.798
 4782SOL    HW215246   5.789   4.955   4.909
 4783SOL     OW15247   6.389   3.011   1.085
 4783SOL    HW115248   6.420   2.924   1.121
 4783SOL    HW215249   6.364   3.071   1.160
 4784SOL     OW15250   5.555   2.126   6.503
 4784SOL    HW115251   5.563   2.113   6.602
 4784SOL    HW215252   5.476   2.185   6.483
 4785SOL     OW15253   0.986   6.185   3.457
 4785SOL    HW115254   0.918   6.244   3.503
 4785SOL    HW215255   0.944   6.097   3.435
 4786SOL     OW15256   2.876   6.732   0.600
 4786SOL    HW115257   2.944   6.765   0.665
 4786SOL    HW215258   2.797   6.793   0.599
 4787SOL     OW15259   3.615   1.351   4.536
 4787SOL    HW115260   3.615   1.409   4.618
 4787SOL    HW215261   3.668   1.268   4.554
 4788SOL     OW15262   6.188   6.309   6.697
 4788SOL    HW115263   6.114   6.375   6.681
 4788SOL    HW215264   6.154   6.216   6.678
 4789SOL     OW15265   4.994   0.389   2.353
 4789SOL    HW115266   4.919   0.323   2.357
 4789SOL    HW215267   4.985   0.453   2.430
 4790SOL     OW15268   5.687   2.094   5.039
 4790SOL    HW115269   5.670   2.001   5.007
 4790SOL    HW215270   5.779   2.122   5.012
 4791SOL     OW15271   6.592   2.820   0.547
 4791SOL    HW115272   6.603   2.747   0.480
 4791SOL    HW215273   6.527   2.887   0.512
 4792SOL     OW15274   2.049   3.372   4.006
 4792SOL    HW115275   1.993   3.309   3.951
 4792SOL    HW215276   2.065   3.333   4.096
 4793SOL     OW15277   0.865   3.484   6.230
 4793SOL    HW115278   0.791   3.501   6.166
 4793SOL    HW215279   0.839   3.411   6.293
 4794SOL     OW15280   4.440   0.892   4.039
 4794SOL    HW115281   4.416   0.983   4.004
 4794SOL    HW215282   4.361   0.831   4.029
 4795SOL     OW15283   0.389   0.771   5.534
 4795SOL    HW115284   0.357   0.820   5.615
 4795SOL    HW215285   0.330   0.691   5.519
 4796SOL     OW15286   3.574   1.605   5.591
 4796SOL    HW115287   3.554   1.525   5.535
 4796SOL    HW215288   3.493   1.629   5.644
 4797SOL     OW15289   0.902   5.272   4.690
 4797SOL    HW115290   0.920   5.180   4.657
 4797SOL    HW215291   0.984   5.329   4.679
 4798SOL     OW15292   5.196   4.774   6.448
 4798SOL    HW115293   5.109   4.760   6.400
 4798SOL    HW215294   5.258   4.827   6.390
 4799SOL     OW15295   3.538   3.145   6.923
 4799SOL    HW115296   3.450   3.188   6.947
 4799SOL    HW215297   3.587   3.122   7.007
 4800SOL     OW15298   1.632   4.803   0.202
 4800SOL    HW115299   1.630   4.899   0.229
 4800SOL    HW215300   1.662   4.747   0.280
 4801SOL     OW15301   4.817   2.563   1.886
 4801SOL    HW115302   4.794   2.620   1.965
 4801SOL    HW215303   4.829   2.620   1.805
 4802SOL     OW15304   6.919   6.680   2.136
 4802SOL    HW115305   6.963   6.748   2.195
 4802SOL    HW215306   6.837   6.645   2.181
 4803SOL     OW15307   5.627   4.163   6.209
 4803SOL    HW115308   5.607   4.088   6.146
 4803SOL    HW215309   5.692   4.132   6.278
 4804SOL     OW15310   5.492   1.572   0.686
 4804SOL    HW115311   5.445   1.649   0.729
 4804SOL    HW215312   5.529   1.511   0.756
 4805SOL     OW15313   6.236   2.356   1.446
 4805SOL    HW115314   6.140   2.335   1.464
 4805SOL    HW215315   6.267   2.307   1.365
 4806SOL     OW15316   1.034   2.648   3.216
 4806SOL    HW115317   0.941   2.655   3.180
 4806SOL    HW215318   1.098   2.638   3.139
 4807SOL     OW15319   1.640   2.895   6.600
 4807SOL    HW115320   1.580   2.833   6.550
 4807SOL    HW215321   1.655   2.860   6.692
 4808SOL     OW15322   3.834   6.074   0.887
 4808SOL    HW115323   3.911   6.033   0.838
 4808SOL    HW215324   3.787   6.003   0.939
 4809SOL     OW15325   3.526   5.030   1.730
 4809SOL    HW115326   3.489   5.101   1.671
 4809SOL    HW215327   3.488   5.040   1.822
 4810SOL     OW15328   1.419   4.066   3.897
 4810SOL    HW115329   1.367   4.127   3.836
 4810SOL    HW215330   1.496   4.028   3.847
 4811SOL     OW15331   3.027   3.935   4.670
 4811SOL    HW115332   2.977   3.904   4.751
 4811SOL    HW215333   2.996   3.882   4.590
 4812SOL     OW15334   0.287   6.845   2.177
 4812SOL    HW115335   0.332   6.877   2.094
 4812SOL    HW215336   0.340   6.873   2.257
 4813SOL     OW15337   6.193   1.719   0.200
 4813SOL    HW115338   6.193   1.625   0.167
 4813SOL    HW215339   6.198   1.783   0.123
 4814SOL     OW15340   6.991   3.505   1.387
 4814SOL    HW115341   6.983   3.604   1.375
 4814SOL    HW215342   6.915   3.459   1.342
 4815SOL     OW15343   6.033   5.025   2.754
 4815SOL    HW115344   5.960   5.001   2.818
 4815SOL    HW215345   6.095   4.948   2.743
 4816SOL     OW15346   1.292   0.054   2.033
 4816SOL    HW115347   1.357   0.045   1.957
 4816SOL    HW215348   1.334   0.021   2.117
 4817SOL     OW15349   4.133   1.171   1.459
 4817SOL    HW115350   4.138   1.206   1.365
 4817SOL    HW215351   4.037   1.156   1.483
 4818SOL     OW15352   2.990   0.456   4.805
 4818SOL    HW115353   3.064   0.487   4.863
 4818SOL    HW215354   2.902   0.481   4.845
 4819SOL     OW15355   3.697   1.007   1.271
 4819SOL    HW115356   3.718   0.912   1.250
 4819SOL    HW215357   3.634   1.011   1.349
 4820SOL     OW15358   6.641   4.211   2.046
 4820SOL    HW115359   6.552   4.167   2.060
 4820SOL    HW215360   6.707   4.142   2.015
 4821SOL     OW15361   6.118   5.380   1.489
 4821SOL    HW115362   6.065   5.377   1.573
 4821SOL    HW215363   6.185   5.305   1.489
 4822SOL     OW15364   1.806   4.085   3.594
 4822SOL    HW115365   1.801   4.176   3.635
 4822SOL    HW215366   1.807   4.094   3.494
 4823SOL     OW15367   0.969   0.126   4.427
 4823SOL    HW115368   1.049   0.091   4.476
 4823SOL    HW215369   0.929   0.201   4.480
 4824SOL     OW15370   5.073   2.277   2.587
 4824SOL    HW115371   5.085   2.364   2.539
 4824SOL    HW215372   5.138   2.210   2.552
 4825SOL     OW15373   1.853   3.522   3.373
 4825SOL    HW115374   1.850   3.619   3.347
 4825SOL    HW215375   1.897   3.513   3.462
 4826SOL     OW15376   0.169   6.361   0.599
 4826SOL    HW115377   0.161   6.278   0.653
 4826SOL    HW215378   0.264   6.392   0.599
 4827SOL     OW15379   4.676   1.057   0.928
 4827SOL    HW115380   4.688   0.982   0.992
 4827SOL    HW215381   4.643   1.021   0.841
 4828SOL     OW15382   4.898   3.327   1.750
 4828SOL    HW115383   4.946   3.414   1.750
 4828SOL    HW215384   4.907   3.283   1.839
 4829SOL     OW15385   3.127   0.655   6.088
 4829SOL    HW115386   3.154   0.684   5.996
 4829SOL    HW215387   3.078   0.729   6.133
 4830SOL     OW15388   5.040   6.353   3.648
 4830SOL    HW115389   5.123   6.316   3.689
 4830SOL    HW215390   4.960   6.309   3.689
 4831SOL     OW15391   6.584   4.277   5.236
 4831SOL    HW115392   6.655   4.281   5.306
 4831SOL    HW215393   6.522   4.201   5.256
 4832SOL     OW15394   3.101   3.027   5.863
 4832SOL    HW115395   3.173   2.957   5.863
 4832SOL    HW215396   3.013   2.985   5.847
 4833SOL     OW15397   4.216   1.312   3.636
 4833SOL    HW115398   4.126   1.287   3.673
 4833SOL    HW215399   4.221   1.411   3.626
 4834SOL     OW15400   4.641   1.392   1.668
 4834SOL    HW115401   4.584   1.428   1.742
 4834SOL    HW215402   4.737   1.408   1.689
 4835SOL     OW15403   2.225   6.929   6.501
 4835SOL    HW115404   2.129   6.909   6.483
 4835SOL    HW215405   2.271   6.955   6.416
 4836SOL     OW15406   5.099   1.917   3.934
 4836SOL    HW115407   5.025   1.938   3.999
 4836SOL    HW215408   5.130   1.823   3.949
 4837SOL     OW15409   2.555   2.342   1.087
 4837SOL    HW115410   2.625   2.402   1.126
 4837SOL    HW215411   2.549   2.258   1.141
 4838SOL     OW15412   3.805   4.858   2.131
 4838SOL    HW115413   3.755   4.944   2.128
 4838SOL    HW215414   3.768   4.795   2.062
 4839SOL     OW15415   0.199   5.641   5.742
 4839SOL    HW115416   0.191   5.549   5.780
 4839SOL    HW215417   0.209   5.636   5.643
 4840SOL     OW15418   6.145   6.424   0.066
 4840SOL    HW115419   6.121   6.461   0.156
 4840SOL    HW215420   6.137   6.496   7.018
 4841SOL     OW15421   3.325   5.734   2.039
 4841SOL    HW115422   3.346   5.780   1.952
 4841SOL    HW215423   3.394   5.664   2.057
 4842SOL     OW15424   4.178   5.985   1.728
 4842SOL    HW115425   4.142   5.953   1.641
 4842SOL    HW215426   4.151   5.922   1.801
 4843SOL     OW15427   6.897   4.164   0.224
 4843SOL    HW115428   6.876   4.123   0.135
 4843SOL    HW215429   6.955   4.245   0.210
 4844SOL     OW15430   6.680   2.823   6.521
 4844SOL    HW115431   6.704   2.728   6.506
 4844SOL    HW215432   6.586   2.839   6.491
 4845SOL     OW15433   6.387   5.779   3.720
 4845SOL    HW115434   6.482   5.808   3.730
 4845SOL    HW215435   6.376   5.726   3.636
 4846SOL     OW15436   1.506   3.002   1.053
 4846SOL    HW115437   1.446   2.960   1.120
 4846SOL    HW215438   1.530   2.935   0.983
 4847SOL     OW15439   3.493   1.935   5.284
 4847SOL    HW115440   3.450   1.844   5.284
 4847SOL    HW215441   3.430   2.001   5.244
 4848SOL     OW15442   1.840   1.428   3.364
 4848SOL    HW115443   1.893   1.380   3.293
 4848SOL    HW215444   1.876   1.404   3.454
 4849SOL     OW15445   1.415   0.187   0.265
 4849SOL    HW115446   1.408   0.211   0.168
 4849SOL    HW215447   1.324   0.186   0.306
 4850SOL     OW15448   4.315   0.495   1.627
 4850SOL    HW115449   4.315   0.593   1.609
 4850SOL    HW215450   4.405   0.458   1.608
 4851SOL     OW15451   4.056   6.019   5.618
 4851SOL    HW115452   4.036   5.923   5.637
 4851SOL    HW215453   4.146   6.043   5.655
 4852SOL     OW15454   1.824   0.853   0.065
 4852SOL    HW115455   1.808   0.910   7.005
 4852SOL    HW215456   1.743   0.798   0.083
 4853SOL     OW15457   3.571   1.395   2.914
 4853SOL    HW115458   3.500   1.329   2.891
 4853SOL    HW215459   3.533   1.467   2.972
 4854SOL     OW15460   4.680   5.688   2.316
 4854SOL    HW115461   4.659   5.663   2.410
 4854SOL    HW215462   4.596   5.715   2.269
 4855SOL     OW15463   5.966   1.624   2.146
 4855SOL    HW115464   6.056   1.584   2.163
 4855SOL    HW215465   5.972   1.687   2.068
 4856SOL     OW15466   2.833   4.884   3.760
 4856SOL    HW115467   2.761   4.816   3.747
 4856SOL    HW215468   2.902   4.873   3.689
 4857SOL     OW15469   0.970   1.976   6.019
 4857SOL    HW115470   1.060   1.995   5.979
 4857SOL    HW215471   0.933   1.893   5.977
 4858SOL     OW15472   1.964   2.298   4.635
 4858SOL    HW115473   2.041   2.238   4.614
 4858SOL    HW215474   1.881   2.264   4.591
 4859SOL     OW15475   1.727   5.766   4.759
 4859SOL    HW115476   1.826   5.753   4.758
 4859SOL    HW215477   1.692   5.747   4.851
 4860SOL     OW15478   4.818   5.483   1.345
 4860SOL    HW115479   4.866   5.526   1.422
 4860SOL    HW215480   4.719   5.491   1.359
 4861SOL     OW15481   5.056   4.728   6.699
 4861SOL    HW115482   5.109   4.741   6.615
 4861SOL    HW215483   5.107   4.668   6.761
 4862SOL     OW15484   1.233   5.144   3.029
 4862SOL    HW115485   1.143   5.105   3.004
 4862SOL    HW215486   1.237   5.156   3.128
 4863SOL     OW15487   5.731   4.189   0.213
 4863SOL    HW115488   5.700   4.136   0.292
 4863SOL    HW215489   5.651   4.223   0.163
 4864SOL     OW15490   2.628   1.252   3.516
 4864SOL    HW115491   2.697   1.304   3.565
 4864SOL    HW215492   2.672   1.183   3.458
 4865SOL     OW15493   2.540   5.776   4.807
 4865SOL    HW115494   2.509   5.700   4.863
 4865SOL    HW215495   2.464   5.810   4.751
 4866SOL     OW15496   0.131   3.738   1.239
 4866SOL    HW115497   0.036   3.768   1.250
 4866SOL    HW215498   0.179   3.750   1.326
 4867SOL     OW15499   4.687   5.687   2.638
 4867SOL    HW115500   4.590   5.705   2.654
 4867SOL    HW215501   4.731   5.770   2.603
 4868SOL     OW15502   6.181   4.218   1.564
 4868SOL    HW115503   6.279   4.230   1.549
 4868SOL    HW215504   6.133   4.302   1.539
 4869SOL     OW15505   1.325   1.684   6.901
 4869SOL    HW115506   1.421   1.709   6.906
 4869SOL    HW215507   1.306   1.609   6.964
 4870SOL     OW15508   0.629   6.297   2.071
 4870SOL    HW115509   0.607   6.270   2.165
 4870SOL    HW215510   0.714   6.254   2.043
 4871SOL     OW15511   1.623   0.893   4.300
 4871SOL    HW115512   1.584   0.962   4.360
 4871SOL    HW215513   1.606   0.919   4.205
 4872SOL     OW15514   6.899   6.501   3.159
 4872SOL    HW115515   6.934   6.512   3.066
 4872SOL    HW215516   6.872   6.590   3.195
 4873SOL     OW15517   6.776   5.752   4.579
 4873SOL    HW115518   6.704   5.811   4.616
 4873SOL    HW215519   6.750   5.656   4.589
 4874SOL     OW15520   4.768   2.299   3.366
 4874SOL    HW115521   4.825   2.292   3.448
 4874SOL    HW215522   4.685   2.246   3.379
 4875SOL     OW15523   5.141   6.949   6.771
 4875SOL    HW115524   5.208   6.875   6.764
 4875SOL    HW215525   5.113   6.978   6.680
 4876SOL     OW15526   1.465   1.634   3.136
 4876SOL    HW115527   1.508   1.673   3.055
 4876SOL    HW215528   1.426   1.707   3.192
 4877SOL     OW15529   0.407   2.030   5.044
 4877SOL    HW115530   0.351   1.979   4.979
 4877SOL    HW215531   0.366   2.024   5.135
 4878SOL     OW15532   6.884   1.973   1.767
 4878SOL    HW115533   6.907   2.062   1.806
 4878SOL    HW215534   6.790   1.949   1.792
 4879SOL     OW15535   4.599   1.548   2.495
 4879SOL    HW115536   4.631   1.543   2.400
 4879SOL    HW215537   4.499   1.547   2.496
 4880SOL     OW15538   6.387   3.122   6.659
 4880SOL    HW115539   6.298   3.092   6.626
 4880SOL    HW215540   6.417   3.202   6.607
 4881SOL     OW15541   1.751   2.635   1.548
 4881SOL    HW115542   1.682   2.634   1.475
 4881SOL    HW215543   1.751   2.547   1.595
 4882SOL     OW15544   4.064   1.968   5.070
 4882SOL    HW115545   4.072   1.889   5.010
 4882SOL    HW215546   4.021   1.941   5.156
 4883SOL     OW15547   5.306   3.858   1.611
 4883SOL    HW115548   5.274   3.855   1.516
 4883SOL    HW215549   5.303   3.952   1.644
 4884SOL     OW15550   1.600   5.800   0.784
 4884SOL    HW115551   1.606   5.786   0.685
 4884SOL    HW215552   1.510   5.837   0.808
 4885SOL     OW15553   2.328   4.933   2.050
 4885SOL    HW115554   2.399   4.994   2.087
 4885SOL    HW215555   2.369   4.844   2.028
 4886SOL     OW15556   3.516   0.522   2.279
 4886SOL    HW115557   3.521   0.488   2.372
 4886SOL    HW215558   3.434   0.485   2.235
 4887SOL     OW15559   1.357   6.835   1.647
 4887SOL    HW115560   1.258   6.842   1.635
 4887SOL    HW215561   1.377   6.772   1.722
 4888SOL     OW15562   2.917   6.504   2.692
 4888SOL    HW115563   2.856   6.441   2.740
 4888SOL    HW215564   2.948   6.575   2.756
 4889SOL     OW15565   6.855   1.649   4.475
 4889SOL    HW115566   6.851   1.744   4.504
 4889SOL    HW215567   6.941   1.608   4.504
 4890SOL     OW15568   1.108   0.898   5.633
 4890SOL    HW115569   1.040   0.971   5.627
 4890SOL    HW215570   1.097   0.836   5.555
 4891SOL     OW15571   2.430   4.935   6.210
 4891SOL    HW115572   2.395   4.932   6.303
 4891SOL    HW215573   2.392   5.015   6.162
 4892SOL     OW15574   5.815   6.782   2.546
 4892SOL    HW115575   5.909   6.775   2.579
 4892SOL    HW215576   5.757   6.822   2.617
 4893SOL     OW15577   0.328   3.094   2.021
 4893SOL    HW115578   0.263   3.157   1.979
 4893SOL    HW215579   0.414   3.143   2.038
 4894SOL     OW15580   3.537   0.210   1.864
 4894SOL    HW115581   3.497   0.295   1.897
 4894SOL    HW215582   3.609   0.179   1.927
 4895SOL     OW15583   0.111   4.917   3.267
 4895SOL    HW115584   0.175   4.981   3.225
 4895SOL    HW215585   0.102   4.836   3.209
 4896SOL     OW15586   2.050   5.445   3.660
 4896SOL    HW115587   2.038   5.450   3.561
 4896SOL    HW215588   2.113   5.370   3.682
 4897SOL     OW15589   1.823   5.727   5.409
 4897SOL    HW115590   1.887   5.777   5.467
 4897SOL    HW215591   1.831   5.629   5.427
 4898SOL     OW15592   4.207   0.995   4.827
 4898SOL    HW115593   4.260   1.003   4.743
 4898SOL    HW215594   4.150   0.913   4.824
 4899SOL     OW15595   6.211   5.170   1.914
 4899SOL    HW115596   6.233   5.105   1.842
 4899SOL    HW215597   6.112   5.175   1.925
 4900SOL     OW15598   4.271   6.152   5.715
 4900SOL    HW115599   4.314   6.240   5.695
 4900SOL    HW215600   4.335   6.095   5.767
 4901SOL     OW15601   0.980   2.458   5.599
 4901SOL    HW115602   1.014   2.370   5.567
 4901SOL    HW215603   1.010   2.473   5.694
 4902SOL     OW15604   1.997   0.623   6.419
 4902SOL    HW115605   2.056   0.645   6.497
 4902SOL    HW215606   1.907   0.666   6.432
 4903SOL     OW15607   4.587   5.525   1.011
 4903SOL    HW115608   4.663   5.588   0.993
 4903SOL    HW215609   4.515   5.573   1.060
 4904SOL     OW15610   2.170   0.521   6.237
 4904SOL    HW115611   2.117   0.547   6.318
 4904SOL    HW215612   2.113   0.463   6.177
 4905SOL     OW15613   3.091   0.006   2.764
 4905SOL    HW115614   3.134   7.007   2.676
 4905SOL    HW215615   3.070   0.103   2.770
 4906SOL     OW15616   4.839   3.434   5.401
 4906SOL    HW115617   4.768   3.379   5.446
 4906SOL    HW215618   4.796   3.506   5.347
 4907SOL     OW15619   4.744   1.237   0.428
 4907SOL    HW115620   4.833   1.200   0.457
 4907SOL    HW215621   4.752   1.336   0.414
 4908SOL     OW15622   4.688   0.525   7.005
 4908SOL    HW115623   4.701   0.459   6.931
 4908SOL    HW215624   4.738   0.495   0.065
 4909SOL     OW15625   6.363   3.967   3.466
 4909SOL    HW115626   6.378   4.007   3.376
 4909SOL    HW215627   6.272   3.925   3.469
 4910SOL     OW15628   5.522   0.752   4.865
 4910SOL    HW115629   5.513   0.839   4.817
 4910SOL    HW215630   5.510   0.677   4.801
 4911SOL     OW15631   1.668   2.279   2.767
 4911SOL    HW115632   1.689   2.278   2.669
 4911SOL    HW215633   1.603   2.352   2.786
 4912SOL     OW15634   5.406   2.019   5.607
 4912SOL    HW115635   5.371   1.926   5.622
 4912SOL    HW215636   5.498   2.015   5.569
 4913SOL     OW15637   5.462   2.693   5.376
 4913SOL    HW115638   5.462   2.793   5.378
 4913SOL    HW215639   5.482   2.658   5.467
 4914SOL     OW15640   4.600   0.448   4.724
 4914SOL    HW115641   4.583   0.356   4.758
 4914SOL    HW215642   4.562   0.457   4.632
 4915SOL     OW15643   2.908   6.092   5.340
 4915SOL    HW115644   2.871   6.036   5.265
 4915SOL    HW215645   2.834   6.142   5.384
 4916SOL     OW15646   6.289   0.636   4.290
 4916SOL    HW115647   6.333   0.625   4.379
 4916SOL    HW215648   6.189   0.640   4.302
 4917SOL     OW15649   3.493   6.043   0.966
 4917SOL    HW115650   3.406   6.002   0.939
 4917SOL    HW215651   3.534   6.089   0.888
 4918SOL     OW15652   6.275   5.327   2.149
 4918SOL    HW115653   6.364   5.367   2.170
 4918SOL    HW215654   6.277   5.291   2.056
 4919SOL     OW15655   4.090   3.142   2.278
 4919SOL    HW115656   4.166   3.087   2.242
 4919SOL    HW215657   4.040   3.090   2.347
 4920SOL     OW15658   5.910   0.362   5.529
 4920SOL    HW115659   5.824   0.315   5.546
 4920SOL    HW215660   5.893   0.460   5.522
 4921SOL     OW15661   0.773   6.342   1.026
 4921SOL    HW115662   0.871   6.325   1.038
 4921SOL    HW215663   0.759   6.421   0.966
 4922SOL     OW15664   3.057   2.014   5.028
 4922SOL    HW115665   3.116   2.093   5.016
 4922SOL    HW215666   2.968   2.031   4.985
 4923SOL     OW15667   2.984   2.227   3.089
 4923SOL    HW115668   3.026   2.205   3.177
 4923SOL    HW215669   3.048   2.205   3.016
 4924SOL     OW15670   2.414   1.431   5.721
 4924SOL    HW115671   2.512   1.433   5.740
 4924SOL    HW215672   2.363   1.451   5.804
 4925SOL     OW15673   4.167   6.578   3.392
 4925SOL    HW115674   4.250   6.627   3.417
 4925SOL    HW215675   4.089   6.641   3.394
 4926SOL     OW15676   5.835   1.538   1.599
 4926SOL    HW115677   5.771   1.469   1.565
 4926SOL    HW215678   5.927   1.499   1.604
 4927SOL     OW15679   3.016   2.243   6.373
 4927SOL    HW115680   3.042   2.283   6.285
 4927SOL    HW215681   2.923   2.272   6.396
 4928SOL     OW15682   1.337   1.512   1.146
 4928SOL    HW115683   1.291   1.553   1.225
 4928SOL    HW215684   1.427   1.554   1.134
 4929SOL     OW15685   0.297   0.391   3.757
 4929SOL    HW115686   0.229   0.399   3.830
 4929SOL    HW215687   0.389   0.391   3.796
 4930SOL     OW15688   5.888   0.222   2.098
 4930SOL    HW115689   5.800   0.176   2.083
 4930SOL    HW215690   5.880   0.318   2.071
 4931SOL     OW15691   6.355   6.727   1.541
 4931SOL    HW115692   6.263   6.748   1.509
 4931SOL    HW215693   6.356   6.637   1.584
 4932SOL     OW15694   3.541   4.127   3.140
 4932SOL    HW115695   3.448   4.097   3.119
 4932SOL    HW215696   3.538   4.221   3.175
 4933SOL     OW15697   2.445   6.270   4.405
 4933SOL    HW115698   2.476   6.365   4.412
 4933SOL    HW215699   2.348   6.269   4.378
 4934SOL     OW15700   3.220   6.010   2.776
 4934SOL    HW115701   3.205   6.088   2.715
 4934SOL    HW215702   3.318   5.995   2.789
 4935SOL     OW15703   1.399   2.001   6.686
 4935SOL    HW115704   1.374   2.007   6.783
 4935SOL    HW215705   1.443   1.912   6.668
 4936SOL     OW15706   2.373   4.431   1.115
 4936SOL    HW115707   2.357   4.434   1.016
 4936SOL    HW215708   2.404   4.339   1.142
 4937SOL     OW15709   5.098   3.163   4.953
 4937SOL    HW115710   5.170   3.104   4.916
 4937SOL    HW215711   5.047   3.114   5.023
 4938SOL     OW15712   3.626   5.608   5.610
 4938SOL    HW115713   3.624   5.668   5.530
 4938SOL    HW215714   3.671   5.522   5.587
 4939SOL     OW15715   4.793   3.301   5.708
 4939SOL    HW115716   4.807   3.276   5.804
 4939SOL    HW215717   4.759   3.221   5.658
 4940SOL     OW15718   2.004   6.798   5.194
 4940SOL    HW115719   2.102   6.786   5.185
 4940SOL    HW215720   1.959   6.775   5.108
 4941SOL     OW15721   4.466   1.224   6.786
 4941SOL    HW115722   4.543   1.166   6.760
 4941SOL    HW215723   4.467   1.237   6.886
 4942SOL     OW15724   4.990   3.864   5.446
 4942SOL    HW115725   4.985   3.796   5.374
 4942SOL    HW215726   5.082   3.904   5.449
 4943SOL     OW15727   4.063   2.409   0.621
 4943SOL    HW115728   4.147   2.437   0.575
 4943SOL    HW215729   4.084   2.345   0.695
 4944SOL     OW15730   2.367   4.340   3.205
 4944SOL    HW115731   2.368   4.246   3.171
 4944SOL    HW215732   2.288   4.389   3.166
 4945SOL     OW15733   0.485   6.743   4.045
 4945SOL    HW115734   0.529   6.734   3.956
 4945SOL    HW215735   0.435   6.830   4.049
 4946SOL     OW15736   1.658   3.181   2.149
 4946SOL    HW115737   1.674   3.280   2.143
 4946SOL    HW215738   1.573   3.164   2.199
 4947SOL     OW15739   0.781   6.839   0.510
 4947SOL    HW115740   0.692   6.829   0.554
 4947SOL    HW215741   0.775   6.909   0.438
 4948SOL     OW15742   2.518   1.295   2.561
 4948SOL    HW115743   2.514   1.386   2.602
 4948SOL    HW215744   2.426   1.267   2.532
 4949SOL     OW15745   5.413   0.164   5.125
 4949SOL    HW115746   5.472   0.241   5.147
 4949SOL    HW215747   5.327   0.171   5.174
 4950SOL     OW15748   2.753   5.948   5.164
 4950SOL    HW115749   2.794   5.920   5.077
 4950SOL    HW215750   2.696   5.874   5.200
 4951SOL     OW15751   4.298   1.597   4.512
 4951SOL    HW115752   4.211   1.576   4.557
 4951SOL    HW215753   4.281   1.654   4.432
 4952SOL     OW15754   0.091   0.105   5.514
 4952SOL    HW115755   0.006   0.135   5.471
 4952SOL    HW215756   0.162   0.094   5.444
 4953SOL     OW15757   2.023   5.664   1.398
 4953SOL    HW115758   2.040   5.759   1.423
 4953SOL    HW215759   1.930   5.639   1.423
 4954SOL     OW15760   5.441   5.077   0.218
 4954SOL    HW115761   5.452   4.999   0.280
 4954SOL    HW215762   5.531   5.113   0.193
 4955SOL     OW15763   1.771   6.698   1.113
 4955SOL    HW115764   1.818   6.669   1.196
 4955SOL    HW215765   1.674   6.713   1.133
 4956SOL     OW15766   4.248   6.923   5.194
 4956SOL    HW115767   4.216   7.010   5.157
 4956SOL    HW215768   4.313   6.881   5.130
 4957SOL     OW15769   0.771   1.151   4.256
 4957SOL    HW115770   0.824   1.110   4.330
 4957SOL    HW215771   0.825   1.152   4.172
 4958SOL     OW15772   0.501   6.537   6.404
 4958SOL    HW115773   0.428   6.529   6.336
 4958SOL    HW215774   0.466   6.583   6.486
 4959SOL     OW15775   0.816   0.973   0.709
 4959SOL    HW115776   0.770   1.001   0.624
 4959SOL    HW215777   0.905   1.017   0.715
 4960SOL     OW15778   4.004   6.091   4.276
 4960SOL    HW115779   3.917   6.050   4.301
 4960SOL    HW215780   4.051   6.033   4.210
 4961SOL     OW15781   5.004   7.011   5.013
 4961SOL    HW115782   4.930   6.999   4.947
 4961SOL    HW215783   5.078   6.949   4.992
 4962SOL     OW15784   5.655   2.379   1.758
 4962SOL    HW115785   5.714   2.299   1.773
 4962SOL    HW215786   5.567   2.365   1.804
 4963SOL     OW15787   0.750   5.309   1.399
 4963SOL    HW115788   0.826   5.315   1.335
 4963SOL    HW215789   0.785   5.294   1.491
 4964SOL     OW15790   3.325   6.626   3.230
 4964SOL    HW115791   3.320   6.663   3.323
 4964SOL    HW215792   3.420   6.621   3.201
 4965SOL     OW15793   0.052   0.057   4.490
 4965SOL    HW115794   6.984   0.044   4.535
 4965SOL    HW215795   0.125   0.058   4.559
 4966SOL     OW15796   3.175   5.737   5.195
 4966SOL    HW115797   3.128   5.786   5.268
 4966SOL    HW215798   3.142   5.643   5.191
 4967SOL     OW15799   3.770   2.823   0.000
 4967SOL    HW115800   3.779   2.724   7.012
 4967SOL    HW215801   3.813   2.853   0.085
 4968SOL     OW15802   4.815   2.772   3.804
 4968SOL    HW115803   4.826   2.865   3.768
 4968SOL    HW215804   4.720   2.758   3.832
 4969SOL     OW15805   1.899   1.455   1.385
 4969SOL    HW115806   1.928   1.413   1.299
 4969SOL    HW215807   1.974   1.507   1.424
 4970SOL     OW15808   1.191   1.854   4.927
 4970SOL    HW115809   1.118   1.888   4.867
 4970SOL    HW215810   1.228   1.769   4.889
 4971SOL     OW15811   6.178   6.356   2.872
 4971SOL    HW115812   6.238   6.335   2.949
 4971SOL    HW215813   6.126   6.275   2.846
 4972SOL     OW15814   1.684   3.730   0.622
 4972SOL    HW115815   1.761   3.713   0.683
 4972SOL    HW215816   1.679   3.658   0.553
 4973SOL     OW15817   6.162   5.918   2.352
 4973SOL    HW115818   6.143   6.009   2.316
 4973SOL    HW215819   6.105   5.851   2.304
 4974SOL     OW15820   5.376   5.917   2.810
 4974SOL    HW115821   5.426   5.950   2.890
 4974SOL    HW215822   5.280   5.902   2.834
 4975SOL     OW15823   6.200   6.506   0.544
 4975SOL    HW115824   6.138   6.460   0.608
 4975SOL    HW215825   6.282   6.536   0.592
 4976SOL     OW15826   3.157   0.843   4.990
 4976SOL    HW115827   3.232   0.909   5.000
 4976SOL    HW215828   3.070   0.890   4.997
 4977SOL     OW15829   4.001   3.804   0.415
 4977SOL    HW115830   4.086   3.781   0.368
 4977SOL    HW215831   3.947   3.865   0.357
 4978SOL     OW15832   5.965   3.510   5.687
 4978SOL    HW115833   5.887   3.573   5.684
 4978SOL    HW215834   5.953   3.445   5.762
 4979SOL     OW15835   0.574   0.833   5.922
 4979SOL    HW115836   0.537   0.757   5.869
 4979SOL    HW215837   0.612   0.902   5.861
 4980SOL     OW15838   3.875   5.269   2.505
 4980SOL    HW115839   3.964   5.304   2.478
 4980SOL    HW215840   3.822   5.248   2.423
 4981SOL     OW15841   4.522   0.078   5.290
 4981SOL    HW115842   4.512   0.068   5.191
 4981SOL    HW215843   4.437   0.115   5.329
 4982SOL     OW15844   2.147   2.154   6.995
 4982SOL    HW115845   2.096   2.153   6.909
 4982SOL    HW215846   2.187   2.063   7.011
 4983SOL     OW15847   5.283   2.471   3.877
 4983SOL    HW115848   5.352   2.530   3.835
 4983SOL    HW215849   5.320   2.428   3.959
 4984SOL     OW15850   5.060   4.027   4.276
 4984SOL    HW115851   5.105   3.974   4.204
 4984SOL    HW215852   4.962   4.007   4.277
 4985SOL     OW15853   5.227   5.151   2.783
 4985SOL    HW115854   5.222   5.055   2.810
 4985SOL    HW215855   5.152   5.171   2.720
 4986SOL     OW15856   5.634   4.659   3.404
 4986SOL    HW115857   5.673   4.706   3.325
 4986SOL    HW215858   5.675   4.696   3.488
 4987SOL     OW15859   0.137   3.292   1.105
 4987SOL    HW115860   0.173   3.235   1.032
 4987SOL    HW215861   0.067   3.242   1.155
 4988SOL     OW15862   0.449   1.193   4.523
 4988SOL    HW115863   0.535   1.198   4.474
 4988SOL    HW215864   0.467   1.174   4.620
 4989SOL     OW15865   0.222   1.475   0.961
 4989SOL    HW115866   0.295   1.511   0.903
 4989SOL    HW215867   0.152   1.545   0.972
 4990SOL     OW15868   0.610   2.858   5.270
 4990SOL    HW115869   0.599   2.949   5.308
 4990SOL    HW215870   0.702   2.823   5.291
 4991SOL     OW15871   0.365   2.811   4.430
 4991SOL    HW115872   0.269   2.781   4.430
 4991SOL    HW215873   0.387   2.854   4.517
 4992SOL     OW15874   3.401   1.049   5.302
 4992SOL    HW115875   3.460   1.092   5.235
 4992SOL    HW215876   3.305   1.068   5.281
 4993SOL     OW15877   3.004   5.951   4.199
 4993SOL    HW115878   2.922   5.966   4.254
 4993SOL    HW215879   3.022   5.853   4.191
 4994SOL     OW15880   0.612   6.979   2.860
 4994SOL    HW115881   0.637   6.988   2.764
 4994SOL    HW215882   0.683   6.928   2.908
 4995SOL     OW15883   6.820   2.646   6.099
 4995SOL    HW115884   6.847   2.732   6.142
 4995SOL    HW215885   6.729   2.656   6.059
 4996SOL     OW15886   0.579   1.972   2.077
 4996SOL    HW115887   0.486   1.938   2.069
 4996SOL    HW215888   0.591   2.016   2.166
 4997SOL     OW15889   6.675   2.680   2.666
 4997SOL    HW115890   6.619   2.606   2.702
 4997SOL    HW215891   6.757   2.642   2.623
 4998SOL     OW15892   1.174   5.367   4.627
 4998SOL    HW115893   1.272   5.359   4.645
 4998SOL    HW215894   1.159   5.383   4.530
 4999SOL     OW15895   5.686   5.666   0.829
 4999SOL    HW115896   5.677   5.612   0.746
 4999SOL    HW215897   5.769   5.639   0.878
 5000SOL     OW15898   0.919   0.354   4.535
 5000SOL    HW115899   0.840   0.393   4.488
 5000SOL    HW215900   0.952   0.419   4.604
 5001SOL     OW15901   3.092   4.238   5.426
 5001SOL    HW115902   3.059   4.298   5.499
 5001SOL    HW215903   3.168   4.282   5.378
 5002SOL     OW15904   2.350   1.198   2.101
 5002SOL    HW115905   2.259   1.179   2.065
 5002SOL    HW215906   2.344   1.214   2.199
 5003SOL     OW15907   6.557   6.468   2.307
 5003SOL    HW115908   6.585   6.444   2.214
 5003SOL    HW215909   6.608   6.549   2.336
 5004SOL     OW15910   2.230   5.751   6.287
 5004SOL    HW115911   2.189   5.679   6.344
 5004SOL    HW215912   2.252   5.830   6.344
 5005SOL     OW15913   4.465   3.243   0.304
 5005SOL    HW115914   4.482   3.193   0.219
 5005SOL    HW215915   4.391   3.201   0.355
 5006SOL     OW15916   5.692   6.399   5.008
 5006SOL    HW115917   5.606   6.397   4.956
 5006SOL    HW215918   5.675   6.368   5.101
 5007SOL     OW15919   4.340   1.107   5.710
 5007SOL    HW115920   4.326   1.110   5.809
 5007SOL    HW215921   4.432   1.140   5.689
 5008SOL     OW15922   5.542   1.136   3.433
 5008SOL    HW115923   5.549   1.210   3.500
 5008SOL    HW215924   5.574   1.051   3.473
 5009SOL     OW15925   0.846   6.661   2.362
 5009SOL    HW115926   0.862   6.576   2.412
 5009SOL    HW215927   0.853   6.644   2.264
 5010SOL     OW15928   3.977   3.896   3.847
 5010SOL    HW115929   3.963   3.814   3.792
 5010SOL    HW215930   4.071   3.896   3.883
 5011SOL     OW15931   0.940   2.822   2.412
 5011SOL    HW115932   0.925   2.908   2.363
 5011SOL    HW215933   0.869   2.756   2.385
 5012SOL     OW15934   6.792   2.405   5.757
 5012SOL    HW115935   6.867   2.339   5.769
 5012SOL    HW215936   6.717   2.362   5.708
 5013SOL     OW15937   4.290   1.097   5.978
 5013SOL    HW115938   4.304   1.030   6.051
 5013SOL    HW215939   4.340   1.181   5.999
 5014SOL     OW15940   6.021   6.405   0.733
 5014SOL    HW115941   5.964   6.482   0.760
 5014SOL    HW215942   5.965   6.337   0.686
 5015SOL     OW15943   4.317   2.340   3.732
 5015SOL    HW115944   4.387   2.411   3.734
 5015SOL    HW215945   4.349   2.264   3.675
 5016SOL     OW15946   2.205   0.559   2.752
 5016SOL    HW115947   2.280   0.592   2.809
 5016SOL    HW215948   2.230   0.565   2.656
 5017SOL     OW15949   2.603   1.894   0.632
 5017SOL    HW115950   2.573   1.989   0.628
 5017SOL    HW215951   2.529   1.835   0.598
 5018SOL     OW15952   6.493   4.875   3.203
 5018SOL    HW115953   6.483   4.776   3.210
 5018SOL    HW215954   6.590   4.899   3.196
 5019SOL     OW15955   2.096   4.250   0.272
 5019SOL    HW115956   2.173   4.270   0.210
 5019SOL    HW215957   2.057   4.335   0.305
 5020SOL     OW15958   4.385   5.080   6.561
 5020SOL    HW115959   4.381   5.103   6.463
 5020SOL    HW215960   4.445   5.144   6.608
 5021SOL     OW15961   2.022   4.669   5.603
 5021SOL    HW115962   1.961   4.596   5.572
 5021SOL    HW215963   2.015   4.747   5.542
 5022SOL     OW15964   1.844   6.251   0.625
 5022SOL    HW115965   1.828   6.197   0.708
 5022SOL    HW215966   1.761   6.254   0.570
 5023SOL     OW15967   5.933   2.785   0.820
 5023SOL    HW115968   6.027   2.777   0.851
 5023SOL    HW215969   5.883   2.849   0.878
 5024SOL     OW15970   6.196   3.629   3.538
 5024SOL    HW115971   6.151   3.713   3.510
 5024SOL    HW215972   6.196   3.623   3.638
 5025SOL     OW15973   4.855   2.142   3.121
 5025SOL    HW115974   4.949   2.178   3.119
 5025SOL    HW215975   4.806   2.184   3.197
 5026SOL     OW15976   6.653   5.608   4.214
 5026SOL    HW115977   6.572   5.556   4.186
 5026SOL    HW215978   6.718   5.611   4.138
 5027SOL     OW15979   0.769   6.935   3.466
 5027SOL    HW115980   0.690   6.962   3.411
 5027SOL    HW215981   0.759   6.840   3.494
 5028SOL     OW15982   0.393   6.464   2.970
 5028SOL    HW115983   0.325   6.401   2.934
 5028SOL    HW215984   0.483   6.420   2.971
 5029SOL     OW15985   0.288   2.301   1.578
 5029SOL    HW115986   0.316   2.237   1.651
 5029SOL    HW215987   0.357   2.373   1.569
 5030SOL     OW15988   6.819   0.521   6.937
 5030SOL    HW115989   6.909   0.533   6.896
 5030SOL    HW215990   6.767   0.452   6.887
 5031SOL     OW15991   5.724   0.576   4.328
 5031SOL    HW115992   5.643   0.518   4.339
 5031SOL    HW215993   5.733   0.603   4.232
 5032SOL     OW15994   1.781   5.057   0.951
 5032SOL    HW115995   1.770   5.122   1.026
 5032SOL    HW215996   1.864   5.078   0.899
 5033SOL     OW15997   2.333   4.379   5.493
 5033SOL    HW115998   2.377   4.385   5.404
 5033SOL    HW215999   2.364   4.296   5.540
 5034SOL     OW16000   6.591   2.468   2.000
 5034SOL    HW116001   6.670   2.494   2.055
 5034SOL    HW216002   6.512   2.453   2.059
 5035SOL     OW16003   5.107   5.576   0.487
 5035SOL    HW116004   5.096   5.527   0.401
 5035SOL    HW216005   5.106   5.675   0.469
 5036SOL     OW16006   0.933   6.628   1.006
 5036SOL    HW116007   0.981   6.580   1.080
 5036SOL    HW216008   0.881   6.704   1.044
 5037SOL     OW16009   4.194   1.573   3.616
 5037SOL    HW116010   4.134   1.555   3.538
 5037SOL    HW216011   4.157   1.648   3.671
 5038SOL     OW16012   0.733   6.180   5.483
 5038SOL    HW116013   0.720   6.277   5.462
 5038SOL    HW216014   0.688   6.125   5.412
 5039SOL     OW16015   2.418   2.790   5.349
 5039SOL    HW116016   2.380   2.714   5.297
 5039SOL    HW216017   2.442   2.864   5.286
 5040SOL     OW16018   3.071   3.774   5.998
 5040SOL    HW116019   2.987   3.720   6.009
 5040SOL    HW216020   3.049   3.871   6.006
 5041SOL     OW16021   0.969   3.390   1.891
 5041SOL    HW116022   0.984   3.385   1.989
 5041SOL    HW216023   0.925   3.306   1.860
 5042SOL     OW16024   5.835   3.084   6.405
 5042SOL    HW116025   5.749   3.039   6.432
 5042SOL    HW216026   5.866   3.045   6.318
 5043SOL     OW16027   3.817   0.653   3.509
 5043SOL    HW116028   3.865   0.616   3.429
 5043SOL    HW216029   3.735   0.701   3.478
 5044SOL     OW16030   6.123   5.437   3.378
 5044SOL    HW116031   6.150   5.376   3.452
 5044SOL    HW216032   6.039   5.403   3.336
 5045SOL     OW16033   6.262   2.774   6.957
 5045SOL    HW116034   6.345   2.805   7.003
 5045SOL    HW216035   6.260   2.811   6.864
 5046SOL     OW16036   3.372   3.073   5.271
 5046SOL    HW116037   3.372   3.164   5.228
 5046SOL    HW216038   3.278   3.038   5.272
 5047SOL     OW16039   6.842   0.864   2.731
 5047SOL    HW116040   6.858   0.766   2.738
 5047SOL    HW216041   6.785   0.894   2.807
 5048SOL     OW16042   0.051   2.370   1.452
 5048SOL    HW116043   0.079   2.460   1.419
 5048SOL    HW216044   0.126   2.328   1.502
 5049SOL     OW16045   1.296   2.182   2.169
 5049SOL    HW116046   1.268   2.256   2.231
 5049SOL    HW216047   1.302   2.218   2.076
 5050SOL     OW16048   0.669   2.650   1.819
 5050SOL    HW116049   0.605   2.657   1.895
 5050SOL    HW216050   0.624   2.679   1.734
 5051SOL     OW16051   2.857   4.653   0.756
 5051SOL    HW116052   2.802   4.609   0.828
 5051SOL    HW216053   2.943   4.603   0.744
 5052SOL     OW16054   4.754   5.049   0.951
 5052SOL    HW116055   4.679   5.114   0.961
 5052SOL    HW216056   4.811   5.075   0.873
 5053SOL     OW16057   2.596   4.003   1.327
 5053SOL    HW116058   2.577   3.906   1.343
 5053SOL    HW216059   2.614   4.048   1.415
 5054SOL     OW16060   3.658   5.712   4.991
 5054SOL    HW116061   3.586   5.659   5.036
 5054SOL    HW216062   3.638   5.720   4.894
 5055SOL     OW16063   1.239   1.678   5.202
 5055SOL    HW116064   1.162   1.739   5.223
 5055SOL    HW216065   1.213   1.616   5.128
 5056SOL     OW16066   0.518   3.408   5.653
 5056SOL    HW116067   0.533   3.451   5.743
 5056SOL    HW216068   0.446   3.340   5.660
 5057SOL     OW16069   0.429   5.779   3.810
 5057SOL    HW116070   0.424   5.777   3.710
 5057SOL    HW216071   0.516   5.819   3.838
 5058SOL     OW16072   4.518   4.349   6.243
 5058SOL    HW116073   4.498   4.446   6.229
 5058SOL    HW216074   4.588   4.340   6.314
 5059SOL     OW16075   3.514   2.030   4.985
 5059SOL    HW116076   3.488   2.035   4.889
 5059SOL    HW216077   3.512   1.935   5.015
 5060SOL     OW16078   0.577   3.127   5.402
 5060SOL    HW116079   0.561   3.193   5.329
 5060SOL    HW216080   0.599   3.174   5.487
 5061SOL     OW16081   3.918   3.011   4.729
 5061SOL    HW116082   4.012   2.995   4.697
 5061SOL    HW216083   3.899   3.109   4.725
 5062SOL     OW16084   5.204   0.803   3.260
 5062SOL    HW116085   5.246   0.807   3.169
 5062SOL    HW216086   5.168   0.893   3.284
 5063SOL     OW16087   1.448   6.871   2.491
 5063SOL    HW116088   1.372   6.864   2.426
 5063SOL    HW216089   1.413   6.906   2.578
 5064SOL     OW16090   4.685   5.773   0.293
 5064SOL    HW116091   4.627   5.845   0.254
 5064SOL    HW216092   4.749   5.814   0.358
 5065SOL     OW16093   2.447   6.956   3.349
 5065SOL    HW116094   2.422   6.954   3.252
 5065SOL    HW216095   2.546   6.963   3.358
 5066SOL     OW16096   1.780   4.586   1.464
 5066SOL    HW116097   1.708   4.654   1.478
 5066SOL    HW216098   1.828   4.605   1.379
 5067SOL     OW16099   4.052   2.709   1.667
 5067SOL    HW116100   4.084   2.616   1.684
 5067SOL    HW216101   4.129   2.772   1.672
 5068SOL     OW16102   3.728   6.525   0.861
 5068SOL    HW116103   3.674   6.598   0.817
 5068SOL    HW216104   3.808   6.565   0.905
 5069SOL     OW16105   3.148   4.666   6.104
 5069SOL    HW116106   3.070   4.617   6.066
 5069SOL    HW216107   3.160   4.640   6.200
 5070SOL     OW16108   5.699   3.248   4.103
 5070SOL    HW116109   5.766   3.302   4.051
 5070SOL    HW216110   5.642   3.310   4.157
 5071SOL     OW16111   3.733   0.882   3.740
 5071SOL    HW116112   3.723   0.785   3.719
 5071SOL    HW216113   3.646   0.919   3.773
 5072SOL     OW16114   1.843   1.236   0.882
 5072SOL    HW116115   1.758   1.198   0.918
 5072SOL    HW216116   1.915   1.166   0.887
 5073SOL     OW16117   2.641   6.723   2.307
 5073SOL    HW116118   2.632   6.787   2.231
 5073SOL    HW216119   2.648   6.630   2.271
 5074SOL     OW16120   3.886   2.226   1.699
 5074SOL    HW116121   3.890   2.126   1.697
 5074SOL    HW216122   3.805   2.255   1.749
 5075SOL     OW16123   1.646   3.373   6.905
 5075SOL    HW116124   1.587   3.439   6.857
 5075SOL    HW216125   1.616   3.365   7.000
 5076SOL     OW16126   5.669   0.546   0.677
 5076SOL    HW116127   5.681   0.460   0.628
 5076SOL    HW216128   5.759   0.580   0.706
 5077SOL     OW16129   1.068   5.083   3.810
 5077SOL    HW116130   1.038   5.145   3.882
 5077SOL    HW216131   1.150   5.119   3.767
 5078SOL     OW16132   0.214   0.979   3.960
 5078SOL    HW116133   0.238   0.990   4.056
 5078SOL    HW216134   0.255   0.895   3.924
 5079SOL     OW16135   2.055   2.135   5.955
 5079SOL    HW116136   2.015   2.208   5.900
 5079SOL    HW216137   1.982   2.074   5.987
 5080SOL     OW16138   6.424   5.151   5.959
 5080SOL    HW116139   6.489   5.104   5.898
 5080SOL    HW216140   6.421   5.104   6.047
 5081SOL     OW16141   3.549   6.103   5.669
 5081SOL    HW116142   3.592   6.193   5.666
 5081SOL    HW216143   3.533   6.077   5.764
 5082SOL     OW16144   4.939   6.543   1.495
 5082SOL    HW116145   5.006   6.615   1.475
 5082SOL    HW216146   4.848   6.584   1.501
 5083SOL     OW16147   2.518   0.630   3.126
 5083SOL    HW116148   2.443   0.692   3.103
 5083SOL    HW216149   2.606   0.677   3.116
 5084SOL     OW16150   0.713   4.838   5.159
 5084SOL    HW116151   0.702   4.855   5.062
 5084SOL    HW216152   0.796   4.784   5.174
 5085SOL     OW16153   1.139   3.670   6.529
 5085SOL    HW116154   1.197   3.623   6.463
 5085SOL    HW216155   1.153   3.769   6.522
 5086SOL     OW16156   1.217   4.378   2.462
 5086SOL    HW116157   1.127   4.378   2.504
 5086SOL    HW216158   1.208   4.377   2.363
 5087SOL     OW16159   6.752   5.149   2.818
 5087SOL    HW116160   6.806   5.133   2.901
 5087SOL    HW216161   6.807   5.127   2.738
 5088SOL     OW16162   4.462   5.918   2.578
 5088SOL    HW116163   4.449   5.843   2.643
 5088SOL    HW216164   4.375   5.964   2.562
 5089SOL     OW16165   5.341   4.801   4.644
 5089SOL    HW116166   5.366   4.835   4.553
 5089SOL    HW216167   5.272   4.863   4.684
 5090SOL     OW16168   2.410   0.441   4.222
 5090SOL    HW116169   2.400   0.349   4.260
 5090SOL    HW216170   2.376   0.442   4.128
 5091SOL     OW16171   6.408   0.180   0.531
 5091SOL    HW116172   6.438   0.145   0.620
 5091SOL    HW216173   6.398   0.279   0.535
 5092SOL     OW16174   3.567   3.806   4.781
 5092SOL    HW116175   3.493   3.870   4.800
 5092SOL    HW216176   3.532   3.712   4.786
 5093SOL     OW16177   1.841   1.487   2.942
 5093SOL    HW116178   1.754   1.534   2.957
 5093SOL    HW216179   1.834   1.393   2.976
 5094SOL     OW16180   2.217   5.465   6.422
 5094SOL    HW116181   2.296   5.413   6.389
 5094SOL    HW216182   2.198   5.440   6.516
 5095SOL     OW16183   0.130   1.309   3.150
 5095SOL    HW116184   0.117   1.402   3.115
 5095SOL    HW216185   0.142   1.246   3.074
 5096SOL     OW16186   5.230   3.132   6.205
 5096SOL    HW116187   5.146   3.084   6.229
 5096SOL    HW216188   5.265   3.179   6.285
 5097SOL     OW16189   6.559   6.802   6.142
 5097SOL    HW116190   6.513   6.779   6.056
 5097SOL    HW216191   6.493   6.840   6.206
 5098SOL     OW16192   3.536   2.012   1.950
 5098SOL    HW116193   3.545   2.029   1.852
 5098SOL    HW216194   3.586   2.082   2.000
 5099SOL     OW16195   0.558   5.720   1.797
 5099SOL    HW116196   0.613   5.721   1.713
 5099SOL    HW216197   0.606   5.670   1.868
 5100SOL     OW16198   5.402   4.229   2.840
 5100SOL    HW116199   5.402   4.153   2.775
 5100SOL    HW216200   5.313   4.274   2.839
 5101SOL     OW16201   4.087   0.365   5.443
 5101SOL    HW116202   4.004   0.308   5.436
 5101SOL    HW216203   4.111   0.399   5.352
 5102SOL     OW16204   5.460   5.286   4.066
 5102SOL    HW116205   5.423   5.197   4.042
 5102SOL    HW216206   5.554   5.293   4.034
 5103SOL     OW16207   0.823   0.325   5.607
 5103SOL    HW116208   0.727   0.298   5.608
 5103SOL    HW216209   0.842   0.379   5.525
 5104SOL     OW16210   3.772   5.161   1.482
 5104SOL    HW116211   3.682   5.195   1.510
 5104SOL    HW216212   3.815   5.227   1.421
 5105SOL     OW16213   3.218   3.431   6.760
 5105SOL    HW116214   3.285   3.434   6.835
 5105SOL    HW216215   3.192   3.524   6.736
 5106SOL     OW16216   4.043   2.897   0.855
 5106SOL    HW116217   4.072   2.820   0.798
 5106SOL    HW216218   3.945   2.914   0.840
 5107SOL     OW16219   5.126   2.336   1.452
 5107SOL    HW116220   5.077   2.270   1.395
 5107SOL    HW216221   5.116   2.310   1.548
 5108SOL     OW16222   4.586   3.468   6.777
 5108SOL    HW116223   4.597   3.433   6.870
 5108SOL    HW216224   4.499   3.518   6.771
 5109SOL     OW16225   1.957   3.163   1.039
 5109SOL    HW116226   1.982   3.070   1.015
 5109SOL    HW216227   1.874   3.162   1.095
 5110SOL     OW16228   5.771   6.824   6.164
 5110SOL    HW116229   5.778   6.841   6.066
 5110SOL    HW216230   5.764   6.911   6.213
 5111SOL     OW16231   1.216   6.022   5.038
 5111SOL    HW116232   1.263   5.938   5.064
 5111SOL    HW216233   1.188   6.016   4.942
 5112SOL     OW16234   0.164   0.679   3.541
 5112SOL    HW116235   0.220   0.739   3.484
 5112SOL    HW216236   0.079   0.726   3.566
 5113SOL     OW16237   2.432   5.180   1.064
 5113SOL    HW116238   2.398   5.092   1.097
 5113SOL    HW216239   2.368   5.253   1.090
 5114SOL     OW16240   3.790   6.690   0.485
 5114SOL    HW116241   3.725   6.681   0.560
 5114SOL    HW216242   3.833   6.780   0.489
 5115SOL     OW16243   2.026   3.956   1.842
 5115SOL    HW116244   2.086   3.878   1.861
 5115SOL    HW216245   2.039   4.025   1.913
 5116SOL     OW16246   2.567   0.028   6.625
 5116SOL    HW116247   2.623   0.080   6.560
 5116SOL    HW216248   2.546   6.959   6.588
 5117SOL     OW16249   1.515   2.592   4.582
 5117SOL    HW116250   1.526   2.685   4.615
 5117SOL    HW216251   1.530   2.589   4.484
 5118SOL     OW16252   6.411   6.544   0.263
 5118SOL    HW116253   6.376   6.493   0.185
 5118SOL    HW216254   6.336   6.565   0.326
 5119SOL     OW16255   5.293   2.038   0.550
 5119SOL    HW116256   5.254   1.949   0.530
 5119SOL    HW216257   5.257   2.072   0.637
 5120SOL     OW16258   5.494   0.552   4.682
 5120SOL    HW116259   5.401   0.516   4.672
 5120SOL    HW216260   5.560   0.477   4.674
 5121SOL     OW16261   3.064   3.694   0.004
 5121SOL    HW116262   2.964   3.694   0.004
 5121SOL    HW216263   3.097   3.674   6.932
 5122SOL     OW16264   4.320   5.556   3.375
 5122SOL    HW116265   4.253   5.612   3.326
 5122SOL    HW216266   4.299   5.459   3.360
 5123SOL     OW16267   4.585   1.815   2.281
 5123SOL    HW116268   4.618   1.725   2.255
 5123SOL    HW216269   4.568   1.870   2.199
 5124SOL     OW16270   1.981   6.302   3.611
 5124SOL    HW116271   2.010   6.386   3.657
 5124SOL    HW216272   1.906   6.260   3.662
 5125SOL     OW16273   0.625   2.284   3.990
 5125SOL    HW116274   0.637   2.369   3.939
 5125SOL    HW216275   0.639   2.206   3.929
 5126SOL     OW16276   1.779   6.941   0.920
 5126SOL    HW116277   1.777   6.871   0.991
 5126SOL    HW216278   1.704   6.927   0.856
 5127SOL     OW16279   2.208   5.413   0.417
 5127SOL    HW116280   2.307   5.402   0.407
 5127SOL    HW216281   2.163   5.382   0.333
 5128SOL     OW16282   6.908   6.237   1.900
 5128SOL    HW116283   6.975   6.164   1.912
 5128SOL    HW216284   6.953   6.320   1.869
 5129SOL     OW16285   4.691   6.651   1.513
 5129SOL    HW116286   4.611   6.624   1.566
 5129SOL    HW216287   4.662   6.673   1.419
 5130SOL     OW16288   6.488   4.761   3.525
 5130SOL    HW116289   6.462   4.776   3.621
 5130SOL    HW216290   6.417   4.799   3.466
 5131SOL     OW16291   1.127   2.792   3.442
 5131SOL    HW116292   1.184   2.737   3.504
 5131SOL    HW216293   1.115   2.743   3.356
 5132SOL     OW16294   3.457   4.745   6.682
 5132SOL    HW116295   3.450   4.844   6.691
 5132SOL    HW216296   3.438   4.702   6.770
 5133SOL     OW16297   3.623   6.007   6.306
 5133SOL    HW116298   3.721   6.026   6.306
 5133SOL    HW216299   3.605   5.921   6.259
 5134SOL     OW16300   0.405   3.564   1.427
 5134SOL    HW116301   0.350   3.645   1.451
 5134SOL    HW216302   0.348   3.500   1.376
 5135SOL     OW16303   6.963   1.801   4.763
 5135SOL    HW116304   6.964   1.826   4.860
 5135SOL    HW216305   7.019   1.866   4.712
 5136SOL     OW16306   5.044   0.276   4.431
 5136SOL    HW116307   5.114   0.326   4.380
 5136SOL    HW216308   4.957   0.326   4.425
 5137SOL     OW16309   5.181   4.022   6.660
 5137SOL    HW116310   5.222   4.080   6.589
 5137SOL    HW216311   5.121   3.954   6.617
 5138SOL     OW16312   2.880   3.406   6.200
 5138SOL    HW116313   2.788   3.425   6.233
 5138SOL    HW216314   2.890   3.308   6.183
 5139SOL     OW16315   1.463   6.599   3.942
 5139SOL    HW116316   1.405   6.636   4.015
 5139SOL    HW216317   1.479   6.670   3.873
 5140SOL     OW16318   3.318   2.826   0.931
 5140SOL    HW116319   3.334   2.728   0.922
 5140SOL    HW216320   3.375   2.862   1.005
 5141SOL     OW16321   5.566   3.563   0.733
 5141SOL    HW116322   5.639   3.570   0.666
 5141SOL    HW216323   5.606   3.560   0.825
 5142SOL     OW16324   5.926   3.253   4.507
 5142SOL    HW116325   5.897   3.161   4.483
 5142SOL    HW216326   5.991   3.287   4.439
 5143SOL     OW16327   0.283   4.635   4.328
 5143SOL    HW116328   0.297   4.710   4.393
 5143SOL    HW216329   0.267   4.550   4.377
 5144SOL     OW16330   1.656   6.776   6.436
 5144SOL    HW116331   1.695   6.699   6.386
 5144SOL    HW216332   1.562   6.791   6.407
 5145SOL     OW16333   2.494   5.039   5.495
 5145SOL    HW116334   2.532   4.947   5.488
 5145SOL    HW216335   2.409   5.044   5.441
 5146SOL     OW16336   3.449   3.863   6.750
 5146SOL    HW116337   3.509   3.830   6.823
 5146SOL    HW216338   3.484   3.831   6.662
 5147SOL     OW16339   6.729   4.544   0.537
 5147SOL    HW116340   6.629   4.544   0.527
 5147SOL    HW216341   6.758   4.633   0.572
 5148SOL     OW16342   6.958   6.179   1.488
 5148SOL    HW116343   7.003   6.261   1.523
 5148SOL    HW216344   6.866   6.202   1.456
 5149SOL     OW16345   6.166   1.171   3.005
 5149SOL    HW116346   6.243   1.129   3.053
 5149SOL    HW216347   6.122   1.237   3.066
 5150SOL     OW16348   1.457   6.249   3.657
 5150SOL    HW116349   1.405   6.332   3.635
 5150SOL    HW216350   1.507   6.219   3.576
 5151SOL     OW16351   5.139   1.283   6.261
 5151SOL    HW116352   5.178   1.328   6.341
 5151SOL    HW216353   5.040   1.290   6.263
 5152SOL     OW16354   1.327   4.694   0.047
 5152SOL    HW116355   1.372   4.608   0.024
 5152SOL    HW216356   1.373   4.736   0.124
 5153SOL     OW16357   2.181   2.543   0.697
 5153SOL    HW116358   2.151   2.448   0.691
 5153SOL    HW216359   2.279   2.546   0.718
 5154SOL     OW16360   1.699   3.501   6.149
 5154SOL    HW116361   1.799   3.509   6.146
 5154SOL    HW216362   1.660   3.589   6.177
 5155SOL     OW16363   4.259   6.181   2.208
 5155SOL    HW116364   4.250   6.191   2.109
 5155SOL    HW216365   4.344   6.224   2.238
 5156SOL     OW16366   6.553   2.308   5.687
 5156SOL    HW116367   6.473   2.333   5.743
 5156SOL    HW216368   6.532   2.323   5.591
 5157SOL     OW16369   5.081   2.389   3.687
 5157SOL    HW116370   5.143   2.416   3.760
 5157SOL    HW216371   5.086   2.455   3.612
 5158SOL     OW16372   3.607   1.270   1.773
 5158SOL    HW116373   3.571   1.362   1.758
 5158SOL    HW216374   3.699   1.277   1.812
 5159SOL     OW16375   0.790   2.721   4.182
 5159SOL    HW116376   0.827   2.806   4.145
 5159SOL    HW216377   0.709   2.741   4.238
 5160SOL     OW16378   1.119   3.730   4.506
 5160SOL    HW116379   1.160   3.726   4.415
 5160SOL    HW216380   1.022   3.754   4.498
 5161SOL     OW16381   1.130   3.505   5.553
 5161SOL    HW116382   1.206   3.569   5.561
 5161SOL    HW216383   1.057   3.531   5.616
 5162SOL     OW16384   6.788   5.616   3.988
 5162SOL    HW116385   6.809   5.519   3.994
 5162SOL    HW216386   6.702   5.629   3.939
 5163SOL     OW16387   5.443   5.315   0.561
 5163SOL    HW116388   5.490   5.227   0.554
 5163SOL    HW216389   5.371   5.319   0.491
 5164SOL     OW16390   5.646   2.934   5.285
 5164SOL    HW116391   5.579   2.944   5.359
 5164SOL    HW216392   5.722   2.876   5.316
 5165SOL     OW16393   6.064   4.852   4.355
 5165SOL    HW116394   6.015   4.873   4.439
 5165SOL    HW216395   6.046   4.758   4.328
 5166SOL     OW16396   1.288   4.545   2.124
 5166SOL    HW116397   1.385   4.524   2.117
 5166SOL    HW216398   1.239   4.468   2.164
 5167SOL     OW16399   6.016   6.672   5.993
 5167SOL    HW116400   6.077   6.741   5.953
 5167SOL    HW216401   6.049   6.648   6.085
 5168SOL     OW16402   4.072   2.234   3.201
 5168SOL    HW116403   4.124   2.248   3.117
 5168SOL    HW216404   4.131   2.253   3.280
 5169SOL     OW16405   3.224   3.901   6.271
 5169SOL    HW116406   3.245   3.976   6.333
 5169SOL    HW216407   3.272   3.915   6.184
 5170SOL     OW16408   6.384   4.429   4.925
 5170SOL    HW116409   6.361   4.333   4.935
 5170SOL    HW216410   6.365   4.478   5.010
 5171SOL     OW16411   2.565   4.892   4.269
 5171SOL    HW116412   2.594   4.805   4.230
 5171SOL    HW216413   2.616   4.966   4.226
 5172SOL     OW16414   0.279   3.874   1.706
 5172SOL    HW116415   0.298   3.950   1.767
 5172SOL    HW216416   0.356   3.811   1.705
 5173SOL     OW16417   5.767   3.679   5.699
 5173SOL    HW116418   5.802   3.769   5.723
 5173SOL    HW216419   5.704   3.647   5.770
 5174SOL     OW16420   1.640   4.625   5.276
 5174SOL    HW116421   1.663   4.657   5.184
 5174SOL    HW216422   1.568   4.556   5.271
 5175SOL     OW16423   1.715   4.574   0.343
 5175SOL    HW116424   1.672   4.552   0.430
 5175SOL    HW216425   1.806   4.533   0.340
 5176SOL     OW16426   4.203   3.921   0.863
 5176SOL    HW116427   4.136   3.956   0.928
 5176SOL    HW216428   4.156   3.891   0.780
 5177SOL     OW16429   4.380   6.409   5.744
 5177SOL    HW116430   4.465   6.406   5.692
 5177SOL    HW216431   4.361   6.503   5.773
 5178SOL     OW16432   3.070   2.941   1.769
 5178SOL    HW116433   3.087   2.843   1.754
 5178SOL    HW216434   2.972   2.959   1.763
 5179SOL     OW16435   3.962   6.619   5.661
 5179SOL    HW116436   3.959   6.664   5.572
 5179SOL    HW216437   3.911   6.673   5.728
 5180SOL     OW16438   3.779   1.763   0.233
 5180SOL    HW116439   3.732   1.804   0.155
 5180SOL    HW216440   3.719   1.695   0.276
 5181SOL     OW16441   4.153   0.046   2.701
 5181SOL    HW116442   4.132   0.135   2.661
 5181SOL    HW216443   4.183   0.058   2.796
 5182SOL     OW16444   5.666   4.414   1.734
 5182SOL    HW116445   5.679   4.499   1.682
 5182SOL    HW216446   5.725   4.343   1.697
 5183SOL     OW16447   4.447   6.954   2.468
 5183SOL    HW116448   4.393   6.906   2.536
 5183SOL    HW216449   4.526   6.997   2.512
 5184SOL     OW16450   1.013   1.222   3.566
 5184SOL    HW116451   1.077   1.298   3.552
 5184SOL    HW216452   1.031   1.150   3.499
 5185SOL     OW16453   3.728   0.037   2.060
 5185SOL    HW116454   3.709   6.985   2.127
 5185SOL    HW216455   3.804   0.094   2.092
 5186SOL     OW16456   6.705   4.107   1.098
 5186SOL    HW116457   6.721   4.026   1.155
 5186SOL    HW216458   6.791   4.133   1.053
 5187SOL     OW16459   6.246   1.879   3.585
 5187SOL    HW116460   6.146   1.880   3.594
 5187SOL    HW216461   6.276   1.787   3.563
 5188SOL     OW16462   0.695   5.138   6.433
 5188SOL    HW116463   0.646   5.210   6.482
 5188SOL    HW216464   0.684   5.151   6.335
 5189SOL     OW16465   5.196   4.477   6.381
 5189SOL    HW116466   5.187   4.576   6.386
 5189SOL    HW216467   5.258   4.445   6.454
 5190SOL     OW16468   0.914   2.199   4.094
 5190SOL    HW116469   0.829   2.233   4.055
 5190SOL    HW216470   0.917   2.219   4.192
 5191SOL     OW16471   3.201   1.183   2.191
 5191SOL    HW116472   3.255   1.099   2.192
 5191SOL    HW216473   3.256   1.259   2.156
 5192SOL     OW16474   5.741   5.592   2.597
 5192SOL    HW116475   5.697   5.523   2.540
 5192SOL    HW216476   5.685   5.610   2.678
 5193SOL     OW16477   4.696   4.635   3.809
 5193SOL    HW116478   4.606   4.602   3.836
 5193SOL    HW216479   4.766   4.594   3.868
 5194SOL     OW16480   5.500   0.757   5.636
 5194SOL    HW116481   5.453   0.844   5.653
 5194SOL    HW216482   5.434   0.682   5.638
 5195SOL     OW16483   6.411   6.815   5.131
 5195SOL    HW116484   6.349   6.881   5.174
 5195SOL    HW216485   6.373   6.787   5.042
 5196SOL     OW16486   0.468   4.317   1.858
 5196SOL    HW116487   0.445   4.283   1.767
 5196SOL    HW216488   0.444   4.414   1.866
 5197SOL     OW16489   2.127   6.208   4.439
 5197SOL    HW116490   2.145   6.115   4.406
 5197SOL    HW216491   2.090   6.204   4.532
 5198SOL     OW16492   3.682   6.051   5.243
 5198SOL    HW116493   3.583   6.046   5.231
 5198SOL    HW216494   3.727   6.003   5.167
 5199SOL     OW16495   2.370   5.788   1.615
 5199SOL    HW116496   2.371   5.689   1.624
 5199SOL    HW216497   2.298   5.815   1.551
 5200SOL     OW16498   0.854   1.644   4.659
 5200SOL    HW116499   0.946   1.616   4.686
 5200SOL    HW216500   0.788   1.616   4.729
 5201SOL     OW16501   5.369   4.777   3.913
 5201SOL    HW116502   5.438   4.801   3.845
 5201SOL    HW216503   5.307   4.709   3.874
 5202SOL     OW16504   4.593   3.420   6.258
 5202SOL    HW116505   4.602   3.347   6.325
 5202SOL    HW216506   4.541   3.386   6.179
 5203SOL     OW16507   1.822   0.432   0.391
 5203SOL    HW116508   1.874   0.431   0.305
 5203SOL    HW216509   1.750   0.362   0.387
 5204SOL     OW16510   3.216   0.759   6.758
 5204SOL    HW116511   3.149   0.826   6.726
 5204SOL    HW216512   3.306   0.801   6.765
 5205SOL     OW16513   0.176   6.046   1.207
 5205SOL    HW116514   0.238   6.041   1.285
 5205SOL    HW216515   0.229   6.053   1.122
 5206SOL     OW16516   0.370   4.350   5.138
 5206SOL    HW116517   0.280   4.321   5.173
 5206SOL    HW216518   0.438   4.342   5.210
 5207SOL     OW16519   0.219   0.598   4.941
 5207SOL    HW116520   0.142   0.655   4.971
 5207SOL    HW216521   0.206   0.572   4.846
 5208SOL     OW16522   4.795   2.238   0.259
 5208SOL    HW116523   4.830   2.163   0.316
 5208SOL    HW216524   4.705   2.213   0.224
 5209SOL     OW16525   4.814   6.461   3.063
 5209SOL    HW116526   4.878   6.539   3.058
 5209SOL    HW216527   4.725   6.489   3.028
 5210SOL     OW16528   4.885   3.929   0.476
 5210SOL    HW116529   4.969   3.956   0.429
 5210SOL    HW216530   4.813   3.996   0.457
 5211SOL     OW16531   4.665   2.621   3.982
 5211SOL    HW116532   4.717   2.535   3.980
 5211SOL    HW216533   4.692   2.674   4.062
 5212SOL     OW16534   1.302   3.028   0.806
 5212SOL    HW116535   1.297   3.095   0.880
 5212SOL    HW216536   1.364   3.060   0.735
 5213SOL     OW16537   3.893   3.058   2.484
 5213SOL    HW116538   3.895   3.113   2.567
 5213SOL    HW216539   3.833   3.101   2.416
 5214SOL     OW16540   5.635   3.828   6.341
 5214SOL    HW116541   5.720   3.881   6.348
 5214SOL    HW216542   5.609   3.796   6.433
 5215SOL     OW16543   6.528   3.555   4.756
 5215SOL    HW116544   6.437   3.593   4.737
 5215SOL    HW216545   6.521   3.494   4.835
 5216SOL     OW16546   5.621   4.479   0.718
 5216SOL    HW116547   5.527   4.507   0.737
 5216SOL    HW216548   5.622   4.417   0.639
 5217SOL     OW16549   3.995   5.719   4.276
 5217SOL    HW116550   4.011   5.761   4.366
 5217SOL    HW216551   4.015   5.785   4.204
 5218SOL     OW16552   0.716   0.537   0.879
 5218SOL    HW116553   0.679   0.493   0.797
 5218SOL    HW216554   0.768   0.618   0.854
 5219SOL     OW16555   2.420   2.074   4.856
 5219SOL    HW116556   2.365   2.149   4.890
 5219SOL    HW216557   2.453   2.019   4.933
 5220SOL     OW16558   1.909   4.479   3.464
 5220SOL    HW116559   2.004   4.511   3.459
 5220SOL    HW216560   1.854   4.545   3.515
 5221SOL     OW16561   6.929   0.393   1.649
 5221SOL    HW116562   7.000   0.457   1.620
 5221SOL    HW216563   6.923   0.393   1.749
 5222SOL     OW16564   4.651   4.721   1.368
 5222SOL    HW116565   4.672   4.668   1.450
 5222SOL    HW216566   4.706   4.687   1.291
 5223SOL     OW16567   0.518   3.053   0.704
 5223SOL    HW116568   0.461   3.132   0.681
 5223SOL    HW216569   0.612   3.083   0.717
 5224SOL     OW16570   0.691   2.085   3.792
 5224SOL    HW116571   0.680   2.073   3.693
 5224SOL    HW216572   0.788   2.079   3.815
 5225SOL     OW16573   0.330   1.751   5.109
 5225SOL    HW116574   0.309   1.663   5.066
 5225SOL    HW216575   0.282   1.824   5.060
 5226SOL     OW16576   0.196   5.840   3.960
 5226SOL    HW116577   0.213   5.892   4.044
 5226SOL    HW216578   0.284   5.817   3.917
 5227SOL     OW16579   6.878   2.731   5.140
 5227SOL    HW116580   6.948   2.660   5.132
 5227SOL    HW216581   6.899   2.806   5.077
 5228SOL     OW16582   2.051   3.133   5.702
 5228SOL    HW116583   2.105   3.057   5.739
 5228SOL    HW216584   2.108   3.216   5.699
 5229SOL     OW16585   4.116   0.591   6.559
 5229SOL    HW116586   4.156   0.572   6.648
 5229SOL    HW216587   4.127   0.511   6.499
 5230SOL     OW16588   7.001   0.094   1.689
 5230SOL    HW116589   7.015   0.183   1.646
 5230SOL    HW216590   6.914   0.094   1.738
 5231SOL     OW16591   6.062   1.855   2.402
 5231SOL    HW116592   6.063   1.782   2.334
 5231SOL    HW216593   6.153   1.866   2.440
 5232SOL     OW16594   1.670   3.371   5.894
 5232SOL    HW116595   1.706   3.401   5.982
 5232SOL    HW216596   1.621   3.447   5.851
 5233SOL     OW16597   3.060   0.282   2.687
 5233SOL    HW116598   3.024   0.291   2.595
 5233SOL    HW216599   3.125   0.356   2.705
 5234SOL     OW16600   2.171   2.391   1.076
 5234SOL    HW116601   2.078   2.415   1.049
 5234SOL    HW216602   2.221   2.473   1.102
 5235SOL     OW16603   2.947   1.922   1.253
 5235SOL    HW116604   2.879   1.988   1.286
 5235SOL    HW216605   2.932   1.833   1.296
 5236SOL     OW16606   3.249   5.412   1.970
 5236SOL    HW116607   3.288   5.398   2.061
 5236SOL    HW216608   3.269   5.333   1.913
 5237SOL     OW16609   2.015   2.372   4.318
 5237SOL    HW116610   2.113   2.371   4.335
 5237SOL    HW216611   1.973   2.444   4.373
 5238SOL     OW16612   1.035   5.815   2.896
 5238SOL    HW116613   1.000   5.909   2.889
 5238SOL    HW216614   1.050   5.778   2.804
 5239SOL     OW16615   3.342   3.695   1.375
 5239SOL    HW116616   3.320   3.604   1.340
 5239SOL    HW216617   3.258   3.750   1.379
 5240SOL     OW16618   2.792   2.857   6.278
 5240SOL    HW116619   2.753   2.843   6.187
 5240SOL    HW216620   2.770   2.950   6.309
 5241SOL     OW16621   1.131   6.104   2.430
 5241SOL    HW116622   1.083   6.039   2.489
 5241SOL    HW216623   1.090   6.102   2.338
 5242SOL     OW16624   5.236   0.793   6.830
 5242SOL    HW116625   5.167   0.734   6.789
 5242SOL    HW216626   5.310   0.737   6.868
 5243SOL     OW16627   1.759   6.008   1.950
 5243SOL    HW116628   1.840   6.065   1.950
 5243SOL    HW216629   1.783   5.916   1.918
 5244SOL     OW16630   4.809   3.219   0.083
 5244SOL    HW116631   4.857   3.301   0.115
 5244SOL    HW216632   4.875   3.147   0.062
 5245SOL     OW16633   4.038   3.933   0.639
 5245SOL    HW116634   4.057   4.024   0.601
 5245SOL    HW216635   4.023   3.869   0.564
 5246SOL     OW16636   5.973   3.114   1.441
 5246SOL    HW116637   5.929   3.165   1.516
 5246SOL    HW216638   6.013   3.030   1.478
 5247SOL     OW16639   4.206   2.208   5.972
 5247SOL    HW116640   4.122   2.256   5.998
 5247SOL    HW216641   4.261   2.267   5.913
 5248SOL     OW16642   6.162   1.690   3.133
 5248SOL    HW116643   6.187   1.787   3.130
 5248SOL    HW216644   6.153   1.660   3.228
 5249SOL     OW16645   0.502   4.692   6.553
 5249SOL    HW116646   0.481   4.787   6.577
 5249SOL    HW216647   0.453   4.630   6.616
 5250SOL     OW16648   2.157   5.881   0.611
 5250SOL    HW116649   2.220   5.949   0.575
 5250SOL    HW216650   2.195   5.790   0.599
 5251SOL     OW16651   0.620   4.296   1.016
 5251SOL    HW116652   0.544   4.355   1.042
 5251SOL    HW216653   0.699   4.315   1.074
 5252SOL     OW16654   3.327   0.258   2.391
 5252SOL    HW116655   3.300   0.345   2.433
 5252SOL    HW216656   3.408   0.222   2.438
 5253SOL     OW16657   5.710   4.906   4.467
 5253SOL    HW116658   5.669   4.831   4.415
 5253SOL    HW216659   5.689   4.896   4.564
 5254SOL     OW16660   6.060   0.054   2.807
 5254SOL    HW116661   6.107   6.999   2.852
 5254SOL    HW216662   5.975   0.075   2.855
 5255SOL     OW16663   6.021   1.388   4.944
 5255SOL    HW116664   6.105   1.385   4.890
 5255SOL    HW216665   5.945   1.351   4.890
 5256SOL     OW16666   5.722   0.760   3.177
 5256SOL    HW116667   5.791   0.825   3.210
 5256SOL    HW216668   5.632   0.791   3.206
 5257SOL     OW16669   4.383   0.610   6.346
 5257SOL    HW116670   4.412   0.611   6.250
 5257SOL    HW216671   4.283   0.610   6.350
 5258SOL     OW16672   4.650   1.553   2.147
 5258SOL    HW116673   4.564   1.505   2.134
 5258SOL    HW216674   4.701   1.553   2.061
 5259SOL     OW16675   4.940   5.041   3.436
 5259SOL    HW116676   4.871   4.982   3.478
 5259SOL    HW216677   4.962   5.007   3.345
 5260SOL     OW16678   2.129   0.232   0.077
 5260SOL    HW116679   2.215   0.200   0.036
 5260SOL    HW216680   2.138   0.234   0.177
 5261SOL     OW16681   6.380   4.748   0.261
 5261SOL    HW116682   6.302   4.795   0.220
 5261SOL    HW216683   6.465   4.791   0.230
 5262SOL     OW16684   2.310   0.555   2.482
 5262SOL    HW116685   2.345   0.627   2.422
 5262SOL    HW216686   2.377   0.481   2.489
 5263SOL     OW16687   1.948   1.324   3.601
 5263SOL    HW116688   1.888   1.347   3.678
 5263SOL    HW216689   1.970   1.227   3.604
 5264SOL     OW16690   0.056   2.610   1.719
 5264SOL    HW116691   0.055   2.624   1.620
 5264SOL    HW216692   0.003   2.529   1.743
 5265SOL     OW16693   5.799   3.540   5.107
 5265SOL    HW116694   5.728   3.484   5.065
 5265SOL    HW216695   5.781   3.637   5.090
 5266SOL     OW16696   2.325   0.139   0.477
 5266SOL    HW116697   2.365   0.227   0.450
 5266SOL    HW216698   2.391   0.089   0.533
 5267SOL     OW16699   4.295   2.182   4.671
 5267SOL    HW116700   4.335   2.222   4.589
 5267SOL    HW216701   4.334   2.227   4.752
 5268SOL     OW16702   5.529   0.813   6.407
 5268SOL    HW116703   5.567   0.837   6.318
 5268SOL    HW216704   5.543   0.888   6.471
 5269SOL     OW16705   0.154   6.563   2.656
 5269SOL    HW116706   0.249   6.533   2.649
 5269SOL    HW216707   0.100   6.490   2.699
 5270SOL     OW16708   0.040   1.858   6.745
 5270SOL    HW116709   0.038   1.958   6.756
 5270SOL    HW216710   0.120   1.833   6.690
 5271SOL     OW16711   6.141   5.933   3.957
 5271SOL    HW116712   6.223   5.953   3.903
 5271SOL    HW216713   6.078   6.011   3.952
 5272SOL     OW16714   4.132   6.882   0.189
 5272SOL    HW116715   4.224   6.886   0.148
 5272SOL    HW216716   4.128   6.807   0.255
 5273SOL     OW16717   1.255   3.128   2.504
 5273SOL    HW116718   1.320   3.168   2.569
 5273SOL    HW216719   1.252   3.029   2.515
 5274SOL     OW16720   4.901   5.866   2.567
 5274SOL    HW116721   4.982   5.808   2.558
 5274SOL    HW216722   4.915   5.951   2.517
 5275SOL     OW16723   3.375   1.083   0.191
 5275SOL    HW116724   3.418   1.166   0.156
 5275SOL    HW216725   3.351   1.023   0.114
 5276SOL     OW16726   3.092   6.361   2.134
 5276SOL    HW116727   3.066   6.305   2.055
 5276SOL    HW216728   3.143   6.441   2.103
 5277SOL     OW16729   2.086   1.235   2.048
 5277SOL    HW116730   2.019   1.292   2.096
 5277SOL    HW216731   2.088   1.260   1.951
 5278SOL     OW16732   4.685   5.408   1.919
 5278SOL    HW116733   4.753   5.410   1.992
 5278SOL    HW216734   4.687   5.494   1.868
 5279SOL     OW16735   2.680   5.062   1.615
 5279SOL    HW116736   2.583   5.041   1.613
 5279SOL    HW216737   2.733   4.979   1.599
 5280SOL     OW16738   3.453   5.966   4.785
 5280SOL    HW116739   3.450   5.934   4.691
 5280SOL    HW216740   3.359   5.980   4.818
 5281SOL     OW16741   1.245   2.108   1.866
 5281SOL    HW116742   1.325   2.065   1.908
 5281SOL    HW216743   1.265   2.203   1.843
 5282SOL     OW16744   3.098   1.698   3.923
 5282SOL    HW116745   3.077   1.762   3.997
 5282SOL    HW216746   3.194   1.706   3.898
 5283SOL     OW16747   5.241   5.865   6.713
 5283SOL    HW116748   5.220   5.959   6.741
 5283SOL    HW216749   5.244   5.860   6.613
 5284SOL     OW16750   5.551   3.264   2.704
 5284SOL    HW116751   5.585   3.206   2.631
 5284SOL    HW216752   5.541   3.210   2.788
 5285SOL     OW16753   3.127   5.058   3.599
 5285SOL    HW116754   3.203   5.061   3.664
 5285SOL    HW216755   3.120   5.145   3.550
 5286SOL     OW16756   1.683   4.220   1.579
 5286SOL    HW116757   1.672   4.121   1.569
 5286SOL    HW216758   1.725   4.257   1.496
 5287SOL     OW16759   2.548   2.241   0.331
 5287SOL    HW116760   2.585   2.154   0.363
 5287SOL    HW216761   2.448   2.239   0.338
 5288SOL     OW16762   3.459   0.297   1.112
 5288SOL    HW116763   3.437   0.360   1.038
 5288SOL    HW216764   3.385   0.230   1.122
 5289SOL     OW16765   1.221   5.290   1.580
 5289SOL    HW116766   1.257   5.209   1.626
 5289SOL    HW216767   1.282   5.315   1.504
 5290SOL     OW16768   4.150   5.844   0.757
 5290SOL    HW116769   4.186   5.751   0.761
 5290SOL    HW216770   4.050   5.840   0.746
 5291SOL     OW16771   1.878   5.212   5.611
 5291SOL    HW116772   1.966   5.164   5.605
 5291SOL    HW216773   1.841   5.225   5.519
 5292SOL     OW16774   4.623   2.753   5.973
 5292SOL    HW116775   4.638   2.745   6.071
 5292SOL    HW216776   4.533   2.793   5.956
 5293SOL     OW16777   0.633   0.512   4.449
 5293SOL    HW116778   0.639   0.610   4.430
 5293SOL    HW216779   0.579   0.498   4.532
 5294SOL     OW16780   6.510   2.627   6.220
 5294SOL    HW116781   6.549   2.607   6.309
 5294SOL    HW216782   6.542   2.559   6.153
 5295SOL     OW16783   6.877   1.390   2.645
 5295SOL    HW116784   6.871   1.426   2.551
 5295SOL    HW216785   6.890   1.291   2.642
 5296SOL     OW16786   0.485   4.682   1.265
 5296SOL    HW116787   0.504   4.605   1.204
 5296SOL    HW216788   0.542   4.760   1.237
 5297SOL     OW16789   2.323   1.955   1.267
 5297SOL    HW116790   2.301   1.869   1.222
 5297SOL    HW216791   2.320   1.943   1.366
 5298SOL     OW16792   0.440   5.548   1.573
 5298SOL    HW116793   0.431   5.504   1.662
 5298SOL    HW216794   0.351   5.584   1.544
 5299SOL     OW16795   2.838   0.376   1.860
 5299SOL    HW116796   2.769   0.406   1.794
 5299SOL    HW216797   2.875   0.288   1.831
 5300SOL     OW16798   6.654   5.974   3.420
 5300SOL    HW116799   6.725   5.922   3.374
 5300SOL    HW216800   6.644   5.942   3.514
 5301SOL     OW16801   4.243   1.367   6.847
 5301SOL    HW116802   4.167   1.345   6.786
 5301SOL    HW216803   4.301   1.286   6.859
 5302SOL     OW16804   6.044   4.203   2.716
 5302SOL    HW116805   5.996   4.265   2.778
 5302SOL    HW216806   5.979   4.163   2.652
 5303SOL     OW16807   6.564   4.243   3.583
 5303SOL    HW116808   6.467   4.263   3.570
 5303SOL    HW216809   6.591   4.268   3.676
 5304SOL     OW16810   5.448   1.580   6.192
 5304SOL    HW116811   5.452   1.680   6.200
 5304SOL    HW216812   5.497   1.550   6.110
 5305SOL     OW16813   2.271   1.158   3.110
 5305SOL    HW116814   2.270   1.123   3.204
 5305SOL    HW216815   2.206   1.105   3.055
 5306SOL     OW16816   3.190   0.379   5.429
 5306SOL    HW116817   3.145   0.318   5.363
 5306SOL    HW216818   3.258   0.327   5.480
 5307SOL     OW16819   4.763   6.807   0.064
 5307SOL    HW116820   4.758   6.883   0.128
 5307SOL    HW216821   4.850   6.810   0.015
 5308SOL     OW16822   0.214   1.808   2.513
 5308SOL    HW116823   0.298   1.836   2.466
 5308SOL    HW216824   0.208   1.709   2.512
 5309SOL     OW16825   3.678   4.126   3.543
 5309SOL    HW116826   3.677   4.065   3.622
 5309SOL    HW216827   3.718   4.214   3.570
 5310SOL     OW16828   5.015   2.394   0.741
 5310SOL    HW116829   4.924   2.420   0.707
 5310SOL    HW216830   5.018   2.406   0.840
 5311SOL     OW16831   1.621   5.579   6.776
 5311SOL    HW116832   1.600   5.566   6.679
 5311SOL    HW216833   1.719   5.566   6.791
 5312SOL     OW16834   0.425   3.955   3.067
 5312SOL    HW116835   0.330   3.942   3.096
 5312SOL    HW216836   0.482   3.977   3.146
 5313SOL     OW16837   1.224   6.010   0.412
 5313SOL    HW116838   1.220   6.108   0.396
 5313SOL    HW216839   1.288   5.968   0.347
 5314SOL     OW16840   3.741   5.268   0.929
 5314SOL    HW116841   3.834   5.242   0.902
 5314SOL    HW216842   3.675   5.219   0.871
 5315SOL     OW16843   5.593   2.733   2.077
 5315SOL    HW116844   5.538   2.745   1.994
 5315SOL    HW216845   5.549   2.665   2.136
 5316SOL     OW16846   6.752   4.492   4.039
 5316SOL    HW116847   6.690   4.568   4.017
 5316SOL    HW216848   6.740   4.466   4.135
 5317SOL     OW16849   5.592   6.377   2.656
 5317SOL    HW116850   5.682   6.333   2.652
 5317SOL    HW216851   5.530   6.320   2.710
 5318SOL     OW16852   0.649   2.630   4.562
 5318SOL    HW116853   0.580   2.693   4.527
 5318SOL    HW216854   0.609   2.538   4.568
 5319SOL     OW16855   5.262   0.772   0.714
 5319SOL    HW116856   5.265   0.821   0.626
 5319SOL    HW216857   5.182   0.802   0.765
 5320SOL     OW16858   5.934   2.892   6.225
 5320SOL    HW116859   5.981   2.818   6.273
 5320SOL    HW216860   5.836   2.876   6.226
 5321SOL     OW16861   2.509   5.252   5.796
 5321SOL    HW116862   2.522   5.315   5.719
 5321SOL    HW216863   2.412   5.232   5.808
 5322SOL     OW16864   3.279   6.063   6.927
 5322SOL    HW116865   3.283   6.140   6.864
 5322SOL    HW216866   3.232   5.986   6.884
 5323SOL     OW16867   5.183   2.842   1.492
 5323SOL    HW116868   5.157   2.776   1.422
 5323SOL    HW216869   5.121   2.921   1.488
 5324SOL     OW16870   4.131   3.349   1.421
 5324SOL    HW116871   4.081   3.435   1.430
 5324SOL    HW216872   4.207   3.361   1.358
 5325SOL     OW16873   5.363   5.876   2.533
 5325SOL    HW116874   5.452   5.855   2.493
 5325SOL    HW216875   5.371   5.877   2.633
 5326SOL     OW16876   0.041   6.432   1.797
 5326SOL    HW116877   0.094   6.438   1.713
 5326SOL    HW216878   0.058   6.513   1.853
 5327SOL     OW16879   6.308   0.926   3.907
 5327SOL    HW116880   6.353   0.927   3.818
 5327SOL    HW216881   6.323   0.837   3.950
 5328SOL     OW16882   4.166   4.519   0.277
 5328SOL    HW116883   4.126   4.449   0.337
 5328SOL    HW216884   4.190   4.599   0.332
 5329SOL     OW16885   0.354   5.068   0.003
 5329SOL    HW116886   0.434   5.024   0.044
 5329SOL    HW216887   0.365   5.073   6.925
 5330SOL     OW16888   4.549   4.302   1.250
 5330SOL    HW116889   4.613   4.361   1.299
 5330SOL    HW216890   4.477   4.358   1.208
 5331SOL     OW16891   4.635   3.793   6.837
 5331SOL    HW116892   4.691   3.711   6.838
 5331SOL    HW216893   4.692   3.873   6.821
 5332SOL     OW16894   6.035   3.289   0.362
 5332SOL    HW116895   6.036   3.208   0.303
 5332SOL    HW216896   6.048   3.371   0.307
 5333SOL     OW16897   1.984   1.428   3.973
 5333SOL    HW116898   2.019   1.340   4.006
 5333SOL    HW216899   1.899   1.412   3.921
 5334SOL     OW16900   4.615   4.899   1.929
 5334SOL    HW116901   4.550   4.916   1.855
 5334SOL    HW216902   4.686   4.836   1.897
 5335SOL     OW16903   6.993   4.725   1.547
 5335SOL    HW116904   6.991   4.659   1.471
 5335SOL    HW216905   0.063   4.725   1.588
 5336SOL     OW16906   0.907   3.363   3.960
 5336SOL    HW116907   0.988   3.419   3.978
 5336SOL    HW216908   0.828   3.423   3.945
 5337SOL     OW16909   6.929   4.367   0.551
 5337SOL    HW116910   6.868   4.446   0.542
 5337SOL    HW216911   6.988   4.360   0.470
 5338SOL     OW16912   6.690   3.496   1.018
 5338SOL    HW116913   6.699   3.404   0.981
 5338SOL    HW216914   6.607   3.502   1.074
 5339SOL     OW16915   5.749   2.868   2.977
 5339SOL    HW116916   5.776   2.916   3.060
 5339SOL    HW216917   5.649   2.865   2.971
 5340SOL     OW16918   5.433   2.593   2.270
 5340SOL    HW116919   5.389   2.503   2.268
 5340SOL    HW216920   5.442   2.623   2.365
 5341SOL     OW16921   4.353   5.711   3.783
 5341SOL    HW116922   4.321   5.667   3.867
 5341SOL    HW216923   4.324   5.807   3.783
 5342SOL     OW16924   5.896   6.696   4.071
 5342SOL    HW116925   5.885   6.764   3.998
 5342SOL    HW216926   5.808   6.680   4.116
 5343SOL     OW16927   4.027   3.734   6.160
 5343SOL    HW116928   4.027   3.716   6.258
 5343SOL    HW216929   4.110   3.695   6.119
 5344SOL     OW16930   1.235   1.657   5.844
 5344SOL    HW116931   1.267   1.581   5.787
 5344SOL    HW216932   1.313   1.701   5.887
 5345SOL     OW16933   5.120   2.295   0.421
 5345SOL    HW116934   5.159   2.356   0.490
 5345SOL    HW216935   5.132   2.336   0.330
 5346SOL     OW16936   3.069   5.723   3.814
 5346SOL    HW116937   3.056   5.684   3.723
 5346SOL    HW216938   3.164   5.710   3.842
 5347SOL     OW16939   5.556   1.350   3.615
 5347SOL    HW116940   5.481   1.357   3.681
 5347SOL    HW216941   5.641   1.328   3.663
 5348SOL     OW16942   5.156   1.920   3.094
 5348SOL    HW116943   5.147   1.964   3.005
 5348SOL    HW216944   5.206   1.834   3.084
 5349SOL     OW16945   6.896   3.810   2.693
 5349SOL    HW116946   6.989   3.838   2.718
 5349SOL    HW216947   6.868   3.735   2.753
 5350SOL     OW16948   1.602   6.091   6.965
 5350SOL    HW116949   1.557   6.031   6.899
 5350SOL    HW216950   1.632   6.038   0.023
 5351SOL     OW16951   6.825   5.648   1.882
 5351SOL    HW116952   6.830   5.574   1.815
 5351SOL    HW216953   6.887   5.722   1.856
 5352SOL     OW16954   1.635   3.583   4.856
 5352SOL    HW116955   1.566   3.521   4.819
 5352SOL    HW216956   1.650   3.564   4.953
 5353SOL     OW16957   3.909   5.542   3.700
 5353SOL    HW116958   3.939   5.501   3.614
 5353SOL    HW216959   3.934   5.483   3.777
 5354SOL     OW16960   4.588   5.946   0.932
 5354SOL    HW116961   4.592   5.891   0.849
 5354SOL    HW216962   4.527   6.024   0.917
 5355SOL     OW16963   4.879   4.645   5.321
 5355SOL    HW116964   4.830   4.721   5.364
 5355SOL    HW216965   4.898   4.668   5.225
 5356SOL     OW16966   0.392   5.144   1.375
 5356SOL    HW116967   0.381   5.045   1.366
 5356SOL    HW216968   0.459   5.176   1.307
 5357SOL     OW16969   5.539   4.138   2.466
 5357SOL    HW116970   5.572   4.156   2.373
 5357SOL    HW216971   5.589   4.194   2.531
 5358SOL     OW16972   4.465   2.144   0.555
 5358SOL    HW116973   4.428   2.118   0.644
 5358SOL    HW216974   4.393   2.186   0.500
 5359SOL     OW16975   2.750   1.781   6.431
 5359SOL    HW116976   2.827   1.770   6.368
 5359SOL    HW216977   2.768   1.859   6.491
 5360SOL     OW16978   5.451   4.474   3.487
 5360SOL    HW116979   5.520   4.545   3.475
 5360SOL    HW216980   5.458   4.436   3.579
 5361SOL     OW16981   3.037   5.668   2.039
 5361SOL    HW116982   3.051   5.601   1.966
 5361SOL    HW216983   3.123   5.713   2.061
 5362SOL     OW16984   5.951   0.497   2.064
 5362SOL    HW116985   5.967   0.482   1.967
 5362SOL    HW216986   5.945   0.596   2.082
 5363SOL     OW16987   5.746   5.582   3.508
 5363SOL    HW116988   5.768   5.495   3.463
 5363SOL    HW216989   5.799   5.590   3.592
 5364SOL     OW16990   4.582   1.120   2.978
 5364SOL    HW116991   4.606   1.127   2.881
 5364SOL    HW216992   4.614   1.202   3.026
 5365SOL     OW16993   3.931   3.011   3.911
 5365SOL    HW116994   3.916   2.983   4.005
 5365SOL    HW216995   3.871   2.959   3.850
 5366SOL     OW16996   6.293   6.511   2.144
 5366SOL    HW116997   6.346   6.555   2.072
 5366SOL    HW216998   6.339   6.524   2.232
 5367SOL     OW16999   6.050   6.069   1.620
 5367SOL    HW117000   6.106   5.988   1.601
 5367SOL    HW217001   6.108   6.150   1.618
 5368SOL     OW17002   6.680   5.869   3.663
 5368SOL    HW117003   6.682   5.886   3.761
 5368SOL    HW217004   6.709   5.775   3.644
 5369SOL     OW17005   2.622   5.920   2.335
 5369SOL    HW117006   2.696   5.986   2.346
 5369SOL    HW217007   2.535   5.963   2.358
 5370SOL     OW17008   2.104   3.510   1.461
 5370SOL    HW117009   2.131   3.606   1.464
 5370SOL    HW217010   2.040   3.495   1.386
 5371SOL     OW17011   5.568   5.884   4.623
 5371SOL    HW117012   5.619   5.839   4.696
 5371SOL    HW217013   5.595   5.844   4.535
 5372SOL     OW17014   1.025   0.415   3.161
 5372SOL    HW117015   1.020   0.315   3.156
 5372SOL    HW217016   1.065   0.450   3.076
 5373SOL     OW17017   3.431   0.944   6.790
 5373SOL    HW117018   3.367   0.975   6.860
 5373SOL    HW217019   3.415   0.995   6.705
 5374SOL     OW17020   2.253   4.769   2.464
 5374SOL    HW117021   2.182   4.772   2.394
 5374SOL    HW217022   2.289   4.862   2.477
 5375SOL     OW17023   1.346   5.033   4.093
 5375SOL    HW117024   1.336   5.110   4.156
 5375SOL    HW217025   1.436   5.037   4.050
 5376SOL     OW17026   0.432   0.866   6.147
 5376SOL    HW117027   0.402   0.775   6.119
 5376SOL    HW217028   0.497   0.902   6.080
 5377SOL     OW17029   2.297   0.807   3.111
 5377SOL    HW117030   2.310   0.896   3.155
 5377SOL    HW217031   2.214   0.764   3.147
 5378SOL     OW17032   5.450   1.047   2.086
 5378SOL    HW117033   5.526   1.099   2.046
 5378SOL    HW217034   5.399   1.002   2.013
 5379SOL     OW17035   1.781   2.075   6.404
 5379SOL    HW117036   1.774   1.977   6.423
 5379SOL    HW217037   1.872   2.095   6.367
 5380SOL     OW17038   4.571   6.897   1.186
 5380SOL    HW117039   4.668   6.898   1.162
 5380SOL    HW217040   4.552   6.819   1.245
 5381SOL     OW17041   4.796   6.558   3.930
 5381SOL    HW117042   4.783   6.610   3.846
 5381SOL    HW217043   4.871   6.492   3.918
 5382SOL     OW17044   4.323   1.430   1.970
 5382SOL    HW117045   4.406   1.439   1.915
 5382SOL    HW217046   4.249   1.480   1.925
 5383SOL     OW17047   1.894   2.729   4.813
 5383SOL    HW117048   1.929   2.813   4.856
 5383SOL    HW217049   1.802   2.710   4.846
 5384SOL     OW17050   5.549   5.587   4.432
 5384SOL    HW117051   5.483   5.608   4.505
 5384SOL    HW217052   5.629   5.646   4.441
 5385SOL     OW17053   4.163   2.575   5.582
 5385SOL    HW117054   4.129   2.624   5.502
 5385SOL    HW217055   4.090   2.569   5.650
 5386SOL     OW17056   6.133   4.784   3.841
 5386SOL    HW117057   6.148   4.691   3.807
 5386SOL    HW217058   6.048   4.787   3.893
 5387SOL     OW17059   1.161   0.994   3.194
 5387SOL    HW117060   1.061   0.992   3.196
 5387SOL    HW217061   1.195   0.907   3.157
 5388SOL     OW17062   1.287   6.343   2.308
 5388SOL    HW117063   1.275   6.322   2.405
 5388SOL    HW217064   1.197   6.360   2.266
 5389SOL     OW17065   4.348   2.052   4.159
 5389SOL    HW117066   4.434   2.009   4.131
 5389SOL    HW217067   4.342   2.051   4.259
 5390SOL     OW17068   0.076   2.701   2.985
 5390SOL    HW117069   0.098   2.606   2.961
 5390SOL    HW217070   0.075   2.711   3.085
 5391SOL     OW17071   2.621   3.758   0.609
 5391SOL    HW117072   2.551   3.819   0.646
 5391SOL    HW217073   2.594   3.663   0.623
 5392SOL     OW17074   5.613   1.840   3.438
 5392SOL    HW117075   5.551   1.893   3.380
 5392SOL    HW217076   5.622   1.885   3.526
 5393SOL     OW17077   3.725   1.806   5.229
 5393SOL    HW117078   3.638   1.854   5.216
 5393SOL    HW217079   3.796   1.872   5.255
 5394SOL     OW17080   1.592   1.400   1.161
 5394SOL    HW117081   1.557   1.341   1.234
 5394SOL    HW217082   1.615   1.345   1.081
 5395SOL     OW17083   6.543   1.813   1.108
 5395SOL    HW117084   6.587   1.857   1.030
 5395SOL    HW217085   6.510   1.723   1.082
 5396SOL     OW17086   5.416   4.648   2.216
 5396SOL    HW117087   5.324   4.620   2.188
 5396SOL    HW217088   5.414   4.679   2.311
 5397SOL     OW17089   0.451   1.556   2.666
 5397SOL    HW117090   0.508   1.480   2.634
 5397SOL    HW217091   0.500   1.606   2.738
 5398SOL     OW17092   5.114   2.097   2.888
 5398SOL    HW117093   5.157   2.167   2.831
 5398SOL    HW217094   5.114   2.127   2.983
 5399SOL     OW17095   2.345   0.777   6.412
 5399SOL    HW117096   2.389   0.694   6.447
 5399SOL    HW217097   2.292   0.820   6.484
 5400SOL     OW17098   4.382   3.192   1.704
 5400SOL    HW117099   4.457   3.135   1.737
 5400SOL    HW217100   4.404   3.228   1.613
 5401SOL     OW17101   5.778   3.502   1.403
 5401SOL    HW117102   5.778   3.424   1.340
 5401SOL    HW217103   5.685   3.535   1.415
 5402SOL     OW17104   1.331   6.271   1.498
 5402SOL    HW117105   1.292   6.223   1.577
 5402SOL    HW217106   1.334   6.369   1.517
 5403SOL     OW17107   4.905   2.871   6.950
 5403SOL    HW117108   4.960   2.788   6.955
 5403SOL    HW217109   4.961   2.950   6.977
 5404SOL     OW17110   6.866   1.440   0.508
 5404SOL    HW117111   6.840   1.460   0.603
 5404SOL    HW217112   6.937   1.370   0.507
 5405SOL     OW17113   6.251   5.127   0.090
 5405SOL    HW117114   6.249   5.027   0.083
 5405SOL    HW217115   6.163   5.164   0.061
 5406SOL     OW17116   2.428   0.378   4.866
 5406SOL    HW117117   2.482   0.369   4.950
 5406SOL    HW217118   2.419   0.289   4.822
 5407SOL     OW17119   1.673   6.811   2.920
 5407SOL    HW117120   1.635   6.904   2.926
 5407SOL    HW217121   1.599   6.745   2.912
 5408SOL     OW17122   3.440   2.086   4.171
 5408SOL    HW117123   3.529   2.119   4.143
 5408SOL    HW217124   3.431   1.989   4.147
 5409SOL     OW17125   1.305   2.671   0.996
 5409SOL    HW117126   1.238   2.725   1.047
 5409SOL    HW217127   1.294   2.687   0.898
 5410SOL     OW17128   1.341   2.640   0.491
 5410SOL    HW117129   1.416   2.575   0.500
 5410SOL    HW217130   1.272   2.603   0.428
 5411SOL     OW17131   3.126   5.149   6.861
 5411SOL    HW117132   3.129   5.049   6.867
 5411SOL    HW217133   3.169   5.179   6.776
 5412SOL     OW17134   0.063   1.816   6.214
 5412SOL    HW117135   0.124   1.884   6.252
 5412SOL    HW217136   7.005   1.861   6.171
 5413SOL     OW17137   6.890   6.373   5.089
 5413SOL    HW117138   6.848   6.319   5.163
 5413SOL    HW217139   6.846   6.351   5.003
 5414SOL     OW17140   5.605   4.149   4.961
 5414SOL    HW117141   5.695   4.139   5.004
 5414SOL    HW217142   5.570   4.058   4.937
 5415SOL     OW17143   4.348   0.316   0.084
 5415SOL    HW117144   4.360   0.266   7.019
 5415SOL    HW217145   4.289   0.264   0.146
 5416SOL     OW17146   3.023   5.667   6.613
 5416SOL    HW117147   3.090   5.703   6.678
 5416SOL    HW217148   3.024   5.567   6.615
 5417SOL     OW17149   4.660   6.315   4.111
 5417SOL    HW117150   4.598   6.354   4.178
 5417SOL    HW217151   4.674   6.380   4.036
 5418SOL     OW17152   6.242   3.662   4.278
 5418SOL    HW117153   6.277   3.577   4.241
 5418SOL    HW217154   6.189   3.643   4.361
 5419SOL     OW17155   4.862   6.785   6.512
 5419SOL    HW117156   4.901   6.698   6.541
 5419SOL    HW217157   4.772   6.769   6.471
 5420SOL     OW17158   1.386   1.000   1.759
 5420SOL    HW117159   1.416   1.030   1.849
 5420SOL    HW217160   1.404   0.903   1.748
 5421SOL     OW17161   4.133   4.670   1.753
 5421SOL    HW117162   4.108   4.574   1.740
 5421SOL    HW217163   4.187   4.679   1.837
 5422SOL     OW17164   2.845   5.557   3.823
 5422SOL    HW117165   2.757   5.590   3.789
 5422SOL    HW217166   2.918   5.620   3.795
 5423SOL     OW17167   5.532   5.976   2.000
 5423SOL    HW117168   5.544   6.063   1.952
 5423SOL    HW217169   5.551   5.901   1.937
 5424SOL     OW17170   4.210   4.131   5.529
 5424SOL    HW117171   4.167   4.059   5.476
 5424SOL    HW217172   4.158   4.145   5.614
 5425SOL     OW17173   1.146   4.011   6.036
 5425SOL    HW117174   1.222   3.963   5.993
 5425SOL    HW217175   1.098   3.949   6.098
 5426SOL     OW17176   5.583   5.418   1.338
 5426SOL    HW117177   5.577   5.473   1.255
 5426SOL    HW217178   5.494   5.375   1.356
 5427SOL     OW17179   4.902   1.941   6.533
 5427SOL    HW117180   4.880   2.038   6.541
 5427SOL    HW217181   4.967   1.915   6.605
 5428SOL     OW17182   6.396   5.945   3.077
 5428SOL    HW117183   6.416   5.935   3.174
 5428SOL    HW217184   6.456   6.015   3.037
 5429SOL     OW17185   3.315   0.096   4.596
 5429SOL    HW117186   3.245   0.165   4.611
 5429SOL    HW217187   3.368   0.084   4.680
 5430SOL     OW17188   2.498   3.624   5.755
 5430SOL    HW117189   2.591   3.648   5.726
 5430SOL    HW217190   2.439   3.619   5.675
 5431SOL     OW17191   3.226   4.271   0.050
 5431SOL    HW117192   3.308   4.328   0.048
 5431SOL    HW217193   3.238   4.195   7.006
 5432SOL     OW17194   6.507   5.267   0.053
 5432SOL    HW117195   6.419   5.218   0.054
 5432SOL    HW217196   6.538   5.283   0.147
 5433SOL     OW17197   1.531   0.449   1.553
 5433SOL    HW117198   1.629   0.436   1.544
 5433SOL    HW217199   1.489   0.454   1.462
 5434SOL     OW17200   6.130   0.190   4.944
 5434SOL    HW117201   6.037   0.168   4.912
 5434SOL    HW217202   6.145   0.288   4.935
 5435SOL     OW17203   6.875   4.343   0.869
 5435SOL    HW117204   6.927   4.273   0.916
 5435SOL    HW217205   6.920   4.367   0.783
 5436SOL     OW17206   1.125   5.257   2.707
 5436SOL    HW117207   1.156   5.351   2.691
 5436SOL    HW217208   1.098   5.247   2.803
 5437SOL     OW17209   3.699   5.550   1.299
 5437SOL    HW117210   3.679   5.565   1.202
 5437SOL    HW217211   3.614   5.553   1.351
 5438SOL     OW17212   4.666   5.056   2.619
 5438SOL    HW117213   4.764   5.042   2.605
 5438SOL    HW217214   4.627   5.100   2.538
 5439SOL     OW17215   1.189   4.625   1.869
 5439SOL    HW117216   1.094   4.596   1.872
 5439SOL    HW217217   1.238   4.588   1.948
 5440SOL     OW17218   6.494   6.642   3.533
 5440SOL    HW117219   6.565   6.692   3.580
 5440SOL    HW217220   6.404   6.672   3.564
 5441SOL     OW17221   5.619   2.866   3.866
 5441SOL    HW117222   5.603   2.878   3.964
 5441SOL    HW217223   5.632   2.955   3.824
 5442SOL     OW17224   4.211   0.431   6.005
 5442SOL    HW117225   4.200   0.433   5.906
 5442SOL    HW217226   4.134   0.479   6.049
 5443SOL     OW17227   4.219   0.700   4.031
 5443SOL    HW117228   4.198   0.670   4.124
 5443SOL    HW217229   4.222   0.621   3.970
 5444SOL     OW17230   6.381   0.926   4.785
 5444SOL    HW117231   6.376   0.827   4.770
 5444SOL    HW217232   6.289   0.962   4.802
 5445SOL     OW17233   5.718   5.892   4.358
 5445SOL    HW117234   5.768   5.830   4.298
 5445SOL    HW217235   5.775   5.971   4.379
 5446SOL     OW17236   0.119   4.274   6.076
 5446SOL    HW117237   0.140   4.335   6.000
 5446SOL    HW217238   0.160   4.184   6.059
 5447SOL     OW17239   1.274   2.328   0.951
 5447SOL    HW117240   1.331   2.408   0.971
 5447SOL    HW217241   1.235   2.293   1.037
 5448SOL     OW17242   4.352   5.214   2.968
 5448SOL    HW117243   4.418   5.154   2.923
 5448SOL    HW217244   4.263   5.204   2.923
 5449SOL     OW17245   3.067   1.376   1.666
 5449SOL    HW117246   2.989   1.369   1.729
 5449SOL    HW217247   3.125   1.295   1.676
 5450SOL     OW17248   4.385   5.589   1.804
 5450SOL    HW117249   4.480   5.584   1.773
 5450SOL    HW217250   4.325   5.594   1.724
 5451SOL     OW17251   0.048   0.146   2.713
 5451SOL    HW117252   0.080   0.074   2.652
 5451SOL    HW217253   6.980   0.120   2.751
 5452SOL     OW17254   2.327   4.155   1.987
 5452SOL    HW117255   2.387   4.218   2.037
 5452SOL    HW217256   2.241   4.146   2.037
 5453SOL     OW17257   5.711   4.100   3.196
 5453SOL    HW117258   5.730   4.093   3.098
 5453SOL    HW217259   5.634   4.042   3.219
 5454SOL     OW17260   5.189   4.855   2.812
 5454SOL    HW117261   5.279   4.812   2.812
 5454SOL    HW217262   5.126   4.800   2.756
 5455SOL     OW17263   1.773   1.406   3.792
 5455SOL    HW117264   1.722   1.336   3.841
 5455SOL    HW217265   1.710   1.475   3.756
 5456SOL     OW17266   6.355   1.257   0.426
 5456SOL    HW117267   6.393   1.287   0.514
 5456SOL    HW217268   6.420   1.197   0.380
 5457SOL     OW17269   5.812   1.677   6.636
 5457SOL    HW117270   5.764   1.614   6.698
 5457SOL    HW217271   5.746   1.741   6.597
 5458SOL     OW17272   5.960   3.741   6.976
 5458SOL    HW117273   5.940   3.831   7.014
 5458SOL    HW217274   6.043   3.746   6.920
 5459SOL     OW17275   1.611   3.876   5.492
 5459SOL    HW117276   1.530   3.856   5.437
 5459SOL    HW217277   1.615   3.974   5.511
 5460SOL     OW17278   1.781   0.173   0.969
 5460SOL    HW117279   1.733   0.218   0.893
 5460SOL    HW217280   1.783   0.075   0.954
 5461SOL     OW17281   6.781   1.187   5.489
 5461SOL    HW117282   6.806   1.108   5.432
 5461SOL    HW217283   6.839   1.189   5.570
 5462SOL     OW17284   5.068   4.929   0.018
 5462SOL    HW117285   5.062   4.948   6.941
 5462SOL    HW217286   5.155   4.882   0.037
 5463SOL     OW17287   1.304   3.144   6.933
 5463SOL    HW117288   1.233   3.206   6.900
 5463SOL    HW217289   1.382   3.146   6.869
 5464SOL     OW17290   0.427   6.122   5.896
 5464SOL    HW117291   0.397   6.027   5.894
 5464SOL    HW217292   0.349   6.181   5.916
 5465SOL     OW17293   6.583   6.378   3.877
 5465SOL    HW117294   6.637   6.460   3.896
 5465SOL    HW217295   6.526   6.357   3.956
 5466SOL     OW17296   5.923   2.104   5.842
 5466SOL    HW117297   5.844   2.151   5.803
 5466SOL    HW217298   5.917   2.106   5.942
 5467SOL     OW17299   5.242   3.338   3.813
 5467SOL    HW117300   5.235   3.380   3.723
 5467SOL    HW217301   5.307   3.262   3.810
 5468SOL     OW17302   0.512   1.717   1.576
 5468SOL    HW117303   0.596   1.735   1.526
 5468SOL    HW217304   0.491   1.619   1.573
 5469SOL     OW17305   2.741   0.491   4.903
 5469SOL    HW117306   2.687   0.572   4.925
 5469SOL    HW217307   2.700   0.410   4.945
 5470SOL     OW17308   3.623   5.854   4.019
 5470SOL    HW117309   3.532   5.891   4.038
 5470SOL    HW217310   3.619   5.795   3.938
 5471SOL     OW17311   4.946   0.725   3.334
 5471SOL    HW117312   4.926   0.783   3.255
 5471SOL    HW217313   5.045   0.720   3.347
 5472SOL     OW17314   2.507   2.197   7.014
 5472SOL    HW117315   2.484   2.201   6.916
 5472SOL    HW217316   2.481   2.282   0.037
 5473SOL     OW17317   2.910   4.083   1.473
 5473SOL    HW117318   2.937   4.144   1.548
 5473SOL    HW217319   2.844   4.016   1.508
 5474SOL     OW17320   0.698   5.482   3.782
 5474SOL    HW117321   0.757   5.541   3.838
 5474SOL    HW217322   0.659   5.411   3.840
 5475SOL     OW17323   6.899   1.775   5.445
 5475SOL    HW117324   6.981   1.763   5.388
 5475SOL    HW217325   6.820   1.733   5.399
 5476SOL     OW17326   2.529   6.758   6.123
 5476SOL    HW117327   2.480   6.674   6.100
 5476SOL    HW217328   2.463   6.832   6.136
 5477SOL     OW17329   1.878   4.806   3.611
 5477SOL    HW117330   1.932   4.878   3.568
 5477SOL    HW217331   1.923   4.778   3.696
 5478SOL     OW17332   5.763   4.865   5.636
 5478SOL    HW117333   5.672   4.876   5.595
 5478SOL    HW217334   5.832   4.903   5.574
 5479SOL     OW17335   3.527   1.545   4.717
 5479SOL    HW117336   3.583   1.624   4.742
 5479SOL    HW217337   3.430   1.571   4.724
 5480SOL     OW17338   0.021   3.725   4.557
 5480SOL    HW117339   0.115   3.733   4.589
 5480SOL    HW217340   6.982   3.782   4.613
 5481SOL     OW17341   4.924   0.829   6.639
 5481SOL    HW117342   4.878   0.771   6.571
 5481SOL    HW217343   4.910   0.925   6.615
 5482SOL     OW17344   4.968   3.015   1.443
 5482SOL    HW117345   4.870   2.996   1.439
 5482SOL    HW217346   4.983   3.114   1.446
 5483SOL     OW17347   0.157   3.506   5.797
 5483SOL    HW117348   0.238   3.475   5.848
 5483SOL    HW217349   0.126   3.433   5.736
 5484SOL     OW17350   6.200   6.235   3.703
 5484SOL    HW117351   6.289   6.265   3.738
 5484SOL    HW217352   6.172   6.294   3.627
 5485SOL     OW17353   3.673   6.754   5.367
 5485SOL    HW117354   3.652   6.834   5.424
 5485SOL    HW217355   3.588   6.710   5.338
 5486SOL     OW17356   0.505   0.578   3.448
 5486SOL    HW117357   0.503   0.479   3.432
 5486SOL    HW217358   0.540   0.624   3.367
 5487SOL     OW17359   6.113   4.522   0.269
 5487SOL    HW117360   6.049   4.462   0.221
 5487SOL    HW217361   6.176   4.563   0.203
 5488SOL     OW17362   5.129   2.185   6.883
 5488SOL    HW117363   5.041   2.227   6.859
 5488SOL    HW217364   5.158   2.124   6.809
 5489SOL     OW17365   1.286   4.200   2.973
 5489SOL    HW117366   1.219   4.247   2.916
 5489SOL    HW217367   1.360   4.166   2.915
 5490SOL     OW17368   2.488   2.140   0.681
 5490SOL    HW117369   2.567   2.172   0.628
 5490SOL    HW217370   2.454   2.214   0.739
 5491SOL     OW17371   1.380   4.764   0.757
 5491SOL    HW117372   1.395   4.782   0.660
 5491SOL    HW217373   1.286   4.732   0.771
 5492SOL     OW17374   0.868   1.306   6.346
 5492SOL    HW117375   0.786   1.252   6.364
 5492SOL    HW217376   0.918   1.320   6.432
 5493SOL     OW17377   3.555   3.473   6.621
 5493SOL    HW117378   3.473   3.481   6.678
 5493SOL    HW217379   3.547   3.393   6.562
 5494SOL     OW17380   5.782   3.208   1.687
 5494SOL    HW117381   5.684   3.188   1.679
 5494SOL    HW217382   5.824   3.144   1.751
 5495SOL     OW17383   4.096   3.428   2.626
 5495SOL    HW117384   4.041   3.348   2.652
 5495SOL    HW217385   4.133   3.471   2.708
 5496SOL     OW17386   3.537   5.854   1.542
 5496SOL    HW117387   3.444   5.850   1.578
 5496SOL    HW217388   3.535   5.838   1.443
 5497SOL     OW17389   6.914   1.170   2.001
 5497SOL    HW117390   6.938   1.257   1.957
 5497SOL    HW217391   6.978   1.099   1.970
 5498SOL     OW17392   4.798   1.374   5.786
 5498SOL    HW117393   4.869   1.362   5.855
 5498SOL    HW217394   4.752   1.462   5.801
 5499SOL     OW17395   0.035   1.734   3.405
 5499SOL    HW117396   0.066   1.679   3.482
 5499SOL    HW217397   6.981   1.795   3.435
 5500SOL     OW17398   2.100   6.152   0.327
 5500SOL    HW117399   2.085   6.199   0.414
 5500SOL    HW217400   2.060   6.061   0.330
 5501SOL     OW17401   2.769   0.630   1.924
 5501SOL    HW117402   2.807   0.545   1.890
 5501SOL    HW217403   2.700   0.611   1.994
 5502SOL     OW17404   6.228   4.093   5.644
 5502SOL    HW117405   6.150   4.144   5.607
 5502SOL    HW217406   6.203   3.997   5.654
 5503SOL     OW17407   1.173   4.858   3.495
 5503SOL    HW117408   1.122   4.929   3.544
 5503SOL    HW217409   1.230   4.808   3.560
 5504SOL     OW17410   3.364   1.893   4.550
 5504SOL    HW117411   3.326   1.820   4.606
 5504SOL    HW217412   3.421   1.953   4.607
 5505SOL     OW17413   3.219   5.469   5.808
 5505SOL    HW117414   3.166   5.404   5.753
 5505SOL    HW217415   3.260   5.538   5.749
 5506SOL     OW17416   5.932   0.717   5.888
 5506SOL    HW117417   5.898   0.770   5.810
 5506SOL    HW217418   5.869   0.643   5.908
 5507SOL     OW17419   2.490   6.762   4.146
 5507SOL    HW117420   2.525   6.796   4.059
 5507SOL    HW217421   2.555   6.783   4.219
 5508SOL     OW17422   2.821   0.428   6.366
 5508SOL    HW117423   2.790   0.489   6.439
 5508SOL    HW217424   2.813   0.474   6.278
 5509SOL     OW17425   5.918   6.652   0.100
 5509SOL    HW117426   5.925   6.749   0.124
 5509SOL    HW217427   5.984   6.631   0.028
 5510SOL     OW17428   5.122   0.306   5.783
 5510SOL    HW117429   5.213   0.282   5.815
 5510SOL    HW217430   5.117   0.296   5.684
 5511SOL     OW17431   0.881   1.154   2.437
 5511SOL    HW117432   0.807   1.216   2.410
 5511SOL    HW217433   0.855   1.060   2.416
 5512SOL     OW17434   1.223   0.923   6.803
 5512SOL    HW117435   1.260   0.955   6.715
 5512SOL    HW217436   1.280   0.849   6.838
 5513SOL     OW17437   4.856   3.957   4.700
 5513SOL    HW117438   4.851   3.885   4.632
 5513SOL    HW217439   4.939   4.011   4.686
 5514SOL     OW17440   5.177   5.008   1.809
 5514SOL    HW117441   5.115   4.947   1.759
 5514SOL    HW217442   5.192   4.973   1.901
 5515SOL     OW17443   6.548   2.219   1.854
 5515SOL    HW117444   6.496   2.219   1.769
 5515SOL    HW217445   6.556   2.312   1.890
 5516SOL     OW17446   1.128   3.711   6.805
 5516SOL    HW117447   1.135   3.692   6.708
 5516SOL    HW217448   1.031   3.709   6.832
 5517SOL     OW17449   2.727   1.802   1.026
 5517SOL    HW117450   2.812   1.855   1.032
 5517SOL    HW217451   2.656   1.859   0.984
 5518SOL     OW17452   5.980   5.125   5.221
 5518SOL    HW117453   6.020   5.089   5.137
 5518SOL    HW217454   5.916   5.198   5.199
 5519SOL     OW17455   5.925   3.710   3.608
 5519SOL    HW117456   5.980   3.734   3.688
 5519SOL    HW217457   5.931   3.611   3.592
 5520SOL     OW17458   0.703   3.959   2.130
 5520SOL    HW117459   0.684   3.873   2.179
 5520SOL    HW217460   0.677   3.949   2.034
 5521SOL     OW17461   5.888   6.107   1.207
 5521SOL    HW117462   5.987   6.091   1.204
 5521SOL    HW217463   5.864   6.152   1.293
 5522SOL     OW17464   2.441   3.520   1.607
 5522SOL    HW117465   2.394   3.590   1.553
 5522SOL    HW217466   2.398   3.514   1.698
 5523SOL     OW17467   3.482   0.056   2.549
 5523SOL    HW117468   3.406   7.017   2.525
 5523SOL    HW217469   3.502   0.048   2.647
 5524SOL     OW17470   0.550   4.936   5.871
 5524SOL    HW117471   0.554   5.002   5.796
 5524SOL    HW217472   0.521   4.984   5.955
 5525SOL     OW17473   6.606   5.241   6.254
 5525SOL    HW117474   6.609   5.215   6.351
 5525SOL    HW217475   6.567   5.165   6.201
 5526SOL     OW17476   6.352   3.440   4.160
 5526SOL    HW117477   6.331   3.368   4.226
 5526SOL    HW217478   6.449   3.463   4.165
 5527SOL     OW17479   1.839   2.836   1.685
 5527SOL    HW117480   1.858   2.767   1.755
 5527SOL    HW217481   1.780   2.796   1.615
 5528SOL     OW17482   0.518   2.376   4.429
 5528SOL    HW117483   0.599   2.402   4.376
 5528SOL    HW217484   0.442   2.357   4.366
 5529SOL     OW17485   2.665   0.824   4.462
 5529SOL    HW117486   2.749   0.835   4.408
 5529SOL    HW217487   2.617   0.742   4.431
 5530SOL     OW17488   0.793   1.974   0.509
 5530SOL    HW117489   0.812   1.981   0.607
 5530SOL    HW217490   0.744   2.056   0.479
 5531SOL     OW17491   4.210   2.934   5.444
 5531SOL    HW117492   4.129   2.948   5.385
 5531SOL    HW217493   4.182   2.891   5.529
 5532SOL     OW17494   2.405   1.737   0.486
 5532SOL    HW117495   2.454   1.742   0.399
 5532SOL    HW217496   2.445   1.664   0.542
 5533SOL     OW17497   3.978   0.569   2.348
 5533SOL    HW117498   4.062   0.575   2.403
 5533SOL    HW217499   3.994   0.613   2.259
 5534SOL     OW17500   0.949   3.930   6.659
 5534SOL    HW117501   1.010   3.915   6.581
 5534SOL    HW217502   0.992   3.993   6.724
 5535SOL     OW17503   6.396   2.908   3.337
 5535SOL    HW117504   6.341   2.965   3.397
 5535SOL    HW217505   6.435   2.964   3.264
 5536SOL     OW17506   2.040   0.770   4.341
 5536SOL    HW117507   2.082   0.690   4.299
 5536SOL    HW217508   2.111   0.826   4.385
 5537SOL     OW17509   4.184   0.444   5.201
 5537SOL    HW117510   4.132   0.480   5.122
 5537SOL    HW217511   4.281   0.441   5.178
 5538SOL     OW17512   3.868   1.590   6.270
 5538SOL    HW117513   3.882   1.645   6.352
 5538SOL    HW217514   3.783   1.539   6.278
 5539SOL     OW17515   2.342   0.676   2.046
 5539SOL    HW117516   2.244   0.696   2.038
 5539SOL    HW217517   2.392   0.761   2.061
 5540SOL     OW17518   4.976   2.573   0.013
 5540SOL    HW117519   4.991   2.493   0.071
 5540SOL    HW217520   4.988   2.548   6.937
 5541SOL     OW17521   4.924   3.464   6.023
 5541SOL    HW117522   5.012   3.429   5.992
 5541SOL    HW217523   4.898   3.419   6.109
 5542SOL     OW17524   5.550   4.435   6.262
 5542SOL    HW117525   5.567   4.458   6.358
 5542SOL    HW217526   5.556   4.335   6.251
 5543SOL     OW17527   2.059   6.903   0.515
 5543SOL    HW117528   2.089   6.947   0.600
 5543SOL    HW217529   1.969   6.862   0.529
 5544SOL     OW17530   4.616   5.272   6.026
 5544SOL    HW117531   4.668   5.354   6.001
 5544SOL    HW217532   4.642   5.196   5.966
 5545SOL     OW17533   4.224   0.792   2.678
 5545SOL    HW117534   4.213   0.864   2.746
 5545SOL    HW217535   4.144   0.733   2.679
 5546SOL     OW17536   0.363   6.177   4.903
 5546SOL    HW117537   0.356   6.267   4.858
 5546SOL    HW217538   0.358   6.105   4.834
 5547SOL     OW17539   4.872   1.903   5.914
 5547SOL    HW117540   4.845   1.874   5.822
 5547SOL    HW217541   4.855   1.829   5.979
 5548SOL     OW17542   6.934   3.532   5.528
 5548SOL    HW117543   6.960   3.573   5.615
 5548SOL    HW217544   6.840   3.497   5.534
 5549SOL     OW17545   4.148   3.712   1.810
 5549SOL    HW117546   4.078   3.652   1.772
 5549SOL    HW217547   4.233   3.702   1.759
 5550SOL     OW17548   2.007   4.518   2.957
 5550SOL    HW117549   2.078   4.450   2.973
 5550SOL    HW217550   1.977   4.514   2.862
 5551SOL     OW17551   2.243   5.572   2.858
 5551SOL    HW117552   2.287   5.609   2.777
 5551SOL    HW217553   2.311   5.553   2.928
 5552SOL     OW17554   6.717   6.584   6.208
 5552SOL    HW117555   6.667   6.668   6.188
 5552SOL    HW217556   6.653   6.511   6.228
 5553SOL     OW17557   4.501   0.490   6.568
 5553SOL    HW117558   4.502   0.390   6.555
 5553SOL    HW217559   4.428   0.529   6.512
 5554SOL     OW17560   4.862   2.886   0.819
 5554SOL    HW117561   4.957   2.906   0.845
 5554SOL    HW217562   4.803   2.962   0.847
 5555SOL     OW17563   0.650   3.896   3.280
 5555SOL    HW117564   0.599   3.811   3.279
 5555SOL    HW217565   0.743   3.880   3.245
 5556SOL     OW17566   5.644   0.838   4.192
 5556SOL    HW117567   5.588   0.898   4.250
 5556SOL    HW217568   5.602   0.747   4.188
 5557SOL     OW17569   3.237   5.972   1.632
 5557SOL    HW117570   3.161   5.988   1.696
 5557SOL    HW217571   3.220   5.888   1.581
 5558SOL     OW17572   3.498   4.455   0.300
 5558SOL    HW117573   3.492   4.510   0.384
 5558SOL    HW217574   3.459   4.507   0.224
 5559SOL     OW17575   1.187   0.441   2.909
 5559SOL    HW117576   1.113   0.483   2.855
 5559SOL    HW217577   1.250   0.393   2.847
 5560SOL     OW17578   6.755   5.910   2.869
 5560SOL    HW117579   6.741   5.916   2.770
 5560SOL    HW217580   6.837   5.857   2.888
 5561SOL     OW17581   2.898   0.911   4.862
 5561SOL    HW117582   2.859   1.001   4.839
 5561SOL    HW217583   2.832   0.840   4.838
 5562SOL     OW17584   4.406   4.450   0.021
 5562SOL    HW117585   4.354   4.494   0.094
 5562SOL    HW217586   4.345   4.392   6.987
 5563SOL     OW17587   3.023   4.842   2.878
 5563SOL    HW117588   3.011   4.743   2.889
 5563SOL    HW217589   3.003   4.888   2.965
 5564SOL     OW17590   4.993   6.664   5.800
 5564SOL    HW117591   4.983   6.730   5.874
 5564SOL    HW217592   4.924   6.681   5.730
 5565SOL     OW17593   4.115   3.713   0.010
 5565SOL    HW117594   4.150   3.755   0.094
 5565SOL    HW217595   4.115   3.614   0.020
 5566SOL     OW17596   1.609   4.207   0.506
 5566SOL    HW117597   1.690   4.162   0.470
 5566SOL    HW217598   1.545   4.138   0.541
 5567SOL     OW17599   6.928   3.309   1.899
 5567SOL    HW117600   6.873   3.373   1.953
 5567SOL    HW217601   6.871   3.266   1.829
 5568SOL     OW17602   4.563   6.599   3.073
 5568SOL    HW117603   4.510   6.634   2.995
 5568SOL    HW217604   4.501   6.560   3.141
 5569SOL     OW17605   2.638   1.857   3.480
 5569SOL    HW117606   2.665   1.870   3.575
 5569SOL    HW217607   2.718   1.833   3.425
 5570SOL     OW17608   5.950   3.426   3.580
 5570SOL    HW117609   6.031   3.376   3.550
 5570SOL    HW217610   5.869   3.385   3.538
 5571SOL     OW17611   6.456   4.808   1.813
 5571SOL    HW117612   6.530   4.860   1.770
 5571SOL    HW217613   6.494   4.736   1.871
 5572SOL     OW17614   1.641   4.349   4.953
 5572SOL    HW117615   1.634   4.415   4.878
 5572SOL    HW217616   1.732   4.355   4.994
 5573SOL     OW17617   1.527   4.945   5.210
 5573SOL    HW117618   1.566   4.971   5.121
 5573SOL    HW217619   1.577   4.867   5.247
 5574SOL     OW17620   0.813   3.224   6.602
 5574SOL    HW117621   0.888   3.251   6.662
 5574SOL    HW217622   0.838   3.241   6.507
 5575SOL     OW17623   0.407   0.078   1.536
 5575SOL    HW117624   0.450   0.029   1.460
 5575SOL    HW217625   0.476   0.131   1.585
 5576SOL     OW17626   1.474   4.330   3.147
 5576SOL    HW117627   1.393   4.286   3.107
 5576SOL    HW217628   1.549   4.327   3.082
 5577SOL     OW17629   1.777   3.254   0.357
 5577SOL    HW117630   1.876   3.241   0.351
 5577SOL    HW217631   1.743   3.216   0.443
 5578SOL     OW17632   3.714   4.071   2.362
 5578SOL    HW117633   3.779   4.003   2.327
 5578SOL    HW217634   3.724   4.078   2.461
 5579SOL     OW17635   0.495   3.325   1.111
 5579SOL    HW117636   0.483   3.229   1.084
 5579SOL    HW217637   0.414   3.356   1.161
 5580SOL     OW17638   4.775   1.788   6.346
 5580SOL    HW117639   4.836   1.825   6.416
 5580SOL    HW217640   4.761   1.857   6.274
 5581SOL     OW17641   1.230   1.587   1.390
 5581SOL    HW117642   1.153   1.649   1.373
 5581SOL    HW217643   1.242   1.574   1.488
 5582SOL     OW17644   2.506   4.249   6.652
 5582SOL    HW117645   2.418   4.281   6.686
 5582SOL    HW217646   2.552   4.196   6.723
 5583SOL     OW17647   4.456   0.447   2.561
 5583SOL    HW117648   4.480   0.371   2.500
 5583SOL    HW217649   4.479   0.533   2.517
 5584SOL     OW17650   6.512   4.062   4.398
 5584SOL    HW117651   6.560   4.117   4.329
 5584SOL    HW217652   6.482   3.976   4.357
 5585SOL     OW17653   4.823   5.259   3.187
 5585SOL    HW117654   4.902   5.204   3.214
 5585SOL    HW217655   4.838   5.354   3.214
 5586SOL     OW17656   6.629   3.537   5.554
 5586SOL    HW117657   6.589   3.446   5.549
 5586SOL    HW217658   6.600   3.583   5.638
 5587SOL     OW17659   4.742   0.061   0.168
 5587SOL    HW117660   4.810   0.133   0.159
 5587SOL    HW217661   4.661   0.098   0.213
 5588SOL     OW17662   2.417   6.415   2.493
 5588SOL    HW117663   2.490   6.347   2.487
 5588SOL    HW217664   2.345   6.382   2.554
 5589SOL     OW17665   6.505   4.566   6.554
 5589SOL    HW117666   6.604   4.553   6.549
 5589SOL    HW217667   6.480   4.601   6.645
 5590SOL     OW17668   5.850   6.295   3.657
 5590SOL    HW117669   5.822   6.391   3.665
 5590SOL    HW217670   5.771   6.236   3.669
 5591SOL     OW17671   0.543   1.929   1.270
 5591SOL    HW117672   0.457   1.965   1.303
 5591SOL    HW217673   0.527   1.872   1.189
 5592SOL     OW17674   1.566   5.338   3.548
 5592SOL    HW117675   1.581   5.307   3.642
 5592SOL    HW217676   1.468   5.347   3.531
 5593SOL     OW17677   0.115   2.940   6.613
 5593SOL    HW117678   0.090   2.975   6.703
 5593SOL    HW217679   0.042   2.881   6.579
 5594SOL     OW17680   4.842   0.504   4.846
 5594SOL    HW117681   4.881   0.423   4.890
 5594SOL    HW217682   4.752   0.482   4.808
 5595SOL     OW17683   1.469   1.581   5.113
 5595SOL    HW117684   1.476   1.481   5.114
 5595SOL    HW217685   1.373   1.608   5.121
 5596SOL     OW17686   4.472   6.462   2.776
 5596SOL    HW117687   4.558   6.438   2.820
 5596SOL    HW217688   4.477   6.438   2.679
 5597SOL     OW17689   5.105   2.202   4.435
 5597SOL    HW117690   5.027   2.245   4.480
 5597SOL    HW217691   5.102   2.222   4.337
 5598SOL     OW17692   4.899   3.496   3.715
 5598SOL    HW117693   4.858   3.542   3.793
 5598SOL    HW217694   4.985   3.541   3.690
 5599SOL     OW17695   1.330   0.852   3.977
 5599SOL    HW117696   1.279   0.812   3.900
 5599SOL    HW217697   1.343   0.782   4.047
 5600SOL     OW17698   0.862   2.149   2.514
 5600SOL    HW117699   0.863   2.082   2.589
 5600SOL    HW217700   0.929   2.122   2.444
 5601SOL     OW17701   2.793   0.105   5.869
 5601SOL    HW117702   2.731   0.138   5.941
 5601SOL    HW217703   2.803   0.175   5.799
 5602SOL     OW17704   0.693   1.526   0.817
 5602SOL    HW117705   0.694   1.435   0.859
 5602SOL    HW217706   0.600   1.563   0.821
 5603SOL     OW17707   4.894   2.287   6.830
 5603SOL    HW117708   4.810   2.239   6.855
 5603SOL    HW217709   4.877   2.385   6.826
 5604SOL     OW17710   6.640   2.062   5.788
 5604SOL    HW117711   6.567   1.996   5.772
 5604SOL    HW217712   6.615   2.150   5.748
 5605SOL     OW17713   0.911   0.780   4.578
 5605SOL    HW117714   0.981   0.777   4.649
 5605SOL    HW217715   0.934   0.714   4.506
 5606SOL     OW17716   5.538   6.531   1.197
 5606SOL    HW117717   5.531   6.453   1.135
 5606SOL    HW217718   5.620   6.522   1.254
 5607SOL     OW17719   5.638   0.360   2.120
 5607SOL    HW117720   5.616   0.270   2.158
 5607SOL    HW217721   5.644   0.426   2.195
 5608SOL     OW17722   4.288   0.138   4.856
 5608SOL    HW117723   4.223   0.172   4.925
 5608SOL    HW217724   4.291   0.038   4.859
 5609SOL     OW17725   2.658   4.986   0.658
 5609SOL    HW117726   2.583   4.928   0.687
 5609SOL    HW217727   2.653   5.074   0.706
 5610SOL     OW17728   4.778   6.930   0.716
 5610SOL    HW117729   4.815   6.940   0.624
 5610SOL    HW217730   4.777   7.020   0.762
 5611SOL     OW17731   1.647   5.014   2.370
 5611SOL    HW117732   1.742   5.020   2.400
 5611SOL    HW217733   1.632   4.925   2.326
 5612SOL     OW17734   3.871   2.100   6.678
 5612SOL    HW117735   3.868   2.048   6.763
 5612SOL    HW217736   3.950   2.072   6.624
 5613SOL     OW17737   4.931   3.992   2.963
 5613SOL    HW117738   4.998   3.927   2.927
 5613SOL    HW217739   4.978   4.071   3.002
 5614SOL     OW17740   4.458   2.364   4.508
 5614SOL    HW117741   4.493   2.429   4.575
 5614SOL    HW217742   4.450   2.408   4.419
 5615SOL     OW17743   0.804   0.486   6.241
 5615SOL    HW117744   0.814   0.567   6.183
 5615SOL    HW217745   0.771   0.513   6.331
 5616SOL     OW17746   1.875   1.111   5.660
 5616SOL    HW117747   1.891   1.013   5.644
 5616SOL    HW217748   1.962   1.160   5.654
 5617SOL     OW17749   2.511   6.542   6.518
 5617SOL    HW117750   2.530   6.618   6.580
 5617SOL    HW217751   2.421   6.556   6.475
 5618SOL     OW17752   6.578   3.563   4.235
 5618SOL    HW117753   6.577   3.661   4.253
 5618SOL    HW217754   6.668   3.526   4.258
 5619SOL     OW17755   2.828   4.082   6.274
 5619SOL    HW117756   2.749   4.111   6.328
 5619SOL    HW217757   2.806   4.000   6.223
 5620SOL     OW17758   3.643   3.623   0.803
 5620SOL    HW117759   3.598   3.575   0.879
 5620SOL    HW217760   3.608   3.716   0.797
 5621SOL     OW17761   1.255   1.997   5.932
 5621SOL    HW117762   1.285   2.058   6.005
 5621SOL    HW217763   1.291   1.906   5.947
 5622SOL     OW17764   4.130   0.139   5.818
 5622SOL    HW117765   4.097   0.229   5.791
 5622SOL    HW217766   4.203   0.109   5.756
 5623SOL     OW17767   1.902   5.723   6.167
 5623SOL    HW117768   1.924   5.741   6.263
 5623SOL    HW217769   1.985   5.728   6.112
 5624SOL     OW17770   0.720   4.588   3.463
 5624SOL    HW117771   0.781   4.549   3.532
 5624SOL    HW217772   0.765   4.664   3.417
 5625SOL     OW17773   6.053   2.405   4.186
 5625SOL    HW117774   6.049   2.380   4.283
 5625SOL    HW217775   5.960   2.422   4.153
 5626SOL     OW17776   2.828   6.484   4.749
 5626SOL    HW117777   2.841   6.467   4.652
 5626SOL    HW217778   2.871   6.411   4.802
 5627SOL     OW17779   1.028   5.780   0.414
 5627SOL    HW117780   1.111   5.836   0.421
 5627SOL    HW217781   1.008   5.738   0.502
 5628SOL     OW17782   1.729   2.587   5.892
 5628SOL    HW117783   1.797   2.638   5.839
 5628SOL    HW217784   1.751   2.593   5.990
 5629SOL     OW17785   3.406   4.031   2.000
 5629SOL    HW117786   3.402   4.066   1.906
 5629SOL    HW217787   3.445   4.101   2.060
 5630SOL     OW17788   1.329   5.098   0.747
 5630SOL    HW117789   1.290   5.160   0.679
 5630SOL    HW217790   1.398   5.146   0.801
 5631SOL     OW17791   4.315   1.604   6.992
 5631SOL    HW117792   4.396   1.640   6.946
 5631SOL    HW217793   4.283   1.523   6.944
 5632SOL     OW17794   4.021   3.249   6.068
 5632SOL    HW117795   4.040   3.339   6.027
 5632SOL    HW217796   4.048   3.250   6.164
 5633SOL     OW17797   6.260   2.172   3.768
 5633SOL    HW117798   6.287   2.268   3.777
 5633SOL    HW217799   6.183   2.166   3.703
 5634SOL     OW17800   2.869   6.071   5.671
 5634SOL    HW117801   2.814   5.989   5.650
 5634SOL    HW217802   2.966   6.047   5.669
 5635SOL     OW17803   2.221   3.643   5.062
 5635SOL    HW117804   2.309   3.595   5.064
 5635SOL    HW217805   2.204   3.676   4.969
 5636SOL     OW17806   3.516   5.997   2.716
 5636SOL    HW117807   3.564   6.076   2.753
 5636SOL    HW217808   3.559   5.969   2.630
 5637SOL     OW17809   5.026   0.101   4.199
 5637SOL    HW117810   4.967   0.149   4.134
 5637SOL    HW217811   5.017   0.143   4.289
 5638SOL     OW17812   5.303   3.436   1.187
 5638SOL    HW117813   5.211   3.473   1.200
 5638SOL    HW217814   5.367   3.510   1.169
 5639SOL     OW17815   0.671   1.061   0.501
 5639SOL    HW117816   0.578   1.090   0.519
 5639SOL    HW217817   0.683   1.042   0.403
 5640SOL     OW17818   2.665   0.501   3.883
 5640SOL    HW117819   2.668   0.591   3.927
 5640SOL    HW217820   2.633   0.433   3.949
 5641SOL     OW17821   0.252   4.779   5.951
 5641SOL    HW117822   0.307   4.805   6.030
 5641SOL    HW217823   0.234   4.680   5.955
 5642SOL     OW17824   2.032   6.515   0.244
 5642SOL    HW117825   1.964   6.444   0.226
 5642SOL    HW217826   2.062   6.510   0.340
 5643SOL     OW17827   4.997   1.644   5.069
 5643SOL    HW117828   5.017   1.663   4.973
 5643SOL    HW217829   4.955   1.553   5.077
 5644SOL     OW17830   3.001   6.545   5.458
 5644SOL    HW117831   2.967   6.637   5.441
 5644SOL    HW217832   2.982   6.519   5.553
 5645SOL     OW17833   6.548   3.635   3.770
 5645SOL    HW117834   6.454   3.621   3.802
 5645SOL    HW217835   6.548   3.705   3.698
 5646SOL     OW17836   1.984   4.980   2.732
 5646SOL    HW117837   1.940   5.070   2.741
 5646SOL    HW217838   2.072   4.981   2.780
 5647SOL     OW17839   5.366   6.220   1.694
 5647SOL    HW117840   5.362   6.303   1.750
 5647SOL    HW217841   5.282   6.167   1.706
 5648SOL     OW17842   2.340   5.697   2.623
 5648SOL    HW117843   2.378   5.779   2.667
 5648SOL    HW217844   2.391   5.677   2.539
 5649SOL     OW17845   0.766   6.868   4.169
 5649SOL    HW117846   0.711   6.791   4.139
 5649SOL    HW217847   0.817   6.842   4.252
 5650SOL     OW17848   0.601   4.639   0.442
 5650SOL    HW117849   0.537   4.562   0.444
 5650SOL    HW217850   0.679   4.618   0.500
 5651SOL     OW17851   1.668   0.223   0.738
 5651SOL    HW117852   1.594   0.166   0.702
 5651SOL    HW217853   1.728   0.250   0.662
 5652SOL     OW17854   0.074   5.349   1.834
 5652SOL    HW117855   0.057   5.427   1.774
 5652SOL    HW217856   0.020   5.358   1.918
 5653SOL     OW17857   0.405   6.388   6.924
 5653SOL    HW117858   0.365   6.451   6.857
 5653SOL    HW217859   0.367   6.409   7.015
 5654SOL     OW17860   0.981   6.042   4.609
 5654SOL    HW117861   0.953   5.993   4.692
 5654SOL    HW217862   1.024   6.128   4.633
 5655SOL     OW17863   6.386   3.079   4.001
 5655SOL    HW117864   6.458   3.109   3.938
 5655SOL    HW217865   6.428   3.039   4.082
 5656SOL     OW17866   6.504   3.554   6.181
 5656SOL    HW117867   6.437   3.573   6.253
 5656SOL    HW217868   6.545   3.640   6.150
 5657SOL     OW17869   4.553   4.457   4.795
 5657SOL    HW117870   4.561   4.357   4.801
 5657SOL    HW217871   4.475   4.487   4.850
 5658SOL     OW17872   1.863   2.960   6.032
 5658SOL    HW117873   1.815   2.936   5.948
 5658SOL    HW217874   1.914   2.880   6.065
 5659SOL     OW17875   3.294   3.615   5.971
 5659SOL    HW117876   3.265   3.527   5.934
 5659SOL    HW217877   3.214   3.675   5.978
 5660SOL     OW17878   4.586   0.047   6.337
 5660SOL    HW117879   4.509   7.010   6.309
 5660SOL    HW217880   4.650   0.055   6.261
 5661SOL     OW17881   0.829   5.392   5.820
 5661SOL    HW117882   0.846   5.453   5.743
 5661SOL    HW217883   0.831   5.297   5.789
 5662SOL     OW17884   2.343   6.807   2.718
 5662SOL    HW117885   2.264   6.802   2.657
 5662SOL    HW217886   2.426   6.822   2.664
 5663SOL     OW17887   1.220   2.752   0.732
 5663SOL    HW117888   1.245   2.847   0.750
 5663SOL    HW217889   1.276   2.716   0.657
 5664SOL     OW17890   5.417   4.312   4.374
 5664SOL    HW117891   5.323   4.344   4.360
 5664SOL    HW217892   5.425   4.217   4.344
 5665SOL     OW17893   1.134   6.539   0.397
 5665SOL    HW117894   1.205   6.578   0.338
 5665SOL    HW217895   1.169   6.454   0.438
 5666SOL     OW17896   5.796   1.012   3.953
 5666SOL    HW117897   5.746   0.966   4.026
 5666SOL    HW217898   5.862   0.948   3.913
 5667SOL     OW17899   1.849   4.791   4.274
 5667SOL    HW117900   1.934   4.845   4.274
 5667SOL    HW217901   1.773   4.848   4.305
 5668SOL     OW17902   5.960   2.747   2.329
 5668SOL    HW117903   5.927   2.836   2.360
 5668SOL    HW217904   5.907   2.675   2.374
 5669SOL     OW17905   6.668   4.276   0.032
 5669SOL    HW117906   6.679   4.186   7.011
 5669SOL    HW217907   6.661   4.267   0.131
 5670SOL     OW17908   1.224   3.836   3.049
 5670SOL    HW117909   1.207   3.930   3.018
 5670SOL    HW217910   1.309   3.833   3.102
 5671SOL     OW17911   6.370   5.509   4.206
 5671SOL    HW117912   6.301   5.539   4.140
 5671SOL    HW217913   6.331   5.436   4.263
 5672SOL     OW17914   4.449   4.168   5.382
 5672SOL    HW117915   4.529   4.158   5.442
 5672SOL    HW217916   4.367   4.138   5.431
 5673SOL     OW17917   1.060   0.049   1.767
 5673SOL    HW117918   1.147   0.097   1.773
 5673SOL    HW217919   1.070   6.987   1.712
 5674SOL     OW17920   1.970   4.856   4.713
 5674SOL    HW117921   2.060   4.863   4.671
 5674SOL    HW217922   1.971   4.783   4.782
 5675SOL     OW17923   3.640   1.514   0.292
 5675SOL    HW117924   3.718   1.465   0.252
 5675SOL    HW217925   3.562   1.452   0.296
 5676SOL     OW17926   2.724   2.391   1.744
 5676SOL    HW117927   2.680   2.338   1.816
 5676SOL    HW217928   2.815   2.419   1.775
 5677SOL     OW17929   6.775   1.047   0.828
 5677SOL    HW117930   6.864   1.075   0.865
 5677SOL    HW217931   6.710   1.035   0.904
 5678SOL     OW17932   3.613   1.520   2.027
 5678SOL    HW117933   3.644   1.432   1.992
 5678SOL    HW217934   3.624   1.522   2.127
 5679SOL     OW17935   6.011   1.990   4.822
 5679SOL    HW117936   6.004   2.057   4.896
 5679SOL    HW217937   5.945   2.013   4.750
 5680SOL     OW17938   1.533   4.780   5.501
 5680SOL    HW117939   1.590   4.720   5.447
 5680SOL    HW217940   1.588   4.825   5.572
 5681SOL     OW17941   0.394   3.684   2.932
 5681SOL    HW117942   0.397   3.784   2.932
 5681SOL    HW217943   0.487   3.648   2.925
 5682SOL     OW17944   2.953   5.554   2.641
 5682SOL    HW117945   2.968   5.476   2.701
 5682SOL    HW217946   2.862   5.593   2.658
 5683SOL     OW17947   3.995   2.728   6.383
 5683SOL    HW117948   4.002   2.632   6.356
 5683SOL    HW217949   3.927   2.774   6.326
 5684SOL     OW17950   2.254   3.454   6.133
 5684SOL    HW117951   2.257   3.477   6.036
 5684SOL    HW217952   2.309   3.372   6.150
 5685SOL     OW17953   2.030   2.535   3.949
 5685SOL    HW117954   1.988   2.610   3.896
 5685SOL    HW217955   2.085   2.574   4.023
 5686SOL     OW17956   3.200   0.889   5.643
 5686SOL    HW117957   3.191   0.989   5.637
 5686SOL    HW217958   3.248   0.855   5.562
 5687SOL     OW17959   0.337   6.224   5.177
 5687SOL    HW117960   0.340   6.181   5.086
 5687SOL    HW217961   0.430   6.244   5.207
 5688SOL     OW17962   1.993   3.503   3.623
 5688SOL    HW117963   2.053   3.541   3.693
 5688SOL    HW217964   1.999   3.403   3.624
 5689SOL     OW17965   1.754   0.768   1.547
 5689SOL    HW117966   1.693   0.767   1.626
 5689SOL    HW217967   1.746   0.855   1.500
 5690SOL     OW17968   0.931   5.507   6.603
 5690SOL    HW117969   0.954   5.427   6.546
 5690SOL    HW217970   0.871   5.568   6.551
 5691SOL     OW17971   3.136   1.249   2.448
 5691SOL    HW117972   3.147   1.212   2.356
 5691SOL    HW217973   3.147   1.348   2.446
 5692SOL     OW17974   4.866   5.401   0.683
 5692SOL    HW117975   4.947   5.397   0.624
 5692SOL    HW217976   4.876   5.337   0.759
 5693SOL     OW17977   4.064   1.070   0.923
 5693SOL    HW117978   4.056   0.997   0.991
 5693SOL    HW217979   4.090   1.030   0.835
 5694SOL     OW17980   0.578   0.489   2.580
 5694SOL    HW117981   0.578   0.483   2.680
 5694SOL    HW217982   0.507   0.553   2.551
 5695SOL     OW17983   1.370   1.018   2.036
 5695SOL    HW117984   1.368   0.920   2.054
 5695SOL    HW217985   1.456   1.057   2.069
 5696SOL     OW17986   1.518   0.616   3.664
 5696SOL    HW117987   1.422   0.605   3.689
 5696SOL    HW217988   1.566   0.661   3.739
 5697SOL     OW17989   6.290   2.686   1.831
 5697SOL    HW117990   6.380   2.678   1.874
 5697SOL    HW217991   6.228   2.737   1.890
 5698SOL     OW17992   1.554   3.497   3.511
 5698SOL    HW117993   1.638   3.461   3.551
 5698SOL    HW217994   1.476   3.469   3.566
 5699SOL     OW17995   2.453   2.541   3.376
 5699SOL    HW117996   2.361   2.573   3.353
 5699SOL    HW217997   2.483   2.476   3.306
 5700SOL     OW17998   7.021   0.408   2.155
 5700SOL    HW117999   0.091   0.427   2.119
 5700SOL    HW218000   0.007   0.341   2.228
 5701SOL     OW18001   6.722   1.371   1.011
 5701SOL    HW118002   6.721   1.437   1.087
 5701SOL    HW218003   6.631   1.333   0.999
 5702SOL     OW18004   1.695   6.570   4.084
 5702SOL    HW118005   1.694   6.487   4.140
 5702SOL    HW218006   1.632   6.560   4.007
 5703SOL     OW18007   6.956   3.623   5.787
 5703SOL    HW118008   0.017   3.567   5.798
 5703SOL    HW218009   6.880   3.582   5.838
 5704SOL     OW18010   5.315   3.861   3.727
 5704SOL    HW118011   5.358   3.792   3.785
 5704SOL    HW218012   5.347   3.952   3.754
 5705SOL     OW18013   5.686   6.125   6.297
 5705SOL    HW118014   5.760   6.074   6.340
 5705SOL    HW218015   5.719   6.168   6.213
 5706SOL     OW18016   5.681   2.702   0.748
 5706SOL    HW118017   5.771   2.695   0.791
 5706SOL    HW218018   5.633   2.615   0.757
 5707SOL     OW18019   5.139   6.798   1.169
 5707SOL    HW118020   5.231   6.775   1.199
 5707SOL    HW218021   5.076   6.792   1.246
 5708SOL     OW18022   5.028   5.611   3.360
 5708SOL    HW118023   5.120   5.575   3.369
 5708SOL    HW218024   4.976   5.595   3.444
 5709SOL     OW18025   1.798   1.156   1.765
 5709SOL    HW118026   1.799   1.230   1.832
 5709SOL    HW218027   1.799   1.068   1.813
 5710SOL     OW18028   2.830   2.625   0.840
 5710SOL    HW118029   2.824   2.716   0.801
 5710SOL    HW218030   2.916   2.582   0.812
 5711SOL     OW18031   5.198   0.476   1.920
 5711SOL    HW118032   5.256   0.399   1.946
 5711SOL    HW218033   5.155   0.515   2.001
 5712SOL     OW18034   6.680   6.026   1.343
 5712SOL    HW118035   6.651   6.098   1.406
 5712SOL    HW218036   6.756   6.059   1.287
 5713SOL     OW18037   2.404   5.578   0.819
 5713SOL    HW118038   2.410   5.667   0.865
 5713SOL    HW218039   2.493   5.533   0.822
 5714SOL     OW18040   6.295   6.209   1.850
 5714SOL    HW118041   6.204   6.226   1.888
 5714SOL    HW218042   6.365   6.231   1.919
 5715SOL     OW18043   0.627   6.513   1.698
 5715SOL    HW118044   0.669   6.424   1.680
 5715SOL    HW218045   0.583   6.546   1.614
 5716SOL     OW18046   1.158   4.747   6.417
 5716SOL    HW118047   1.178   4.841   6.446
 5716SOL    HW218048   1.062   4.726   6.435
 5717SOL     OW18049   1.900   5.003   2.444
 5717SOL    HW118050   1.910   4.972   2.538
 5717SOL    HW218051   1.987   5.040   2.411
 5718SOL     OW18052   1.070   3.003   0.539
 5718SOL    HW118053   1.069   2.975   0.635
 5718SOL    HW218054   1.023   3.091   0.529
 5719SOL     OW18055   3.224   3.099   1.293
 5719SOL    HW118056   3.294   3.100   1.221
 5719SOL    HW218057   3.247   3.167   1.362
 5720SOL     OW18058   2.277   5.737   5.591
 5720SOL    HW118059   2.314   5.764   5.680
 5720SOL    HW218060   2.177   5.735   5.595
 5721SOL     OW18061   5.313   4.326   0.349
 5721SOL    HW118062   5.335   4.401   0.412
 5721SOL    HW218063   5.214   4.308   0.352
 5722SOL     OW18064   0.852   0.972   5.308
 5722SOL    HW118065   0.795   0.978   5.390
 5722SOL    HW218066   0.802   1.010   5.230
 5723SOL     OW18067   4.167   3.382   6.839
 5723SOL    HW118068   4.103   3.410   6.910
 5723SOL    HW218069   4.221   3.461   6.809
 5724SOL     OW18070   6.192   2.664   3.405
 5724SOL    HW118071   6.131   2.593   3.370
 5724SOL    HW218072   6.275   2.667   3.349
 5725SOL     OW18073   5.128   4.849   3.286
 5725SOL    HW118074   5.225   4.826   3.291
 5725SOL    HW218075   5.110   4.900   3.202
 5726SOL     OW18076   4.893   3.874   3.195
 5726SOL    HW118077   4.898   3.897   3.097
 5726SOL    HW218078   4.869   3.777   3.204
 5727SOL     OW18079   0.718   2.451   4.245
 5727SOL    HW118080   0.759   2.538   4.219
 5727SOL    HW218081   0.625   2.445   4.208
 5728SOL     OW18082   4.964   6.063   5.133
 5728SOL    HW118083   4.922   6.001   5.200
 5728SOL    HW218084   4.921   6.052   5.044
 5729SOL     OW18085   2.461   2.513   6.173
 5729SOL    HW118086   2.464   2.455   6.254
 5729SOL    HW218087   2.395   2.476   6.108
 5730SOL     OW18088   6.959   4.120   5.775
 5730SOL    HW118089   0.006   4.048   5.758
 5730SOL    HW218090   6.867   4.082   5.765
 5731SOL     OW18091   0.225   6.761   1.544
 5731SOL    HW118092   0.171   6.772   1.460
 5731SOL    HW218093   0.292   6.688   1.530
 5732SOL     OW18094   1.123   6.802   4.413
 5732SOL    HW118095   1.118   6.828   4.509
 5732SOL    HW218096   1.030   6.787   4.377
 5733SOL     OW18097   4.035   6.753   5.122
 5733SOL    HW118098   4.016   6.759   5.024
 5733SOL    HW218099   4.123   6.796   5.141
 5734SOL     OW18100   1.920   6.384   4.228
 5734SOL    HW118101   1.830   6.425   4.243
 5734SOL    HW218102   1.917   6.326   4.147
 5735SOL     OW18103   3.416   1.277   1.392
 5735SOL    HW118104   3.423   1.367   1.435
 5735SOL    HW218105   3.364   1.284   1.308
 5736SOL     OW18106   1.084   5.485   7.002
 5736SOL    HW118107   1.142   5.557   6.965
 5736SOL    HW218108   1.067   5.502   0.078
 5737SOL     OW18109   5.668   5.298   6.485
 5737SOL    HW118110   5.618   5.263   6.564
 5737SOL    HW218111   5.621   5.378   6.448
 5738SOL     OW18112   1.836   3.540   7.010
 5738SOL    HW118113   1.771   3.612   0.012
 5738SOL    HW218114   1.786   3.461   6.974
 5739SOL     OW18115   1.760   1.399   0.693
 5739SOL    HW118116   1.680   1.440   0.738
 5739SOL    HW218117   1.804   1.335   0.756
 5740SOL     OW18118   4.231   5.919   6.487
 5740SOL    HW118119   4.217   5.836   6.541
 5740SOL    HW218120   4.155   5.982   6.504
 5741SOL     OW18121   6.351   5.365   4.925
 5741SOL    HW118122   6.418   5.295   4.899
 5741SOL    HW218123   6.351   5.437   4.856
 5742SOL     OW18124   6.275   6.690   2.419
 5742SOL    HW118125   6.201   6.743   2.461
 5742SOL    HW218126   6.334   6.653   2.491
 5743SOL     OW18127   2.199   6.766   4.876
 5743SOL    HW118128   2.258   6.771   4.795
 5743SOL    HW218129   2.213   6.848   4.932
 5744SOL     OW18130   5.864   0.663   0.171
 5744SOL    HW118131   5.844   0.755   0.137
 5744SOL    HW218132   5.941   0.625   0.120
 5745SOL     OW18133   1.898   1.950   4.629
 5745SOL    HW118134   1.907   1.968   4.531
 5745SOL    HW218135   1.822   2.003   4.666
 5746SOL     OW18136   4.670   1.797   0.254
 5746SOL    HW118137   4.643   1.798   0.350
 5746SOL    HW218138   4.594   1.828   0.197
 5747SOL     OW18139   0.464   5.329   3.399
 5747SOL    HW118140   0.509   5.280   3.325
 5747SOL    HW218141   0.389   5.384   3.362
 5748SOL     OW18142   2.264   5.502   1.923
 5748SOL    HW118143   2.300   5.505   1.830
 5748SOL    HW218144   2.320   5.561   1.982
 5749SOL     OW18145   2.305   2.132   3.170
 5749SOL    HW118146   2.309   2.047   3.118
 5749SOL    HW218147   2.212   2.146   3.204
 5750SOL     OW18148   6.377   5.621   3.487
 5750SOL    HW118149   6.440   5.612   3.410
 5750SOL    HW218150   6.309   5.548   3.484
 5751SOL     OW18151   2.500   3.119   5.629
 5751SOL    HW118152   2.443   3.163   5.698
 5751SOL    HW218153   2.458   3.128   5.539
 5752SOL     OW18154   6.739   7.015   6.511
 5752SOL    HW118155   6.675   6.998   6.586
 5752SOL    HW218156   6.758   6.929   6.464
 5753SOL     OW18157   3.471   2.889   0.247
 5753SOL    HW118158   3.484   2.860   0.342
 5753SOL    HW218159   3.388   2.945   0.240
 5754SOL     OW18160   5.472   5.350   1.780
 5754SOL    HW118161   5.389   5.397   1.812
 5754SOL    HW218162   5.450   5.255   1.760
 5755SOL     OW18163   3.329   4.345   6.684
 5755SOL    HW118164   3.350   4.408   6.610
 5755SOL    HW218165   3.248   4.376   6.733
 5756SOL     OW18166   6.586   5.094   3.820
 5756SOL    HW118167   6.496   5.054   3.802
 5756SOL    HW218168   6.606   5.088   3.918
 5757SOL     OW18169   6.805   5.194   0.895
 5757SOL    HW118170   6.893   5.207   0.941
 5757SOL    HW218171   6.733   5.243   0.945
 5758SOL     OW18172   1.969   2.518   5.161
 5758SOL    HW118173   1.926   2.586   5.101
 5758SOL    HW218174   1.967   2.551   5.255
 5759SOL     OW18175   4.921   1.482   6.671
 5759SOL    HW118176   4.974   1.409   6.713
 5759SOL    HW218177   4.918   1.561   6.732
 5760SOL     OW18178   1.673   5.463   2.103
 5760SOL    HW118179   1.725   5.393   2.054
 5760SOL    HW218180   1.725   5.493   2.183
 5761SOL     OW18181   4.744   6.432   4.729
 5761SOL    HW118182   4.736   6.417   4.630
 5761SOL    HW218183   4.716   6.349   4.777
 5762SOL     OW18184   5.783   6.505   1.778
 5762SOL    HW118185   5.739   6.595   1.771
 5762SOL    HW218186   5.742   6.443   1.711
 5763SOL     OW18187   1.424   0.732   0.887
 5763SOL    HW118188   1.473   0.657   0.931
 5763SOL    HW218189   1.473   0.759   0.804
 5764SOL     OW18190   5.236   3.958   5.475
 5764SOL    HW118191   5.310   4.024   5.462
 5764SOL    HW218192   5.269   3.881   5.529
 5765SOL     OW18193   5.766   4.374   6.800
 5765SOL    HW118194   5.795   4.456   6.751
 5765SOL    HW218195   5.787   4.293   6.745
 5766SOL     OW18196   3.024   1.898   2.345
 5766SOL    HW118197   3.100   1.837   2.368
 5766SOL    HW218198   3.045   1.944   2.258
 5767SOL     OW18199   0.530   6.975   1.322
 5767SOL    HW118200   0.507   6.999   1.229
 5767SOL    HW218201   0.629   6.983   1.335
 5768SOL     OW18202   0.074   1.585   2.716
 5768SOL    HW118203   7.000   1.558   2.696
 5768SOL    HW218204   0.136   1.513   2.687
 5769SOL     OW18205   2.760   5.836   4.058
 5769SOL    HW118206   2.827   5.863   3.989
 5769SOL    HW218207   2.668   5.861   4.026
 5770SOL     OW18208   6.700   0.312   1.539
 5770SOL    HW118209   6.663   0.253   1.610
 5770SOL    HW218210   6.787   0.350   1.568
 5771SOL     OW18211   1.586   0.894   1.071
 5771SOL    HW118212   1.531   0.841   1.005
 5771SOL    HW218213   1.658   0.835   1.109
 5772SOL     OW18214   5.395   3.171   0.474
 5772SOL    HW118215   5.421   3.075   0.463
 5772SOL    HW218216   5.366   3.187   0.568
 5773SOL     OW18217   5.372   6.241   4.162
 5773SOL    HW118218   5.410   6.330   4.136
 5773SOL    HW218219   5.348   6.241   4.259
 5774SOL     OW18220   1.827   5.789   3.801
 5774SOL    HW118221   1.773   5.816   3.721
 5774SOL    HW218222   1.921   5.819   3.789
 5775SOL     OW18223   6.964   0.043   6.075
 5775SOL    HW118224   6.874   0.002   6.085
 5775SOL    HW218225   7.012   0.040   6.163
 5776SOL     OW18226   4.303   0.016   5.643
 5776SOL    HW118227   4.253   6.970   5.588
 5776SOL    HW218228   4.322   0.097   5.589
 5777SOL     OW18229   0.609   1.065   4.785
 5777SOL    HW118230   0.573   0.979   4.750
 5777SOL    HW218231   0.536   1.118   4.827
 5778SOL     OW18232   1.130   6.837   3.161
 5778SOL    HW118233   1.067   6.899   3.210
 5778SOL    HW218234   1.134   6.864   3.065
 5779SOL     OW18235   3.772   0.907   2.237
 5779SOL    HW118236   3.689   0.858   2.261
 5779SOL    HW218237   3.829   0.917   2.318
 5780SOL     OW18238   6.538   3.931   1.718
 5780SOL    HW118239   6.512   4.026   1.704
 5780SOL    HW218240   6.503   3.898   1.805
 5781SOL     OW18241   1.890   5.147   4.965
 5781SOL    HW118242   1.850   5.220   5.020
 5781SOL    HW218243   1.970   5.182   4.917
 5782SOL     OW18244   2.838   1.465   2.811
 5782SOL    HW118245   2.915   1.528   2.800
 5782SOL    HW218246   2.867   1.388   2.867
 5783SOL     OW18247   1.154   0.491   1.157
 5783SOL    HW118248   1.215   0.413   1.141
 5783SOL    HW218249   1.132   0.534   1.069
 5784SOL     OW18250   0.543   6.283   0.535
 5784SOL    HW118251   0.565   6.366   0.484
 5784SOL    HW218252   0.523   6.307   0.630
 5785SOL     OW18253   1.651   2.052   0.414
 5785SOL    HW118254   1.701   1.985   0.469
 5785SOL    HW218255   1.694   2.060   0.324
 5786SOL     OW18256   1.409   3.070   1.463
 5786SOL    HW118257   1.433   3.066   1.560
 5786SOL    HW218258   1.403   3.165   1.434
 5787SOL     OW18259   5.823   2.793   5.070
 5787SOL    HW118260   5.822   2.762   5.165
 5787SOL    HW218261   5.730   2.813   5.039
 5788SOL     OW18262   2.897   1.517   2.232
 5788SOL    HW118263   2.896   1.427   2.188
 5788SOL    HW218264   2.865   1.508   2.327
 5789SOL     OW18265   4.319   4.134   6.677
 5789SOL    HW118266   4.297   4.163   6.770
 5789SOL    HW218267   4.335   4.214   6.620
 5790SOL     OW18268   5.316   5.892   4.407
 5790SOL    HW118269   5.299   5.854   4.317
 5790SOL    HW218270   5.340   5.819   4.471
 5791SOL     OW18271   3.896   1.131   2.908
 5791SOL    HW118272   3.919   1.223   2.943
 5791SOL    HW218273   3.878   1.136   2.810
 5792SOL     OW18274   4.911   3.200   2.800
 5792SOL    HW118275   4.885   3.106   2.823
 5792SOL    HW218276   5.005   3.200   2.766
 5793SOL     OW18277   4.949   2.082   5.696
 5793SOL    HW118278   4.932   2.007   5.760
 5793SOL    HW218279   4.938   2.169   5.744
 5794SOL     OW18280   3.895   0.564   6.971
 5794SOL    HW118281   3.890   0.602   6.879
 5794SOL    HW218282   3.812   0.588   0.001
 5795SOL     OW18283   1.371   5.537   1.650
 5795SOL    HW118284   1.308   5.459   1.648
 5795SOL    HW218285   1.410   5.551   1.559
 5796SOL     OW18286   4.302   2.649   6.614
 5796SOL    HW118287   4.236   2.714   6.652
 5796SOL    HW218288   4.376   2.700   6.570
 5797SOL     OW18289   4.840   2.442   0.461
 5797SOL    HW118290   4.804   2.391   0.383
 5797SOL    HW218291   4.923   2.397   0.495
 5798SOL     OW18292   1.446   3.478   5.760
 5798SOL    HW118293   1.408   3.405   5.817
 5798SOL    HW218294   1.373   3.516   5.703
 5799SOL     OW18295   2.074   6.628   3.456
 5799SOL    HW118296   2.095   6.592   3.547
 5799SOL    HW218297   2.158   6.631   3.401
 5800SOL     OW18298   0.572   6.883   0.928
 5800SOL    HW118299   0.642   6.837   0.982
 5800SOL    HW218300   0.562   6.978   0.958
 5801SOL     OW18301   1.462   1.535   2.494
 5801SOL    HW118302   1.498   1.590   2.569
 5801SOL    HW218303   1.446   1.594   2.414
 5802SOL     OW18304   0.230   1.451   1.825
 5802SOL    HW118305   0.192   1.435   1.734
 5802SOL    HW218306   0.297   1.525   1.821
 5803SOL     OW18307   0.688   5.163   4.059
 5803SOL    HW118308   0.712   5.257   4.084
 5803SOL    HW218309   0.770   5.106   4.062
 5804SOL     OW18310   6.555   1.218   3.666
 5804SOL    HW118311   6.615   1.246   3.741
 5804SOL    HW218312   6.460   1.241   3.689
 5805SOL     OW18313   2.350   2.613   1.248
 5805SOL    HW118314   2.443   2.593   1.280
 5805SOL    HW218315   2.291   2.632   1.326
 5806SOL     OW18316   0.252   3.892   2.526
 5806SOL    HW118317   0.345   3.875   2.558
 5806SOL    HW218318   0.207   3.805   2.507
 5807SOL     OW18319   0.901   0.058   0.871
 5807SOL    HW118320   0.819   0.077   0.817
 5807SOL    HW218321   0.917   0.133   0.935
 5808SOL     OW18322   6.228   0.360   5.268
 5808SOL    HW118323   6.240   0.395   5.360
 5808SOL    HW218324   6.289   0.282   5.253
 5809SOL     OW18325   0.550   2.201   5.383
 5809SOL    HW118326   0.622   2.238   5.441
 5809SOL    HW218327   0.513   2.117   5.424
 5810SOL     OW18328   4.144   0.175   5.140
 5810SOL    HW118329   4.156   0.274   5.149
 5810SOL    HW218330   4.061   0.147   5.188
 5811SOL     OW18331   2.858   3.608   6.002
 5811SOL    HW118332   2.853   3.538   6.074
 5811SOL    HW218333   2.864   3.564   5.913
 5812SOL     OW18334   5.592   2.659   0.482
 5812SOL    HW118335   5.620   2.636   0.576
 5812SOL    HW218336   5.561   2.576   0.436
 5813SOL     OW18337   5.114   6.746   1.466
 5813SOL    HW118338   5.116   6.827   1.525
 5813SOL    HW218339   5.208   6.723   1.438
 5814SOL     OW18340   4.971   1.578   1.673
 5814SOL    HW118341   5.034   1.603   1.746
 5814SOL    HW218342   4.984   1.639   1.595
 5815SOL     OW18343   6.099   1.723   4.169
 5815SOL    HW118344   6.010   1.732   4.125
 5815SOL    HW218345   6.117   1.804   4.226
 5816SOL     OW18346   6.978   4.043   2.943
 5816SOL    HW118347   6.998   4.032   2.846
 5816SOL    HW218348   0.028   4.100   2.986
 5817SOL     OW18349   5.645   3.851   3.604
 5817SOL    HW118350   5.659   3.949   3.588
 5817SOL    HW218351   5.733   3.806   3.612
 5818SOL     OW18352   2.105   6.883   5.561
 5818SOL    HW118353   2.029   6.841   5.612
 5818SOL    HW218354   2.181   6.902   5.623
 5819SOL     OW18355   4.293   5.125   0.318
 5819SOL    HW118356   4.198   5.130   0.348
 5819SOL    HW218357   4.317   5.209   0.268
 5820SOL     OW18358   6.285   5.314   2.445
 5820SOL    HW118359   6.267   5.400   2.399
 5820SOL    HW218360   6.245   5.239   2.393
 5821SOL     OW18361   6.719   0.668   1.195
 5821SOL    HW118362   6.760   0.601   1.256
 5821SOL    HW218363   6.670   0.621   1.121
 5822SOL     OW18364   1.718   2.965   2.356
 5822SOL    HW118365   1.695   3.045   2.412
 5822SOL    HW218366   1.671   2.970   2.268
 5823SOL     OW18367   1.876   6.222   3.905
 5823SOL    HW118368   1.814   6.277   3.848
 5823SOL    HW218369   1.961   6.206   3.855
 5824SOL     OW18370   0.614   0.163   2.024
 5824SOL    HW118371   0.584   0.251   1.987
 5824SOL    HW218372   0.703   0.140   1.985
 5825SOL     OW18373   5.887   0.279   4.348
 5825SOL    HW118374   5.863   0.184   4.330
 5825SOL    HW218375   5.854   0.337   4.273
 5826SOL     OW18376   0.511   0.058   4.664
 5826SOL    HW118377   0.542   0.132   4.724
 5826SOL    HW218378   0.519   0.088   4.569
 5827SOL     OW18379   2.112   4.552   4.936
 5827SOL    HW118380   2.185   4.483   4.933
 5827SOL    HW218381   2.039   4.526   4.873
 5828SOL     OW18382   4.398   6.782   4.362
 5828SOL    HW118383   4.426   6.791   4.266
 5828SOL    HW218384   4.314   6.729   4.367
 5829SOL     OW18385   2.420   1.144   3.934
 5829SOL    HW118386   2.478   1.210   3.981
 5829SOL    HW218387   2.470   1.058   3.923
 5830SOL     OW18388   3.666   5.379   4.644
 5830SOL    HW118389   3.605   5.397   4.721
 5830SOL    HW218390   3.654   5.285   4.613
 5831SOL     OW18391   1.407   2.298   4.952
 5831SOL    HW118392   1.503   2.322   4.965
 5831SOL    HW218393   1.396   2.199   4.957
 5832SOL     OW18394   2.921   4.825   1.182
 5832SOL    HW118395   2.930   4.829   1.082
 5832SOL    HW218396   2.849   4.888   1.211
 5833SOL     OW18397   4.045   4.116   6.124
 5833SOL    HW118398   4.135   4.153   6.148
 5833SOL    HW218399   3.977   4.150   6.189
 5834SOL     OW18400   5.459   2.752   6.383
 5834SOL    HW118401   5.397   2.694   6.330
 5834SOL    HW218402   5.457   2.724   6.479
 5835SOL     OW18403   5.214   0.940   1.907
 5835SOL    HW118404   5.156   0.899   1.977
 5835SOL    HW218405   5.205   0.890   1.822
 5836SOL     OW18406   4.324   6.819   2.686
 5836SOL    HW118407   4.293   6.742   2.743
 5836SOL    HW218408   4.256   6.892   2.689
 5837SOL     OW18409   3.086   4.538   0.009
 5837SOL    HW118410   3.152   4.481   0.057
 5837SOL    HW218411   3.024   4.580   0.075
 5838SOL     OW18412   3.375   1.943   0.755
 5838SOL    HW118413   3.321   1.881   0.699
 5838SOL    HW218414   3.426   1.890   0.823
 5839SOL     OW18415   1.876   1.892   0.909
 5839SOL    HW118416   1.876   1.792   0.913
 5839SOL    HW218417   1.956   1.928   0.957
 5840SOL     OW18418   1.295   3.087   3.092
 5840SOL    HW118419   1.242   3.005   3.070
 5840SOL    HW218420   1.375   3.091   3.032
 5841SOL     OW18421   4.904   2.724   0.591
 5841SOL    HW118422   4.879   2.656   0.522
 5841SOL    HW218423   4.835   2.725   0.664
 5842SOL     OW18424   3.020   1.503   0.553
 5842SOL    HW118425   2.960   1.583   0.543
 5842SOL    HW218426   2.966   1.425   0.582
 5843SOL     OW18427   1.959   3.466   1.249
 5843SOL    HW118428   1.936   3.391   1.188
 5843SOL    HW218429   1.875   3.508   1.283
 5844SOL     OW18430   1.067   0.273   5.047
 5844SOL    HW118431   1.080   0.372   5.051
 5844SOL    HW218432   0.971   0.254   5.023
 5845SOL     OW18433   1.087   6.840   1.603
 5845SOL    HW118434   1.062   6.759   1.655
 5845SOL    HW218435   1.067   6.825   1.506
 5846SOL     OW18436   6.683   4.032   5.812
 5846SOL    HW118437   6.723   3.955   5.862
 5846SOL    HW218438   6.667   4.108   5.874
 5847SOL     OW18439   2.594   3.664   0.962
 5847SOL    HW118440   2.689   3.677   0.992
 5847SOL    HW218441   2.545   3.610   1.030
 5848SOL     OW18442   2.152   5.065   2.371
 5848SOL    HW118443   2.242   5.035   2.403
 5848SOL    HW218444   2.156   5.085   2.273
 5849SOL     OW18445   3.354   5.660   5.655
 5849SOL    HW118446   3.450   5.632   5.654
 5849SOL    HW218447   3.344   5.751   5.616
 5850SOL     OW18448   1.418   1.428   2.181
 5850SOL    HW118449   1.332   1.377   2.174
 5850SOL    HW218450   1.398   1.525   2.198
 5851SOL     OW18451   6.092   4.081   4.877
 5851SOL    HW118452   6.046   4.058   4.791
 5851SOL    HW218453   6.071   4.176   4.902
 5852SOL     OW18454   5.109   4.678   2.503
 5852SOL    HW118455   5.051   4.636   2.433
 5852SOL    HW218456   5.091   4.635   2.591
 5853SOL     OW18457   3.323   4.382   5.347
 5853SOL    HW118458   3.344   4.377   5.445
 5853SOL    HW218459   3.409   4.382   5.295
 5854SOL     OW18460   2.947   4.888   5.715
 5854SOL    HW118461   2.850   4.912   5.714
 5854SOL    HW218462   2.961   4.803   5.664
 5855SOL     OW18463   1.970   3.233   3.602
 5855SOL    HW118464   1.991   3.136   3.614
 5855SOL    HW218465   1.880   3.243   3.560
 5856SOL     OW18466   1.479   6.800   3.258
 5856SOL    HW118467   1.414   6.731   3.227
 5856SOL    HW218468   1.563   6.794   3.204
 5857SOL     OW18469   6.589   4.302   6.030
 5857SOL    HW118470   6.671   4.259   6.065
 5857SOL    HW218471   6.511   4.280   6.089
 5858SOL     OW18472   1.960   0.555   3.596
 5858SOL    HW118473   1.884   0.584   3.537
 5858SOL    HW218474   1.924   0.527   3.685
 5859SOL     OW18475   5.936   0.496   2.339
 5859SOL    HW118476   5.963   0.474   2.245
 5859SOL    HW218477   6.017   0.521   2.392
 5860SOL     OW18478   0.060   2.936   3.491
 5860SOL    HW118479   0.109   2.901   3.571
 5860SOL    HW218480   0.073   2.873   3.414
 5861SOL     OW18481   4.996   0.490   5.174
 5861SOL    HW118482   4.947   0.571   5.141
 5861SOL    HW218483   5.059   0.518   5.247
 5862SOL     OW18484   6.831   5.399   2.994
 5862SOL    HW118485   6.898   5.414   3.066
 5862SOL    HW218486   6.784   5.312   3.009
 5863SOL     OW18487   3.876   0.613   5.671
 5863SOL    HW118488   3.787   0.635   5.711
 5863SOL    HW218489   3.876   0.638   5.574
 5864SOL     OW18490   3.136   4.052   2.416
 5864SOL    HW118491   3.057   4.104   2.384
 5864SOL    HW218492   3.166   3.990   2.344
 5865SOL     OW18493   6.190   0.779   5.840
 5865SOL    HW118494   6.230   0.804   5.928
 5865SOL    HW218495   6.097   0.745   5.853
 5866SOL     OW18496   3.566   2.909   3.050
 5866SOL    HW118497   3.641   2.913   2.984
 5866SOL    HW218498   3.480   2.931   3.005
 5867SOL     OW18499   3.274   1.575   1.734
 5867SOL    HW118500   3.237   1.667   1.739
 5867SOL    HW218501   3.204   1.513   1.698
 5868SOL     OW18502   1.358   1.104   6.410
 5868SOL    HW118503   1.360   1.195   6.451
 5868SOL    HW218504   1.448   1.081   6.375
 5869SOL     OW18505   1.037   5.718   4.445
 5869SOL    HW118506   1.063   5.811   4.421
 5869SOL    HW218507   1.038   5.706   4.544
 5870SOL     OW18508   4.474   4.519   4.512
 5870SOL    HW118509   4.485   4.569   4.598
 5870SOL    HW218510   4.532   4.437   4.514
 5871SOL     OW18511   3.311   3.389   3.919
 5871SOL    HW118512   3.385   3.388   3.987
 5871SOL    HW218513   3.338   3.334   3.841
 5872SOL     OW18514   4.108   5.631   2.174
 5872SOL    HW118515   4.173   5.587   2.236
 5872SOL    HW218516   4.089   5.571   2.097
 5873SOL     OW18517   3.938   5.261   2.039
 5873SOL    HW118518   3.918   5.355   2.066
 5873SOL    HW218519   3.925   5.200   2.117
 5874SOL     OW18520   2.904   4.382   5.667
 5874SOL    HW118521   2.873   4.459   5.611
 5874SOL    HW218522   2.968   4.415   5.737
 5875SOL     OW18523   2.919   1.239   0.838
 5875SOL    HW118524   2.936   1.149   0.879
 5875SOL    HW218525   2.910   1.230   0.739
 5876SOL     OW18526   3.671   3.238   1.756
 5876SOL    HW118527   3.664   3.142   1.727
 5876SOL    HW218528   3.682   3.296   1.676
 5877SOL     OW18529   5.609   4.522   0.383
 5877SOL    HW118530   5.584   4.509   0.286
 5877SOL    HW218531   5.658   4.441   0.415
 5878SOL     OW18532   2.647   4.906   2.333
 5878SOL    HW118533   2.640   4.861   2.244
 5878SOL    HW218534   2.654   4.838   2.405
 5879SOL     OW18535   6.849   4.179   6.044
 5879SOL    HW118536   6.871   4.086   6.075
 5879SOL    HW218537   6.922   4.213   5.985
 5880SOL     OW18538   2.121   6.183   1.312
 5880SOL    HW118539   2.159   6.261   1.362
 5880SOL    HW218540   2.066   6.216   1.235
 5881SOL     OW18541   0.232   5.382   4.318
 5881SOL    HW118542   0.225   5.315   4.391
 5881SOL    HW218543   0.147   5.383   4.265
 5882SOL     OW18544   4.762   0.555   1.483
 5882SOL    HW118545   4.709   0.476   1.514
 5882SOL    HW218546   4.709   0.638   1.495
 5883SOL     OW18547   0.023   3.164   6.038
 5883SOL    HW118548   0.082   3.205   5.969
 5883SOL    HW218549   6.994   3.236   6.086
 5884SOL     OW18550   0.935   1.254   3.247
 5884SOL    HW118551   1.026   1.289   3.267
 5884SOL    HW218552   0.890   1.314   3.181
 5885SOL     OW18553   6.833   5.862   0.990
 5885SOL    HW118554   6.788   5.823   1.071
 5885SOL    HW218555   6.803   5.814   0.908
 5886SOL     OW18556   1.228   1.994   5.645
 5886SOL    HW118557   1.245   1.902   5.611
 5886SOL    HW218558   1.235   1.995   5.745
 5887SOL     OW18559   3.548   0.588   4.407
 5887SOL    HW118560   3.628   0.649   4.411
 5887SOL    HW218561   3.508   0.593   4.315
 5888SOL     OW18562   2.118   7.013   3.143
 5888SOL    HW118563   2.074   6.974   3.062
 5888SOL    HW218564   2.058   7.001   3.222
 5889SOL     OW18565   2.742   0.379   0.915
 5889SOL    HW118566   2.667   0.313   0.910
 5889SOL    HW218567   2.765   0.396   1.011
 5890SOL     OW18568   2.684   4.989   5.709
 5890SOL    HW118569   2.618   5.009   5.636
 5890SOL    HW218570   2.716   5.076   5.749
 5891SOL     OW18571   3.450   3.501   0.422
 5891SOL    HW118572   3.452   3.598   0.446
 5891SOL    HW218573   3.532   3.457   0.459
 5892SOL     OW18574   0.441   6.532   1.485
 5892SOL    HW118575   0.505   6.534   1.408
 5892SOL    HW218576   0.441   6.441   1.525
 5893SOL     OW18577   1.085   1.389   4.222
 5893SOL    HW118578   1.033   1.327   4.164
 5893SOL    HW218579   1.025   1.426   4.293
 5894SOL     OW18580   1.238   3.363   3.163
 5894SOL    HW118581   1.228   3.267   3.139
 5894SOL    HW218582   1.334   3.382   3.184
 5895SOL     OW18583   5.533   3.671   3.771
 5895SOL    HW118584   5.552   3.729   3.691
 5895SOL    HW218585   5.562   3.577   3.751
 5896SOL     OW18586   3.598   2.165   6.958
 5896SOL    HW118587   3.679   2.206   7.001
 5896SOL    HW218588   3.548   2.236   6.909
 5897SOL     OW18589   3.866   6.795   1.238
 5897SOL    HW118590   3.966   6.784   1.243
 5897SOL    HW218591   3.837   6.859   1.310
 5898SOL     OW18592   1.808   0.399   2.262
 5898SOL    HW118593   1.857   0.370   2.344
 5898SOL    HW218594   1.751   0.323   2.230
 5899SOL     OW18595   6.158   6.695   4.749
 5899SOL    HW118596   6.143   6.668   4.844
 5899SOL    HW218597   6.207   6.622   4.701
 5900SOL     OW18598   4.894   4.798   2.899
 5900SOL    HW118599   4.946   4.866   2.951
 5900SOL    HW218600   4.811   4.775   2.950
 5901SOL     OW18601   2.770   6.915   6.088
 5901SOL    HW118602   2.824   6.919   6.004
 5901SOL    HW218603   2.681   6.874   6.068
 5902SOL     OW18604   6.505   2.445   6.979
 5902SOL    HW118605   6.539   2.417   6.889
 5902SOL    HW218606   6.406   2.437   6.981
 5903SOL     OW18607   5.872   3.501   6.871
 5903SOL    HW118608   5.909   3.418   6.912
 5903SOL    HW218609   5.903   3.580   6.923
 5904SOL     OW18610   0.142   3.383   2.258
 5904SOL    HW118611   0.056   3.350   2.295
 5904SOL    HW218612   0.158   3.342   2.168
 5905SOL     OW18613   6.996   6.371   2.406
 5905SOL    HW118614   6.958   6.459   2.435
 5905SOL    HW218615   6.976   6.357   2.309
 5906SOL     OW18616   5.476   1.311   3.890
 5906SOL    HW118617   5.507   1.336   3.982
 5906SOL    HW218618   5.527   1.232   3.858
 5907SOL     OW18619   0.742   6.054   1.771
 5907SOL    HW118620   0.649   6.071   1.803
 5907SOL    HW218621   0.758   5.955   1.769
 5908SOL     OW18622   0.317   2.966   5.407
 5908SOL    HW118623   0.252   2.964   5.483
 5908SOL    HW218624   0.399   3.015   5.435
 5909SOL     OW18625   0.440   6.080   1.059
 5909SOL    HW118626   0.421   6.062   0.963
 5909SOL    HW218627   0.483   5.999   1.100
 5910SOL     OW18628   2.165   2.610   3.301
 5910SOL    HW118629   2.196   2.664   3.223
 5910SOL    HW218630   2.103   2.538   3.269
 5911SOL     OW18631   6.812   5.768   6.268
 5911SOL    HW118632   6.737   5.717   6.225
 5911SOL    HW218633   6.822   5.739   6.363
 5912SOL     OW18634   6.356   1.681   4.245
 5912SOL    HW118635   6.368   1.677   4.344
 5912SOL    HW218636   6.260   1.698   4.224
 5913SOL     OW18637   5.422   2.191   0.334
 5913SOL    HW118638   5.374   2.153   0.413
 5913SOL    HW218639   5.417   2.127   0.257
 5914SOL     OW18640   0.355   6.185   6.616
 5914SOL    HW118641   0.318   6.278   6.624
 5914SOL    HW218642   0.452   6.190   6.593
 5915SOL     OW18643   4.122   0.344   6.412
 5915SOL    HW118644   4.185   0.313   6.341
 5915SOL    HW218645   4.041   0.385   6.369
 5916SOL     OW18646   1.600   6.646   2.440
 5916SOL    HW118647   1.591   6.559   2.489
 5916SOL    HW218648   1.557   6.719   2.492
 5917SOL     OW18649   2.861   4.263   6.653
 5917SOL    HW118650   2.930   4.192   6.641
 5917SOL    HW218651   2.807   4.244   6.735
 5918SOL     OW18652   3.268   6.805   6.269
 5918SOL    HW118653   3.236   6.722   6.224
 5918SOL    HW218654   3.190   6.862   6.293
 5919SOL     OW18655   3.446   2.886   3.285
 5919SOL    HW118656   3.514   2.873   3.213
 5919SOL    HW218657   3.483   2.852   3.372
 5920SOL     OW18658   6.845   0.246   5.873
 5920SOL    HW118659   6.907   0.185   5.921
 5920SOL    HW218660   6.801   0.307   5.938
 5921SOL     OW18661   3.331   4.672   6.913
 5921SOL    HW118662   3.293   4.587   6.876
 5921SOL    HW218663   3.370   4.656   7.003
 5922SOL     OW18664   5.716   3.695   2.815
 5922SOL    HW118665   5.683   3.612   2.860
 5922SOL    HW218666   5.807   3.678   2.777
 5923SOL     OW18667   6.721   1.266   1.422
 5923SOL    HW118668   6.653   1.200   1.454
 5923SOL    HW218669   6.681   1.323   1.350
 5924SOL     OW18670   6.470   0.256   3.236
 5924SOL    HW118671   6.390   0.198   3.247
 5924SOL    HW218672   6.529   0.218   3.164
 5925SOL     OW18673   4.898   5.581   1.105
 5925SOL    HW118674   4.989   5.620   1.123
 5925SOL    HW218675   4.852   5.563   1.192
 5926SOL     OW18676   4.093   4.778   2.821
 5926SOL    HW118677   4.175   4.721   2.825
 5926SOL    HW218678   4.074   4.815   2.912
 5927SOL     OW18679   0.594   3.959   1.853
 5927SOL    HW118680   0.592   3.880   1.792
 5927SOL    HW218681   0.501   3.989   1.871
 5928SOL     OW18682   3.557   0.424   0.723
 5928SOL    HW118683   3.609   0.473   0.793
 5928SOL    HW218684   3.609   0.344   0.692
 5929SOL     OW18685   0.356   1.159   5.646
 5929SOL    HW118686   0.318   1.218   5.575
 5929SOL    HW218687   0.297   1.079   5.658
 5930SOL     OW18688   1.585   3.859   2.093
 5930SOL    HW118689   1.522   3.802   2.146
 5930SOL    HW218690   1.533   3.919   2.033
 5931SOL     OW18691   5.768   5.982   2.988
 5931SOL    HW118692   5.669   5.981   2.999
 5931SOL    HW218693   5.807   6.052   3.048
 5932SOL     OW18694   3.033   0.836   6.306
 5932SOL    HW118695   2.939   0.866   6.321
 5932SOL    HW218696   3.066   0.787   6.386
 5933SOL     OW18697   6.616   5.885   3.924
 5933SOL    HW118698   6.590   5.811   3.986
 5933SOL    HW218699   6.617   5.972   3.974
 5934SOL     OW18700   3.245   3.855   5.492
 5934SOL    HW118701   3.261   3.786   5.563
 5934SOL    HW218702   3.169   3.913   5.518
 5935SOL     OW18703   0.017   6.829   5.073
 5935SOL    HW118704   6.989   6.908   5.035
 5935SOL    HW218705   6.982   6.747   5.061
 5936SOL     OW18706   2.873   3.310   2.890
 5936SOL    HW118707   2.885   3.227   2.836
 5936SOL    HW218708   2.881   3.288   2.988
 5937SOL     OW18709   6.953   2.888   1.189
 5937SOL    HW118710   6.946   2.862   1.093
 5937SOL    HW218711   6.912   2.816   1.246
 5938SOL     OW18712   6.476   4.797   5.023
 5938SOL    HW118713   6.547   4.853   5.065
 5938SOL    HW218714   6.458   4.830   4.930
 5939SOL     OW18715   3.634   6.899   4.338
 5939SOL    HW118716   3.578   6.976   4.306
 5939SOL    HW218717   3.670   6.920   4.429
 5940SOL     OW18718   4.958   5.714   2.245
 5940SOL    HW118719   5.024   5.729   2.318
 5940SOL    HW218720   4.865   5.726   2.280
 5941SOL     OW18721   6.879   2.234   1.873
 5941SOL    HW118722   6.788   2.217   1.910
 5941SOL    HW218723   6.937   2.275   1.943
 5942SOL     OW18724   6.096   3.630   6.069
 5942SOL    HW118725   6.002   3.594   6.064
 5942SOL    HW218726   6.093   3.730   6.074
 5943SOL     OW18727   3.808   4.005   0.754
 5943SOL    HW118728   3.790   3.946   0.833
 5943SOL    HW218729   3.901   3.991   0.721
 5944SOL     OW18730   0.713   3.821   6.660
 5944SOL    HW118731   0.796   3.877   6.662
 5944SOL    HW218732   0.738   3.724   6.659
 5945SOL     OW18733   0.225   5.790   5.288
 5945SOL    HW118734   0.205   5.714   5.350
 5945SOL    HW218735   0.302   5.765   5.229
 5946SOL     OW18736   3.807   4.596   0.105
 5946SOL    HW118737   3.901   4.619   0.080
 5946SOL    HW218738   3.802   4.578   0.203
 5947SOL     OW18739   3.307   2.891   4.630
 5947SOL    HW118740   3.242   2.967   4.620
 5947SOL    HW218741   3.329   2.879   4.727
 5948SOL     OW18742   4.914   3.949   2.368
 5948SOL    HW118743   5.006   3.973   2.399
 5948SOL    HW218744   4.920   3.903   2.279
 5949SOL     OW18745   6.452   5.590   1.638
 5949SOL    HW118746   6.499   5.665   1.590
 5949SOL    HW218747   6.355   5.591   1.613
 5950SOL     OW18748   5.009   1.417   6.032
 5950SOL    HW118749   5.068   1.458   5.962
 5950SOL    HW218750   4.977   1.489   6.094
 5951SOL     OW18751   1.090   4.905   6.149
 5951SOL    HW118752   1.054   4.990   6.187
 5951SOL    HW218753   1.159   4.867   6.210
 5952SOL     OW18754   4.189   5.328   1.663
 5952SOL    HW118755   4.122   5.376   1.608
 5952SOL    HW218756   4.247   5.271   1.605
 5953SOL     OW18757   6.017   2.380   5.562
 5953SOL    HW118758   5.994   2.306   5.499
 5953SOL    HW218759   6.054   2.457   5.510
 5954SOL     OW18760   0.641   6.155   4.390
 5954SOL    HW118761   0.685   6.164   4.479
 5954SOL    HW218762   0.650   6.060   4.359
 5955SOL     OW18763   5.638   4.149   0.796
 5955SOL    HW118764   5.598   4.181   0.710
 5955SOL    HW218765   5.682   4.225   0.843
 5956SOL     OW18766   5.166   2.724   4.591
 5956SOL    HW118767   5.095   2.777   4.546
 5956SOL    HW218768   5.134   2.631   4.607
 5957SOL     OW18769   1.446   0.777   2.387
 5957SOL    HW118770   1.540   0.742   2.380
 5957SOL    HW218771   1.442   0.847   2.458
 5958SOL     OW18772   3.652   6.599   2.741
 5958SOL    HW118773   3.573   6.550   2.703
 5958SOL    HW218774   3.620   6.670   2.804
 5959SOL     OW18775   4.611   2.251   5.133
 5959SOL    HW118776   4.605   2.348   5.157
 5959SOL    HW218777   4.525   2.205   5.157
 5960SOL     OW18778   3.643   0.001   6.646
 5960SOL    HW118779   3.718   6.964   6.614
 5960SOL    HW218780   3.559   6.996   6.597
 5961SOL     OW18781   3.084   1.801   3.077
 5961SOL    HW118782   3.012   1.864   3.051
 5961SOL    HW218783   3.069   1.713   3.032
 5962SOL     OW18784   5.421   6.333   0.087
 5962SOL    HW118785   5.433   6.304   0.182
 5962SOL    HW218786   5.430   6.433   0.082
 5963SOL     OW18787   3.538   4.883   0.366
 5963SOL    HW118788   3.456   4.829   0.380
 5963SOL    HW218789   3.538   4.921   0.273
 5964SOL     OW18790   1.942   6.458   2.385
 5964SOL    HW118791   1.941   6.547   2.430
 5964SOL    HW218792   2.033   6.440   2.348
 5965SOL     OW18793   2.178   6.496   6.930
 5965SOL    HW118794   2.106   6.491   6.861
 5965SOL    HW218795   2.137   6.495   0.001
 5966SOL     OW18796   2.356   0.615   5.506
 5966SOL    HW118797   2.334   0.644   5.413
 5966SOL    HW218798   2.316   0.680   5.571
 5967SOL     OW18799   2.300   1.665   4.640
 5967SOL    HW118800   2.347   1.726   4.577
 5967SOL    HW218801   2.235   1.718   4.695
 5968SOL     OW18802   5.601   2.308   0.558
 5968SOL    HW118803   5.540   2.275   0.486
 5968SOL    HW218804   5.684   2.345   0.517
 5969SOL     OW18805   5.747   0.789   6.845
 5969SOL    HW118806   5.698   0.739   6.774
 5969SOL    HW218807   5.812   0.852   6.803
 5970SOL     OW18808   0.723   2.693   0.651
 5970SOL    HW118809   0.727   2.601   0.613
 5970SOL    HW218810   0.798   2.706   0.716
 5971SOL     OW18811   6.789   0.204   3.735
 5971SOL    HW118812   6.747   0.292   3.757
 5971SOL    HW218813   6.722   0.144   3.693
 5972SOL     OW18814   5.215   5.245   0.296
 5972SOL    HW118815   5.276   5.218   0.221
 5972SOL    HW218816   5.199   5.166   0.356
 5973SOL     OW18817   1.658   3.328   2.726
 5973SOL    HW118818   1.660   3.334   2.826
 5973SOL    HW218819   1.741   3.368   2.689
 5974SOL     OW18820   4.446   0.947   6.172
 5974SOL    HW118821   4.448   0.849   6.152
 5974SOL    HW218822   4.388   0.963   6.252
 5975SOL     OW18823   5.986   4.307   0.196
 5975SOL    HW118824   6.062   4.262   0.243
 5975SOL    HW218825   5.900   4.264   0.223
 5976SOL     OW18826   3.506   3.761   5.974
 5976SOL    HW118827   3.573   3.718   6.035
 5976SOL    HW218828   3.424   3.704   5.968
 5977SOL     OW18829   0.131   5.324   0.400
 5977SOL    HW118830   0.134   5.346   0.302
 5977SOL    HW218831   0.087   5.236   0.413
 5978SOL     OW18832   3.490   5.794   0.182
 5978SOL    HW118833   3.470   5.713   0.128
 5978SOL    HW218834   3.498   5.873   0.122
 5979SOL     OW18835   6.325   0.446   1.764
 5979SOL    HW118836   6.310   0.368   1.703
 5979SOL    HW218837   6.380   0.417   1.842
 5980SOL     OW18838   3.796   3.235   1.509
 5980SOL    HW118839   3.852   3.223   1.427
 5980SOL    HW218840   3.784   3.146   1.554
 5981SOL     OW18841   4.207   2.181   0.432
 5981SOL    HW118842   4.121   2.137   0.459
 5981SOL    HW218843   4.191   2.238   0.352
 5982SOL     OW18844   6.040   2.085   2.192
 5982SOL    HW118845   6.010   2.091   2.287
 5982SOL    HW218846   6.051   2.176   2.154
 5983SOL     OW18847   6.996   0.709   4.750
 5983SOL    HW118848   6.994   0.751   4.841
 5983SOL    HW218849   0.014   0.773   4.684
 5984SOL     OW18850   6.459   6.632   2.620
 5984SOL    HW118851   6.522   6.645   2.543
 5984SOL    HW218852   6.434   6.535   2.627
 5985SOL     OW18853   6.197   2.327   2.924
 5985SOL    HW118854   6.234   2.417   2.900
 5985SOL    HW218855   6.257   2.284   2.991
 5986SOL     OW18856   4.232   3.679   5.244
 5986SOL    HW118857   4.265   3.768   5.274
 5986SOL    HW218858   4.238   3.673   5.144
 5987SOL     OW18859   6.397   1.151   5.041
 5987SOL    HW118860   6.342   1.196   4.970
 5987SOL    HW218861   6.399   1.210   5.122
 5988SOL     OW18862   2.948   2.057   0.132
 5988SOL    HW118863   2.960   1.987   0.061
 5988SOL    HW218864   2.883   2.125   0.100
 5989SOL     OW18865   0.494   5.964   6.788
 5989SOL    HW118866   0.541   6.016   6.859
 5989SOL    HW218867   0.416   6.016   6.754
 5990SOL     OW18868   3.647   4.428   1.675
 5990SOL    HW118869   3.585   4.406   1.600
 5990SOL    HW218870   3.624   4.517   1.713
 5991SOL     OW18871   5.422   5.814   0.800
 5991SOL    HW118872   5.344   5.775   0.848
 5991SOL    HW218873   5.505   5.761   0.820
 5992SOL     OW18874   3.325   6.934   1.845
 5992SOL    HW118875   3.227   6.918   1.834
 5992SOL    HW218876   3.376   6.860   1.800
 5993SOL     OW18877   6.183   2.360   0.551
 5993SOL    HW118878   6.176   2.451   0.511
 5993SOL    HW218879   6.165   2.291   0.480
 5994SOL     OW18880   6.716   2.939   0.760
 5994SOL    HW118881   6.711   2.926   0.661
 5994SOL    HW218882   6.626   2.963   0.795
 5995SOL     OW18883   5.056   3.578   1.736
 5995SOL    HW118884   5.024   3.670   1.712
 5995SOL    HW218885   5.105   3.539   1.659
 5996SOL     OW18886   2.834   5.892   1.238
 5996SOL    HW118887   2.764   5.956   1.271
 5996SOL    HW218888   2.794   5.833   1.167
 5997SOL     OW18889   6.838   6.773   3.241
 5997SOL    HW118890   6.823   6.821   3.155
 5997SOL    HW218891   6.751   6.742   3.279
 5998SOL     OW18892   6.767   0.808   1.729
 5998SOL    HW118893   6.841   0.757   1.772
 5998SOL    HW218894   6.701   0.744   1.690
 5999SOL     OW18895   3.795   3.816   0.962
 5999SOL    HW118896   3.825   3.773   1.046
 5999SOL    HW218897   3.768   3.746   0.896
 6000SOL     OW18898   6.841   5.142   0.098
 6000SOL    HW118899   6.915   5.085   0.135
 6000SOL    HW218900   6.816   5.212   0.164
 6001SOL     OW18901   5.219   5.919   5.168
 6001SOL    HW118902   5.121   5.940   5.172
 6001SOL    HW218903   5.249   5.916   5.073
 6002SOL     OW18904   6.498   6.497   4.828
 6002SOL    HW118905   6.424   6.434   4.851
 6002SOL    HW218906   6.538   6.471   4.740
 6003SOL     OW18907   6.572   2.753   4.275
 6003SOL    HW118908   6.593   2.670   4.328
 6003SOL    HW218909   6.589   2.736   4.178
 6004SOL     OW18910   4.973   2.118   3.642
 6004SOL    HW118911   5.033   2.038   3.643
 6004SOL    HW218912   5.027   2.201   3.654
 6005SOL     OW18913   4.024   4.318   5.652
 6005SOL    HW118914   4.054   4.413   5.662
 6005SOL    HW218915   3.945   4.315   5.589
 6006SOL     OW18916   3.708   6.622   5.872
 6006SOL    HW118917   3.612   6.611   5.900
 6006SOL    HW218918   3.716   6.704   5.814
 6007SOL     OW18919   0.820   4.579   5.774
 6007SOL    HW118920   0.903   4.630   5.748
 6007SOL    HW218921   0.785   4.530   5.694
 6008SOL     OW18922   1.984   4.836   5.336
 6008SOL    HW118923   2.020   4.885   5.256
 6008SOL    HW218924   1.978   4.739   5.316
 6009SOL     OW18925   4.040   5.162   3.150
 6009SOL    HW118926   4.018   5.190   3.243
 6009SOL    HW218927   3.986   5.216   3.085
 6010SOL     OW18928   6.604   4.120   4.853
 6010SOL    HW118929   6.519   4.136   4.904
 6010SOL    HW218930   6.679   4.106   4.917
 6011SOL     OW18931   5.725   1.531   2.440
 6011SOL    HW118932   5.694   1.625   2.427
 6011SOL    HW218933   5.742   1.489   2.351
 6012SOL     OW18934   6.773   0.656   6.319
 6012SOL    HW118935   6.702   0.714   6.281
 6012SOL    HW218936   6.781   0.672   6.418
 6013SOL     OW18937   5.160   1.275   2.736
 6013SOL    HW118938   5.218   1.221   2.797
 6013SOL    HW218939   5.164   1.371   2.761
 6014SOL     OW18940   3.494   2.905   4.419
 6014SOL    HW118941   3.530   2.996   4.441
 6014SOL    HW218942   3.419   2.884   4.480
 6015SOL     OW18943   6.281   2.095   4.631
 6015SOL    HW118944   6.271   2.071   4.728
 6015SOL    HW218945   6.355   2.041   4.591
 6016SOL     OW18946   4.894   1.534   4.832
 6016SOL    HW118947   4.960   1.519   4.759
 6016SOL    HW218948   4.802   1.513   4.798
 6017SOL     OW18949   6.652   2.998   5.052
 6017SOL    HW118950   6.742   2.965   5.025
 6017SOL    HW218951   6.663   3.074   5.117
 6018SOL     OW18952   3.307   1.579   5.730
 6018SOL    HW118953   3.269   1.598   5.821
 6018SOL    HW218954   3.346   1.487   5.730
 6019SOL     OW18955   0.520   3.936   6.397
 6019SOL    HW118956   0.447   3.985   6.444
 6019SOL    HW218957   0.560   3.868   6.459
 6020SOL     OW18958   1.282   4.999   0.214
 6020SOL    HW118959   1.218   4.922   0.210
 6020SOL    HW218960   1.239   5.080   0.174
 6021SOL     OW18961   3.865   0.845   3.157
 6021SOL    HW118962   3.941   0.805   3.107
 6021SOL    HW218963   3.897   0.876   3.247
 6022SOL     OW18964   6.698   1.593   2.789
 6022SOL    HW118965   6.767   1.527   2.761
 6022SOL    HW218966   6.724   1.631   2.878
 6023SOL     OW18967   4.854   0.849   1.085
 6023SOL    HW118968   4.881   0.774   1.144
 6023SOL    HW218969   4.931   0.914   1.077
 6024SOL     OW18970   0.808   4.793   0.787
 6024SOL    HW118971   0.830   4.891   0.780
 6024SOL    HW218972   0.786   4.757   0.697
 6025SOL     OW18973   2.244   0.948   4.400
 6025SOL    HW118974   2.330   0.940   4.449
 6025SOL    HW218975   2.243   1.032   4.346
 6026SOL     OW18976   6.306   4.498   4.099
 6026SOL    HW118977   6.314   4.477   4.001
 6026SOL    HW218978   6.241   4.435   4.141
 6027SOL     OW18979   5.912   3.374   5.921
 6027SOL    HW118980   5.838   3.315   5.953
 6027SOL    HW218981   5.916   3.456   5.979
 6028SOL     OW18982   5.612   4.976   6.810
 6028SOL    HW118983   5.589   4.937   6.900
 6028SOL    HW218984   5.549   5.050   6.789
 6029SOL     OW18985   2.552   0.709   3.400
 6029SOL    HW118986   2.644   0.742   3.420
 6029SOL    HW218987   2.549   0.671   3.307
 6030SOL     OW18988   4.918   3.601   4.782
 6030SOL    HW118989   4.874   3.655   4.710
 6030SOL    HW218990   4.872   3.618   4.869
 6031SOL     OW18991   0.649   5.879   4.401
 6031SOL    HW118992   0.620   5.828   4.321
 6031SOL    HW218993   0.674   5.816   4.474
 6032SOL     OW18994   3.030   6.633   3.697
 6032SOL    HW118995   3.052   6.581   3.615
 6032SOL    HW218996   3.109   6.690   3.722
 6033SOL     OW18997   1.676   2.240   2.479
 6033SOL    HW118998   1.671   2.141   2.487
 6033SOL    HW218999   1.771   2.268   2.464
 6034SOL     OW19000   1.427   0.334   0.039
 6034SOL    HW119001   1.436   0.413   0.100
 6034SOL    HW219002   1.510   0.277   0.046
 6035SOL     OW19003   1.130   1.081   2.888
 6035SOL    HW119004   1.170   0.989   2.887
 6035SOL    HW219005   1.091   1.099   2.978
 6036SOL     OW19006   5.984   3.805   0.745
 6036SOL    HW119007   6.070   3.809   0.796
 6036SOL    HW219008   5.977   3.717   0.698
 6037SOL     OW19009   4.334   1.817   0.980
 6037SOL    HW119010   4.316   1.723   0.950
 6037SOL    HW219011   4.282   1.836   1.063
 6038SOL     OW19012   0.760   2.108   6.124
 6038SOL    HW119013   0.775   2.207   6.129
 6038SOL    HW219014   0.844   2.063   6.092
 6039SOL     OW19015   3.518   4.056   3.800
 6039SOL    HW119016   3.554   3.968   3.767
 6039SOL    HW219017   3.424   4.067   3.768
 6040SOL     OW19018   1.259   1.627   6.650
 6040SOL    HW119019   1.268   1.527   6.653
 6040SOL    HW219020   1.250   1.662   6.743
 6041SOL     OW19021   3.428   2.225   5.786
 6041SOL    HW119022   3.482   2.306   5.811
 6041SOL    HW219023   3.365   2.249   5.712
 6042SOL     OW19024   3.025   6.188   4.073
 6042SOL    HW119025   3.113   6.233   4.058
 6042SOL    HW219026   3.038   6.110   4.135
 6043SOL     OW19027   1.720   0.780   3.834
 6043SOL    HW119028   1.794   0.714   3.849
 6043SOL    HW219029   1.752   0.853   3.774
 6044SOL     OW19030   1.907   2.183   1.430
 6044SOL    HW119031   1.993   2.234   1.430
 6044SOL    HW219032   1.922   2.094   1.386
 6045SOL     OW19033   5.422   2.742   3.308
 6045SOL    HW119034   5.451   2.694   3.225
 6045SOL    HW219035   5.331   2.781   3.294
 6046SOL     OW19036   3.728   2.489   1.693
 6046SOL    HW119037   3.798   2.548   1.733
 6046SOL    HW219038   3.700   2.420   1.760
 6047SOL     OW19039   5.979   1.651   0.613
 6047SOL    HW119040   6.042   1.666   0.689
 6047SOL    HW219041   6.002   1.713   0.538
 6048SOL     OW19042   5.407   5.614   4.846
 6048SOL    HW119043   5.384   5.693   4.902
 6048SOL    HW219044   5.483   5.564   4.887
 6049SOL     OW19045   5.190   4.598   5.367
 6049SOL    HW119046   5.233   4.685   5.342
 6049SOL    HW219047   5.097   4.615   5.400
 6050SOL     OW19048   3.026   5.910   1.037
 6050SOL    HW119049   3.026   5.946   1.131
 6050SOL    HW219050   2.998   5.814   1.039
 6051SOL     OW19051   0.605   1.692   2.838
 6051SOL    HW119052   0.680   1.633   2.806
 6051SOL    HW219053   0.631   1.788   2.827
 6052SOL     OW19054   5.854   6.594   0.824
 6052SOL    HW119055   5.756   6.575   0.815
 6052SOL    HW219056   5.868   6.693   0.825
 6053SOL     OW19057   4.414   1.484   5.735
 6053SOL    HW119058   4.331   1.438   5.703
 6053SOL    HW219059   4.460   1.426   5.803
 6054SOL     OW19060   4.162   5.038   0.976
 6054SOL    HW119061   4.110   5.062   1.058
 6054SOL    HW219062   4.254   5.008   1.003
 6055SOL     OW19063   3.414   5.577   0.001
 6055SOL    HW119064   3.500   5.586   6.973
 6055SOL    HW219065   3.394   5.480   0.017
 6056SOL     OW19066   5.852   4.081   5.075
 6056SOL    HW119067   5.933   4.135   5.096
 6056SOL    HW219068   5.805   4.057   5.160
 6057SOL     OW19069   5.229   0.438   3.004
 6057SOL    HW119070   5.166   0.468   3.075
 6057SOL    HW219071   5.323   0.446   3.037
 6058SOL     OW19072   5.672   2.821   0.273
 6058SOL    HW119073   5.611   2.857   0.202
 6058SOL    HW219074   5.618   2.770   0.341
 6059SOL     OW19075   5.109   4.428   5.677
 6059SOL    HW119076   5.044   4.403   5.749
 6059SOL    HW219077   5.189   4.471   5.719
 6060SOL     OW19078   2.803   3.590   6.972
 6060SOL    HW119079   2.784   3.513   6.910
 6060SOL    HW219080   2.717   3.620   7.014
 6061SOL     OW19081   4.606   4.715   0.682
 6061SOL    HW119082   4.586   4.665   0.598
 6061SOL    HW219083   4.532   4.778   0.701
 6062SOL     OW19084   3.036   2.404   0.357
 6062SOL    HW119085   3.092   2.479   0.391
 6062SOL    HW219086   2.946   2.440   0.331
 6063SOL     OW19087   3.913   4.637   5.716
 6063SOL    HW119088   3.997   4.690   5.704
 6063SOL    HW219089   3.835   4.688   5.680
 6064SOL     OW19090   0.272   0.518   0.674
 6064SOL    HW119091   0.177   0.529   0.646
 6064SOL    HW219092   0.278   0.519   0.774
 6065SOL     OW19093   0.909   5.022   2.412
 6065SOL    HW119094   0.910   4.925   2.386
 6065SOL    HW219095   0.986   5.041   2.473
 6066SOL     OW19096   4.852   0.766   3.597
 6066SOL    HW119097   4.906   0.730   3.521
 6066SOL    HW219098   4.756   0.739   3.585
 6067SOL     OW19099   5.548   6.938   5.524
 6067SOL    HW119100   5.632   6.954   5.472
 6067SOL    HW219101   5.478   6.898   5.465
 6068SOL     OW19102   5.121   0.940   5.102
 6068SOL    HW119103   5.036   0.904   5.065
 6068SOL    HW219104   5.191   0.942   5.030
 6069SOL     OW19105   0.300   2.617   5.786
 6069SOL    HW119106   0.211   2.624   5.831
 6069SOL    HW219107   0.301   2.538   5.725
 6070SOL     OW19108   3.555   1.970   1.629
 6070SOL    HW119109   3.608   1.952   1.546
 6070SOL    HW219110   3.545   2.068   1.642
 6071SOL     OW19111   6.445   6.090   4.984
 6071SOL    HW119112   6.525   6.046   4.943
 6071SOL    HW219113   6.468   6.120   5.077
 6072SOL     OW19114   0.823   2.359   1.043
 6072SOL    HW119115   0.853   2.285   1.103
 6072SOL    HW219116   0.842   2.336   0.948
 6073SOL     OW19117   4.654   3.257   0.557
 6073SOL    HW119118   4.677   3.160   0.557
 6073SOL    HW219119   4.586   3.276   0.486
 6074SOL     OW19120   1.116   6.589   2.771
 6074SOL    HW119121   1.125   6.495   2.803
 6074SOL    HW219122   1.077   6.645   2.845
 6075SOL     OW19123   4.596   6.807   6.464
 6075SOL    HW119124   4.585   6.905   6.446
 6075SOL    HW219125   4.567   6.787   6.558
 6076SOL     OW19126   2.532   4.629   3.635
 6076SOL    HW119127   2.581   4.648   3.720
 6076SOL    HW219128   2.596   4.626   3.559
 6077SOL     OW19129   6.305   6.636   1.130
 6077SOL    HW119130   6.237   6.686   1.183
 6077SOL    HW219131   6.260   6.567   1.074
 6078SOL     OW19132   4.628   3.879   0.257
 6078SOL    HW119133   4.552   3.912   0.201
 6078SOL    HW219134   4.594   3.854   0.348
 6079SOL     OW19135   4.675   4.415   6.501
 6079SOL    HW119136   4.656   4.463   6.587
 6079SOL    HW219137   4.760   4.363   6.511
 6080SOL     OW19138   1.510   4.342   1.233
 6080SOL    HW119139   1.453   4.350   1.151
 6080SOL    HW219140   1.467   4.393   1.308
 6081SOL     OW19141   0.353   3.528   5.035
 6081SOL    HW119142   0.433   3.572   5.074
 6081SOL    HW219143   0.301   3.594   4.981
 6082SOL     OW19144   4.452   0.640   1.328
 6082SOL    HW119145   4.540   0.613   1.289
 6082SOL    HW219146   4.378   0.598   1.276
 6083SOL     OW19147   5.160   6.227   0.058
 6083SOL    HW119148   5.251   6.268   0.060
 6083SOL    HW219149   5.102   6.270   0.127
 6084SOL     OW19150   0.467   6.630   2.418
 6084SOL    HW119151   0.410   6.571   2.361
 6084SOL    HW219152   0.560   6.632   2.382
 6085SOL     OW19153   6.795   6.537   0.145
 6085SOL    HW119154   6.730   6.613   0.146
 6085SOL    HW219155   6.777   6.478   0.067
 6086SOL     OW19156   3.809   3.772   6.657
 6086SOL    HW119157   3.739   3.803   6.592
 6086SOL    HW219158   3.793   3.676   6.679
 6087SOL     OW19159   4.731   6.523   0.381
 6087SOL    HW119160   4.778   6.472   0.310
 6087SOL    HW219161   4.715   6.463   0.460
 6088SOL     OW19162   5.339   6.558   4.290
 6088SOL    HW119163   5.354   6.656   4.280
 6088SOL    HW219164   5.241   6.539   4.291
 6089SOL     OW19165   6.161   2.277   1.947
 6089SOL    HW119166   6.080   2.294   1.891
 6089SOL    HW219167   6.217   2.206   1.904
 6090SOL     OW19168   3.653   5.287   4.323
 6090SOL    HW119169   3.751   5.293   4.339
 6090SOL    HW219170   3.635   5.224   4.248
 6091SOL     OW19171   2.676   0.723   1.178
 6091SOL    HW119172   2.615   0.790   1.220
 6091SOL    HW219173   2.660   0.633   1.219
 6092SOL     OW19174   4.150   6.841   1.907
 6092SOL    HW119175   4.076   6.807   1.965
 6092SOL    HW219176   4.194   6.920   1.951
 6093SOL     OW19177   2.187   1.725   2.323
 6093SOL    HW119178   2.207   1.794   2.254
 6093SOL    HW219179   2.231   1.639   2.297
 6094SOL     OW19180   0.497   6.492   4.155
 6094SOL    HW119181   0.529   6.573   4.106
 6094SOL    HW219182   0.441   6.519   4.233
 6095SOL     OW19183   4.133   6.023   0.242
 6095SOL    HW119184   4.141   6.030   0.142
 6095SOL    HW219185   4.161   6.110   0.283
 6096SOL     OW19186   5.818   6.392   2.186
 6096SOL    HW119187   5.754   6.355   2.254
 6096SOL    HW219188   5.839   6.321   2.118
 6097SOL     OW19189   1.678   5.931   2.219
 6097SOL    HW119190   1.580   5.916   2.222
 6097SOL    HW219191   1.708   5.933   2.123
 6098SOL     OW19192   6.722   0.762   4.736
 6098SOL    HW119193   6.820   0.750   4.722
 6098SOL    HW219194   6.691   0.844   4.687
 6099SOL     OW19195   5.664   5.781   5.775
 6099SOL    HW119196   5.697   5.774   5.681
 6099SOL    HW219197   5.737   5.815   5.834
 6100SOL     OW19198   0.312   5.576   3.330
 6100SOL    HW119199   0.224   5.547   3.294
 6100SOL    HW219200   0.299   5.626   3.416
 6101SOL     OW19201   6.215   2.710   1.193
 6101SOL    HW119202   6.218   2.716   1.292
 6101SOL    HW219203   6.269   2.632   1.162
 6102SOL     OW19204   4.435   6.416   2.502
 6102SOL    HW119205   4.457   6.336   2.445
 6102SOL    HW219206   4.382   6.481   2.448
 6103SOL     OW19207   6.723   1.661   1.457
 6103SOL    HW119208   6.795   1.719   1.495
 6103SOL    HW219209   6.691   1.597   1.528
 6104SOL     OW19210   5.930   1.108   4.765
 6104SOL    HW119211   5.867   1.035   4.790
 6104SOL    HW219212   6.007   1.070   4.714
 6105SOL     OW19213   2.861   5.755   6.313
 6105SOL    HW119214   2.884   5.658   6.315
 6105SOL    HW219215   2.869   5.793   6.406
 6106SOL     OW19216   0.900   3.683   6.978
 6106SOL    HW119217   0.846   3.609   6.939
 6106SOL    HW219218   0.948   3.651   0.039
 6107SOL     OW19219   4.678   4.853   4.753
 6107SOL    HW119220   4.654   4.931   4.694
 6107SOL    HW219221   4.599   4.829   4.809
 6108SOL     OW19222   1.633   1.108   2.072
 6108SOL    HW119223   1.615   1.182   2.007
 6108SOL    HW219224   1.699   1.044   2.031
 6109SOL     OW19225   5.138   6.992   3.429
 6109SOL    HW119226   5.044   0.003   3.445
 6109SOL    HW219227   5.199   0.050   3.426
 6110SOL     OW19228   0.872   1.748   5.913
 6110SOL    HW119229   0.778   1.716   5.927
 6110SOL    HW219230   0.914   1.697   5.838
 6111SOL     OW19231   1.200   3.642   1.783
 6111SOL    HW119232   1.161   3.572   1.844
 6111SOL    HW219233   1.223   3.600   1.696
 6112SOL     OW19234   3.430   0.499   2.583
 6112SOL    HW119235   3.510   0.451   2.620
 6112SOL    HW219236   3.438   0.597   2.604
 6113SOL     OW19237   2.144   5.001   0.001
 6113SOL    HW119238   2.188   4.923   0.045
 6113SOL    HW219239   2.181   5.013   6.930
 6114SOL     OW19240   5.174   1.618   1.165
 6114SOL    HW119241   5.193   1.530   1.120
 6114SOL    HW219242   5.130   1.602   1.253
 6115SOL     OW19243   1.170   1.549   4.968
 6115SOL    HW119244   1.202   1.495   4.890
 6115SOL    HW219245   1.070   1.557   4.964
 6116SOL     OW19246   3.784   2.143   4.967
 6116SOL    HW119247   3.762   2.165   4.872
 6116SOL    HW219248   3.700   2.124   5.017
 6117SOL     OW19249   1.133   1.582   2.831
 6117SOL    HW119250   1.136   1.678   2.860
 6117SOL    HW219251   1.092   1.576   2.740
 6118SOL     OW19252   6.190   1.227   0.824
 6118SOL    HW119253   6.111   1.268   0.778
 6118SOL    HW219254   6.235   1.163   0.761
 6119SOL     OW19255   0.063   2.453   0.219
 6119SOL    HW119256   0.146   2.403   0.194
 6119SOL    HW219257   0.077   2.498   0.307
 6120SOL     OW19258   2.702   6.468   5.652
 6120SOL    HW119259   2.625   6.473   5.715
 6120SOL    HW219260   2.756   6.552   5.658
 6121SOL     OW19261   0.753   3.740   5.355
 6121SOL    HW119262   0.709   3.714   5.441
 6121SOL    HW219263   0.834   3.683   5.340
 6122SOL     OW19264   4.797   5.896   5.549
 6122SOL    HW119265   4.822   5.857   5.637
 6122SOL    HW219266   4.726   5.966   5.562
 6123SOL     OW19267   5.785   1.398   5.495
 6123SOL    HW119268   5.709   1.420   5.556
 6123SOL    HW219269   5.750   1.371   5.405
 6124SOL     OW19270   2.020   0.070   4.936
 6124SOL    HW119271   2.111   0.040   4.965
 6124SOL    HW219272   1.950   0.021   4.988
 6125SOL     OW19273   2.502   4.034   0.074
 6125SOL    HW119274   2.463   3.964   0.132
 6125SOL    HW219275   2.533   3.993   7.009
 6126SOL     OW19276   0.532   2.324   4.947
 6126SOL    HW119277   0.632   2.336   4.951
 6126SOL    HW219278   0.511   2.242   4.894
 6127SOL     OW19279   4.480   1.138   2.037
 6127SOL    HW119280   4.406   1.071   2.035
 6127SOL    HW219281   4.454   1.216   2.092
 6128SOL     OW19282   5.725   5.948   0.828
 6128SOL    HW119283   5.701   5.851   0.819
 6128SOL    HW219284   5.824   5.958   0.826
 6129SOL     OW19285   1.892   4.584   3.199
 6129SOL    HW119286   1.915   4.535   3.115
 6129SOL    HW219287   1.890   4.520   3.276
 6130SOL     OW19288   5.109   2.775   1.732
 6130SOL    HW119289   5.155   2.820   1.655
 6130SOL    HW219290   5.141   2.816   1.817
 6131SOL     OW19291   0.216   2.433   2.163
 6131SOL    HW119292   0.276   2.505   2.198
 6131SOL    HW219293   0.200   2.366   2.236
 6132SOL     OW19294   3.757   1.536   6.697
 6132SOL    HW119295   3.717   1.575   6.614
 6132SOL    HW219296   3.850   1.505   6.678
 6133SOL     OW19297   1.376   2.635   3.624
 6133SOL    HW119298   1.362   2.587   3.711
 6133SOL    HW219299   1.440   2.584   3.568
 6134SOL     OW19300   5.439   5.717   5.880
 6134SOL    HW119301   5.390   5.773   5.813
 6134SOL    HW219302   5.537   5.720   5.861
 6135SOL     OW19303   5.997   0.256   0.164
 6135SOL    HW119304   6.049   0.302   0.236
 6135SOL    HW219305   5.899   0.262   0.185
 6136SOL     OW19306   1.795   2.773   1.164
 6136SOL    HW119307   1.697   2.752   1.163
 6136SOL    HW219308   1.820   2.816   1.077
 6137SOL     OW19309   0.457   4.622   3.556
 6137SOL    HW119310   0.457   4.537   3.608
 6137SOL    HW219311   0.550   4.643   3.526
 6138SOL     OW19312   3.842   0.247   2.362
 6138SOL    HW119313   3.806   0.272   2.272
 6138SOL    HW219314   3.940   0.226   2.354
 6139SOL     OW19315   0.984   6.866   5.574
 6139SOL    HW119316   0.987   6.777   5.529
 6139SOL    HW219317   1.070   6.914   5.559
 6140SOL     OW19318   1.578   0.174   3.382
 6140SOL    HW119319   1.674   0.201   3.393
 6140SOL    HW219320   1.521   0.231   3.442
 6141SOL     OW19321   0.476   0.407   5.947
 6141SOL    HW119322   0.409   0.335   5.927
 6141SOL    HW219323   0.554   0.367   5.996
 6142SOL     OW19324   0.611   1.012   0.882
 6142SOL    HW119325   0.688   1.001   0.819
 6142SOL    HW219326   0.533   0.960   0.847
 6143SOL     OW19327   6.438   3.867   6.747
 6143SOL    HW119328   6.422   3.832   6.655
 6143SOL    HW219329   6.524   3.919   6.749
 6144SOL     OW19330   4.650   4.362   2.695
 6144SOL    HW119331   4.736   4.354   2.745
 6144SOL    HW219332   4.633   4.278   2.644
 6145SOL     OW19333   5.310   4.108   3.947
 6145SOL    HW119334   5.380   4.164   3.991
 6145SOL    HW219335   5.291   4.143   3.856
 6146SOL     OW19336   3.116   0.101   4.301
 6146SOL    HW119337   3.169   0.029   4.256
 6146SOL    HW219338   3.172   0.183   4.309
 6147SOL     OW19339   1.957   3.181   4.628
 6147SOL    HW119340   1.878   3.198   4.569
 6147SOL    HW219341   1.950   3.237   4.711
 6148SOL     OW19342   4.081   4.974   0.081
 6148SOL    HW119343   4.161   4.986   0.022
 6148SOL    HW219344   4.003   5.022   0.041
 6149SOL     OW19345   2.373   0.332   2.137
 6149SOL    HW119346   2.300   0.379   2.186
 6149SOL    HW219347   2.459   0.342   2.188
 6150SOL     OW19348   6.499   4.313   6.830
 6150SOL    HW119349   6.512   4.409   6.809
 6150SOL    HW219350   6.522   4.296   6.925
 6151SOL     OW19351   5.551   5.015   4.118
 6151SOL    HW119352   5.587   5.034   4.209
 6151SOL    HW219353   5.538   4.917   4.107
 6152SOL     OW19354   0.973   5.537   4.230
 6152SOL    HW119355   0.961   5.595   4.311
 6152SOL    HW219356   1.054   5.567   4.180
 6153SOL     OW19357   4.568   5.272   0.927
 6153SOL    HW119358   4.559   5.367   0.956
 6153SOL    HW219359   4.512   5.256   0.846
 6154SOL     OW19360   4.965   3.273   2.290
 6154SOL    HW119361   5.062   3.276   2.314
 6154SOL    HW219362   4.910   3.270   2.373
 6155SOL     OW19363   2.635   1.573   3.318
 6155SOL    HW119364   2.552   1.534   3.277
 6155SOL    HW219365   2.619   1.592   3.415
 6156SOL     OW19366   5.509   4.172   1.391
 6156SOL    HW119367   5.413   4.167   1.364
 6156SOL    HW219368   5.518   4.235   1.469
 6157SOL     OW19369   0.550   2.255   3.281
 6157SOL    HW119370   0.489   2.264   3.360
 6157SOL    HW219371   0.500   2.216   3.204
 6158SOL     OW19372   3.415   2.391   6.087
 6158SOL    HW119373   3.406   2.444   6.003
 6158SOL    HW219374   3.454   2.448   6.159
 6159SOL     OW19375   5.491   2.748   6.964
 6159SOL    HW119376   5.459   2.722   0.034
 6159SOL    HW219377   5.588   2.726   6.955
 6160SOL     OW19378   0.180   0.215   6.563
 6160SOL    HW119379   0.226   0.226   6.475
 6160SOL    HW219380   0.085   0.245   6.555
 6161SOL     OW19381   4.972   2.547   6.742
 6161SOL    HW119382   4.989   2.645   6.730
 6161SOL    HW219383   4.987   2.500   6.656
 6162SOL     OW19384   5.960   6.484   2.556
 6162SOL    HW119385   5.959   6.580   2.586
 6162SOL    HW219386   6.028   6.473   2.483
 6163SOL     OW19387   4.994   6.107   2.854
 6163SOL    HW119388   5.038   6.018   2.841
 6163SOL    HW219389   4.910   6.096   2.908
 6164SOL     OW19390   3.794   4.132   4.447
 6164SOL    HW119391   3.764   4.224   4.470
 6164SOL    HW219392   3.826   4.085   4.530
 6165SOL     OW19393   3.980   2.550   0.205
 6165SOL    HW119394   4.004   2.490   0.282
 6165SOL    HW219395   3.897   2.601   0.226
 6166SOL     OW19396   0.098   2.204   0.017
 6166SOL    HW119397   0.163   2.279   0.026
 6166SOL    HW219398   0.026   2.229   6.973
 6167SOL     OW19399   1.948   4.834   3.080
 6167SOL    HW119400   1.855   4.869   3.075
 6167SOL    HW219401   1.946   4.737   3.102
 6168SOL     OW19402   6.373   2.435   3.873
 6168SOL    HW119403   6.321   2.520   3.884
 6168SOL    HW219404   6.350   2.371   3.946
 6169SOL     OW19405   1.158   0.358   6.476
 6169SOL    HW119406   1.223   0.296   6.431
 6169SOL    HW219407   1.065   0.329   6.455
 6170SOL     OW19408   3.656   4.556   6.897
 6170SOL    HW119409   3.736   4.554   6.957
 6170SOL    HW219410   3.674   4.618   6.821
 6171SOL     OW19411   0.504   4.411   2.613
 6171SOL    HW119412   0.430   4.449   2.669
 6171SOL    HW219413   0.544   4.483   2.557
 6172SOL     OW19414   0.885   0.518   2.734
 6172SOL    HW119415   0.896   0.605   2.686
 6172SOL    HW219416   0.791   0.510   2.766
 6173SOL     OW19417   0.725   4.862   2.650
 6173SOL    HW119418   0.692   4.799   2.721
 6173SOL    HW219419   0.821   4.843   2.632
 6174SOL     OW19420   6.096   4.738   2.718
 6174SOL    HW119421   6.026   4.681   2.762
 6174SOL    HW219422   6.165   4.679   2.677
 6175SOL     OW19423   5.675   6.053   2.750
 6175SOL    HW119424   5.717   6.004   2.827
 6175SOL    HW219425   5.744   6.068   2.679
 6176SOL     OW19426   6.018   3.389   6.624
 6176SOL    HW119427   5.957   3.429   6.555
 6176SOL    HW219428   5.994   3.425   6.714
 6177SOL     OW19429   4.738   1.015   1.651
 6177SOL    HW119430   4.660   1.052   1.702
 6177SOL    HW219431   4.764   0.927   1.690
 6178SOL     OW19432   4.949   4.599   1.225
 6178SOL    HW119433   4.882   4.554   1.165
 6178SOL    HW219434   5.041   4.567   1.203
 6179SOL     OW19435   6.853   3.192   4.633
 6179SOL    HW119436   6.825   3.202   4.538
 6179SOL    HW219437   6.860   3.094   4.655
 6180SOL     OW19438   3.354   6.962   1.093
 6180SOL    HW119439   3.274   7.011   1.060
 6180SOL    HW219440   3.326   6.882   1.146
 6181SOL     OW19441   4.822   6.378   0.178
 6181SOL    HW119442   4.813   6.420   0.088
 6181SOL    HW219443   4.813   6.278   0.170
 6182SOL     OW19444   5.202   5.243   5.100
 6182SOL    HW119445   5.184   5.149   5.127
 6182SOL    HW219446   5.116   5.290   5.081
 6183SOL     OW19447   2.022   0.722   2.857
 6183SOL    HW119448   1.995   0.775   2.777
 6183SOL    HW219449   2.074   0.642   2.828
 6184SOL     OW19450   1.800   6.637   0.105
 6184SOL    HW119451   1.881   6.637   0.164
 6184SOL    HW219452   1.774   6.731   0.084
 6185SOL     OW19453   0.568   3.947   0.027
 6185SOL    HW119454   0.514   3.947   0.112
 6185SOL    HW219455   0.578   3.853   7.015
 6186SOL     OW19456   5.792   0.123   4.136
 6186SOL    HW119457   5.763   0.072   4.218
 6186SOL    HW219458   5.713   0.141   4.078
 6187SOL     OW19459   5.115   4.843   3.572
 6187SOL    HW119460   5.126   4.818   3.476
 6187SOL    HW219461   5.018   4.856   3.593
 6188SOL     OW19462   2.266   6.417   1.420
 6188SOL    HW119463   2.233   6.511   1.430
 6188SOL    HW219464   2.334   6.398   1.490
 6189SOL     OW19465   4.993   4.607   2.749
 6189SOL    HW119466   4.944   4.673   2.806
 6189SOL    HW219467   4.936   4.526   2.734
 6190SOL     OW19468   5.555   3.271   6.048
 6190SOL    HW119469   5.615   3.229   5.980
 6190SOL    HW219470   5.491   3.333   6.003
 6191SOL     OW19471   5.534   2.456   0.771
 6191SOL    HW119472   5.435   2.467   0.762
 6191SOL    HW219473   5.567   2.395   0.698
 6192SOL     OW19474   2.948   3.939   6.927
 6192SOL    HW119475   2.921   3.920   6.833
 6192SOL    HW219476   2.876   3.907   6.989
 6193SOL     OW19477   4.920   6.944   2.065
 6193SOL    HW119478   4.989   6.970   2.133
 6193SOL    HW219479   4.931   7.001   1.984
 6194SOL     OW19480   2.203   0.338   0.673
 6194SOL    HW119481   2.190   0.291   0.760
 6194SOL    HW219482   2.201   0.272   0.598
 6195SOL     OW19483   4.434   5.374   6.178
 6195SOL    HW119484   4.518   5.344   6.131
 6195SOL    HW219485   4.364   5.395   6.110
 6196SOL     OW19486   0.885   2.755   6.355
 6196SOL    HW119487   0.795   2.717   6.336
 6196SOL    HW219488   0.879   2.855   6.360
 6197SOL     OW19489   2.728   4.034   1.080
 6197SOL    HW119490   2.677   4.026   1.166
 6197SOL    HW219491   2.664   4.034   1.004
 6198SOL     OW19492   3.283   5.954   3.112
 6198SOL    HW119493   3.212   5.999   3.058
 6198SOL    HW219494   3.264   5.967   3.210
 6199SOL     OW19495   0.518   0.307   1.299
 6199SOL    HW119496   0.476   0.222   1.267
 6199SOL    HW219497   0.592   0.333   1.238
 6200SOL     OW19498   2.534   1.180   6.388
 6200SOL    HW119499   2.516   1.212   6.481
 6200SOL    HW219500   2.464   1.114   6.361
 6201SOL     OW19501   2.223   4.635   6.037
 6201SOL    HW119502   2.163   4.710   6.009
 6201SOL    HW219503   2.310   4.643   5.989
 6202SOL     OW19504   4.169   1.807   1.719
 6202SOL    HW119505   4.175   1.732   1.654
 6202SOL    HW219506   4.074   1.835   1.729
 6203SOL     OW19507   5.197   0.371   3.671
 6203SOL    HW119508   5.133   0.410   3.606
 6203SOL    HW219509   5.251   0.443   3.714
 6204SOL     OW19510   1.034   5.038   5.452
 6204SOL    HW119511   0.975   4.958   5.446
 6204SOL    HW219512   1.033   5.087   5.365
 6205SOL     OW19513   5.268   5.530   6.592
 6205SOL    HW119514   5.356   5.564   6.626
 6205SOL    HW219515   5.197   5.550   6.659
 6206SOL     OW19516   0.004   0.762   2.344
 6206SOL    HW119517   0.052   0.683   2.382
 6206SOL    HW219518   6.926   0.748   2.354
 6207SOL     OW19519   1.165   4.218   5.051
 6207SOL    HW119520   1.209   4.218   5.141
 6207SOL    HW219521   1.235   4.223   4.980
 6208SOL     OW19522   6.259   0.179   5.514
 6208SOL    HW119523   6.214   0.268   5.508
 6208SOL    HW219524   6.193   0.111   5.545
 6209SOL     OW19525   3.880   6.032   0.420
 6209SOL    HW119526   3.938   6.014   0.340
 6209SOL    HW219527   3.846   5.946   0.457
 6210SOL     OW19528   5.712   4.033   2.927
 6210SOL    HW119529   5.632   3.996   2.880
 6210SOL    HW219530   5.746   4.112   2.877
 6211SOL     OW19531   2.593   0.186   6.051
 6211SOL    HW119532   2.507   0.235   6.040
 6211SOL    HW219533   2.607   0.164   6.148
 6212SOL     OW19534   7.004   5.980   3.768
 6212SOL    HW119535   0.007   5.918   3.843
 6212SOL    HW219536   6.937   6.047   3.801
 6213SOL     OW19537   6.113   0.600   6.606
 6213SOL    HW119538   6.138   0.662   6.681
 6213SOL    HW219539   6.196   0.563   6.564
 6214SOL     OW19540   6.027   5.417   2.866
 6214SOL    HW119541   5.956   5.376   2.808
 6214SOL    HW219542   6.114   5.418   2.817
 6215SOL     OW19543   3.655   1.836   7.018
 6215SOL    HW119544   3.630   1.762   6.955
 6215SOL    HW219545   3.719   1.898   6.972
 6216SOL     OW19546   6.599   2.410   1.381
 6216SOL    HW119547   6.571   2.323   1.341
 6216SOL    HW219548   6.691   2.433   1.350
 6217SOL     OW19549   4.848   2.730   1.673
 6217SOL    HW119550   4.943   2.747   1.699
 6217SOL    HW219551   4.845   2.683   1.584
 6218SOL     OW19552   3.394   5.350   4.352
 6218SOL    HW119553   3.356   5.306   4.270
 6218SOL    HW219554   3.493   5.333   4.355
 6219SOL     OW19555   1.825   1.958   4.929
 6219SOL    HW119556   1.753   1.942   4.861
 6219SOL    HW219557   1.843   2.056   4.936
 6220SOL     OW19558   1.597   4.503   5.665
 6220SOL    HW119559   1.661   4.496   5.588
 6220SOL    HW219560   1.646   4.535   5.746
 6221SOL     OW19561   4.719   5.321   4.884
 6221SOL    HW119562   4.654   5.320   4.808
 6221SOL    HW219563   4.746   5.227   4.906
 6222SOL     OW19564   0.755   0.044   1.636
 6222SOL    HW119565   0.782   7.016   1.719
 6222SOL    HW219566   0.683   0.110   1.659
 6223SOL     OW19567   5.938   4.067   4.157
 6223SOL    HW119568   6.012   4.002   4.141
 6223SOL    HW219569   5.905   4.102   4.069
 6224SOL     OW19570   1.918   1.609   6.439
 6224SOL    HW119571   1.871   1.533   6.484
 6224SOL    HW219572   1.860   1.691   6.444
 6225SOL     OW19573   3.493   3.568   1.570
 6225SOL    HW119574   3.409   3.534   1.612
 6225SOL    HW219575   3.471   3.642   1.506
 6226SOL     OW19576   5.770   1.311   3.827
 6226SOL    HW119577   5.715   1.236   3.862
 6226SOL    HW219578   5.839   1.275   3.764
 6227SOL     OW19579   2.898   4.585   5.987
 6227SOL    HW119580   2.851   4.532   6.057
 6227SOL    HW219581   2.832   4.614   5.917
 6228SOL     OW19582   6.661   1.874   3.349
 6228SOL    HW119583   6.585   1.819   3.383
 6228SOL    HW219584   6.647   1.894   3.252
 6229SOL     OW19585   2.213   1.608   3.202
 6229SOL    HW119586   2.279   1.580   3.132
 6229SOL    HW219587   2.135   1.545   3.202
 6230SOL     OW19588   1.753   0.994   5.014
 6230SOL    HW119589   1.784   1.013   5.107
 6230SOL    HW219590   1.779   0.901   4.989
 6231SOL     OW19591   6.662   4.712   1.234
 6231SOL    HW119592   6.683   4.660   1.152
 6231SOL    HW219593   6.584   4.671   1.281
 6232SOL     OW19594   6.913   1.096   0.378
 6232SOL    HW119595   6.922   1.095   0.278
 6232SOL    HW219596   6.928   1.004   0.414
 6233SOL     OW19597   5.342   1.900   0.139
 6233SOL    HW119598   5.268   1.833   0.140
 6233SOL    HW219599   5.381   1.906   0.048
 6234SOL     OW19600   0.883   1.588   5.013
 6234SOL    HW119601   0.827   1.670   5.002
 6234SOL    HW219602   0.845   1.514   4.958
 6235SOL     OW19603   1.821   6.702   3.550
 6235SOL    HW119604   1.847   6.745   3.636
 6235SOL    HW219605   1.903   6.678   3.498
 6236SOL     OW19606   0.138   4.939   1.131
 6236SOL    HW119607   0.095   4.983   1.210
 6236SOL    HW219608   0.075   4.872   1.092
 6237SOL     OW19609   4.487   6.023   0.484
 6237SOL    HW119610   4.437   6.023   0.570
 6237SOL    HW219611   4.561   5.955   0.488
 6238SOL     OW19612   4.730   5.307   2.365
 6238SOL    HW119613   4.694   5.392   2.404
 6238SOL    HW219614   4.656   5.243   2.349
 6239SOL     OW19615   2.662   6.498   2.151
 6239SOL    HW119616   2.587   6.435   2.133
 6239SOL    HW219617   2.702   6.529   2.065
 6240SOL     OW19618   3.115   2.361   0.944
 6240SOL    HW119619   3.107   2.408   0.856
 6240SOL    HW219620   3.058   2.406   1.012
 6241SOL     OW19621   2.702   1.134   2.459
 6241SOL    HW119622   2.771   1.150   2.530
 6241SOL    HW219623   2.620   1.187   2.479
 6242SOL     OW19624   5.333   1.627   3.568
 6242SOL    HW119625   5.424   1.651   3.603
 6242SOL    HW219626   5.339   1.545   3.513
 6243SOL     OW19627   6.219   6.679   3.589
 6243SOL    HW119628   6.146   6.682   3.521
 6243SOL    HW219629   6.180   6.686   3.681
 6244SOL     OW19630   2.424   2.436   1.937
 6244SOL    HW119631   2.362   2.360   1.921
 6244SOL    HW219632   2.515   2.401   1.962
 6245SOL     OW19633   3.121   4.469   1.607
 6245SOL    HW119634   3.205   4.425   1.639
 6245SOL    HW219635   3.043   4.432   1.657
 6246SOL     OW19636   3.019   2.832   6.946
 6246SOL    HW119637   2.947   2.900   6.939
 6246SOL    HW219638   2.981   2.741   6.929
 6247SOL     OW19639   0.314   6.633   3.424
 6247SOL    HW119640   0.358   6.711   3.380
 6247SOL    HW219641   0.219   6.626   3.392
 6248SOL     OW19642   0.665   3.774   1.194
 6248SOL    HW119643   0.571   3.801   1.172
 6248SOL    HW219644   0.721   3.855   1.209
 6249SOL     OW19645   0.371   4.505   0.133
 6249SOL    HW119646   0.460   4.461   0.136
 6249SOL    HW219647   0.353   4.537   0.039
 6250SOL     OW19648   6.682   6.213   0.714
 6250SOL    HW119649   6.731   6.169   0.639
 6250SOL    HW219650   6.595   6.167   0.728
 6251SOL     OW19651   4.172   6.816   1.179
 6251SOL    HW119652   4.189   6.718   1.164
 6251SOL    HW219653   4.234   6.850   1.249
 6252SOL     OW19654   2.471   6.048   5.229
 6252SOL    HW119655   2.464   6.123   5.295
 6252SOL    HW219656   2.561   6.052   5.185
 6253SOL     OW19657   2.285   4.269   2.487
 6253SOL    HW119658   2.290   4.170   2.495
 6253SOL    HW219659   2.199   4.295   2.442
 6254SOL     OW19660   5.690   0.413   6.996
 6254SOL    HW119661   5.651   0.425   0.067
 6254SOL    HW219662   5.764   0.479   6.982
 6255SOL     OW19663   1.493   1.238   1.362
 6255SOL    HW119664   1.429   1.209   1.432
 6255SOL    HW219665   1.584   1.249   1.402
 6256SOL     OW19666   4.232   5.106   2.593
 6256SOL    HW119667   4.332   5.112   2.593
 6256SOL    HW219668   4.197   5.140   2.680
 6257SOL     OW19669   4.979   2.689   1.104
 6257SOL    HW119670   4.884   2.694   1.073
 6257SOL    HW219671   5.040   2.722   1.032
 6258SOL     OW19672   4.880   0.914   3.146
 6258SOL    HW119673   4.813   0.898   3.074
 6258SOL    HW219674   4.932   0.997   3.125
 6259SOL     OW19675   2.814   1.787   1.535
 6259SOL    HW119676   2.736   1.846   1.559
 6259SOL    HW219677   2.883   1.792   1.607
 6260SOL     OW19678   3.227   4.213   0.362
 6260SOL    HW119679   3.141   4.224   0.312
 6260SOL    HW219680   3.293   4.167   0.303
 6261SOL     OW19681   4.042   6.875   6.765
 6261SOL    HW119682   4.037   6.888   6.864
 6261SOL    HW219683   4.125   6.918   6.730
 6262SOL     OW19684   1.638   4.480   0.576
 6262SOL    HW119685   1.629   4.382   0.557
 6262SOL    HW219686   1.614   4.497   0.672
 6263SOL     OW19687   0.247   6.051   6.395
 6263SOL    HW119688   0.312   6.099   6.453
 6263SOL    HW219689   0.155   6.088   6.410
 6264SOL     OW19690   2.380   1.001   0.945
 6264SOL    HW119691   2.365   0.950   0.861
 6264SOL    HW219692   2.476   0.993   0.973
 6265SOL     OW19693   3.294   4.381   1.232
 6265SOL    HW119694   3.359   4.425   1.170
 6265SOL    HW219695   3.206   4.428   1.227
 6266SOL     OW19696   3.788   0.723   4.284
 6266SOL    HW119697   3.833   0.646   4.239
 6266SOL    HW219698   3.740   0.778   4.216
 6267SOL     OW19699   3.186   0.273   0.134
 6267SOL    HW119700   3.178   0.321   0.221
 6267SOL    HW219701   3.278   0.236   0.124
 6268SOL     OW19702   2.697   5.571   2.783
 6268SOL    HW119703   2.667   5.498   2.844
 6268SOL    HW219704   2.670   5.659   2.822
 6269SOL     OW19705   6.139   5.570   2.374
 6269SOL    HW119706   6.061   5.625   2.343
 6269SOL    HW219707   6.156   5.588   2.470
 6270SOL     OW19708   2.181   6.816   5.885
 6270SOL    HW119709   2.254   6.867   5.930
 6270SOL    HW219710   2.094   6.863   5.899
 6271SOL     OW19711   6.917   2.721   5.598
 6271SOL    HW119712   6.910   2.813   5.559
 6271SOL    HW219713   6.827   2.691   5.629
 6272SOL     OW19714   0.566   3.110   4.517
 6272SOL    HW119715   0.526   3.047   4.584
 6272SOL    HW219716   0.538   3.204   4.540
 6273SOL     OW19717   1.600   0.756   1.796
 6273SOL    HW119718   1.534   0.756   1.720
 6273SOL    HW219719   1.561   0.706   1.873
 6274SOL     OW19720   2.749   5.461   5.947
 6274SOL    HW119721   2.846   5.438   5.958
 6274SOL    HW219722   2.693   5.382   5.972
 6275SOL     OW19723   3.153   6.648   5.884
 6275SOL    HW119724   3.177   6.588   5.961
 6275SOL    HW219725   3.221   6.638   5.812
 6276SOL     OW19726   1.533   5.007   3.490
 6276SOL    HW119727   1.628   5.033   3.508
 6276SOL    HW219728   1.530   4.917   3.445
 6277SOL     OW19729   4.511   2.540   2.473
 6277SOL    HW119730   4.442   2.542   2.401
 6277SOL    HW219731   4.586   2.601   2.449
 6278SOL     OW19732   4.408   0.045   4.196
 6278SOL    HW119733   4.501   0.033   4.159
 6278SOL    HW219734   4.412   0.056   4.295
 6279SOL     OW19735   3.813   1.842   0.632
 6279SOL    HW119736   3.869   1.764   0.607
 6279SOL    HW219737   3.732   1.845   0.574
 6280SOL     OW19738   0.306   2.950   5.999
 6280SOL    HW119739   0.225   2.964   5.942
 6280SOL    HW219740   0.384   2.926   5.941
 6281SOL     OW19741   2.968   6.229   6.102
 6281SOL    HW119742   2.992   6.294   6.174
 6281SOL    HW219743   2.920   6.277   6.028
 6282SOL     OW19744   1.173   0.051   4.587
 6282SOL    HW119745   1.158   6.984   4.632
 6282SOL    HW219746   1.267   0.056   4.554
 6283SOL     OW19747   6.101   2.626   4.675
 6283SOL    HW119748   6.182   2.577   4.708
 6283SOL    HW219749   6.128   2.693   4.606
 6284SOL     OW19750   1.729   5.414   4.976
 6284SOL    HW119751   1.793   5.460   4.914
 6284SOL    HW219752   1.750   5.440   5.070
 6285SOL     OW19753   1.541   3.164   4.355
 6285SOL    HW119754   1.572   3.140   4.447
 6285SOL    HW219755   1.449   3.128   4.340
 6286SOL     OW19756   6.309   1.260   3.776
 6286SOL    HW119757   6.254   1.180   3.803
 6286SOL    HW219758   6.272   1.342   3.819
 6287SOL     OW19759   4.439   4.526   2.110
 6287SOL    HW119760   4.479   4.438   2.086
 6287SOL    HW219761   4.456   4.545   2.207
 6288SOL     OW19762   5.207   4.142   1.334
 6288SOL    HW119763   5.117   4.161   1.374
 6288SOL    HW219764   5.250   4.227   1.306
 6289SOL     OW19765   1.665   2.881   3.640
 6289SOL    HW119766   1.575   2.921   3.654
 6289SOL    HW219767   1.671   2.794   3.688
 6290SOL     OW19768   5.367   4.049   4.338
 6290SOL    HW119769   5.269   4.046   4.317
 6290SOL    HW219770   5.400   3.957   4.358
 6291SOL     OW19771   3.762   3.386   3.982
 6291SOL    HW119772   3.711   3.306   3.950
 6291SOL    HW219773   3.860   3.367   3.977
 6292SOL     OW19774   0.606   2.891   3.213
 6292SOL    HW119775   0.653   2.918   3.128
 6292SOL    HW219776   0.653   2.932   3.291
 6293SOL     OW19777   4.974   0.237   0.147
 6293SOL    HW119778   5.005   0.148   0.180
 6293SOL    HW219779   4.964   0.233   0.048
 6294SOL     OW19780   3.426   5.237   3.277
 6294SOL    HW119781   3.510   5.268   3.232
 6294SOL    HW219782   3.448   5.164   3.341
 6295SOL     OW19783   4.935   5.889   5.316
 6295SOL    HW119784   4.963   5.793   5.313
 6295SOL    HW219785   4.883   5.905   5.400
 6296SOL     OW19786   6.455   0.624   3.722
 6296SOL    HW119787   6.462   0.690   3.647
 6296SOL    HW219788   6.372   0.643   3.775
 6297SOL     OW19789   5.443   6.510   5.830
 6297SOL    HW119790   5.433   6.471   5.921
 6297SOL    HW219791   5.436   6.610   5.836
 6298SOL     OW19792   0.946   3.762   5.906
 6298SOL    HW119793   1.000   3.715   5.975
 6298SOL    HW219794   0.868   3.807   5.949
 6299SOL     OW19795   6.476   2.314   6.561
 6299SOL    HW119796   6.400   2.319   6.625
 6299SOL    HW219797   6.453   2.251   6.487
 6300SOL     OW19798   5.252   0.458   4.665
 6300SOL    HW119799   5.228   0.364   4.689
 6300SOL    HW219800   5.242   0.471   4.567
 6301SOL     OW19801   2.767   6.958   1.011
 6301SOL    HW119802   2.712   7.015   1.072
 6301SOL    HW219803   2.782   7.006   0.925
 6302SOL     OW19804   1.305   1.106   3.779
 6302SOL    HW119805   1.339   1.066   3.694
 6302SOL    HW219806   1.209   1.081   3.791
 6303SOL     OW19807   2.284   0.682   5.261
 6303SOL    HW119808   2.275   0.779   5.237
 6303SOL    HW219809   2.299   0.628   5.178
 6304SOL     OW19810   3.209   0.733   1.051
 6304SOL    HW119811   3.178   0.807   1.111
 6304SOL    HW219812   3.284   0.683   1.095
 6305SOL     OW19813   6.535   6.677   1.301
 6305SOL    HW119814   6.462   6.647   1.239
 6305SOL    HW219815   6.494   6.718   1.382
 6306SOL     OW19816   6.924   3.006   4.063
 6306SOL    HW119817   6.848   3.071   4.059
 6306SOL    HW219818   6.994   3.040   4.125
 6307SOL     OW19819   3.283   4.861   5.443
 6307SOL    HW119820   3.297   4.931   5.372
 6307SOL    HW219821   3.242   4.903   5.523
 6308SOL     OW19822   1.968   1.559   5.356
 6308SOL    HW119823   1.911   1.612   5.294
 6308SOL    HW219824   2.049   1.527   5.307
 6309SOL     OW19825   4.868   3.014   3.689
 6309SOL    HW119826   4.925   3.090   3.721
 6309SOL    HW219827   4.853   3.023   3.591
 6310SOL     OW19828   2.131   4.518   4.209
 6310SOL    HW119829   2.195   4.475   4.145
 6310SOL    HW219830   2.181   4.562   4.282
 6311SOL     OW19831   6.476   0.321   5.008
 6311SOL    HW119832   6.376   0.309   5.006
 6311SOL    HW219833   6.507   0.359   4.921
 6312SOL     OW19834   4.356   5.155   6.303
 6312SOL    HW119835   4.381   5.241   6.259
 6312SOL    HW219836   4.357   5.081   6.236
 6313SOL     OW19837   2.013   6.208   3.169
 6313SOL    HW119838   2.090   6.272   3.167
 6313SOL    HW219839   1.950   6.234   3.243
 6314SOL     OW19840   3.569   6.201   2.071
 6314SOL    HW119841   3.604   6.108   2.078
 6314SOL    HW219842   3.486   6.210   2.126
 6315SOL     OW19843   4.324   2.916   6.793
 6315SOL    HW119844   4.402   2.865   6.828
 6315SOL    HW219845   4.356   2.996   6.743
 6316SOL     OW19846   4.553   2.215   6.271
 6316SOL    HW119847   4.579   2.303   6.231
 6316SOL    HW219848   4.611   2.197   6.350
 6317SOL     OW19849   5.294   6.730   3.071
 6317SOL    HW119850   5.214   6.692   3.115
 6317SOL    HW219851   5.370   6.666   3.079
 6318SOL     OW19852   2.783   1.981   5.425
 6318SOL    HW119853   2.832   1.929   5.355
 6318SOL    HW219854   2.819   2.074   5.430
 6319SOL     OW19855   0.533   3.096   3.574
 6319SOL    HW119856   0.472   3.120   3.499
 6319SOL    HW219857   0.536   3.171   3.640
 6320SOL     OW19858   6.008   4.118   3.063
 6320SOL    HW119859   5.945   4.045   3.088
 6320SOL    HW219860   6.004   4.190   3.131
 6321SOL     OW19861   2.838   5.682   0.706
 6321SOL    HW119862   2.927   5.723   0.688
 6321SOL    HW219863   2.781   5.746   0.758
 6322SOL     OW19864   1.635   1.802   6.194
 6322SOL    HW119865   1.661   1.717   6.148
 6322SOL    HW219866   1.680   1.880   6.149
 6323SOL     OW19867   3.482   2.215   1.694
 6323SOL    HW119868   3.541   2.257   1.762
 6323SOL    HW219869   3.394   2.263   1.691
 6324SOL     OW19870   4.586   0.903   5.726
 6324SOL    HW119871   4.486   0.904   5.722
 6324SOL    HW219872   4.621   0.842   5.654
 6325SOL     OW19873   1.173   3.215   2.093
 6325SOL    HW119874   1.248   3.209   2.159
 6325SOL    HW219875   1.110   3.287   2.121
 6326SOL     OW19876   5.230   5.902   0.615
 6326SOL    HW119877   5.296   5.844   0.664
 6326SOL    HW219878   5.139   5.889   0.654
 6327SOL     OW19879   6.774   6.177   5.268
 6327SOL    HW119880   6.848   6.120   5.303
 6327SOL    HW219881   6.688   6.126   5.273
 6328SOL     OW19882   2.199   4.514   6.981
 6328SOL    HW119883   2.265   4.545   0.030
 6328SOL    HW219884   2.191   4.584   6.910
 6329SOL     OW19885   0.887   1.339   3.790
 6329SOL    HW119886   0.799   1.385   3.780
 6329SOL    HW219887   0.923   1.317   3.699
 6330SOL     OW19888   4.576   0.721   0.788
 6330SOL    HW119889   4.600   0.813   0.758
 6330SOL    HW219890   4.570   0.661   0.709
 6331SOL     OW19891   6.487   2.367   0.687
 6331SOL    HW119892   6.524   2.457   0.709
 6331SOL    HW219893   6.402   2.378   0.635
 6332SOL     OW19894   5.930   5.422   1.306
 6332SOL    HW119895   5.975   5.380   1.385
 6332SOL    HW219896   5.961   5.516   1.296
 6333SOL     OW19897   3.529   6.021   3.528
 6333SOL    HW119898   3.489   5.937   3.564
 6333SOL    HW219899   3.528   6.018   3.428
 6334SOL     OW19900   2.501   0.627   2.815
 6334SOL    HW119901   2.513   0.640   2.716
 6334SOL    HW219902   2.560   0.692   2.864
 6335SOL     OW19903   5.841   1.521   0.372
 6335SOL    HW119904   5.915   1.560   0.426
 6335SOL    HW219905   5.755   1.564   0.399
 6336SOL     OW19906   6.800   2.416   4.928
 6336SOL    HW119907   6.881   2.438   4.983
 6336SOL    HW219908   6.747   2.345   4.975
 6337SOL     OW19909   5.461   3.021   6.078
 6337SOL    HW119910   5.505   3.111   6.078
 6337SOL    HW219911   5.369   3.029   6.116
 6338SOL     OW19912   2.340   2.188   2.291
 6338SOL    HW119913   2.257   2.205   2.238
 6338SOL    HW219914   2.394   2.117   2.246
 6339SOL     OW19915   0.165   2.519   3.188
 6339SOL    HW119916   0.165   2.485   3.094
 6339SOL    HW219917   0.257   2.551   3.211
 6340SOL     OW19918   2.393   5.492   3.069
 6340SOL    HW119919   2.433   5.559   3.131
 6340SOL    HW219920   2.340   5.425   3.121
 6341SOL     OW19921   0.116   4.973   3.534
 6341SOL    HW119922   0.150   5.065   3.555
 6341SOL    HW219923   0.124   4.956   3.436
 6342SOL     OW19924   2.476   2.624   2.606
 6342SOL    HW119925   2.439   2.532   2.596
 6342SOL    HW219926   2.576   2.619   2.607
 6343SOL     OW19927   4.631   2.885   6.877
 6343SOL    HW119928   4.729   2.904   6.880
 6343SOL    HW219929   4.612   2.799   6.925
 6344SOL     OW19930   6.442   3.173   5.302
 6344SOL    HW119931   6.418   3.127   5.217
 6344SOL    HW219932   6.460   3.270   5.283
 6345SOL     OW19933   4.301   1.516   2.817
 6345SOL    HW119934   4.242   1.480   2.890
 6345SOL    HW219935   4.245   1.560   2.748
 6346SOL     OW19936   6.200   3.280   3.517
 6346SOL    HW119937   6.233   3.346   3.449
 6346SOL    HW219938   6.266   3.274   3.592
 6347SOL     OW19939   3.139   0.414   1.469
 6347SOL    HW119940   3.235   0.397   1.448
 6347SOL    HW219941   3.093   0.450   1.387
 6348SOL     OW19942   0.731   3.448   4.940
 6348SOL    HW119943   0.669   3.479   4.868
 6348SOL    HW219944   0.799   3.386   4.901
 6349SOL     OW19945   3.086   0.941   1.785
 6349SOL    HW119946   3.099   1.026   1.734
 6349SOL    HW219947   3.040   0.874   1.727
 6350SOL     OW19948   1.664   5.493   3.346
 6350SOL    HW119949   1.608   5.480   3.264
 6350SOL    HW219950   1.631   5.433   3.419
 6351SOL     OW19951   6.307   2.569   2.877
 6351SOL    HW119952   6.274   2.613   2.961
 6351SOL    HW219953   6.240   2.583   2.804
 6352SOL     OW19954   1.341   5.589   3.360
 6352SOL    HW119955   1.346   5.675   3.309
 6352SOL    HW219956   1.396   5.597   3.444
 6353SOL     OW19957   6.775   0.584   6.576
 6353SOL    HW119958   6.858   0.531   6.559
 6353SOL    HW219959   6.784   0.633   6.663
 6354SOL     OW19960   1.219   6.631   2.499
 6354SOL    HW119961   1.207   6.624   2.598
 6354SOL    HW219962   1.152   6.574   2.453
 6355SOL     OW19963   0.605   3.662   4.817
 6355SOL    HW119964   0.674   3.661   4.746
 6355SOL    HW219965   0.530   3.722   4.790
 6356SOL     OW19966   5.056   4.556   1.769
 6356SOL    HW119967   4.990   4.525   1.837
 6356SOL    HW219968   5.041   4.508   1.683
 6357SOL     OW19969   4.476   2.836   0.451
 6357SOL    HW119970   4.387   2.806   0.417
 6357SOL    HW219971   4.467   2.927   0.492
 6358SOL     OW19972   6.750   2.268   4.383
 6358SOL    HW119973   6.750   2.226   4.474
 6358SOL    HW219974   6.835   2.244   4.336
 6359SOL     OW19975   6.944   0.415   5.260
 6359SOL    HW119976   6.857   0.449   5.223
 6359SOL    HW219977   6.953   0.445   5.355
 6360SOL     OW19978   2.328   4.437   3.730
 6360SOL    HW119979   2.415   4.483   3.747
 6360SOL    HW219980   2.325   4.404   3.636
 6361SOL     OW19981   4.942   6.050   6.562
 6361SOL    HW119982   4.957   5.952   6.544
 6361SOL    HW219983   5.004   6.080   6.634
 6362SOL     OW19984   6.256   4.635   6.778
 6362SOL    HW119985   6.216   4.668   6.692
 6362SOL    HW219986   6.189   4.579   6.826
 6363SOL     OW19987   2.501   5.949   4.025
 6363SOL    HW119988   2.532   5.999   4.106
 6363SOL    HW219989   2.401   5.949   4.022
 6364SOL     OW19990   2.725   2.199   5.728
 6364SOL    HW119991   2.712   2.291   5.692
 6364SOL    HW219992   2.804   2.157   5.684
 6365SOL     OW19993   4.691   0.018   4.120
 6365SOL    HW119994   4.734   0.071   4.194
 6365SOL    HW219995   4.702   6.942   4.139
 6366SOL     OW19996   0.885   5.371   5.219
 6366SOL    HW119997   0.957   5.426   5.263
 6366SOL    HW219998   0.840   5.315   5.287
 6367SOL     OW19999   5.018   0.372   3.467
 6367SOL    HW120000   4.974   0.284   3.446
 6367SOL    HW220001   5.032   0.423   3.383
 6368SOL     OW20002   2.903   0.138   4.134
 6368SOL    HW120003   2.981   0.139   4.196
 6368SOL    HW220004   2.830   0.196   4.170
 6369SOL     OW20005   2.683   5.125   4.174
 6369SOL    HW120006   2.721   5.176   4.251
 6369SOL    HW220007   2.750   5.059   4.140
 6370SOL     OW20008   0.853   2.307   2.072
 6370SOL    HW120009   0.942   2.331   2.034
 6370SOL    HW220010   0.855   2.321   2.171
 6371SOL     OW20011   4.807   2.978   3.174
 6371SOL    HW120012   4.783   3.006   3.081
 6371SOL    HW220013   4.830   2.880   3.175
 6372SOL     OW20014   3.432   6.224   1.593
 6372SOL    HW120015   3.385   6.137   1.579
 6372SOL    HW220016   3.382   6.279   1.660
 6373SOL     OW20017   5.859   4.538   4.958
 6373SOL    HW120018   5.768   4.542   4.917
 6373SOL    HW220019   5.850   4.527   5.057
 6374SOL     OW20020   3.361   3.249   3.427
 6374SOL    HW120021   3.400   3.197   3.351
 6374SOL    HW220022   3.326   3.336   3.393
 6375SOL     OW20023   0.904   0.925   3.195
 6375SOL    HW120024   0.830   0.926   3.263
 6375SOL    HW220025   0.876   0.871   3.116
 6376SOL     OW20026   0.469   1.559   5.312
 6376SOL    HW120027   0.512   1.617   5.243
 6376SOL    HW220028   0.517   1.472   5.318
 6377SOL     OW20029   6.860   0.709   5.661
 6377SOL    HW120030   6.768   0.703   5.622
 6377SOL    HW220031   6.897   0.800   5.645
 6378SOL     OW20032   4.836   4.540   3.364
 6378SOL    HW120033   4.918   4.559   3.419
 6378SOL    HW220034   4.828   4.607   3.290
 6379SOL     OW20035   1.805   5.231   4.369
 6379SOL    HW120036   1.814   5.200   4.464
 6379SOL    HW220037   1.887   5.207   4.318
 6380SOL     OW20038   0.973   1.188   5.556
 6380SOL    HW120039   1.018   1.249   5.622
 6380SOL    HW220040   0.948   1.240   5.474
 6381SOL     OW20041   2.880   3.588   2.567
 6381SOL    HW120042   2.872   3.492   2.541
 6381SOL    HW220043   2.928   3.638   2.494
 6382SOL     OW20044   1.621   2.594   6.304
 6382SOL    HW120045   1.583   2.516   6.253
 6382SOL    HW220046   1.606   2.678   6.253
 6383SOL     OW20047   2.007   2.325   3.776
 6383SOL    HW120048   2.097   2.284   3.765
 6383SOL    HW220049   2.013   2.402   3.840
 6384SOL     OW20050   6.151   4.764   1.957
 6384SOL    HW120051   6.174   4.761   2.054
 6384SOL    HW220052   6.233   4.781   1.903
 6385SOL     OW20053   6.045   5.186   3.985
 6385SOL    HW120054   5.965   5.170   3.927
 6385SOL    HW220055   6.025   5.155   4.078
 6386SOL     OW20056   2.692   4.956   1.276
 6386SOL    HW120057   2.695   4.922   1.370
 6386SOL    HW220058   2.600   4.941   1.238
 6387SOL     OW20059   0.350   1.947   5.922
 6387SOL    HW120060   0.400   2.022   5.964
 6387SOL    HW220061   0.389   1.926   5.833
 6388SOL     OW20062   3.600   4.688   1.204
 6388SOL    HW120063   3.668   4.615   1.214
 6388SOL    HW220064   3.579   4.726   1.294
 6389SOL     OW20065   0.592   5.921   2.203
 6389SOL    HW120066   0.507   5.972   2.220
 6389SOL    HW220067   0.602   5.849   2.272
 6390SOL     OW20068   6.883   2.222   3.132
 6390SOL    HW120069   6.880   2.174   3.045
 6390SOL    HW220070   6.894   2.320   3.117
 6391SOL     OW20071   3.433   1.338   0.217
 6391SOL    HW120072   3.371   1.372   0.288
 6391SOL    HW220073   3.423   1.395   0.135
 6392SOL     OW20074   2.316   6.625   3.950
 6392SOL    HW120075   2.375   6.612   4.030
 6392SOL    HW220076   2.264   6.709   3.961
 6393SOL     OW20077   5.662   6.736   1.728
 6393SOL    HW120078   5.669   6.820   1.675
 6393SOL    HW220079   5.711   6.747   1.815
 6394SOL     OW20080   2.354   4.866   1.131
 6394SOL    HW120081   2.369   4.868   1.230
 6394SOL    HW220082   2.428   4.816   1.087
 6395SOL     OW20083   6.457   1.642   1.394
 6395SOL    HW120084   6.555   1.656   1.380
 6395SOL    HW220085   6.437   1.643   1.492
 6396SOL     OW20086   5.334   2.702   6.117
 6396SOL    HW120087   5.342   2.799   6.139
 6396SOL    HW220088   5.255   2.688   6.057
 6397SOL     OW20089   6.830   1.983   6.840
 6397SOL    HW120090   6.909   1.932   6.805
 6397SOL    HW220091   6.861   2.069   6.881
 6398SOL     OW20092   3.334   0.800   1.789
 6398SOL    HW120093   3.247   0.850   1.784
 6398SOL    HW220094   3.356   0.781   1.884
 6399SOL     OW20095   1.811   5.886   6.866
 6399SOL    HW120096   1.715   5.891   6.837
 6399SOL    HW220097   1.853   5.806   6.825
 6400SOL     OW20098   2.148   5.638   3.138
 6400SOL    HW120099   2.152   5.578   3.218
 6400SOL    HW220100   2.149   5.582   3.055
 6401SOL     OW20101   0.240   4.722   3.892
 6401SOL    HW120102   0.204   4.704   3.800
 6401SOL    HW220103   0.216   4.815   3.919
 6402SOL     OW20104   2.631   0.814   2.966
 6402SOL    HW120105   2.636   0.864   3.052
 6402SOL    HW220106   2.624   0.879   2.890
 6403SOL     OW20107   0.851   5.550   6.861
 6403SOL    HW120108   0.938   5.534   6.908
 6403SOL    HW220109   0.861   5.529   6.764
 6404SOL     OW20110   4.130   1.608   3.329
 6404SOL    HW120111   4.136   1.703   3.362
 6404SOL    HW220112   4.081   1.606   3.242
 6405SOL     OW20113   1.896   2.059   2.818
 6405SOL    HW120114   1.821   2.125   2.806
 6405SOL    HW220115   1.960   2.067   2.742
 6406SOL     OW20116   1.406   1.157   3.268
 6406SOL    HW120117   1.477   1.180   3.201
 6406SOL    HW220118   1.355   1.077   3.238
 6407SOL     OW20119   2.909   6.957   4.435
 6407SOL    HW120120   2.924   6.925   4.342
 6407SOL    HW220121   2.970   0.013   4.455
 6408SOL     OW20122   6.001   2.664   6.866
 6408SOL    HW120123   6.088   2.651   6.914
 6408SOL    HW220124   5.927   2.668   6.934
 6409SOL     OW20125   6.323   3.952   2.905
 6409SOL    HW120126   6.328   4.048   2.877
 6409SOL    HW220127   6.300   3.946   3.002
 6410SOL     OW20128   2.055   2.003   0.588
 6410SOL    HW120129   1.957   1.986   0.601
 6410SOL    HW220130   2.075   2.010   0.490
 6411SOL     OW20131   0.944   2.239   3.277
 6411SOL    HW120132   0.953   2.148   3.316
 6411SOL    HW220133   0.943   2.307   3.351
 6412SOL     OW20134   6.822   3.233   5.438
 6412SOL    HW120135   6.915   3.225   5.403
 6412SOL    HW220136   6.758   3.240   5.362
 6413SOL     OW20137   5.718   5.054   1.887
 6413SOL    HW120138   5.662   5.019   1.812
 6413SOL    HW220139   5.781   4.983   1.918
 6414SOL     OW20140   5.933   0.978   2.067
 6414SOL    HW120141   5.878   1.042   2.121
 6414SOL    HW220142   5.931   1.006   1.971
 6415SOL     OW20143   2.644   2.409   2.499
 6415SOL    HW120144   2.545   2.399   2.489
 6415SOL    HW220145   2.689   2.385   2.413
 6416SOL     OW20146   0.916   0.267   6.407
 6416SOL    HW120147   0.857   0.343   6.381
 6416SOL    HW220148   0.883   0.226   6.492
 6417SOL     OW20149   0.674   6.424   3.298
 6417SOL    HW120150   0.697   6.382   3.211
 6417SOL    HW220151   0.738   6.393   3.369
 6418SOL     OW20152   6.406   5.031   2.115
 6418SOL    HW120153   6.344   5.097   2.156
 6418SOL    HW220154   6.421   5.053   2.019
 6419SOL     OW20155   3.091   5.508   1.766
 6419SOL    HW120156   3.143   5.453   1.831
 6419SOL    HW220157   3.095   5.465   1.675
 6420SOL     OW20158   2.943   3.138   6.203
 6420SOL    HW120159   3.023   3.079   6.196
 6420SOL    HW220160   2.889   3.110   6.283
 6421SOL     OW20161   6.249   1.415   1.419
 6421SOL    HW120162   6.159   1.433   1.379
 6421SOL    HW220163   6.308   1.494   1.405
 6422SOL     OW20164   6.922   0.520   3.551
 6422SOL    HW120165   6.837   0.520   3.603
 6422SOL    HW220166   6.996   0.556   3.608
 6423SOL     OW20167   4.899   3.746   1.222
 6423SOL    HW120168   4.858   3.754   1.132
 6423SOL    HW220169   4.827   3.729   1.290
 6424SOL     OW20170   6.615   4.408   5.635
 6424SOL    HW120171   6.631   4.484   5.697
 6424SOL    HW220172   6.617   4.442   5.540
 6425SOL     OW20173   6.786   4.622   3.295
 6425SOL    HW120174   6.808   4.709   3.340
 6425SOL    HW220175   6.807   4.629   3.198
 6426SOL     OW20176   1.295   3.058   4.291
 6426SOL    HW120177   1.215   3.063   4.351
 6426SOL    HW220178   1.322   2.963   4.279
 6427SOL     OW20179   1.483   3.852   6.822
 6427SOL    HW120180   1.556   3.921   6.815
 6427SOL    HW220181   1.400   3.896   6.856
 6428SOL     OW20182   6.365   3.287   1.978
 6428SOL    HW120183   6.275   3.312   1.943
 6428SOL    HW220184   6.410   3.369   2.014
 6429SOL     OW20185   1.670   0.518   4.671
 6429SOL    HW120186   1.736   0.466   4.617
 6429SOL    HW220187   1.585   0.466   4.679
 6430SOL     OW20188   4.753   0.650   2.023
 6430SOL    HW120189   4.841   0.693   2.045
 6430SOL    HW220190   4.762   0.551   2.029
 6431SOL     OW20191   5.671   0.027   3.192
 6431SOL    HW120192   5.710   0.022   3.284
 6431SOL    HW220193   5.575   7.020   3.195
 6432SOL     OW20194   4.267   4.230   6.922
 6432SOL    HW120195   4.185   4.287   6.932
 6432SOL    HW220196   4.243   4.134   6.936
 6433SOL     OW20197   3.181   4.951   1.259
 6433SOL    HW120198   3.104   4.888   1.249
 6433SOL    HW220199   3.254   4.925   1.195
 6434SOL     OW20200   1.311   3.769   1.044
 6434SOL    HW120201   1.305   3.683   0.993
 6434SOL    HW220202   1.399   3.812   1.027
 6435SOL     OW20203   3.351   5.189   0.270
 6435SOL    HW120204   3.372   5.173   0.366
 6435SOL    HW220205   3.346   5.102   0.222
 6436SOL     OW20206   1.763   2.827   3.399
 6436SOL    HW120207   1.862   2.839   3.400
 6436SOL    HW220208   1.729   2.822   3.492
 6437SOL     OW20209   1.885   1.214   0.166
 6437SOL    HW120210   1.802   1.158   0.154
 6437SOL    HW220211   1.955   1.159   0.211
 6438SOL     OW20212   0.577   3.944   5.171
 6438SOL    HW120213   0.552   3.847   5.169
 6438SOL    HW220214   0.616   3.966   5.260
 6439SOL     OW20215   0.956   6.645   0.591
 6439SOL    HW120216   1.045   6.632   0.547
 6439SOL    HW220217   0.906   6.718   0.545
 6440SOL     OW20218   2.327   2.191   1.598
 6440SOL    HW120219   2.304   2.215   1.504
 6440SOL    HW220220   2.251   2.217   1.658
 6441SOL     OW20221   1.599   0.484   2.461
 6441SOL    HW120222   1.633   0.459   2.370
 6441SOL    HW220223   1.506   0.447   2.472
 6442SOL     OW20224   2.483   1.394   4.647
 6442SOL    HW120225   2.491   1.348   4.736
 6442SOL    HW220226   2.460   1.490   4.661
 6443SOL     OW20227   3.240   3.057   0.311
 6443SOL    HW120228   3.257   3.149   0.344
 6443SOL    HW220229   3.245   2.992   0.387
 6444SOL     OW20230   0.305   2.193   3.185
 6444SOL    HW120231   0.283   2.203   3.088
 6444SOL    HW220232   0.221   2.196   3.238
 6445SOL     OW20233   4.336   2.624   5.292
 6445SOL    HW120234   4.259   2.573   5.252
 6445SOL    HW220235   4.360   2.584   5.380
 6446SOL     OW20236   0.392   1.201   6.291
 6446SOL    HW120237   0.294   1.181   6.293
 6446SOL    HW220238   0.406   1.299   6.274
 6447SOL     OW20239   1.127   5.747   2.167
 6447SOL    HW120240   1.127   5.820   2.236
 6447SOL    HW220241   1.199   5.681   2.189
 6448SOL     OW20242   6.020   3.968   2.256
 6448SOL    HW120243   5.992   4.058   2.289
 6448SOL    HW220244   6.106   3.942   2.300
 6449SOL     OW20245   3.700   3.938   1.810
 6449SOL    HW120246   3.614   3.930   1.760
 6449SOL    HW220247   3.761   4.001   1.762
 6450SOL     OW20248   6.491   2.909   1.618
 6450SOL    HW120249   6.524   2.828   1.666
 6450SOL    HW220250   6.463   2.884   1.525
 6451SOL     OW20251   3.519   6.219   5.391
 6451SOL    HW120252   3.608   6.182   5.362
 6451SOL    HW220253   3.491   6.175   5.477
 6452SOL     OW20254   3.471   0.054   4.800
 6452SOL    HW120255   3.554   0.104   4.776
 6452SOL    HW220256   3.481   0.015   4.891
 6453SOL     OW20257   1.117   6.576   6.768
 6453SOL    HW120258   1.035   6.568   6.711
 6453SOL    HW220259   1.126   6.493   6.824
 6454SOL     OW20260   2.533   1.319   4.108
 6454SOL    HW120261   2.534   1.408   4.061
 6454SOL    HW220262   2.510   1.333   4.204
 6455SOL     OW20263   0.879   2.776   4.601
 6455SOL    HW120264   0.795   2.722   4.597
 6455SOL    HW220265   0.867   2.859   4.547
 6456SOL     OW20266   1.501   0.050   3.157
 6456SOL    HW120267   1.547   0.099   3.231
 6456SOL    HW220268   1.461   6.986   3.192
 6457SOL     OW20269   5.666   1.750   1.513
 6457SOL    HW120270   5.752   1.698   1.516
 6457SOL    HW220271   5.605   1.709   1.446
 6458SOL     OW20272   1.103   6.325   2.592
 6458SOL    HW120273   1.101   6.237   2.544
 6458SOL    HW220274   1.144   6.312   2.682
 6459SOL     OW20275   5.554   5.708   0.435
 6459SOL    HW120276   5.558   5.788   0.495
 6459SOL    HW220277   5.597   5.630   0.481
 6460SOL     OW20278   4.552   4.857   0.104
 6460SOL    HW120279   4.499   4.881   0.185
 6460SOL    HW220280   4.574   4.760   0.106
 6461SOL     OW20281   3.010   5.690   5.687
 6461SOL    HW120282   3.017   5.620   5.617
 6461SOL    HW220283   2.914   5.708   5.707
 6462SOL     OW20284   2.164   3.274   5.251
 6462SOL    HW120285   2.165   3.193   5.193
 6462SOL    HW220286   2.142   3.354   5.196
 6463SOL     OW20287   2.705   4.958   6.297
 6463SOL    HW120288   2.613   4.956   6.259
 6463SOL    HW220289   2.703   4.930   6.393
 6464SOL     OW20290   0.746   4.777   3.734
 6464SOL    HW120291   0.733   4.829   3.650
 6464SOL    HW220292   0.787   4.689   3.712
 6465SOL     OW20293   5.988   2.164   3.966
 6465SOL    HW120294   5.999   2.251   4.013
 6465SOL    HW220295   6.061   2.101   3.995
 6466SOL     OW20296   6.590   2.600   5.004
 6466SOL    HW120297   6.631   2.687   5.032
 6466SOL    HW220298   6.663   2.535   4.981
 6467SOL     OW20299   2.242   1.093   6.316
 6467SOL    HW120300   2.207   1.187   6.309
 6467SOL    HW220301   2.223   1.058   6.408
 6468SOL     OW20302   4.216   6.288   1.920
 6468SOL    HW120303   4.311   6.264   1.897
 6468SOL    HW220304   4.169   6.321   1.838
 6469SOL     OW20305   6.535   1.200   5.357
 6469SOL    HW120306   6.557   1.209   5.454
 6469SOL    HW220307   6.618   1.177   5.306
 6470SOL     OW20308   6.934   6.067   6.056
 6470SOL    HW120309   0.008   6.037   6.052
 6470SOL    HW220310   6.873   5.988   6.061
 6471SOL     OW20311   6.962   5.351   6.400
 6471SOL    HW120312   6.991   5.320   6.491
 6471SOL    HW220313   6.880   5.408   6.409
 6472SOL     OW20314   0.802   6.110   1.213
 6472SOL    HW120315   0.885   6.057   1.229
 6472SOL    HW220316   0.817   6.172   1.135
 6473SOL     OW20317   2.029   1.050   6.038
 6473SOL    HW120318   2.056   0.993   6.115
 6473SOL    HW220319   2.105   1.111   6.014
 6474SOL     OW20320   1.582   4.034   6.176
 6474SOL    HW120321   1.542   4.041   6.268
 6474SOL    HW220322   1.531   3.966   6.123
 6475SOL     OW20323   5.814   5.771   3.850
 6475SOL    HW120324   5.877   5.787   3.774
 6475SOL    HW220325   5.815   5.851   3.911
 6476SOL     OW20326   4.424   4.467   2.549
 6476SOL    HW120327   4.497   4.427   2.606
 6476SOL    HW220328   4.437   4.440   2.454
 6477SOL     OW20329   6.617   5.187   6.527
 6477SOL    HW120330   6.535   5.140   6.559
 6477SOL    HW220331   6.698   5.149   6.572
 6478SOL     OW20332   3.826   5.828   1.929
 6478SOL    HW120333   3.778   5.850   1.844
 6478SOL    HW220334   3.776   5.869   2.006
 6479SOL     OW20335   4.267   4.964   1.875
 6479SOL    HW120336   4.323   4.979   1.793
 6479SOL    HW220337   4.298   4.881   1.922
 6480SOL     OW20338   3.859   3.051   5.981
 6480SOL    HW120339   3.926   3.121   6.006
 6480SOL    HW220340   3.770   3.094   5.963
 6481SOL     OW20341   3.779   2.105   1.390
 6481SOL    HW120342   3.877   2.118   1.378
 6481SOL    HW220343   3.735   2.194   1.404
 6482SOL     OW20344   6.568   0.877   0.255
 6482SOL    HW120345   6.629   0.809   0.295
 6482SOL    HW220346   6.533   0.844   0.168
 6483SOL     OW20347   2.408   6.401   2.116
 6483SOL    HW120348   2.363   6.351   2.042
 6483SOL    HW220349   2.360   6.385   2.202
 6484SOL     OW20350   4.508   0.240   2.412
 6484SOL    HW120351   4.500   0.225   2.313
 6484SOL    HW220352   4.542   0.157   2.456
 6485SOL     OW20353   1.381   2.918   3.628
 6485SOL    HW120354   1.382   2.818   3.627
 6485SOL    HW220355   1.288   2.950   3.644
 6486SOL     OW20356   0.992   4.166   4.327
 6486SOL    HW120357   1.060   4.140   4.259
 6486SOL    HW220358   0.902   4.131   4.299
 6487SOL     OW20359   6.873   5.493   4.325
 6487SOL    HW120360   6.881   5.485   4.424
 6487SOL    HW220361   6.798   5.555   4.303
 6488SOL     OW20362   3.290   6.402   5.884
 6488SOL    HW120363   3.270   6.358   5.971
 6488SOL    HW220364   3.309   6.332   5.815
 6489SOL     OW20365   1.936   2.510   6.926
 6489SOL    HW120366   1.946   2.604   6.893
 6489SOL    HW220367   1.841   2.479   6.912
 6490SOL     OW20368   4.262   2.579   0.485
 6490SOL    HW120369   4.345   2.542   0.443
 6490SOL    HW220370   4.221   2.647   0.424
 6491SOL     OW20371   4.407   1.050   6.593
 6491SOL    HW120372   4.329   0.989   6.605
 6491SOL    HW220373   4.417   1.109   6.674
 6492SOL     OW20374   5.910   6.967   0.241
 6492SOL    HW120375   5.980   6.944   0.309
 6492SOL    HW220376   5.950   6.966   0.150
 6493SOL     OW20377   1.934   6.335   5.485
 6493SOL    HW120378   1.837   6.309   5.485
 6493SOL    HW220379   1.981   6.292   5.562
 6494SOL     OW20380   0.764   0.228   3.567
 6494SOL    HW120381   0.707   0.147   3.579
 6494SOL    HW220382   0.851   0.216   3.616
 6495SOL     OW20383   4.921   5.988   3.566
 6495SOL    HW120384   4.985   5.922   3.605
 6495SOL    HW220385   4.972   6.062   3.522
 6496SOL     OW20386   6.647   6.359   2.066
 6496SOL    HW120387   6.649   6.394   1.973
 6496SOL    HW220388   6.700   6.274   2.071
 6497SOL     OW20389   2.475   3.532   1.165
 6497SOL    HW120390   2.466   3.454   1.227
 6497SOL    HW220391   2.384   3.561   1.134
 6498SOL     OW20392   2.271   4.824   3.977
 6498SOL    HW120393   2.274   4.859   4.071
 6498SOL    HW220394   2.365   4.812   3.943
 6499SOL     OW20395   5.250   0.580   5.252
 6499SOL    HW120396   5.258   0.572   5.153
 6499SOL    HW220397   5.327   0.633   5.288
 6500SOL     OW20398   6.568   3.826   3.573
 6500SOL    HW120399   6.488   3.875   3.538
 6500SOL    HW220400   6.633   3.891   3.611
 6501SOL     OW20401   6.483   3.564   1.201
 6501SOL    HW120402   6.522   3.560   1.293
 6501SOL    HW220403   6.489   3.658   1.166
 6502SOL     OW20404   0.390   4.374   3.673
 6502SOL    HW120405   0.325   4.340   3.741
 6502SOL    HW220406   0.374   4.328   3.586
 6503SOL     OW20407   5.734   6.600   3.632
 6503SOL    HW120408   5.730   6.625   3.536
 6503SOL    HW220409   5.830   6.592   3.661
 6504SOL     OW20410   4.267   6.997   6.493
 6504SOL    HW120411   4.325   6.964   6.568
 6504SOL    HW220412   4.300   6.960   6.406
 6505SOL     OW20413   6.016   4.349   0.743
 6505SOL    HW120414   6.098   4.362   0.798
 6505SOL    HW220415   6.042   4.348   0.646
 6506SOL     OW20416   0.996   2.981   0.821
 6506SOL    HW120417   0.965   2.887   0.831
 6506SOL    HW220418   1.088   2.990   0.860
 6507SOL     OW20419   1.358   5.930   0.883
 6507SOL    HW120420   1.280   5.969   0.836
 6507SOL    HW220421   1.414   6.003   0.922
 6508SOL     OW20422   1.923   2.022   3.784
 6508SOL    HW120423   2.000   1.959   3.775
 6508SOL    HW220424   1.941   2.104   3.730
 6509SOL     OW20425   1.028   2.547   4.868
 6509SOL    HW120426   0.992   2.524   4.778
 6509SOL    HW220427   1.041   2.646   4.875
 6510SOL     OW20428   0.125   5.467   6.212
 6510SOL    HW120429   0.067   5.431   6.285
 6510SOL    HW220430   0.142   5.395   6.145
 6511SOL     OW20431   6.203   0.578   5.087
 6511SOL    HW120432   6.260   0.648   5.130
 6511SOL    HW220433   6.212   0.492   5.138
 6512SOL     OW20434   4.499   6.907   3.044
 6512SOL    HW120435   4.401   6.891   3.051
 6512SOL    HW220436   4.539   6.845   2.976
 6513SOL     OW20437   3.353   6.592   4.317
 6513SOL    HW120438   3.418   6.636   4.379
 6513SOL    HW220439   3.274   6.652   4.303
 6514SOL     OW20440   5.130   6.892   4.082
 6514SOL    HW120441   5.084   6.962   4.136
 6514SOL    HW220442   5.108   6.905   3.986
 6515SOL     OW20443   6.603   5.379   3.802
 6515SOL    HW120444   6.664   5.427   3.739
 6515SOL    HW220445   6.625   5.281   3.802
 6516SOL     OW20446   0.709   1.719   6.800
 6516SOL    HW120447   0.628   1.721   6.742
 6516SOL    HW220448   0.698   1.783   6.876
 6517SOL     OW20449   0.347   1.754   0.657
 6517SOL    HW120450   0.248   1.753   0.647
 6517SOL    HW220451   0.390   1.717   0.575
 6518SOL     OW20452   0.781   6.149   0.568
 6518SOL    HW120453   0.785   6.122   0.664
 6518SOL    HW220454   0.700   6.206   0.552
 6519SOL     OW20455   2.409   1.359   4.376
 6519SOL    HW120456   2.416   1.373   4.475
 6519SOL    HW220457   2.324   1.311   4.356
 6520SOL     OW20458   6.540   5.593   2.766
 6520SOL    HW120459   6.498   5.568   2.853
 6520SOL    HW220460   6.599   5.519   2.735
 6521SOL     OW20461   1.486   1.101   4.377
 6521SOL    HW120462   1.483   1.179   4.313
 6521SOL    HW220463   1.399   1.052   4.373
 6522SOL     OW20464   2.087   5.312   6.924
 6522SOL    HW120465   2.177   5.268   6.921
 6522SOL    HW220466   2.017   5.246   6.896
 6523SOL     OW20467   2.613   1.452   6.281
 6523SOL    HW120468   2.571   1.372   6.323
 6523SOL    HW220469   2.653   1.510   6.352
 6524SOL     OW20470   3.660   3.846   3.707
 6524SOL    HW120471   3.697   3.815   3.619
 6524SOL    HW220472   3.655   3.769   3.770
 6525SOL     OW20473   1.192   2.656   2.710
 6525SOL    HW120474   1.247   2.606   2.778
 6525SOL    HW220475   1.104   2.682   2.751
 6526SOL     OW20476   0.820   6.336   4.829
 6526SOL    HW120477   0.918   6.321   4.825
 6526SOL    HW220478   0.801   6.434   4.827
 6527SOL     OW20479   1.606   0.545   5.130
 6527SOL    HW120480   1.582   0.640   5.147
 6527SOL    HW220481   1.556   0.512   5.050
 6528SOL     OW20482   0.011   0.668   4.351
 6528SOL    HW120483   6.945   0.638   4.391
 6528SOL    HW220484   0.002   0.764   4.322
 6529SOL     OW20485   5.448   1.850   2.874
 6529SOL    HW120486   5.547   1.835   2.872
 6529SOL    HW220487   5.404   1.772   2.919
 6530SOL     OW20488   6.396   2.672   0.310
 6530SOL    HW120489   6.315   2.663   0.366
 6530SOL    HW220490   6.437   2.582   0.294
 6531SOL     OW20491   5.639   2.400   3.971
 6531SOL    HW120492   5.711   2.399   4.040
 6531SOL    HW220493   5.550   2.383   4.015
 6532SOL     OW20494   6.434   2.030   6.856
 6532SOL    HW120495   6.455   2.066   6.947
 6532SOL    HW220496   6.377   2.095   6.806
 6533SOL     OW20497   5.732   6.178   0.994
 6533SOL    HW120498   5.716   6.101   0.932
 6533SOL    HW220499   5.792   6.149   1.068
 6534SOL     OW20500   2.541   3.746   1.396
 6534SOL    HW120501   2.466   3.775   1.456
 6534SOL    HW220502   2.504   3.698   1.317
 6535SOL     OW20503   0.092   3.261   5.386
 6535SOL    HW120504   0.176   3.228   5.342
 6535SOL    HW220505   0.066   3.349   5.347
 6536SOL     OW20506   5.818   2.094   6.752
 6536SOL    HW120507   5.884   2.056   6.687
 6536SOL    HW220508   5.810   2.192   6.737
 6537SOL     OW20509   6.461   6.644   6.832
 6537SOL    HW120510   6.410   6.571   6.787
 6537SOL    HW220511   6.557   6.618   6.840
 6538SOL     OW20512   3.565   3.797   6.984
 6538SOL    HW120513   3.665   3.795   6.985
 6538SOL    HW220514   3.529   3.711   7.019
 6539SOL     OW20515   2.534   2.188   6.718
 6539SOL    HW120516   2.479   2.112   6.682
 6539SOL    HW220517   2.512   2.272   6.668
 6540SOL     OW20518   3.667   1.849   4.399
 6540SOL    HW120519   3.588   1.908   4.419
 6540SOL    HW220520   3.661   1.818   4.304
 6541SOL     OW20521   3.042   2.518   5.380
 6541SOL    HW120522   2.953   2.544   5.343
 6541SOL    HW220523   3.082   2.447   5.322
 6542SOL     OW20524   6.170   5.046   3.260
 6542SOL    HW120525   6.187   5.001   3.347
 6542SOL    HW220526   6.233   5.010   3.191
 6543SOL     OW20527   6.069   5.528   0.213
 6543SOL    HW120528   6.024   5.445   0.245
 6543SOL    HW220529   6.141   5.554   0.278
 6544SOL     OW20530   6.695   6.457   4.287
 6544SOL    HW120531   6.788   6.483   4.260
 6544SOL    HW220532   6.693   6.442   4.386
 6545SOL     OW20533   5.398   0.898   6.079
 6545SOL    HW120534   5.346   0.819   6.112
 6545SOL    HW220535   5.365   0.924   5.988
 6546SOL     OW20536   4.278   4.615   6.013
 6546SOL    HW120537   4.314   4.680   5.946
 6546SOL    HW220538   4.251   4.530   5.966
 6547SOL     OW20539   4.650   1.961   6.170
 6547SOL    HW120540   4.607   2.045   6.204
 6547SOL    HW220541   4.709   1.984   6.092
 6548SOL     OW20542   0.147   4.426   5.858
 6548SOL    HW120543   0.209   4.400   5.784
 6548SOL    HW220544   0.054   4.431   5.823
 6549SOL     OW20545   4.164   2.086   1.260
 6549SOL    HW120546   4.103   2.010   1.238
 6549SOL    HW220547   4.184   2.086   1.359
 6550SOL     OW20548   0.670   5.514   3.503
 6550SOL    HW120549   0.595   5.456   3.470
 6550SOL    HW220550   0.691   5.490   3.598
 6551SOL     OW20551   2.220   4.441   1.617
 6551SOL    HW120552   2.177   4.429   1.707
 6551SOL    HW220553   2.319   4.432   1.626
 6552SOL     OW20554   2.425   5.443   5.296
 6552SOL    HW120555   2.500   5.384   5.328
 6552SOL    HW220556   2.350   5.439   5.362
 6553SOL     OW20557   0.456   3.113   1.586
 6553SOL    HW120558   0.391   3.071   1.522
 6553SOL    HW220559   0.464   3.056   1.667
 6554SOL     OW20560   6.168   1.543   5.779
 6554SOL    HW120561   6.115   1.614   5.827
 6554SOL    HW220562   6.154   1.455   5.823
 6555SOL     OW20563   2.097   0.664   1.939
 6555SOL    HW120564   2.031   0.633   2.008
 6555SOL    HW220565   2.111   0.763   1.949
 6556SOL     OW20566   4.685   4.608   4.986
 6556SOL    HW120567   4.671   4.577   4.892
 6556SOL    HW220568   4.783   4.623   5.002
 6557SOL     OW20569   5.988   5.733   0.582
 6557SOL    HW120570   5.951   5.803   0.521
 6557SOL    HW220571   6.041   5.777   0.655
 6558SOL     OW20572   6.451   6.078   0.762
 6558SOL    HW120573   6.426   6.106   0.669
 6558SOL    HW220574   6.428   5.982   0.775
 6559SOL     OW20575   4.850   3.520   0.764
 6559SOL    HW120576   4.874   3.580   0.688
 6559SOL    HW220577   4.788   3.568   0.826
 6560SOL     OW20578   3.973   3.161   1.270
 6560SOL    HW120579   4.009   3.080   1.223
 6560SOL    HW220580   4.049   3.209   1.315
 6561SOL     OW20581   3.936   3.902   2.392
 6561SOL    HW120582   3.995   3.825   2.416
 6561SOL    HW220583   3.984   3.960   2.326
 6562SOL     OW20584   6.790   4.699   6.020
 6562SOL    HW120585   6.831   4.624   6.072
 6562SOL    HW220586   6.708   4.667   5.974
 6563SOL     OW20587   0.332   5.779   0.094
 6563SOL    HW120588   0.359   5.726   0.014
 6563SOL    HW220589   0.414   5.809   0.143
 6564SOL     OW20590   1.151   3.674   2.282
 6564SOL    HW120591   1.214   3.750   2.269
 6564SOL    HW220592   1.070   3.688   2.225
 6565SOL     OW20593   5.221   2.231   4.905
 6565SOL    HW120594   5.168   2.265   4.983
 6565SOL    HW220595   5.236   2.306   4.840
 6566SOL     OW20596   3.621   0.365   1.331
 6566SOL    HW120597   3.568   0.321   1.259
 6566SOL    HW220598   3.703   0.310   1.349
 6567SOL     OW20599   4.485   2.914   1.132
 6567SOL    HW120600   4.458   2.995   1.185
 6567SOL    HW220601   4.562   2.869   1.177
 6568SOL     OW20602   4.660   4.569   1.603
 6568SOL    HW120603   4.711   4.483   1.597
 6568SOL    HW220604   4.582   4.557   1.664
 6569SOL     OW20605   2.695   5.480   0.858
 6569SOL    HW120606   2.740   5.555   0.809
 6569SOL    HW220607   2.700   5.497   0.956
 6570SOL     OW20608   4.817   0.170   2.335
 6570SOL    HW120609   4.855   0.080   2.314
 6570SOL    HW220610   4.734   0.159   2.390
 6571SOL     OW20611   2.314   5.888   3.154
 6571SOL    HW120612   2.254   5.808   3.158
 6571SOL    HW220613   2.274   5.956   3.092
 6572SOL     OW20614   6.079   3.621   5.458
 6572SOL    HW120615   6.041   3.547   5.402
 6572SOL    HW220616   6.036   3.619   5.548
 6573SOL     OW20617   3.288   0.888   2.457
 6573SOL    HW120618   3.312   0.983   2.440
 6573SOL    HW220619   3.217   0.883   2.527
 6574SOL     OW20620   2.218   6.253   1.913
 6574SOL    HW120621   2.264   6.167   1.933
 6574SOL    HW220622   2.130   6.256   1.960
 6575SOL     OW20623   1.061   1.349   1.390
 6575SOL    HW120624   1.150   1.388   1.414
 6575SOL    HW220625   0.989   1.403   1.433
 6576SOL     OW20626   1.104   6.090   6.593
 6576SOL    HW120627   1.073   6.141   6.674
 6576SOL    HW220628   1.122   5.995   6.619
 6577SOL     OW20629   0.345   1.420   3.719
 6577SOL    HW120630   0.365   1.360   3.641
 6577SOL    HW220631   0.317   1.364   3.797
 6578SOL     OW20632   6.226   5.289   3.590
 6578SOL    HW120633   6.224   5.310   3.688
 6578SOL    HW220634   6.321   5.274   3.561
 6579SOL     OW20635   6.972   3.790   3.958
 6579SOL    HW120636   6.918   3.763   4.038
 6579SOL    HW220637   6.922   3.858   3.905
 6580SOL     OW20638   5.810   0.835   1.347
 6580SOL    HW120639   5.746   0.904   1.313
 6580SOL    HW220640   5.783   0.745   1.313
 6581SOL     OW20641   4.043   1.501   5.878
 6581SOL    HW120642   4.023   1.431   5.809
 6581SOL    HW220643   3.974   1.573   5.873
 6582SOL     OW20644   0.731   6.769   2.614
 6582SOL    HW120645   0.699   6.860   2.587
 6582SOL    HW220646   0.797   6.736   2.546
 6583SOL     OW20647   5.303   1.336   6.509
 6583SOL    HW120648   5.254   1.259   6.551
 6583SOL    HW220649   5.400   1.313   6.499
 6584SOL     OW20650   5.679   1.855   6.504
 6584SOL    HW120651   5.636   1.943   6.480
 6584SOL    HW220652   5.622   1.780   6.470
 6585SOL     OW20653   0.378   1.549   6.853
 6585SOL    HW120654   0.333   1.634   6.881
 6585SOL    HW220655   0.364   1.535   6.754
 6586SOL     OW20656   6.336   1.912   6.043
 6586SOL    HW120657   6.321   2.010   6.046
 6586SOL    HW220658   6.404   1.891   5.973
 6587SOL     OW20659   2.236   5.976   4.052
 6587SOL    HW120660   2.206   6.039   3.980
 6587SOL    HW220661   2.194   5.886   4.037
 6588SOL     OW20662   1.513   3.911   0.715
 6588SOL    HW120663   1.530   3.910   0.814
 6588SOL    HW220664   1.563   3.836   0.672
 6589SOL     OW20665   4.767   0.487   6.611
 6589SOL    HW120666   4.797   0.565   6.556
 6589SOL    HW220667   4.690   0.442   6.565
 6590SOL     OW20668   0.340   1.544   4.745
 6590SOL    HW120669   0.254   1.540   4.797
 6590SOL    HW220670   0.326   1.597   4.662
 6591SOL     OW20671   5.635   6.850   2.727
 6591SOL    HW120672   5.577   6.929   2.740
 6591SOL    HW220673   5.612   6.779   2.793
 6592SOL     OW20674   3.879   0.547   4.678
 6592SOL    HW120675   3.878   0.627   4.618
 6592SOL    HW220676   3.801   0.551   4.740
 6593SOL     OW20677   2.668   2.193   3.977
 6593SOL    HW120678   2.664   2.105   4.024
 6593SOL    HW220679   2.669   2.267   4.044
 6594SOL     OW20680   4.685   0.784   6.928
 6594SOL    HW120681   4.694   0.689   6.959
 6594SOL    HW220682   4.641   0.785   6.838
 6595SOL     OW20683   1.634   3.352   1.342
 6595SOL    HW120684   1.660   3.444   1.372
 6595SOL    HW220685   1.536   3.339   1.356
 6596SOL     OW20686   4.341   0.785   5.912
 6596SOL    HW120687   4.296   0.745   5.832
 6596SOL    HW220688   4.330   0.884   5.911
 6597SOL     OW20689   0.533   6.486   4.570
 6597SOL    HW120690   0.622   6.488   4.525
 6597SOL    HW220691   0.498   6.392   4.572
 6598SOL     OW20692   1.460   5.402   4.952
 6598SOL    HW120693   1.439   5.460   4.874
 6598SOL    HW220694   1.560   5.393   4.961
 6599SOL     OW20695   4.325   5.002   6.072
 6599SOL    HW120696   4.247   4.944   6.046
 6599SOL    HW220697   4.343   5.068   6.000
 6600SOL     OW20698   4.795   5.068   4.924
 6600SOL    HW120699   4.886   5.033   4.945
 6600SOL    HW220700   4.758   5.020   4.845
 6601SOL     OW20701   0.629   0.752   0.563
 6601SOL    HW120702   0.542   0.788   0.597
 6601SOL    HW220703   0.693   0.827   0.550
 6602SOL     OW20704   0.412   2.602   1.328
 6602SOL    HW120705   0.313   2.605   1.334
 6602SOL    HW220706   0.444   2.672   1.264
 6603SOL     OW20707   2.164   3.770   3.847
 6603SOL    HW120708   2.254   3.734   3.820
 6603SOL    HW220709   2.138   3.842   3.783
 6604SOL     OW20710   2.637   5.836   1.577
 6604SOL    HW120711   2.538   5.848   1.580
 6604SOL    HW220712   2.679   5.913   1.529
 6605SOL     OW20713   5.328   5.711   0.264
 6605SOL    HW120714   5.391   5.682   0.337
 6605SOL    HW220715   5.312   5.809   0.272
 6606SOL     OW20716   4.815   0.537   2.478
 6606SOL    HW120717   4.787   0.620   2.429
 6606SOL    HW220718   4.772   0.457   2.436
 6607SOL     OW20719   2.161   1.046   1.725
 6607SOL    HW120720   2.129   1.051   1.631
 6607SOL    HW220721   2.260   1.050   1.727
 6608SOL     OW20722   5.363   3.148   2.911
 6608SOL    HW120723   5.279   3.170   2.860
 6608SOL    HW220724   5.349   3.062   2.961
 6609SOL     OW20725   5.750   0.878   0.068
 6609SOL    HW120726   5.652   0.884   0.089
 6609SOL    HW220727   5.762   0.842   6.997
 6610SOL     OW20728   1.728   0.455   0.008
 6610SOL    HW120729   1.693   0.362   7.020
 6610SOL    HW220730   1.820   0.452   0.046
 6611SOL     OW20731   6.549   2.473   2.784
 6611SOL    HW120732   6.518   2.380   2.803
 6611SOL    HW220733   6.472   2.536   2.788
 6612SOL     OW20734   1.245   5.426   6.427
 6612SOL    HW120735   1.290   5.466   6.347
 6612SOL    HW220736   1.163   5.479   6.449
 6613SOL     OW20737   5.073   5.229   2.995
 6613SOL    HW120738   5.004   5.298   2.976
 6613SOL    HW220739   5.139   5.226   2.920
 6614SOL     OW20740   5.056   5.571   6.065
 6614SOL    HW120741   5.061   5.581   6.164
 6614SOL    HW220742   5.139   5.526   6.032
 6615SOL     OW20743   0.373   3.269   5.047
 6615SOL    HW120744   0.364   3.368   5.049
 6615SOL    HW220745   0.288   3.229   5.013
 6616SOL     OW20746   4.321   1.353   5.380
 6616SOL    HW120747   4.293   1.287   5.309
 6616SOL    HW220748   4.420   1.353   5.387
 6617SOL     OW20749   3.134   6.648   3.993
 6617SOL    HW120750   3.234   6.649   3.989
 6617SOL    HW220751   3.101   6.555   3.976
 6618SOL     OW20752   0.937   3.700   2.135
 6618SOL    HW120753   0.951   3.773   2.069
 6618SOL    HW220754   0.841   3.698   2.163
 6619SOL     OW20755   4.263   0.021   3.797
 6619SOL    HW120756   4.348   0.058   3.835
 6619SOL    HW220757   4.188   0.038   3.861
 6620SOL     OW20758   1.830   2.646   6.158
 6620SOL    HW120759   1.775   2.618   6.237
 6620SOL    HW220760   1.905   2.706   6.189
 6621SOL     OW20761   2.651   3.934   0.395
 6621SOL    HW120762   2.690   3.868   0.458
 6621SOL    HW220763   2.558   3.905   0.369
 6622SOL     OW20764   6.275   6.069   0.958
 6622SOL    HW120765   6.352   6.088   0.896
 6622SOL    HW220766   6.306   6.008   1.031
 6623SOL     OW20767   3.239   3.198   2.088
 6623SOL    HW120768   3.318   3.216   2.030
 6623SOL    HW220769   3.236   3.100   2.110
 6624SOL     OW20770   3.285   5.605   4.936
 6624SOL    HW120771   3.216   5.539   4.965
 6624SOL    HW220772   3.241   5.685   4.897
 6625SOL     OW20773   6.106   1.137   6.664
 6625SOL    HW120774   6.104   1.210   6.732
 6625SOL    HW220775   6.194   1.138   6.616
 6626SOL     OW20776   3.207   5.553   3.215
 6626SOL    HW120777   3.268   5.543   3.293
 6626SOL    HW220778   3.245   5.504   3.136
 6627SOL     OW20779   1.748   0.419   6.129
 6627SOL    HW120780   1.810   0.366   6.186
 6627SOL    HW220781   1.686   0.356   6.081
 6628SOL     OW20782   4.948   4.869   2.326
 6628SOL    HW120783   4.865   4.864   2.270
 6628SOL    HW220784   4.990   4.779   2.332
 6629SOL     OW20785   3.082   6.050   1.283
 6629SOL    HW120786   3.162   6.107   1.299
 6629SOL    HW220787   3.006   6.081   1.340
 6630SOL     OW20788   3.801   1.397   0.114
 6630SOL    HW120789   3.815   1.299   0.125
 6630SOL    HW220790   3.885   1.439   0.081
 6631SOL     OW20791   4.448   0.280   2.128
 6631SOL    HW120792   4.373   0.346   2.135
 6631SOL    HW220793   4.433   0.221   2.049
 6632SOL     OW20794   0.079   1.775   0.693
 6632SOL    HW120795   7.021   1.818   0.650
 6632SOL    HW220796   0.055   1.746   0.786
 6633SOL     OW20797   1.106   5.675   6.678
 6633SOL    HW120798   1.048   5.595   6.664
 6633SOL    HW220799   1.157   5.665   6.764
 6634SOL     OW20800   6.429   3.177   6.027
 6634SOL    HW120801   6.465   3.266   5.999
 6634SOL    HW220802   6.329   3.181   6.031
 6635SOL     OW20803   4.000   5.193   3.414
 6635SOL    HW120804   3.923   5.130   3.422
 6635SOL    HW220805   4.055   5.189   3.498
 6636SOL     OW20806   1.243   3.026   5.561
 6636SOL    HW120807   1.219   3.116   5.524
 6636SOL    HW220808   1.288   3.037   5.649
 6637SOL     OW20809   1.390   0.846   0.490
 6637SOL    HW120810   1.486   0.870   0.475
 6637SOL    HW220811   1.385   0.764   0.548
 6638SOL     OW20812   2.470   5.199   4.761
 6638SOL    HW120813   2.393   5.255   4.791
 6638SOL    HW220814   2.437   5.111   4.727
 6639SOL     OW20815   5.595   5.017   6.364
 6639SOL    HW120816   5.620   5.112   6.349
 6639SOL    HW220817   5.678   4.961   6.368
 6640SOL     OW20818   0.229   1.863   4.150
 6640SOL    HW120819   0.190   1.853   4.059
 6640SOL    HW220820   0.303   1.798   4.163
 6641SOL     OW20821   3.420   4.197   6.381
 6641SOL    HW120822   3.471   4.227   6.462
 6641SOL    HW220823   3.454   4.245   6.300
 6642SOL     OW20824   1.854   5.233   0.124
 6642SOL    HW120825   1.870   5.175   0.044
 6642SOL    HW220826   1.781   5.299   0.103
 6643SOL     OW20827   6.158   4.365   6.236
 6643SOL    HW120828   6.227   4.419   6.284
 6643SOL    HW220829   6.198   4.327   6.153
 6644SOL     OW20830   2.895   4.856   1.882
 6644SOL    HW120831   2.878   4.759   1.862
 6644SOL    HW220832   2.937   4.865   1.972
 6645SOL     OW20833   0.097   4.967   0.110
 6645SOL    HW120834   0.189   4.984   0.073
 6645SOL    HW220835   0.073   4.871   0.096
 6646SOL     OW20836   3.884   5.218   4.150
 6646SOL    HW120837   3.844   5.131   4.123
 6646SOL    HW220838   3.981   5.204   4.172
 6647SOL     OW20839   3.162   0.537   2.501
 6647SOL    HW120840   3.234   0.554   2.568
 6647SOL    HW220841   3.159   0.613   2.436
 6648SOL     OW20842   4.000   5.805   2.986
 6648SOL    HW120843   4.024   5.869   3.060
 6648SOL    HW220844   4.075   5.802   2.920
 6649SOL     OW20845   5.483   1.683   6.432
 6649SOL    HW120846   5.466   1.642   6.521
 6649SOL    HW220847   5.459   1.618   6.360
 6650SOL     OW20848   3.987   0.927   3.383
 6650SOL    HW120849   4.029   0.886   3.464
 6650SOL    HW220850   4.047   0.997   3.346
 6651SOL     OW20851   1.366   2.057   0.399
 6651SOL    HW120852   1.465   2.049   0.403
 6651SOL    HW220853   1.329   1.986   0.339
 6652SOL     OW20854   6.717   4.538   1.011
 6652SOL    HW120855   6.692   4.604   0.940
 6652SOL    HW220856   6.767   4.462   0.969
 6653SOL     OW20857   3.718   3.954   3.302
 6653SOL    HW120858   3.708   4.007   3.386
 6653SOL    HW220859   3.655   3.987   3.233
 6654SOL     OW20860   1.870   2.519   1.269
 6654SOL    HW120861   1.839   2.614   1.261
 6654SOL    HW220862   1.904   2.487   1.181
 6655SOL     OW20863   3.033   6.840   1.895
 6655SOL    HW120864   2.973   6.910   1.858
 6655SOL    HW220865   3.013   6.752   1.850
 6656SOL     OW20866   6.877   1.095   2.575
 6656SOL    HW120867   6.874   1.027   2.649
 6656SOL    HW220868   6.934   1.060   2.501
 6657SOL     OW20869   4.324   0.042   6.033
 6657SOL    HW120870   4.247   0.024   5.972
 6657SOL    HW220871   4.409   0.036   5.981
 6658SOL     OW20872   5.789   0.697   4.996
 6658SOL    HW120873   5.844   0.647   4.929
 6658SOL    HW220874   5.700   0.719   4.957
 6659SOL     OW20875   3.134   2.777   0.185
 6659SOL    HW120876   3.105   2.859   0.233
 6659SOL    HW220877   3.115   2.787   0.087
 6660SOL     OW20878   0.102   6.654   1.955
 6660SOL    HW120879   0.025   6.662   2.019
 6660SOL    HW220880   0.102   6.733   1.894
 6661SOL     OW20881   6.329   5.006   3.781
 6661SOL    HW120882   6.264   4.934   3.805
 6661SOL    HW220883   6.290   5.096   3.804
 6662SOL     OW20884   2.253   1.272   0.223
 6662SOL    HW120885   2.173   1.228   0.262
 6662SOL    HW220886   2.334   1.250   0.278
 6663SOL     OW20887   6.890   5.653   3.146
 6663SOL    HW120888   6.924   5.686   3.058
 6663SOL    HW220889   6.795   5.623   3.136
 6664SOL     OW20890   1.324   0.087   1.693
 6664SOL    HW120891   1.411   0.130   1.716
 6664SOL    HW220892   1.335   7.008   1.694
 6665SOL     OW20893   0.931   6.601   2.978
 6665SOL    HW120894   0.887   6.551   2.904
 6665SOL    HW220895   0.944   6.539   3.056
 6666SOL     OW20896   6.296   1.332   4.822
 6666SOL    HW120897   6.355   1.398   4.869
 6666SOL    HW220898   6.350   1.283   4.753
 6667SOL     OW20899   5.797   5.271   5.033
 6667SOL    HW120900   5.889   5.295   5.005
 6667SOL    HW220901   5.746   5.354   5.055
 6668SOL     OW20902   0.011   5.355   2.147
 6668SOL    HW120903   0.084   5.419   2.123
 6668SOL    HW220904   0.042   5.262   2.132
 6669SOL     OW20905   2.478   4.790   3.377
 6669SOL    HW120906   2.409   4.789   3.449
 6669SOL    HW220907   2.566   4.763   3.415
 6670SOL     OW20908   3.103   4.881   6.910
 6670SOL    HW120909   3.158   4.808   6.951
 6670SOL    HW220910   3.028   4.840   6.858
 6671SOL     OW20911   6.015   4.672   0.018
 6671SOL    HW120912   6.062   4.611   6.974
 6671SOL    HW220913   5.927   4.631   0.043
 6672SOL     OW20914   1.570   0.557   5.828
 6672SOL    HW120915   1.509   0.623   5.872
 6672SOL    HW220916   1.665   0.578   5.851
 6673SOL     OW20917   4.967   5.207   2.402
 6673SOL    HW120918   4.964   5.107   2.400
 6673SOL    HW220919   4.876   5.243   2.382
 6674SOL     OW20920   0.733   5.728   5.396
 6674SOL    HW120921   0.823   5.723   5.440
 6674SOL    HW220922   0.666   5.762   5.462
 6675SOL     OW20923   5.123   3.979   0.377
 6675SOL    HW120924   5.157   3.959   0.285
 6675SOL    HW220925   5.201   3.984   0.440
 6676SOL     OW20926   1.021   3.387   5.092
 6676SOL    HW120927   0.943   3.324   5.092
 6676SOL    HW220928   1.106   3.335   5.101
 6677SOL     OW20929   0.205   3.264   0.154
 6677SOL    HW120930   0.247   3.291   0.241
 6677SOL    HW220931   0.121   3.315   0.140
 6678SOL     OW20932   1.187   2.884   6.463
 6678SOL    HW120933   1.196   2.806   6.525
 6678SOL    HW220934   1.278   2.919   6.441
 6679SOL     OW20935   1.395   2.012   4.993
 6679SOL    HW120936   1.314   1.958   4.970
 6679SOL    HW220937   1.412   2.007   5.091
 6680SOL     OW20938   3.576   5.746   6.203
 6680SOL    HW120939   3.625   5.666   6.239
 6680SOL    HW220940   3.525   5.720   6.121
 6681SOL     OW20941   5.479   5.596   6.723
 6681SOL    HW120942   5.575   5.617   6.710
 6681SOL    HW220943   5.437   5.664   6.783
 6682SOL     OW20944   0.244   5.107   2.714
 6682SOL    HW120945   0.339   5.084   2.692
 6682SOL    HW220946   0.188   5.101   2.632
 6683SOL     OW20947   4.920   2.175   5.355
 6683SOL    HW120948   4.856   2.105   5.323
 6683SOL    HW220949   4.948   2.152   5.449
 6684SOL     OW20950   1.966   6.847   2.370
 6684SOL    HW120951   2.066   6.845   2.372
 6684SOL    HW220952   1.930   6.775   2.429
 6685SOL     OW20953   5.560   2.359   6.884
 6685SOL    HW120954   5.461   2.375   6.885
 6685SOL    HW220955   5.578   2.262   6.868
 6686SOL     OW20956   6.044   4.275   4.332
 6686SOL    HW120957   6.142   4.280   4.351
 6686SOL    HW220958   6.024   4.193   4.278
 6687SOL     OW20959   1.350   1.223   1.045
 6687SOL    HW120960   1.364   1.287   1.120
 6687SOL    HW220961   1.314   1.271   0.965
 6688SOL     OW20962   0.104   4.914   2.877
 6688SOL    HW120963   0.161   4.867   2.944
 6688SOL    HW220964   0.161   4.972   2.819
 6689SOL     OW20965   4.442   3.273   0.991
 6689SOL    HW120966   4.535   3.249   0.962
 6689SOL    HW220967   4.428   3.242   1.085
 6690SOL     OW20968   2.477   2.419   1.436
 6690SOL    HW120969   2.548   2.468   1.385
 6690SOL    HW220970   2.441   2.479   1.507
 6691SOL     OW20971   2.393   5.567   1.312
 6691SOL    HW120972   2.342   5.606   1.235
 6691SOL    HW220973   2.355   5.478   1.336
 6692SOL     OW20974   2.973   4.129   5.159
 6692SOL    HW120975   3.072   4.137   5.168
 6692SOL    HW220976   2.932   4.221   5.162
 6693SOL     OW20977   4.427   3.831   5.775
 6693SOL    HW120978   4.423   3.819   5.874
 6693SOL    HW220979   4.338   3.810   5.736
 6694SOL     OW20980   4.557   6.536   0.965
 6694SOL    HW120981   4.615   6.609   0.930
 6694SOL    HW220982   4.527   6.478   0.889
 6695SOL     OW20983   0.734   1.436   6.732
 6695SOL    HW120984   0.801   1.405   6.799
 6695SOL    HW220985   0.708   1.530   6.752
 6696SOL     OW20986   2.099   2.813   1.547
 6696SOL    HW120987   2.129   2.905   1.522
 6696SOL    HW220988   2.008   2.817   1.587
 6697SOL     OW20989   4.671   1.127   2.716
 6697SOL    HW120990   4.648   1.200   2.652
 6697SOL    HW220991   4.769   1.131   2.737
 6698SOL     OW20992   3.916   2.949   0.182
 6698SOL    HW120993   3.881   2.936   0.275
 6698SOL    HW220994   4.004   2.997   0.186
 6699SOL     OW20995   3.619   4.798   0.047
 6699SOL    HW120996   3.672   4.853   7.004
 6699SOL    HW220997   3.674   4.719   0.075
 6700SOL     OW20998   0.672   5.927   1.388
 6700SOL    HW120999   0.602   5.956   1.454
 6700SOL    HW221000   0.680   5.996   1.316
 6701SOL     OW21001   6.630   1.926   0.863
 6701SOL    HW121002   6.677   1.841   0.838
 6701SOL    HW221003   6.583   1.962   0.783
 6702SOL     OW21004   2.952   1.935   0.960
 6702SOL    HW121005   3.025   1.990   0.921
 6702SOL    HW221006   2.989   1.850   0.998
 6703SOL     OW21007   6.362   1.445   6.843
 6703SOL    HW121008   6.392   1.488   6.928
 6703SOL    HW221009   6.442   1.411   6.793
 6704SOL     OW21010   4.436   2.331   2.238
 6704SOL    HW121011   4.520   2.364   2.195
 6704SOL    HW221012   4.373   2.298   2.168
 6705SOL     OW21013   6.665   2.575   1.764
 6705SOL    HW121014   6.749   2.530   1.733
 6705SOL    HW221015   6.657   2.566   1.863
 6706SOL     OW21016   1.224   3.705   0.397
 6706SOL    HW121017   1.161   3.735   0.325
 6706SOL    HW221018   1.229   3.775   0.468
 6707SOL     OW21019   6.126   5.899   4.456
 6707SOL    HW121020   6.214   5.867   4.492
 6707SOL    HW221021   6.118   5.874   4.360
 6708SOL     OW21022   1.125   4.950   2.218
 6708SOL    HW121023   1.115   4.967   2.316
 6708SOL    HW221024   1.072   4.870   2.192
 6709SOL     OW21025   3.647   6.644   2.027
 6709SOL    HW121026   3.711   6.595   1.968
 6709SOL    HW221027   3.656   6.609   2.120
 6710SOL     OW21028   3.003   2.400   6.145
 6710SOL    HW121029   2.992   2.499   6.138
 6710SOL    HW221030   2.919   2.355   6.117
 6711SOL     OW21031   5.300   4.160   6.316
 6711SOL    HW121032   5.275   4.226   6.245
 6711SOL    HW221033   5.223   4.098   6.332
 6712SOL     OW21034   3.997   5.531   0.437
 6712SOL    HW121035   4.088   5.557   0.406
 6712SOL    HW221036   4.003   5.489   0.528
 6713SOL     OW21037   2.745   2.086   1.426
 6713SOL    HW121038   2.707   2.120   1.513
 6713SOL    HW221039   2.686   2.115   1.351
 6714SOL     OW21040   5.217   0.204   4.748
 6714SOL    HW121041   5.142   0.149   4.712
 6714SOL    HW221042   5.195   0.234   4.841
 6715SOL     OW21043   0.774   2.047   0.781
 6715SOL    HW121044   0.844   1.980   0.805
 6715SOL    HW221045   0.816   2.136   0.765
 6716SOL     OW21046   2.046   6.376   0.914
 6716SOL    HW121047   2.058   6.354   0.817
 6716SOL    HW221048   2.130   6.418   0.948
 6717SOL     OW21049   3.199   3.899   0.492
 6717SOL    HW121050   3.198   3.884   0.394
 6717SOL    HW221051   3.118   3.951   0.518
 6718SOL     OW21052   3.554   6.415   6.843
 6718SOL    HW121053   3.514   6.494   6.890
 6718SOL    HW221054   3.493   6.336   6.853
 6719SOL     OW21055   0.351   0.145   5.835
 6719SOL    HW121056   0.269   0.091   5.855
 6719SOL    HW221057   0.432   0.094   5.864
 6720SOL     OW21058   2.331   5.947   1.862
 6720SOL    HW121059   2.358   5.976   1.954
 6720SOL    HW221060   2.404   5.891   1.822
 6721SOL     OW21061   5.524   6.495   4.465
 6721SOL    HW121062   5.611   6.465   4.425
 6721SOL    HW221063   5.462   6.524   4.392
 6722SOL     OW21064   4.551   3.310   7.002
 6722SOL    HW121065   4.490   3.233   6.986
 6722SOL    HW221066   4.636   3.277   0.022
 6723SOL     OW21067   2.253   6.627   3.230
 6723SOL    HW121068   2.345   6.660   3.250
 6723SOL    HW221069   2.223   6.660   3.141
 6724SOL     OW21070   2.834   4.569   5.498
 6724SOL    HW121071   2.928   4.571   5.463
 6724SOL    HW221072   2.781   4.501   5.447
 6725SOL     OW21073   0.872   4.769   2.422
 6725SOL    HW121074   0.940   4.711   2.375
 6725SOL    HW221075   0.786   4.720   2.429
 6726SOL     OW21076   2.162   2.988   4.486
 6726SOL    HW121077   2.113   3.021   4.567
 6726SOL    HW221078   2.194   2.895   4.501
 6727SOL     OW21079   5.220   3.377   6.379
 6727SOL    HW121080   5.174   3.413   6.460
 6727SOL    HW221081   5.152   3.336   6.317
 6728SOL     OW21082   3.575   2.108   4.444
 6728SOL    HW121083   3.671   2.136   4.441
 6728SOL    HW221084   3.531   2.129   4.356
 6729SOL     OW21085   6.856   0.534   2.613
 6729SOL    HW121086   6.949   0.515   2.578
 6729SOL    HW221087   6.862   0.575   2.704
 6730SOL     OW21088   2.538   0.540   0.187
 6730SOL    HW121089   2.508   0.499   0.101
 6730SOL    HW221090   2.634   0.519   0.202
 6731SOL     OW21091   2.724   4.343   1.430
 6731SOL    HW121092   2.683   4.327   1.340
 6731SOL    HW221093   2.763   4.258   1.465
 6732SOL     OW21094   2.347   6.607   0.366
 6732SOL    HW121095   2.335   6.703   0.342
 6732SOL    HW221096   2.295   6.586   0.449
 6733SOL     OW21097   4.206   5.809   5.874
 6733SOL    HW121098   4.190   5.754   5.956
 6733SOL    HW221099   4.123   5.809   5.818
 6734SOL     OW21100   1.308   3.113   5.836
 6734SOL    HW121101   1.406   3.104   5.854
 6734SOL    HW221102   1.271   3.189   5.890
 6735SOL     OW21103   7.011   4.798   5.849
 6735SOL    HW121104   0.075   4.751   5.874
 6735SOL    HW221105   6.936   4.763   5.904
 6736SOL     OW21106   2.788   2.974   1.743
 6736SOL    HW121107   2.809   3.065   1.778
 6736SOL    HW221108   2.691   2.954   1.755
 6737SOL     OW21109   1.983   1.546   2.529
 6737SOL    HW121110   1.934   1.613   2.585
 6737SOL    HW221111   2.070   1.523   2.573
 6738SOL     OW21112   2.252   1.649   2.707
 6738SOL    HW121113   2.323   1.713   2.738
 6738SOL    HW221114   2.197   1.620   2.786
 6739SOL     OW21115   4.114   6.231   5.048
 6739SOL    HW121116   4.168   6.149   5.064
 6739SOL    HW221117   4.174   6.305   5.016
 6740SOL     OW21118   1.499   1.403   4.485
 6740SOL    HW121119   1.522   1.348   4.565
 6740SOL    HW221120   1.403   1.388   4.461
 6741SOL     OW21121   6.339   0.910   6.045
 6741SOL    HW121122   6.394   0.959   5.978
 6741SOL    HW221123   6.255   0.961   6.064
 6742SOL     OW21124   6.474   5.729   5.527
 6742SOL    HW121125   6.401   5.782   5.571
 6742SOL    HW221126   6.551   5.789   5.506
 6743SOL     OW21127   4.098   3.594   1.278
 6743SOL    HW121128   4.084   3.685   1.317
 6743SOL    HW221129   4.185   3.593   1.228
 6744SOL     OW21130   4.233   4.547   5.612
 6744SOL    HW121131   4.220   4.646   5.621
 6744SOL    HW221132   4.193   4.516   5.526
 6745SOL     OW21133   0.812   4.787   2.922
 6745SOL    HW121134   0.833   4.692   2.945
 6745SOL    HW221135   0.885   4.825   2.865
 6746SOL     OW21136   0.310   2.063   1.361
 6746SOL    HW121137   0.319   2.145   1.418
 6746SOL    HW221138   0.213   2.045   1.345
 6747SOL     OW21139   5.107   5.649   4.998
 6747SOL    HW121140   5.086   5.737   4.956
 6747SOL    HW221141   5.163   5.594   4.935
 6748SOL     OW21142   0.994   0.735   2.581
 6748SOL    HW121143   0.908   0.779   2.556
 6748SOL    HW221144   1.044   0.710   2.498
 6749SOL     OW21145   4.241   0.541   6.777
 6749SOL    HW121146   4.241   0.626   6.830
 6749SOL    HW221147   4.328   0.493   6.791
 6750SOL     OW21148   2.727   2.311   4.871
 6750SOL    HW121149   2.653   2.348   4.815
 6750SOL    HW221150   2.804   2.288   4.812
 6751SOL     OW21151   2.523   2.502   4.798
 6751SOL    HW121152   2.485   2.515   4.706
 6751SOL    HW221153   2.524   2.589   4.847
 6752SOL     OW21154   5.542   3.056   0.817
 6752SOL    HW121155   5.458   3.090   0.858
 6752SOL    HW221156   5.570   2.972   0.863
 6753SOL     OW21157   4.445   1.973   6.471
 6753SOL    HW121158   4.379   1.975   6.396
 6753SOL    HW221159   4.488   1.883   6.475
 6754SOL     OW21160   6.126   1.584   6.630
 6754SOL    HW121161   6.171   1.510   6.581
 6754SOL    HW221162   6.069   1.637   6.568
 6755SOL     OW21163   4.989   1.785   3.512
 6755SOL    HW121164   4.968   1.771   3.415
 6755SOL    HW221165   5.071   1.841   3.520
 6756SOL     OW21166   4.823   5.126   3.790
 6756SOL    HW121167   4.870   5.040   3.770
 6756SOL    HW221168   4.791   5.167   3.705
 6757SOL     OW21169   5.873   6.198   1.983
 6757SOL    HW121170   5.953   6.138   1.981
 6757SOL    HW221171   5.871   6.254   1.900
 6758SOL     OW21172   5.088   2.951   2.229
 6758SOL    HW121173   5.099   3.020   2.158
 6758SOL    HW221174   5.154   2.877   2.216
 6759SOL     OW21175   1.188   4.783   2.964
 6759SOL    HW121176   1.287   4.777   2.957
 6759SOL    HW221177   1.163   4.830   3.048
 6760SOL     OW21178   6.877   3.928   4.236
 6760SOL    HW121179   6.899   3.911   4.332
 6760SOL    HW221180   6.935   4.001   4.201
 6761SOL     OW21181   4.920   2.823   5.552
 6761SOL    HW121182   4.847   2.877   5.509
 6761SOL    HW221183   4.999   2.822   5.491
 6762SOL     OW21184   6.849   4.405   3.627
 6762SOL    HW121185   6.812   4.342   3.559
 6762SOL    HW221186   6.946   4.421   3.608
 6763SOL     OW21187   6.373   6.829   5.581
 6763SOL    HW121188   6.357   6.902   5.647
 6763SOL    HW221189   6.347   6.861   5.489
 6764SOL     OW21190   3.030   3.863   6.561
 6764SOL    HW121191   2.994   3.854   6.468
 6764SOL    HW221192   3.071   3.954   6.572
 6765SOL     OW21193   6.241   3.882   2.466
 6765SOL    HW121194   6.332   3.839   2.466
 6765SOL    HW221195   6.251   3.981   2.478
 6766SOL     OW21196   2.295   0.350   5.460
 6766SOL    HW121197   2.309   0.447   5.480
 6766SOL    HW221198   2.334   0.296   5.535
 6767SOL     OW21199   0.710   2.445   6.332
 6767SOL    HW121200   0.669   2.471   6.419
 6767SOL    HW221201   0.771   2.368   6.345
 6768SOL     OW21202   0.255   6.923   4.220
 6768SOL    HW121203   0.196   7.003   4.232
 6768SOL    HW221204   0.319   6.941   4.145
 6769SOL     OW21205   2.035   2.705   5.394
 6769SOL    HW121206   1.941   2.738   5.405
 6769SOL    HW221207   2.097   2.762   5.447
 6770SOL     OW21208   0.494   1.648   3.246
 6770SOL    HW121209   0.430   1.716   3.282
 6770SOL    HW221210   0.576   1.645   3.304
 6771SOL     OW21211   3.740   2.111   3.461
 6771SOL    HW121212   3.655   2.069   3.493
 6771SOL    HW221213   3.750   2.096   3.363
 6772SOL     OW21214   0.121   2.008   2.261
 6772SOL    HW121215   0.047   1.942   2.275
 6772SOL    HW221216   0.204   1.961   2.233
 6773SOL     OW21217   0.331   6.339   1.686
 6773SOL    HW121218   0.344   6.398   1.766
 6773SOL    HW221219   0.344   6.243   1.713
 6774SOL     OW21220   2.437   2.395   5.662
 6774SOL    HW121221   2.534   2.415   5.652
 6774SOL    HW221222   2.403   2.349   5.580
 6775SOL     OW21223   0.604   2.072   4.845
 6775SOL    HW121224   0.543   2.032   4.914
 6775SOL    HW221225   0.699   2.066   4.877
 6776SOL     OW21226   3.395   4.048   2.716
 6776SOL    HW121227   3.470   4.025   2.779
 6776SOL    HW221228   3.432   4.093   2.635
 6777SOL     OW21229   6.029   5.252   0.023
 6777SOL    HW121230   5.978   5.336   0.041
 6777SOL    HW221231   5.976   5.173   0.054
 6778SOL     OW21232   6.737   4.821   2.614
 6778SOL    HW121233   6.791   4.901   2.585
 6778SOL    HW221234   6.745   4.749   2.545
 6779SOL     OW21235   5.795   4.016   5.905
 6779SOL    HW121236   5.713   3.964   5.927
 6779SOL    HW221237   5.786   4.110   5.940
 6780SOL     OW21238   2.818   2.250   2.886
 6780SOL    HW121239   2.873   2.233   2.805
 6780SOL    HW221240   2.872   2.233   2.968
 6781SOL     OW21241   0.076   1.479   4.233
 6781SOL    HW121242   0.103   1.492   4.329
 6781SOL    HW221243   7.012   1.528   4.216
 6782SOL     OW21244   6.765   1.686   3.038
 6782SOL    HW121245   6.773   1.633   3.122
 6782SOL    HW221246   6.843   1.747   3.030
 6783SOL     OW21247   1.653   5.001   4.943
 6783SOL    HW121248   1.748   5.027   4.926
 6783SOL    HW221249   1.597   5.026   4.864
 6784SOL     OW21250   2.317   3.772   1.553
 6784SOL    HW121251   2.324   3.791   1.651
 6784SOL    HW221252   2.221   3.781   1.525
 6785SOL     OW21253   5.165   5.481   4.398
 6785SOL    HW121254   5.183   5.385   4.416
 6785SOL    HW221255   5.071   5.493   4.364
 6786SOL     OW21256   6.131   2.113   6.811
 6786SOL    HW121257   6.092   2.030   6.770
 6786SOL    HW221258   6.123   2.109   6.910
 6787SOL     OW21259   3.959   2.045   6.231
 6787SOL    HW121260   3.896   2.031   6.307
 6787SOL    HW221261   4.033   1.978   6.235
 6788SOL     OW21262   6.231   3.971   3.173
 6788SOL    HW121263   6.157   4.030   3.141
 6788SOL    HW221264   6.195   3.879   3.190
 6789SOL     OW21265   6.297   4.060   3.927
 6789SOL    HW121266   6.396   4.061   3.942
 6789SOL    HW221267   6.251   4.030   4.010
 6790SOL     OW21268   0.781   4.938   6.083
 6790SOL    HW121269   0.699   4.890   6.051
 6790SOL    HW221270   0.856   4.923   6.019
 6791SOL     OW21271   3.233   0.556   3.393
 6791SOL    HW121272   3.232   0.616   3.473
 6791SOL    HW221273   3.255   0.610   3.311
 6792SOL     OW21274   3.927   6.941   5.523
 6792SOL    HW121275   3.927   0.018   5.544
 6792SOL    HW221276   3.841   6.916   5.479
 6793SOL     OW21277   1.876   3.687   0.299
 6793SOL    HW121278   1.791   3.681   0.247
 6793SOL    HW221279   1.931   3.604   0.284
 6794SOL     OW21280   4.875   1.735   5.695
 6794SOL    HW121281   4.941   1.723   5.620
 6794SOL    HW221282   4.792   1.683   5.674
 6795SOL     OW21283   1.133   1.014   1.193
 6795SOL    HW121284   1.111   1.105   1.158
 6795SOL    HW221285   1.229   1.010   1.220
 6796SOL     OW21286   6.561   1.130   2.862
 6796SOL    HW121287   6.568   1.129   2.762
 6796SOL    HW221288   6.577   1.223   2.896
 6797SOL     OW21289   1.062   2.768   1.060
 6797SOL    HW121290   1.064   2.867   1.075
 6797SOL    HW221291   0.968   2.735   1.069
 6798SOL     OW21292   5.637   0.261   1.455
 6798SOL    HW121293   5.701   0.184   1.457
 6798SOL    HW221294   5.688   0.346   1.441
 6799SOL     OW21295   6.181   0.719   3.296
 6799SOL    HW121296   6.240   0.639   3.306
 6799SOL    HW221297   6.156   0.754   3.387
 6800SOL     OW21298   0.118   2.019   1.594
 6800SOL    HW121299   0.024   2.024   1.629
 6800SOL    HW221300   0.180   2.064   1.658
 6801SOL     OW21301   0.600   6.111   5.199
 6801SOL    HW121302   0.544   6.068   5.129
 6801SOL    HW221303   0.688   6.138   5.160
 6802SOL     OW21304   2.995   4.915   2.130
 6802SOL    HW121305   2.951   5.000   2.101
 6802SOL    HW221306   3.094   4.926   2.130
 6803SOL     OW21307   5.284   4.620   5.767
 6803SOL    HW121308   5.335   4.705   5.774
 6803SOL    HW221309   5.228   4.608   5.849
 6804SOL     OW21310   3.368   5.023   3.038
 6804SOL    HW121311   3.344   5.033   2.941
 6804SOL    HW221312   3.422   5.101   3.068
 6805SOL     OW21313   7.018   4.096   5.339
 6805SOL    HW121314   6.923   4.071   5.321
 6805SOL    HW221315   0.003   4.144   5.427
 6806SOL     OW21316   0.167   2.238   2.345
 6806SOL    HW121317   0.138   2.149   2.312
 6806SOL    HW221318   0.229   2.227   2.423
 6807SOL     OW21319   3.183   4.067   1.853
 6807SOL    HW121320   3.223   4.046   1.942
 6807SOL    HW221321   3.188   3.986   1.795
 6808SOL     OW21322   3.465   1.017   4.377
 6808SOL    HW121323   3.404   1.048   4.304
 6808SOL    HW221324   3.418   0.950   4.434
 6809SOL     OW21325   5.538   3.328   1.127
 6809SOL    HW121326   5.446   3.356   1.153
 6809SOL    HW221327   5.562   3.243   1.172
 6810SOL     OW21328   2.498   0.343   4.566
 6810SOL    HW121329   2.554   0.263   4.546
 6810SOL    HW221330   2.558   0.423   4.577
 6811SOL     OW21331   6.644   1.475   1.253
 6811SOL    HW121332   6.555   1.511   1.227
 6811SOL    HW221333   6.679   1.527   1.331
 6812SOL     OW21334   3.481   3.993   5.149
 6812SOL    HW121335   3.406   3.936   5.116
 6812SOL    HW221336   3.473   4.004   5.248
 6813SOL     OW21337   5.760   3.960   1.628
 6813SOL    HW121338   5.711   3.995   1.707
 6813SOL    HW221339   5.695   3.934   1.557
 6814SOL     OW21340   5.054   1.250   6.771
 6814SOL    HW121341   5.105   1.180   6.721
 6814SOL    HW221342   5.085   1.252   6.866
 6815SOL     OW21343   1.727   4.879   5.678
 6815SOL    HW121344   1.826   4.880   5.688
 6815SOL    HW221345   1.689   4.968   5.706
 6816SOL     OW21346   0.567   1.071   2.956
 6816SOL    HW121347   0.567   0.980   2.998
 6816SOL    HW221348   0.540   1.139   3.024
 6817SOL     OW21349   3.727   2.065   2.290
 6817SOL    HW121350   3.682   2.105   2.209
 6817SOL    HW221351   3.786   1.989   2.262
 6818SOL     OW21352   1.756   6.731   5.374
 6818SOL    HW121353   1.777   6.685   5.460
 6818SOL    HW221354   1.840   6.754   5.326
 6819SOL     OW21355   4.882   4.288   1.691
 6819SOL    HW121356   4.979   4.283   1.715
 6819SOL    HW221357   4.831   4.332   1.765
 6820SOL     OW21358   3.080   5.966   1.857
 6820SOL    HW121359   2.986   5.932   1.860
 6820SOL    HW221360   3.111   5.986   1.950
 6821SOL     OW21361   3.994   2.658   5.335
 6821SOL    HW121362   4.028   2.579   5.284
 6821SOL    HW221363   3.930   2.627   5.406
 6822SOL     OW21364   0.013   2.686   6.523
 6822SOL    HW121365   6.939   2.696   6.554
 6822SOL    HW221366   0.023   2.601   6.472
 6823SOL     OW21367   6.222   3.429   6.213
 6823SOL    HW121368   6.207   3.345   6.160
 6823SOL    HW221369   6.136   3.479   6.219
 6824SOL     OW21370   0.838   0.713   5.776
 6824SOL    HW121371   0.809   0.777   5.705
 6824SOL    HW221372   0.763   0.651   5.798
 6825SOL     OW21373   5.759   4.398   0.990
 6825SOL    HW121374   5.734   4.448   0.907
 6825SOL    HW221375   5.821   4.454   1.045
 6826SOL     OW21376   6.541   4.303   3.884
 6826SOL    HW121377   6.533   4.207   3.911
 6826SOL    HW221378   6.614   4.347   3.936
 6827SOL     OW21379   4.182   5.700   4.627
 6827SOL    HW121380   4.194   5.683   4.725
 6827SOL    HW221381   4.100   5.755   4.612
 6828SOL     OW21382   2.923   2.195   2.597
 6828SOL    HW121383   2.877   2.109   2.618
 6828SOL    HW221384   2.881   2.236   2.516
 6829SOL     OW21385   3.795   6.717   4.179
 6829SOL    HW121386   3.712   6.765   4.206
 6829SOL    HW221387   3.807   6.636   4.236
 6830SOL     OW21388   4.854   6.872   3.251
 6830SOL    HW121389   4.889   6.965   3.235
 6830SOL    HW221390   4.930   6.807   3.243
 6831SOL     OW21391   1.650   1.534   6.166
 6831SOL    HW121392   1.708   1.470   6.216
 6831SOL    HW221393   1.615   1.491   6.083
 6832SOL     OW21394   3.249   2.626   0.410
 6832SOL    HW121395   3.337   2.581   0.424
 6832SOL    HW221396   3.244   2.661   0.316
 6833SOL     OW21397   3.342   5.059   5.840
 6833SOL    HW121398   3.306   5.021   5.925
 6833SOL    HW221399   3.401   4.991   5.795
 6834SOL     OW21400   5.495   6.842   1.067
 6834SOL    HW121401   5.571   6.892   1.109
 6834SOL    HW221402   5.527   6.751   1.039
 6835SOL     OW21403   2.620   1.651   4.779
 6835SOL    HW121404   2.656   1.734   4.738
 6835SOL    HW221405   2.695   1.588   4.798
 6836SOL     OW21406   2.190   4.168   6.037
 6836SOL    HW121407   2.129   4.171   5.957
 6836SOL    HW221408   2.195   4.074   6.072
 6837SOL     OW21409   0.722   0.502   1.769
 6837SOL    HW121410   0.721   0.471   1.675
 6837SOL    HW221411   0.817   0.510   1.801
 6838SOL     OW21412   2.709   3.808   5.372
 6838SOL    HW121413   2.775   3.785   5.443
 6838SOL    HW221414   2.756   3.821   5.285
 6839SOL     OW21415   5.932   3.011   4.359
 6839SOL    HW121416   5.986   3.073   4.302
 6839SOL    HW221417   5.839   3.004   4.322
 6840SOL     OW21418   2.732   6.909   5.709
 6840SOL    HW121419   2.649   6.869   5.747
 6840SOL    HW221420   2.757   6.991   5.760
 6841SOL     OW21421   3.964   6.065   1.192
 6841SOL    HW121422   4.062   6.078   1.172
 6841SOL    HW221423   3.913   6.144   1.159
 6842SOL     OW21424   0.376   3.926   6.154
 6842SOL    HW121425   0.330   3.837   6.151
 6842SOL    HW221426   0.433   3.931   6.236
 6843SOL     OW21427   3.415   1.977   2.244
 6843SOL    HW121428   3.446   2.010   2.333
 6843SOL    HW221429   3.398   2.055   2.184
 6844SOL     OW21430   4.583   4.992   3.931
 6844SOL    HW121431   4.638   5.048   3.869
 6844SOL    HW221432   4.643   4.929   3.981
 6845SOL     OW21433   4.890   4.598   2.044
 6845SOL    HW121434   4.889   4.678   1.985
 6845SOL    HW221435   4.837   4.617   2.127
 6846SOL     OW21436   3.366   2.919   2.440
 6846SOL    HW121437   3.342   2.838   2.385
 6846SOL    HW221438   3.463   2.940   2.429
 6847SOL     OW21439   6.207   3.537   1.552
 6847SOL    HW121440   6.164   3.547   1.462
 6847SOL    HW221441   6.151   3.582   1.621
 6848SOL     OW21442   0.807   6.434   3.543
 6848SOL    HW121443   0.812   6.534   3.548
 6848SOL    HW221444   0.819   6.395   3.634
 6849SOL     OW21445   3.673   6.679   3.911
 6849SOL    HW121446   3.766   6.643   3.911
 6849SOL    HW221447   3.608   6.603   3.918
 6850SOL     OW21448   5.453   3.077   2.469
 6850SOL    HW121449   5.363   3.034   2.476
 6850SOL    HW221450   5.446   3.161   2.417
 6851SOL     OW21451   1.423   5.128   5.379
 6851SOL    HW121452   1.452   5.059   5.313
 6851SOL    HW221453   1.386   5.208   5.330
 6852SOL     OW21454   0.344   4.045   1.909
 6852SOL    HW121455   0.275   4.014   1.975
 6852SOL    HW221456   0.371   4.139   1.932
 6853SOL     OW21457   0.878   3.775   5.013
 6853SOL    HW121458   0.890   3.690   4.962
 6853SOL    HW221459   0.946   3.780   5.087
 6854SOL     OW21460   6.242   2.347   6.721
 6854SOL    HW121461   6.193   2.264   6.745
 6854SOL    HW221462   6.245   2.409   6.799
 6855SOL     OW21463   2.665   6.858   1.412
 6855SOL    HW121464   2.736   6.867   1.482
 6855SOL    HW221465   2.684   6.924   1.338
 6856SOL     OW21466   5.688   3.908   5.276
 6856SOL    HW121467   5.610   3.880   5.332
 6856SOL    HW221468   5.684   3.863   5.187
 6857SOL     OW21469   4.049   1.638   5.494
 6857SOL    HW121470   3.985   1.675   5.561
 6857SOL    HW221471   4.091   1.554   5.531
 6858SOL     OW21472   4.051   3.247   4.856
 6858SOL    HW121473   3.997   3.180   4.907
 6858SOL    HW221474   4.103   3.304   4.919
 6859SOL     OW21475   3.720   0.643   0.829
 6859SOL    HW121476   3.778   0.655   0.749
 6859SOL    HW221477   3.636   0.697   0.817
 6860SOL     OW21478   5.283   3.624   6.922
 6860SOL    HW121479   5.292   3.607   7.020
 6860SOL    HW221480   5.372   3.614   6.878
 6861SOL     OW21481   6.415   4.907   6.849
 6861SOL    HW121482   6.370   4.840   6.909
 6861SOL    HW221483   6.485   4.955   6.902
 6862SOL     OW21484   3.316   5.653   3.891
 6862SOL    HW121485   3.345   5.647   3.986
 6862SOL    HW221486   3.305   5.560   3.853
 6863SOL     OW21487   5.267   2.790   4.313
 6863SOL    HW121488   5.334   2.772   4.384
 6863SOL    HW221489   5.225   2.879   4.328
 6864SOL     OW21490   3.213   6.059   4.898
 6864SOL    HW121491   3.203   6.145   4.948
 6864SOL    HW221492   3.141   6.052   4.829
 6865SOL     OW21493   6.481   4.745   3.799
 6865SOL    HW121494   6.411   4.793   3.851
 6865SOL    HW221495   6.563   4.734   3.855
 6866SOL     OW21496   6.895   3.315   2.344
 6866SOL    HW121497   6.825   3.266   2.292
 6866SOL    HW221498   6.891   3.286   2.440
 6867SOL     OW21499   2.093   4.076   2.129
 6867SOL    HW121500   2.007   4.118   2.158
 6867SOL    HW221501   2.097   3.981   2.159
 6868SOL     OW21502   2.125   5.439   4.468
 6868SOL    HW121503   2.089   5.527   4.436
 6868SOL    HW221504   2.225   5.442   4.467
 6869SOL     OW21505   5.699   2.525   5.534
 6869SOL    HW121506   5.646   2.441   5.545
 6869SOL    HW221507   5.668   2.593   5.600
 6870SOL     OW21508   5.522   3.852   2.776
 6870SOL    HW121509   5.593   3.792   2.813
 6870SOL    HW221510   5.515   3.838   2.677
 6871SOL     OW21511   5.204   5.770   0.972
 6871SOL    HW121512   5.187   5.690   0.915
 6871SOL    HW221513   5.138   5.842   0.950
 6872SOL     OW21514   1.837   3.759   6.528
 6872SOL    HW121515   1.883   3.712   6.603
 6872SOL    HW221516   1.906   3.793   6.463
 6873SOL     OW21517   6.167   3.963   6.334
 6873SOL    HW121518   6.190   4.005   6.422
 6873SOL    HW221519   6.250   3.927   6.292
 6874SOL     OW21520   0.473   2.590   4.866
 6874SOL    HW121521   0.485   2.636   4.954
 6874SOL    HW221522   0.512   2.498   4.870
 6875SOL     OW21523   2.835   1.399   3.619
 6875SOL    HW121524   2.856   1.442   3.707
 6875SOL    HW221525   2.886   1.446   3.547
 6876SOL     OW21526   4.011   6.145   6.866
 6876SOL    HW121527   4.072   6.198   6.807
 6876SOL    HW221528   4.064   6.080   6.921
 6877SOL     OW21529   2.059   4.283   6.967
 6877SOL    HW121530   2.109   4.205   7.003
 6877SOL    HW221531   2.111   4.367   6.983
 6878SOL     OW21532   1.715   1.270   5.487
 6878SOL    HW121533   1.732   1.188   5.543
 6878SOL    HW221534   1.735   1.351   5.542
 6879SOL     OW21535   1.534   2.171   6.349
 6879SOL    HW121536   1.480   2.099   6.305
 6879SOL    HW221537   1.628   2.140   6.360
 6880SOL     OW21538   2.151   4.051   4.550
 6880SOL    HW121539   2.104   4.044   4.462
 6880SOL    HW221540   2.155   3.960   4.593
 6881SOL     OW21541   7.004   3.768   2.089
 6881SOL    HW121542   6.999   3.735   1.995
 6881SOL    HW221543   6.971   3.696   2.151
 6882SOL     OW21544   2.062   0.283   5.307
 6882SOL    HW121545   2.052   0.184   5.315
 6882SOL    HW221546   2.125   0.317   5.377
 6883SOL     OW21547   4.479   0.098   1.636
 6883SOL    HW121548   4.390   0.064   1.667
 6883SOL    HW221549   4.552   0.053   1.688
 6884SOL     OW21550   1.810   5.486   3.763
 6884SOL    HW121551   1.902   5.474   3.725
 6884SOL    HW221552   1.789   5.584   3.767
 6885SOL     OW21553   2.652   5.482   4.332
 6885SOL    HW121554   2.735   5.476   4.388
 6885SOL    HW221555   2.674   5.464   4.236
 6886SOL     OW21556   6.017   1.324   2.615
 6886SOL    HW121557   5.937   1.279   2.655
 6886SOL    HW221558   6.071   1.367   2.687
 6887SOL     OW21559   5.633   0.744   4.545
 6887SOL    HW121560   5.663   0.695   4.463
 6887SOL    HW221561   5.573   0.685   4.599
 6888SOL     OW21562   5.920   0.141   4.751
 6888SOL    HW121563   5.988   0.068   4.754
 6888SOL    HW221564   5.950   0.212   4.688
 6889SOL     OW21565   1.316   4.350   5.856
 6889SOL    HW121566   1.310   4.421   5.785
 6889SOL    HW221567   1.256   4.274   5.832
 6890SOL     OW21568   1.820   6.727   1.417
 6890SOL    HW121569   1.752   6.667   1.460
 6890SOL    HW221570   1.801   6.822   1.442
 6891SOL     OW21571   1.037   4.241   3.966
 6891SOL    HW121572   1.066   4.330   4.003
 6891SOL    HW221573   1.082   4.168   4.017
 6892SOL     OW21574   3.034   0.362   3.885
 6892SOL    HW121575   2.970   0.336   3.813
 6892SOL    HW221576   3.091   0.283   3.909
 6893SOL     OW21577   4.434   6.118   3.205
 6893SOL    HW121578   4.456   6.091   3.111
 6893SOL    HW221579   4.516   6.112   3.261
 6894SOL     OW21580   6.411   5.029   6.614
 6894SOL    HW121581   6.421   4.978   6.699
 6894SOL    HW221582   6.318   5.068   6.610
 6895SOL     OW21583   2.934   4.793   6.722
 6895SOL    HW121584   2.995   4.746   6.658
 6895SOL    HW221585   2.852   4.737   6.737
 6896SOL     OW21586   3.199   0.290   3.426
 6896SOL    HW121587   3.103   0.260   3.418
 6896SOL    HW221588   3.204   0.388   3.406
 6897SOL     OW21589   3.603   3.812   0.408
 6897SOL    HW121590   3.530   3.792   0.474
 6897SOL    HW221591   3.615   3.911   0.403
 6898SOL     OW21592   4.096   1.983   2.151
 6898SOL    HW121593   4.026   2.042   2.112
 6898SOL    HW221594   4.058   1.892   2.169
 6899SOL     OW21595   4.765   6.356   6.859
 6899SOL    HW121596   4.845   6.410   6.883
 6899SOL    HW221597   4.758   6.349   6.759
 6900SOL     OW21598   5.111   0.382   6.320
 6900SOL    HW121599   5.105   0.300   6.264
 6900SOL    HW221600   5.038   0.446   6.293
 6901SOL     OW21601   1.720   6.996   6.592
 6901SOL    HW121602   1.709   6.909   6.544
 6901SOL    HW221603   1.664   0.045   6.548
 6902SOL     OW21604   6.922   6.361   0.459
 6902SOL    HW121605   7.006   6.393   0.503
 6902SOL    HW221606   6.897   6.271   0.496
 6903SOL     OW21607   4.530   4.665   0.413
 6903SOL    HW121608   4.511   4.757   0.379
 6903SOL    HW221609   4.447   4.610   0.409
 6904SOL     OW21610   6.176   1.598   3.892
 6904SOL    HW121611   6.193   1.666   3.963
 6904SOL    HW221612   6.170   1.507   3.933
 6905SOL     OW21613   5.903   6.413   1.020
 6905SOL    HW121614   5.910   6.467   0.936
 6905SOL    HW221615   5.824   6.352   1.015
 6906SOL     OW21616   3.961   0.497   3.019
 6906SOL    HW121617   3.979   0.481   3.116
 6906SOL    HW221618   4.007   0.581   2.990
 6907SOL     OW21619   3.512   1.563   1.471
 6907SOL    HW121620   3.535   1.582   1.567
 6907SOL    HW221621   3.506   1.649   1.420
 6908SOL     OW21622   1.389   6.558   5.249
 6908SOL    HW121623   1.407   6.653   5.272
 6908SOL    HW221624   1.450   6.530   5.175
 6909SOL     OW21625   4.443   4.300   0.332
 6909SOL    HW121626   4.349   4.277   0.308
 6909SOL    HW221627   4.505   4.271   0.259
 6910SOL     OW21628   6.627   1.883   1.828
 6910SOL    HW121629   6.576   1.809   1.872
 6910SOL    HW221630   6.567   1.931   1.763
 6911SOL     OW21631   4.301   1.246   4.885
 6911SOL    HW121632   4.397   1.243   4.859
 6911SOL    HW221633   4.256   1.161   4.859
 6912SOL     OW21634   5.532   4.952   0.746
 6912SOL    HW121635   5.565   4.908   0.830
 6912SOL    HW221636   5.438   4.924   0.727
 6913SOL     OW21637   5.452   5.292   4.639
 6913SOL    HW121638   5.429   5.249   4.726
 6913SOL    HW221639   5.372   5.287   4.578
 6914SOL     OW21640   6.272   5.407   0.640
 6914SOL    HW121641   6.221   5.321   0.647
 6914SOL    HW221642   6.232   5.463   0.568
 6915SOL     OW21643   0.835   5.136   2.700
 6915SOL    HW121644   0.873   5.126   2.792
 6915SOL    HW221645   0.867   5.061   2.642
 6916SOL     OW21646   6.482   2.858   0.051
 6916SOL    HW121647   6.493   2.934   7.008
 6916SOL    HW221648   6.547   2.785   0.028
 6917SOL     OW21649   5.107   6.146   5.943
 6917SOL    HW121650   5.170   6.181   5.874
 6917SOL    HW221651   5.027   6.105   5.898
 6918SOL     OW21652   6.984   3.213   3.640
 6918SOL    HW121653   6.935   3.129   3.614
 6918SOL    HW221654   6.924   3.292   3.625
 6919SOL     OW21655   2.192   6.078   2.639
 6919SOL    HW121656   2.103   6.044   2.669
 6919SOL    HW221657   2.262   6.051   2.705
 6920SOL     OW21658   5.081   6.501   4.212
 6920SOL    HW121659   5.072   6.511   4.113
 6920SOL    HW221660   5.136   6.420   4.232
 6921SOL     OW21661   0.006   1.129   3.920
 6921SOL    HW121662   0.082   1.068   3.943
 6921SOL    HW221663   7.018   1.135   3.821
 6922SOL     OW21664   2.522   6.634   0.638
 6922SOL    HW121665   2.525   6.581   0.554
 6922SOL    HW221666   2.575   6.718   0.627
 6923SOL     OW21667   4.721   0.836   4.125
 6923SOL    HW121668   4.725   0.934   4.144
 6923SOL    HW221669   4.627   0.804   4.132
 6924SOL     OW21670   0.034   5.735   1.681
 6924SOL    HW121671   7.003   5.820   1.669
 6924SOL    HW221672   0.120   5.755   1.728
 6925SOL     OW21673   4.395   6.078   2.876
 6925SOL    HW121674   4.385   6.169   2.916
 6925SOL    HW221675   4.474   6.077   2.815
 6926SOL     OW21676   3.019   3.231   4.513
 6926SOL    HW121677   2.962   3.164   4.559
 6926SOL    HW221678   3.072   3.186   4.441
 6927SOL     OW21679   4.805   4.116   6.105
 6927SOL    HW121680   4.759   4.029   6.115
 6927SOL    HW221681   4.902   4.101   6.084
 6928SOL     OW21682   4.843   0.993   6.246
 6928SOL    HW121683   4.777   0.996   6.171
 6928SOL    HW221684   4.910   0.920   6.230
 6929SOL     OW21685   4.241   5.896   0.493
 6929SOL    HW121686   4.192   5.945   0.420
 6929SOL    HW221687   4.206   5.926   0.582
 6930SOL     OW21688   0.475   0.193   2.866
 6930SOL    HW121689   0.497   0.096   2.855
 6930SOL    HW221690   0.403   0.218   2.800
 6931SOL     OW21691   2.082   1.301   1.792
 6931SOL    HW121692   2.161   1.352   1.756
 6931SOL    HW221693   2.091   1.205   1.767
 6932SOL     OW21694   3.108   1.884   0.428
 6932SOL    HW121695   3.103   1.983   0.442
 6932SOL    HW221696   3.140   1.840   0.512
 6933SOL     OW21697   4.144   5.604   6.081
 6933SOL    HW121698   4.060   5.635   6.125
 6933SOL    HW221699   4.139   5.505   6.064
 6934SOL     OW21700   5.152   3.516   6.670
 6934SOL    HW121701   5.190   3.539   6.760
 6934SOL    HW221702   5.063   3.560   6.658
 6935SOL     OW21703   4.410   5.959   3.503
 6935SOL    HW121704   4.428   5.890   3.434
 6935SOL    HW221705   4.325   6.008   3.481
 6936SOL     OW21706   1.265   3.390   1.082
 6936SOL    HW121707   1.192   3.347   1.030
 6936SOL    HW221708   1.227   3.457   1.146
 6937SOL     OW21709   4.546   0.140   5.903
 6937SOL    HW121710   4.565   0.096   5.815
 6937SOL    HW221711   4.498   0.226   5.887
 6938SOL     OW21712   5.425   2.954   5.433
 6938SOL    HW121713   5.329   2.932   5.417
 6938SOL    HW221714   5.435   2.999   5.521
 6939SOL     OW21715   6.734   4.295   2.290
 6939SOL    HW121716   6.679   4.340   2.361
 6939SOL    HW221717   6.680   4.287   2.207
 6940SOL     OW21718   4.926   0.458   5.926
 6940SOL    HW121719   5.005   0.420   5.878
 6940SOL    HW221720   4.915   0.555   5.900
 6941SOL     OW21721   4.077   3.640   3.583
 6941SOL    HW121722   4.164   3.614   3.625
 6941SOL    HW221723   4.002   3.622   3.647
 6942SOL     OW21724   6.792   2.705   0.006
 6942SOL    HW121725   6.724   2.710   6.954
 6942SOL    HW221726   6.783   2.618   0.055
 6943SOL     OW21727   5.935   5.799   6.089
 6943SOL    HW121728   6.001   5.851   6.144
 6943SOL    HW221729   5.887   5.862   6.027
 6944SOL     OW21730   0.967   5.587   5.988
 6944SOL    HW121731   0.930   5.679   5.974
 6944SOL    HW221732   0.902   5.519   5.955
 6945SOL     OW21733   6.614   2.766   5.943
 6945SOL    HW121734   6.683   2.834   5.916
 6945SOL    HW221735   6.524   2.810   5.947
 6946SOL     OW21736   5.534   3.838   2.510
 6946SOL    HW121737   5.515   3.925   2.465
 6946SOL    HW221738   5.620   3.800   2.475
 6947SOL     OW21739   3.234   6.532   2.882
 6947SOL    HW121740   3.162   6.583   2.835
 6947SOL    HW221741   3.302   6.501   2.816
 6948SOL     OW21742   4.813   0.703   6.436
 6948SOL    HW121743   4.721   0.741   6.435
 6948SOL    HW221744   4.868   0.748   6.366
 6949SOL     OW21745   5.106   6.750   3.303
 6949SOL    HW121746   5.123   6.834   3.355
 6949SOL    HW221747   5.092   6.674   3.366
 6950SOL     OW21748   2.286   1.378   2.965
 6950SOL    HW121749   2.276   1.311   3.039
 6950SOL    HW221750   2.363   1.439   2.985
 6951SOL     OW21751   6.592   5.639   6.149
 6951SOL    HW121752   6.516   5.583   6.183
 6951SOL    HW221753   6.584   5.650   6.050
 6952SOL     OW21754   0.454   5.117   4.962
 6952SOL    HW121755   0.520   5.170   5.015
 6952SOL    HW221756   0.435   5.030   5.008
 6953SOL     OW21757   4.599   1.205   5.701
 6953SOL    HW121758   4.643   1.118   5.678
 6953SOL    HW221759   4.665   1.264   5.748
 6954SOL     OW21760   6.421   2.768   3.809
 6954SOL    HW121761   6.468   2.814   3.884
 6954SOL    HW221762   6.462   2.795   3.722
 6955SOL     OW21763   0.305   6.199   2.013
 6955SOL    HW121764   0.274   6.287   2.049
 6955SOL    HW221765   0.319   6.135   2.088
 6956SOL     OW21766   4.472   5.269   1.815
 6956SOL    HW121767   4.562   5.309   1.832
 6956SOL    HW221768   4.482   5.185   1.761
 6957SOL     OW21769   6.977   5.004   1.556
 6957SOL    HW121770   6.981   4.904   1.551
 6957SOL    HW221771   6.989   5.033   1.651
 6958SOL     OW21772   2.419   2.977   6.428
 6958SOL    HW121773   2.380   2.912   6.363
 6958SOL    HW221774   2.419   2.937   6.520
 6959SOL     OW21775   3.677   1.792   4.794
 6959SOL    HW121776   3.766   1.787   4.839
 6959SOL    HW221777   3.672   1.877   4.741
 6960SOL     OW21778   0.271   4.630   6.919
 6960SOL    HW121779   0.189   4.662   6.967
 6960SOL    HW221780   0.293   4.693   6.845
 6961SOL     OW21781   1.078   0.946   3.456
 6961SOL    HW121782   1.039   0.962   3.365
 6961SOL    HW221783   1.171   0.912   3.448
 6962SOL     OW21784   5.066   4.798   1.628
 6962SOL    HW121785   5.084   4.773   1.533
 6962SOL    HW221786   5.090   4.721   1.688
 6963SOL     OW21787   0.147   4.868   1.839
 6963SOL    HW121788   0.089   4.949   1.837
 6963SOL    HW221789   0.159   4.838   1.933
 6964SOL     OW21790   4.064   5.314   4.748
 6964SOL    HW121791   4.118   5.231   4.735
 6964SOL    HW221792   4.017   5.337   4.662
 6965SOL     OW21793   0.020   2.610   5.882
 6965SOL    HW121794   7.019   2.570   5.792
 6965SOL    HW221795   6.977   2.576   5.950
 6966SOL     OW21796   4.812   2.275   2.649
 6966SOL    HW121797   4.805   2.175   2.649
 6966SOL    HW221798   4.889   2.303   2.592
 6967SOL     OW21799   1.153   1.692   6.135
 6967SOL    HW121800   1.166   1.692   6.036
 6967SOL    HW221801   1.241   1.707   6.180
 6968SOL     OW21802   4.676   5.886   1.350
 6968SOL    HW121803   4.755   5.918   1.297
 6968SOL    HW221804   4.707   5.860   1.442
 6969SOL     OW21805   3.480   1.423   0.800
 6969SOL    HW121806   3.494   1.330   0.767
 6969SOL    HW221807   3.529   1.436   0.886
 6970SOL     OW21808   4.755   4.507   0.476
 6970SOL    HW121809   4.838   4.553   0.505
 6970SOL    HW221810   4.690   4.574   0.440
 6971SOL     OW21811   5.861   1.924   2.081
 6971SOL    HW121812   5.911   1.886   2.004
 6971SOL    HW221813   5.922   1.981   2.136
 6972SOL     OW21814   5.519   4.735   4.133
 6972SOL    HW121815   5.534   4.637   4.146
 6972SOL    HW221816   5.456   4.749   4.056
 6973SOL     OW21817   1.922   5.035   3.915
 6973SOL    HW121818   1.988   4.970   3.877
 6973SOL    HW221819   1.963   5.084   3.991
 6974SOL     OW21820   3.258   3.959   3.975
 6974SOL    HW121821   3.277   3.864   3.950
 6974SOL    HW221822   3.225   4.008   3.895
 6975SOL     OW21823   4.084   0.685   5.836
 6975SOL    HW121824   3.999   0.660   5.790
 6975SOL    HW221825   4.096   0.785   5.831
 6976SOL     OW21826   2.427   5.058   6.448
 6976SOL    HW121827   2.407   5.138   6.391
 6976SOL    HW221828   2.473   5.087   6.532
 6977SOL     OW21829   3.240   1.397   2.697
 6977SOL    HW121830   3.262   1.481   2.748
 6977SOL    HW221831   3.193   1.422   2.612
 6978SOL     OW21832   0.640   0.877   2.262
 6978SOL    HW121833   0.572   0.817   2.219
 6978SOL    HW221834   0.663   0.952   2.200
 6979SOL     OW21835   0.432   4.785   2.519
 6979SOL    HW121836   0.480   4.870   2.495
 6979SOL    HW221837   0.408   4.787   2.616
 6980SOL     OW21838   2.416   0.829   4.133
 6980SOL    HW121839   2.414   0.765   4.210
 6980SOL    HW221840   2.341   0.895   4.143
 6981SOL     OW21841   2.656   5.205   0.907
 6981SOL    HW121842   2.650   5.300   0.876
 6981SOL    HW221843   2.570   5.178   0.951
 6982SOL     OW21844   0.919   0.052   3.995
 6982SOL    HW121845   0.919   7.006   4.069
 6982SOL    HW221846   0.827   0.087   3.981
 6983SOL     OW21847   6.931   0.341   4.490
 6983SOL    HW121848   6.873   0.345   4.409
 6983SOL    HW221849   7.018   0.296   4.467
 6984SOL     OW21850   2.237   2.175   5.706
 6984SOL    HW121851   2.237   2.136   5.799
 6984SOL    HW221852   2.331   2.175   5.670
 6985SOL     OW21853   4.425   5.666   2.757
 6985SOL    HW121854   4.333   5.696   2.780
 6985SOL    HW221855   4.458   5.602   2.827
 6986SOL     OW21856   1.682   6.070   5.643
 6986SOL    HW121857   1.664   6.142   5.576
 6986SOL    HW221858   1.598   6.018   5.659
 6987SOL     OW21859   0.430   2.889   6.621
 6987SOL    HW121860   0.526   2.913   6.627
 6987SOL    HW221861   0.381   2.958   6.568
 6988SOL     OW21862   4.942   1.221   3.794
 6988SOL    HW121863   4.880   1.207   3.717
 6988SOL    HW221864   4.962   1.133   3.836
 6989SOL     OW21865   1.186   1.728   3.547
 6989SOL    HW121866   1.225   1.715   3.638
 6989SOL    HW221867   1.104   1.785   3.553
 6990SOL     OW21868   4.163   3.102   6.904
 6990SOL    HW121869   4.185   3.198   6.884
 6990SOL    HW221870   4.228   3.042   6.857
 6991SOL     OW21871   2.483   4.646   5.616
 6991SOL    HW121872   2.464   4.579   5.544
 6991SOL    HW221873   2.400   4.663   5.670
 6992SOL     OW21874   5.960   6.414   4.421
 6992SOL    HW121875   6.003   6.364   4.496
 6992SOL    HW221876   5.976   6.512   4.434
 6993SOL     OW21877   0.005   0.525   3.304
 6993SOL    HW121878   6.988   0.510   3.395
 6993SOL    HW221879   6.981   0.604   3.262
 6994SOL     OW21880   1.666   3.131   6.256
 6994SOL    HW121881   1.647   3.228   6.271
 6994SOL    HW221882   1.735   3.100   6.321
 6995SOL     OW21883   5.461   5.698   3.161
 6995SOL    HW121884   5.525   5.651   3.221
 6995SOL    HW221885   5.386   5.736   3.215
 6996SOL     OW21886   2.785   0.312   5.339
 6996SOL    HW121887   2.834   0.384   5.388
 6996SOL    HW221888   2.727   0.261   5.403
 6997SOL     OW21889   4.559   6.262   4.978
 6997SOL    HW121890   4.595   6.224   4.893
 6997SOL    HW221891   4.499   6.195   5.022
 6998SOL     OW21892   1.878   3.694   2.566
 6998SOL    HW121893   1.787   3.726   2.593
 6998SOL    HW221894   1.870   3.629   2.490
 6999SOL     OW21895   3.188   1.900   6.161
 6999SOL    HW121896   3.098   1.873   6.195
 6999SOL    HW221897   3.195   1.999   6.162
 7000SOL     OW21898   0.809   5.990   2.741
 7000SOL    HW121899   0.863   6.014   2.821
 7000SOL    HW221900   0.735   5.928   2.768
 7001SOL     OW21901   2.433   2.760   5.900
 7001SOL    HW121902   2.355   2.710   5.861
 7001SOL    HW221903   2.499   2.781   5.828
 7002SOL     OW21904   0.871   5.272   3.384
 7002SOL    HW121905   0.808   5.261   3.308
 7002SOL    HW221906   0.871   5.189   3.440
 7003SOL     OW21907   3.055   6.786   0.821
 7003SOL    HW121908   3.151   6.811   0.832
 7003SOL    HW221909   3.020   6.748   0.907
 7004SOL     OW21910   1.233   4.030   1.456
 7004SOL    HW121911   1.206   4.063   1.366
 7004SOL    HW221912   1.154   3.986   1.500
 7005SOL     OW21913   5.393   6.200   6.801
 7005SOL    HW121914   5.393   6.277   6.737
 7005SOL    HW221915   5.400   6.235   6.895
 7006SOL     OW21916   4.715   4.328   4.550
 7006SOL    HW121917   4.696   4.270   4.629
 7006SOL    HW221918   4.796   4.384   4.568
 7007SOL     OW21919   4.335   6.336   2.984
 7007SOL    HW121920   4.373   6.384   2.905
 7007SOL    HW221921   4.379   6.369   3.067
 7008SOL     OW21922   1.827   5.100   4.634
 7008SOL    HW121923   1.850   5.006   4.657
 7008SOL    HW221924   1.763   5.137   4.701
 7009SOL     OW21925   6.470   5.608   2.305
 7009SOL    HW121926   6.416   5.635   2.385
 7009SOL    HW221927   6.417   5.627   2.222
 7010SOL     OW21928   3.547   5.037   6.432
 7010SOL    HW121929   3.549   4.941   6.402
 7010SOL    HW221930   3.465   5.081   6.397
 7011SOL     OW21931   2.502   6.854   5.844
 7011SOL    HW121932   2.421   6.812   5.802
 7011SOL    HW221933   2.474   6.910   5.922
 7012SOL     OW21934   1.172   0.306   2.027
 7012SOL    HW121935   1.169   0.362   1.944
 7012SOL    HW221936   1.225   0.223   2.009
 7013SOL     OW21937   0.846   0.132   1.375
 7013SOL    HW121938   0.822   0.107   1.469
 7013SOL    HW221939   0.872   0.229   1.371
 7014SOL     OW21940   2.700   4.438   1.021
 7014SOL    HW121941   2.696   4.511   1.089
 7014SOL    HW221942   2.783   4.384   1.036
 7015SOL     OW21943   4.800   2.576   2.661
 7015SOL    HW121944   4.759   2.485   2.659
 7015SOL    HW221945   4.748   2.637   2.601
 7016SOL     OW21946   4.205   4.834   1.375
 7016SOL    HW121947   4.188   4.931   1.357
 7016SOL    HW221948   4.251   4.824   1.462
 7017SOL     OW21949   3.190   1.891   3.742
 7017SOL    HW121950   3.113   1.831   3.719
 7017SOL    HW221951   3.161   1.986   3.735
 7018SOL     OW21952   0.308   3.754   4.765
 7018SOL    HW121953   0.296   3.805   4.850
 7018SOL    HW221954   0.339   3.816   4.693
 7019SOL     OW21955   2.545   5.248   6.604
 7019SOL    HW121956   2.530   5.315   6.677
 7019SOL    HW221957   2.543   5.156   6.643
 7020SOL     OW21958   6.131   0.091   6.727
 7020SOL    HW121959   6.055   0.155   6.734
 7020SOL    HW221960   6.177   0.085   6.816
 7021SOL     OW21961   2.270   0.783   5.729
 7021SOL    HW121962   2.349   0.734   5.767
 7021SOL    HW221963   2.298   0.874   5.700
 7022SOL     OW21964   5.226   3.623   0.162
 7022SOL    HW121965   5.272   3.564   0.228
 7022SOL    HW221966   5.133   3.643   0.194
 7023SOL     OW21967   6.203   2.656   1.578
 7023SOL    HW121968   6.215   2.663   1.677
 7023SOL    HW221969   6.252   2.576   1.544
 7024SOL     OW21970   1.984   5.959   0.045
 7024SOL    HW121971   1.948   5.956   6.972
 7024SOL    HW221972   2.084   5.966   0.042
 7025SOL     OW21973   3.060   1.937   6.928
 7025SOL    HW121974   3.072   2.003   6.854
 7025SOL    HW221975   3.148   1.899   6.954
 7026SOL     OW21976   3.833   1.590   1.528
 7026SOL    HW121977   3.884   1.533   1.464
 7026SOL    HW221978   3.828   1.683   1.493
 7027SOL     OW21979   3.700   5.689   4.247
 7027SOL    HW121980   3.775   5.755   4.246
 7027SOL    HW221981   3.655   5.688   4.158
 7028SOL     OW21982   4.437   6.314   3.422
 7028SOL    HW121983   4.399   6.362   3.501
 7028SOL    HW221984   4.378   6.237   3.398
 7029SOL     OW21985   3.747   6.275   0.494
 7029SOL    HW121986   3.798   6.200   0.454
 7029SOL    HW221987   3.805   6.357   0.498
 7030SOL     OW21988   7.010   3.488   5.271
 7030SOL    HW121989   6.957   3.491   5.356
 7030SOL    HW221990   6.991   3.569   5.216
 7031SOL     OW21991   1.895   5.897   4.192
 7031SOL    HW121992   1.813   5.934   4.147
 7031SOL    HW221993   1.869   5.821   4.251
 7032SOL     OW21994   6.333   0.729   2.802
 7032SOL    HW121995   6.254   0.788   2.788
 7032SOL    HW221996   6.367   0.697   2.714
 7033SOL     OW21997   6.971   1.210   4.172
 7033SOL    HW121998   6.996   1.176   4.081
 7033SOL    HW221999   0.021   1.274   4.204
 7034SOL     OW22000   6.382   0.523   3.314
 7034SOL    HW122001   6.471   0.546   3.353
 7034SOL    HW222002   6.390   0.437   3.263
 7035SOL     OW22003   6.967   6.215   3.018
 7035SOL    HW122004   6.877   6.179   2.993
 7035SOL    HW222005   6.966   6.315   3.009
 7036SOL     OW22006   6.565   5.296   1.590
 7036SOL    HW122007   6.541   5.390   1.614
 7036SOL    HW222008   6.483   5.239   1.591
 7037SOL     OW22009   0.955   6.360   5.622
 7037SOL    HW122010   0.902   6.294   5.569
 7037SOL    HW222011   0.897   6.437   5.648
 7038SOL     OW22012   0.843   4.521   3.688
 7038SOL    HW122013   0.809   4.461   3.761
 7038SOL    HW222014   0.938   4.545   3.706
 7039SOL     OW22015   4.010   0.984   6.081
 7039SOL    HW122016   4.092   0.945   6.124
 7039SOL    HW222017   4.025   1.081   6.062
 7040SOL     OW22018   5.024   2.418   6.471
 7040SOL    HW122019   4.988   2.326   6.456
 7040SOL    HW222020   5.124   2.417   6.463
 7041SOL     OW22021   1.609   1.671   2.892
 7041SOL    HW122022   1.610   1.644   2.796
 7041SOL    HW222023   1.595   1.770   2.899
 7042SOL     OW22024   4.045   5.797   6.816
 7042SOL    HW122025   4.119   5.762   6.758
 7042SOL    HW222026   4.084   5.847   6.893
 7043SOL     OW22027   1.699   1.794   3.465
 7043SOL    HW122028   1.672   1.711   3.415
 7043SOL    HW222029   1.640   1.806   3.544
 7044SOL     OW22030   4.733   4.560   2.555
 7044SOL    HW122031   4.708   4.484   2.614
 7044SOL    HW222032   4.684   4.643   2.584
 7045SOL     OW22033   5.487   6.280   1.013
 7045SOL    HW122034   5.427   6.201   1.005
 7045SOL    HW222035   5.583   6.250   1.018
 7046SOL     OW22036   3.890   0.784   4.540
 7046SOL    HW122037   3.852   0.768   4.448
 7046SOL    HW222038   3.818   0.822   4.599
 7047SOL     OW22039   1.031   0.949   4.174
 7047SOL    HW122040   1.101   0.980   4.239
 7047SOL    HW222041   1.059   0.863   4.133
 7048SOL     OW22042   6.829   6.320   0.936
 7048SOL    HW122043   6.757   6.280   0.879
 7048SOL    HW222044   6.856   6.255   1.007
 7049SOL     OW22045   2.448   1.172   0.401
 7049SOL    HW122046   2.535   1.123   0.391
 7049SOL    HW222047   2.436   1.200   0.496
 7050SOL     OW22048   3.275   3.885   4.788
 7050SOL    HW122049   3.268   3.866   4.690
 7050SOL    HW222050   3.190   3.927   4.820
 7051SOL     OW22051   0.273   0.382   1.704
 7051SOL    HW122052   0.238   0.299   1.748
 7051SOL    HW222053   0.228   0.395   1.616
 7052SOL     OW22054   0.236   2.326   4.290
 7052SOL    HW122055   0.220   2.249   4.227
 7052SOL    HW222056   0.257   2.291   4.381
 7053SOL     OW22057   0.322   4.024   6.599
 7053SOL    HW122058   0.315   3.972   6.684
 7053SOL    HW222059   0.340   4.120   6.621
 7054SOL     OW22060   6.125   6.935   1.677
 7054SOL    HW122061   6.152   6.893   1.764
 7054SOL    HW222062   6.073   6.869   1.623
 7055SOL     OW22063   4.836   0.585   4.527
 7055SOL    HW122064   4.879   0.551   4.611
 7055SOL    HW222065   4.827   0.510   4.462
 7056SOL     OW22066   5.758   4.906   3.480
 7056SOL    HW122067   5.672   4.956   3.469
 7056SOL    HW222068   5.823   4.935   3.409
 7057SOL     OW22069   0.190   4.722   3.563
 7057SOL    HW122070   0.181   4.820   3.581
 7057SOL    HW222071   0.287   4.697   3.563
 7058SOL     OW22072   0.609   5.076   5.296
 7058SOL    HW122073   0.671   4.998   5.283
 7058SOL    HW222074   0.625   5.143   5.224
 7059SOL     OW22075   0.773   0.336   2.436
 7059SOL    HW122076   0.716   0.404   2.480
 7059SOL    HW222077   0.803   0.370   2.346
 7060SOL     OW22078   3.665   6.381   1.620
 7060SOL    HW122079   3.712   6.360   1.705
 7060SOL    HW222080   3.568   6.361   1.629
 7061SOL     OW22081   0.487   1.266   3.131
 7061SOL    HW122082   0.456   1.356   3.101
 7061SOL    HW222083   0.561   1.277   3.197
 7062SOL     OW22084   5.599   1.647   5.197
 7062SOL    HW122085   5.641   1.706   5.128
 7062SOL    HW222086   5.500   1.654   5.191
 7063SOL     OW22087   2.044   6.569   1.213
 7063SOL    HW122088   2.063   6.651   1.268
 7063SOL    HW222089   1.974   6.514   1.259
 7064SOL     OW22090   4.376   2.044   2.102
 7064SOL    HW122091   4.356   2.130   2.053
 7064SOL    HW222092   4.298   2.021   2.161
 7065SOL     OW22093   4.570   4.052   1.477
 7065SOL    HW122094   4.567   3.980   1.545
 7065SOL    HW222095   4.501   4.036   1.407
 7066SOL     OW22096   3.872   6.949   0.527
 7066SOL    HW122097   3.854   6.952   0.625
 7066SOL    HW222098   3.805   7.005   0.478
 7067SOL     OW22099   0.871   3.364   5.842
 7067SOL    HW122100   0.934   3.289   5.860
 7067SOL    HW222101   0.919   3.438   5.795
 7068SOL     OW22102   1.523   2.072   3.327
 7068SOL    HW122103   1.622   2.082   3.330
 7068SOL    HW222104   1.480   2.150   3.374
 7069SOL     OW22105   6.387   4.050   5.283
 7069SOL    HW122106   6.370   3.953   5.262
 7069SOL    HW222107   6.440   4.057   5.367
 7070SOL     OW22108   6.249   4.795   5.172
 7070SOL    HW122109   6.343   4.780   5.142
 7070SOL    HW222110   6.212   4.876   5.126
 7071SOL     OW22111   1.335   5.795   5.166
 7071SOL    HW122112   1.246   5.792   5.211
 7071SOL    HW222113   1.398   5.732   5.211
 7072SOL     OW22114   6.499   6.265   5.832
 7072SOL    HW122115   6.508   6.298   5.738
 7072SOL    HW222116   6.574   6.302   5.887
 7073SOL     OW22117   7.011   0.978   5.616
 7073SOL    HW122118   0.069   0.946   5.668
 7073SOL    HW222119   6.987   1.070   5.645
 7074SOL     OW22120   3.242   2.492   1.608
 7074SOL    HW122121   3.326   2.464   1.561
 7074SOL    HW222122   3.201   2.413   1.654
 7075SOL     OW22123   2.142   5.957   4.293
 7075SOL    HW122124   2.185   5.946   4.203
 7075SOL    HW222125   2.044   5.973   4.281
 7076SOL     OW22126   3.851   1.777   6.467
 7076SOL    HW122127   3.784   1.848   6.443
 7076SOL    HW222128   3.930   1.818   6.510
 7077SOL     OW22129   2.411   5.828   5.368
 7077SOL    HW122130   2.369   5.848   5.456
 7077SOL    HW222131   2.429   5.913   5.319
 7078SOL     OW22132   6.387   6.887   3.226
 7078SOL    HW122133   6.389   6.939   3.141
 7078SOL    HW222134   6.458   6.816   3.225
 7079SOL     OW22135   6.386   6.057   6.394
 7079SOL    HW122136   6.391   6.053   6.493
 7079SOL    HW222137   6.442   5.984   6.355
 7080SOL     OW22138   4.387   2.315   4.043
 7080SOL    HW122139   4.377   2.219   4.068
 7080SOL    HW222140   4.351   2.330   3.951
 7081SOL     OW22141   3.110   1.637   5.535
 7081SOL    HW122142   3.042   1.681   5.593
 7081SOL    HW222143   3.185   1.601   5.592
 7082SOL     OW22144   5.675   1.518   6.815
 7082SOL    HW122145   5.677   1.545   6.911
 7082SOL    HW222146   5.579   1.509   6.785
 7083SOL     OW22147   3.311   0.946   5.983
 7083SOL    HW122148   3.353   0.871   6.034
 7083SOL    HW222149   3.380   0.992   5.927
 7084SOL     OW22150   6.604   6.117   6.080
 7084SOL    HW122151   6.602   6.038   6.019
 7084SOL    HW222152   6.584   6.087   6.174
 7085SOL     OW22153   2.495   2.335   3.186
 7085SOL    HW122154   2.483   2.409   3.120
 7085SOL    HW222155   2.417   2.273   3.180
 7086SOL     OW22156   5.323   1.054   6.859
 7086SOL    HW122157   5.261   1.092   6.790
 7086SOL    HW222158   5.335   0.956   6.843
 7087SOL     OW22159   0.632   3.630   4.296
 7087SOL    HW122160   0.600   3.585   4.212
 7087SOL    HW222161   0.557   3.635   4.362
 7088SOL     OW22162   5.216   3.068   4.301
 7088SOL    HW122163   5.205   3.133   4.376
 7088SOL    HW222164   5.132   3.065   4.246
 7089SOL     OW22165   3.671   2.262   6.083
 7089SOL    HW122166   3.591   2.316   6.059
 7089SOL    HW222167   3.650   2.165   6.070
 7090SOL     OW22168   2.011   1.902   5.298
 7090SOL    HW122169   2.066   1.984   5.286
 7090SOL    HW222170   1.977   1.897   5.392
 7091SOL     OW22171   0.374   0.680   0.443
 7091SOL    HW122172   0.338   0.638   0.526
 7091SOL    HW222173   0.343   0.775   0.437
 7092SOL     OW22174   3.836   3.948   0.224
 7092SOL    HW122175   3.739   3.925   0.214
 7092SOL    HW222176   3.861   4.016   0.157
 7093SOL     OW22177   3.126   4.115   4.442
 7093SOL    HW122178   3.072   4.107   4.526
 7093SOL    HW222179   3.215   4.156   4.463
 7094SOL     OW22180   0.686   6.762   5.758
 7094SOL    HW122181   0.599   6.730   5.721
 7094SOL    HW222182   0.686   6.862   5.764
 7095SOL     OW22183   1.548   3.373   6.348
 7095SOL    HW122184   1.581   3.411   6.435
 7095SOL    HW222185   1.585   3.426   6.272
 7096SOL     OW22186   4.691   2.030   3.823
 7096SOL    HW122187   4.736   2.119   3.827
 7096SOL    HW222188   4.755   1.963   3.785
 7097SOL     OW22189   0.390   1.166   2.204
 7097SOL    HW122190   0.431   1.136   2.117
 7097SOL    HW222191   0.370   1.263   2.200
 7098SOL     OW22192   1.597   5.823   5.940
 7098SOL    HW122193   1.517   5.861   5.986
 7098SOL    HW222194   1.680   5.856   5.985
 7099SOL     OW22195   1.482   1.032   5.000
 7099SOL    HW122196   1.433   0.984   4.928
 7099SOL    HW222197   1.577   0.999   5.004
 7100SOL     OW22198   4.887   4.116   0.970
 7100SOL    HW122199   4.914   4.036   0.915
 7100SOL    HW222200   4.865   4.192   0.909
 7101SOL     OW22201   3.104   0.269   4.599
 7101SOL    HW122202   3.052   0.260   4.514
 7101SOL    HW222203   3.076   0.353   4.646
 7102SOL     OW22204   4.171   1.246   1.162
 7102SOL    HW122205   4.078   1.229   1.132
 7102SOL    HW222206   4.230   1.260   1.083
 7103SOL     OW22207   3.803   6.487   0.141
 7103SOL    HW122208   3.790   6.527   0.051
 7103SOL    HW222209   3.724   6.508   0.199
 7104SOL     OW22210   1.547   2.876   3.247
 7104SOL    HW122211   1.630   2.843   3.292
 7104SOL    HW222212   1.492   2.929   3.312
 7105SOL     OW22213   3.385   3.363   4.544
 7105SOL    HW122214   3.322   3.291   4.574
 7105SOL    HW222215   3.333   3.438   4.504
 7106SOL     OW22216   3.763   3.239   5.053
 7106SOL    HW122217   3.788   3.145   5.078
 7106SOL    HW222218   3.664   3.251   5.066
 7107SOL     OW22219   2.983   1.341   0.099
 7107SOL    HW122220   3.033   1.297   0.174
 7107SOL    HW222221   3.045   1.398   0.045
 7108SOL     OW22222   5.202   6.388   1.003
 7108SOL    HW122223   5.159   6.423   1.086
 7108SOL    HW222224   5.300   6.375   1.020
 7109SOL     OW22225   3.700   0.258   6.051
 7109SOL    HW122226   3.796   0.256   6.079
 7109SOL    HW222227   3.645   0.207   6.116
 7110SOL     OW22228   5.178   5.253   4.073
 7110SOL    HW122229   5.237   5.206   4.007
 7110SOL    HW222230   5.094   5.282   4.027
 7111SOL     OW22231   1.571   3.732   4.215
 7111SOL    HW122232   1.579   3.717   4.116
 7111SOL    HW222233   1.476   3.721   4.243
 7112SOL     OW22234   1.173   5.997   3.957
 7112SOL    HW122235   1.267   6.026   3.937
 7112SOL    HW222236   1.172   5.943   4.041
 7113SOL     OW22237   3.777   3.967   4.666
 7113SOL    HW122238   3.700   3.951   4.727
 7113SOL    HW222239   3.832   3.884   4.659
 7114SOL     OW22240   4.409   0.816   1.794
 7114SOL    HW122241   4.366   0.798   1.705
 7114SOL    HW222242   4.447   0.909   1.794
 7115SOL     OW22243   4.918   1.718   1.406
 7115SOL    HW122244   4.830   1.711   1.453
 7115SOL    HW222245   4.939   1.631   1.361
 7116SOL     OW22246   5.075   4.165   3.626
 7116SOL    HW122247   5.034   4.109   3.554
 7116SOL    HW222248   5.168   4.134   3.644
 7117SOL     OW22249   6.606   6.178   3.259
 7117SOL    HW122250   6.622   6.115   3.335
 7117SOL    HW222251   6.618   6.129   3.173
 7118SOL     OW22252   5.364   3.979   1.162
 7118SOL    HW122253   5.299   4.028   1.219
 7118SOL    HW222254   5.341   3.993   1.065
 7119SOL     OW22255   6.058   1.620   2.855
 7119SOL    HW122256   6.128   1.551   2.838
 7119SOL    HW222257   6.082   1.673   2.937
 7120SOL     OW22258   5.076   1.339   3.498
 7120SOL    HW122259   5.079   1.322   3.596
 7120SOL    HW222260   5.139   1.413   3.475
 7121SOL     OW22261   2.049   6.982   3.581
 7121SOL    HW122262   1.989   6.981   3.501
 7121SOL    HW222263   2.009   6.926   3.654
 7122SOL     OW22264   6.785   1.341   0.259
 7122SOL    HW122265   6.804   1.434   0.225
 7122SOL    HW222266   6.803   1.338   0.357
 7123SOL     OW22267   2.830   5.555   1.813
 7123SOL    HW122268   2.929   5.542   1.808
 7123SOL    HW222269   2.789   5.530   1.724
 7124SOL     OW22270   0.598   5.385   0.410
 7124SOL    HW122271   0.557   5.471   0.380
 7124SOL    HW222272   0.598   5.320   0.335
 7125SOL     OW22273   6.187   6.800   1.963
 7125SOL    HW122274   6.236   6.881   1.994
 7125SOL    HW222275   6.216   6.721   2.016
 7126SOL     OW22276   2.370   4.097   0.452
 7126SOL    HW122277   2.386   4.024   0.518
 7126SOL    HW222278   2.274   4.100   0.426
 7127SOL     OW22279   3.347   5.932   4.084
 7127SOL    HW122280   3.356   5.977   4.173
 7127SOL    HW222281   3.339   5.833   4.097
 7128SOL     OW22282   3.456   4.554   0.564
 7128SOL    HW122283   3.438   4.476   0.624
 7128SOL    HW222284   3.491   4.630   0.618
 7129SOL     OW22285   3.149   0.989   1.158
 7129SOL    HW122286   3.196   0.991   1.246
 7129SOL    HW222287   3.196   1.048   1.093
 7130SOL     OW22288   3.191   4.854   3.909
 7130SOL    HW122289   3.212   4.901   3.994
 7130SOL    HW222290   3.117   4.789   3.924
 7131SOL     OW22291   3.157   1.594   2.162
 7131SOL    HW122292   3.063   1.581   2.193
 7131SOL    HW222293   3.158   1.655   2.084
 7132SOL     OW22294   4.166   3.540   2.875
 7132SOL    HW122295   4.127   3.600   2.945
 7132SOL    HW222296   4.265   3.536   2.886
 7133SOL     OW22297   4.771   5.881   3.393
 7133SOL    HW122298   4.842   5.929   3.445
 7133SOL    HW222299   4.753   5.792   3.434
 7134SOL     OW22300   6.037   6.199   3.911
 7134SOL    HW122301   6.017   6.289   3.951
 7134SOL    HW222302   6.089   6.210   3.827
 7135SOL     OW22303   1.270   0.788   4.443
 7135SOL    HW122304   1.271   0.869   4.386
 7135SOL    HW222305   1.246   0.813   4.537
 7136SOL     OW22306   2.266   0.844   0.728
 7136SOL    HW122307   2.187   0.860   0.670
 7136SOL    HW222308   2.277   0.746   0.743
 7137SOL     OW22309   4.621   0.861   4.842
 7137SOL    HW122310   4.604   0.871   4.940
 7137SOL    HW222311   4.711   0.899   4.820
 7138SOL     OW22312   3.464   3.506   1.000
 7138SOL    HW122313   3.452   3.563   1.082
 7138SOL    HW222314   3.451   3.410   1.024
 7139SOL     OW22315   4.726   3.133   1.656
 7139SOL    HW122316   4.793   3.205   1.674
 7139SOL    HW222317   4.684   3.105   1.743
 7140SOL     OW22318   6.370   4.161   4.987
 7140SOL    HW122319   6.279   4.136   4.954
 7140SOL    HW222320   6.385   4.123   5.078
 7141SOL     OW22321   3.092   0.246   0.808
 7141SOL    HW122322   3.067   0.297   0.725
 7141SOL    HW222323   3.182   0.204   0.795
 7142SOL     OW22324   4.178   6.259   3.912
 7142SOL    HW122325   4.109   6.229   3.846
 7142SOL    HW222326   4.192   6.187   3.980
 7143SOL     OW22327   1.541   4.480   5.976
 7143SOL    HW122328   1.480   4.445   5.904
 7143SOL    HW222329   1.586   4.564   5.945
 7144SOL     OW22330   0.904   1.416   3.014
 7144SOL    HW122331   0.981   1.419   2.950
 7144SOL    HW222332   0.819   1.397   2.964
 7145SOL     OW22333   4.378   6.914   6.749
 7145SOL    HW122334   4.373   6.979   6.825
 7145SOL    HW222335   4.392   6.822   6.785
 7146SOL     OW22336   3.069   6.617   0.414
 7146SOL    HW122337   3.144   6.661   0.366
 7146SOL    HW222338   3.012   6.687   0.457
 7147SOL     OW22339   6.929   0.184   3.506
 7147SOL    HW122340   6.882   0.182   3.594
 7147SOL    HW222341   0.004   0.159   3.518
 7148SOL     OW22342   1.265   6.536   1.564
 7148SOL    HW122343   1.333   6.601   1.597
 7148SOL    HW222344   1.213   6.500   1.641
 7149SOL     OW22345   6.083   1.123   3.886
 7149SOL    HW122346   6.008   1.105   3.950
 7149SOL    HW222347   6.136   1.040   3.873
 7150SOL     OW22348   5.251   3.125   0.735
 7150SOL    HW122349   5.239   3.140   0.833
 7150SOL    HW222350   5.238   3.028   0.714
 7151SOL     OW22351   1.916   5.969   1.065
 7151SOL    HW122352   1.932   5.971   1.164
 7151SOL    HW222353   1.944   6.056   1.025
 7152SOL     OW22354   0.406   3.010   4.942
 7152SOL    HW122355   0.404   3.104   4.976
 7152SOL    HW222356   0.377   2.948   5.015
 7153SOL     OW22357   4.295   0.406   4.805
 7153SOL    HW122358   4.374   0.467   4.810
 7153SOL    HW222359   4.325   0.311   4.819
 7154SOL     OW22360   3.478   5.605   4.395
 7154SOL    HW122361   3.548   5.640   4.333
 7154SOL    HW222362   3.464   5.508   4.377
 7155SOL     OW22363   1.213   5.976   1.964
 7155SOL    HW122364   1.210   5.877   1.950
 7155SOL    HW222365   1.307   6.008   1.952
 7156SOL     OW22366   6.709   5.175   5.290
 7156SOL    HW122367   6.707   5.255   5.230
 7156SOL    HW222368   6.635   5.182   5.357
 7157SOL     OW22369   5.841   5.896   0.420
 7157SOL    HW122370   5.858   5.911   0.322
 7157SOL    HW222371   5.766   5.954   0.451
 7158SOL     OW22372   7.007   6.742   2.850
 7158SOL    HW122373   6.967   6.654   2.826
 7158SOL    HW222374   0.055   6.729   2.921
 7159SOL     OW22375   0.498   5.438   1.340
 7159SOL    HW122376   0.475   5.463   1.434
 7159SOL    HW222377   0.592   5.404   1.337
 7160SOL     OW22378   6.652   0.184   1.793
 7160SOL    HW122379   6.629   0.087   1.791
 7160SOL    HW222380   6.648   0.217   1.887
 7161SOL     OW22381   3.609   3.156   3.887
 7161SOL    HW122382   3.556   3.166   3.971
 7161SOL    HW222383   3.625   3.059   3.869
 7162SOL     OW22384   3.515   4.943   4.042
 7162SOL    HW122385   3.431   4.906   4.083
 7162SOL    HW222386   3.528   5.037   4.072
 7163SOL     OW22387   3.569   0.048   3.556
 7163SOL    HW122388   3.587   0.127   3.614
 7163SOL    HW222389   3.608   0.064   3.465
 7164SOL     OW22390   2.036   1.260   3.246
 7164SOL    HW122391   2.028   1.188   3.314
 7164SOL    HW222392   2.080   1.224   3.163
 7165SOL     OW22393   5.727   1.400   0.710
 7165SOL    HW122394   5.788   1.362   0.780
 7165SOL    HW222395   5.733   1.499   0.711
 7166SOL     OW22396   4.727   4.529   1.077
 7166SOL    HW122397   4.659   4.455   1.078
 7166SOL    HW222398   4.680   4.616   1.067
 7167SOL     OW22399   4.691   3.823   5.319
 7167SOL    HW122400   4.678   3.743   5.261
 7167SOL    HW222401   4.667   3.800   5.413
 7168SOL     OW22402   1.243   1.008   4.298
 7168SOL    HW122403   1.271   1.058   4.216
 7168SOL    HW222404   1.182   1.066   4.353
 7169SOL     OW22405   1.574   3.116   5.940
 7169SOL    HW122406   1.633   3.036   5.933
 7169SOL    HW222407   1.627   3.199   5.924
 7170SOL     OW22408   5.356   4.726   3.203
 7170SOL    HW122409   5.433   4.790   3.205
 7170SOL    HW222410   5.383   4.642   3.156
 7171SOL     OW22411   4.421   3.148   5.583
 7171SOL    HW122412   4.351   3.081   5.556
 7171SOL    HW222413   4.380   3.240   5.581
 7172SOL     OW22414   1.582   6.443   0.858
 7172SOL    HW122415   1.537   6.506   0.795
 7172SOL    HW222416   1.681   6.460   0.856
 7173SOL     OW22417   7.007   5.299   4.182
 7173SOL    HW122418   6.968   5.378   4.230
 7173SOL    HW222419   6.963   5.288   4.093
 7174SOL     OW22420   2.188   5.097   0.357
 7174SOL    HW122421   2.175   5.186   0.313
 7174SOL    HW222422   2.120   5.032   0.323
 7175SOL     OW22423   5.169   3.618   0.484
 7175SOL    HW122424   5.265   3.642   0.500
 7175SOL    HW222425   5.157   3.519   0.497
 7176SOL     OW22426   6.994   4.561   1.864
 7176SOL    HW122427   6.987   4.506   1.781
 7176SOL    HW222428   0.057   4.537   1.913
 7177SOL     OW22429   1.180   6.000   3.529
 7177SOL    HW122430   1.130   6.084   3.507
 7177SOL    HW222431   1.227   5.968   3.448
 7178SOL     OW22432   1.569   2.982   5.140
 7178SOL    HW122433   1.497   2.928   5.183
 7178SOL    HW222434   1.600   3.052   5.204
 7179SOL     OW22435   2.743   3.681   5.671
 7179SOL    HW122436   2.746   3.766   5.723
 7179SOL    HW222437   2.823   3.675   5.612
 7180SOL     OW22438   0.783   6.427   6.862
 7180SOL    HW122439   0.721   6.352   6.888
 7180SOL    HW222440   0.798   6.486   6.941
 7181SOL     OW22441   3.992   0.912   1.163
 7181SOL    HW122442   3.960   0.830   1.209
 7181SOL    HW222443   4.070   0.950   1.213
 7182SOL     OW22444   2.096   4.167   5.305
 7182SOL    HW122445   2.101   4.068   5.288
 7182SOL    HW222446   2.178   4.211   5.270
 7183SOL     OW22447   1.541   5.070   2.746
 7183SOL    HW122448   1.558   4.997   2.680
 7183SOL    HW222449   1.448   5.060   2.783
 7184SOL     OW22450   1.392   6.342   4.035
 7184SOL    HW122451   1.418   6.411   3.967
 7184SOL    HW222452   1.412   6.251   3.999
 7185SOL     OW22453   4.959   3.005   6.621
 7185SOL    HW122454   4.863   2.974   6.621
 7185SOL    HW222455   4.965   3.091   6.670
 7186SOL     OW22456   6.777   6.375   5.450
 7186SOL    HW122457   6.783   6.314   5.371
 7186SOL    HW222458   6.845   6.349   5.518
 7187SOL     OW22459   1.596   4.279   1.865
 7187SOL    HW122460   1.685   4.250   1.899
 7187SOL    HW222461   1.593   4.270   1.765
 7188SOL     OW22462   5.312   0.191   2.219
 7188SOL    HW122463   5.365   0.258   2.272
 7188SOL    HW222464   5.305   0.222   2.124
 7189SOL     OW22465   6.740   1.094   6.262
 7189SOL    HW122466   6.654   1.106   6.212
 7189SOL    HW222467   6.762   1.178   6.311
 7190SOL     OW22468   5.371   4.222   3.117
 7190SOL    HW122469   5.419   4.303   3.151
 7190SOL    HW222470   5.411   4.193   3.031
 7191SOL     OW22471   1.144   3.348   2.864
 7191SOL    HW122472   1.102   3.378   2.949
 7191SOL    HW222473   1.079   3.292   2.812
 7192SOL     OW22474   2.318   5.165   6.068
 7192SOL    HW122475   2.255   5.089   6.052
 7192SOL    HW222476   2.304   5.235   5.998
 7193SOL     OW22477   3.298   1.703   4.746
 7193SOL    HW122478   3.324   1.744   4.834
 7193SOL    HW222479   3.199   1.710   4.734
 7194SOL     OW22480   2.451   1.580   1.246
 7194SOL    HW122481   2.547   1.608   1.243
 7194SOL    HW222482   2.400   1.631   1.177
 7195SOL     OW22483   0.238   5.283   0.658
 7195SOL    HW122484   0.202   5.310   0.568
 7195SOL    HW222485   0.180   5.322   0.729
 7196SOL     OW22486   3.002   3.439   3.394
 7196SOL    HW122487   3.017   3.405   3.487
 7196SOL    HW222488   2.974   3.362   3.335
 7197SOL     OW22489   0.051   1.547   4.814
 7197SOL    HW122490   0.013   1.506   4.897
 7197SOL    HW222491   7.020   1.630   4.792
 7198SOL     OW22492   1.872   6.588   5.580
 7198SOL    HW122493   1.935   6.601   5.657
 7198SOL    HW222494   1.912   6.523   5.515
 7199SOL     OW22495   0.202   0.740   2.730
 7199SOL    HW122496   0.174   0.835   2.720
 7199SOL    HW222497   0.170   0.705   2.818
 7200SOL     OW22498   2.604   0.907   0.764
 7200SOL    HW122499   2.601   1.002   0.795
 7200SOL    HW222500   2.550   0.897   0.680
 7201SOL     OW22501   1.646   4.535   2.967
 7201SOL    HW122502   1.580   4.574   3.031
 7201SOL    HW222503   1.695   4.460   3.011
 7202SOL     OW22504   4.219   0.240   6.185
 7202SOL    HW122505   4.263   0.154   6.159
 7202SOL    HW222506   4.227   0.305   6.110
 7203SOL     OW22507   6.274   0.437   0.593
 7203SOL    HW122508   6.329   0.518   0.573
 7203SOL    HW222509   6.252   0.434   0.691
 7204SOL     OW22510   6.100   0.835   3.544
 7204SOL    HW122511   6.081   0.769   3.616
 7204SOL    HW222512   6.040   0.914   3.554
 7205SOL     OW22513   1.757   5.256   2.900
 7205SOL    HW122514   1.745   5.355   2.911
 7205SOL    HW222515   1.685   5.221   2.840
 7206SOL     OW22516   0.039   1.676   0.961
 7206SOL    HW122517   6.961   1.675   0.947
 7206SOL    HW222518   0.060   1.734   1.039
 7207SOL     OW22519   3.303   6.746   1.273
 7207SOL    HW122520   3.397   6.730   1.303
 7207SOL    HW222521   3.277   6.677   1.206
 7208SOL     OW22522   3.462   6.764   4.867
 7208SOL    HW122523   3.525   6.792   4.939
 7208SOL    HW222524   3.514   6.735   4.787
 7209SOL     OW22525   4.082   3.498   4.017
 7209SOL    HW122526   4.062   3.409   3.976
 7209SOL    HW222527   4.180   3.504   4.038
 7210SOL     OW22528   4.516   1.289   3.849
 7210SOL    HW122529   4.485   1.307   3.756
 7210SOL    HW222530   4.614   1.270   3.849
 7211SOL     OW22531   1.186   6.457   4.158
 7211SOL    HW122532   1.127   6.500   4.090
 7211SOL    HW222533   1.261   6.409   4.112
 7212SOL     OW22534   6.298   5.525   4.716
 7212SOL    HW122535   6.346   5.501   4.631
 7212SOL    HW222536   6.320   5.620   4.740
 7213SOL     OW22537   5.647   0.516   5.333
 7213SOL    HW122538   5.720   0.582   5.313
 7213SOL    HW222539   5.663   0.473   5.421
 7214SOL     OW22540   2.393   5.553   4.444
 7214SOL    HW122541   2.473   5.537   4.386
 7214SOL    HW222542   2.389   5.650   4.468
 7215SOL     OW22543   0.711   3.597   3.927
 7215SOL    HW122544   0.798   3.613   3.975
 7215SOL    HW222545   0.679   3.682   3.886
 7216SOL     OW22546   2.457   6.413   0.235
 7216SOL    HW122547   2.488   6.452   0.148
 7216SOL    HW222548   2.406   6.482   0.286
 7217SOL     OW22549   1.301   3.903   2.243
 7217SOL    HW122550   1.330   3.995   2.268
 7217SOL    HW222551   1.285   3.899   2.145
 7218SOL     OW22552   4.576   1.993   5.874
 7218SOL    HW122553   4.540   1.983   5.967
 7218SOL    HW222554   4.530   1.928   5.813
 7219SOL     OW22555   4.386   6.504   3.235
 7219SOL    HW122556   4.290   6.526   3.253
 7219SOL    HW222557   4.415   6.432   3.297
 7220SOL     OW22558   6.445   1.491   2.640
 7220SOL    HW122559   6.421   1.587   2.631
 7220SOL    HW222560   6.529   1.482   2.694
 7221SOL     OW22561   5.722   4.287   5.653
 7221SOL    HW122562   5.657   4.211   5.651
 7221SOL    HW222563   5.768   4.290   5.742
 7222SOL     OW22564   6.523   6.396   1.190
 7222SOL    HW122565   6.525   6.496   1.201
 7222SOL    HW222566   6.488   6.373   1.100
 7223SOL     OW22567   3.085   1.463   6.098
 7223SOL    HW122568   3.079   1.488   6.195
 7223SOL    HW222569   3.162   1.512   6.057
 7224SOL     OW22570   5.678   0.995   4.637
 7224SOL    HW122571   5.645   0.906   4.604
 7224SOL    HW222572   5.769   1.012   4.599
 7225SOL     OW22573   1.894   5.569   0.266
 7225SOL    HW122574   1.930   5.651   0.312
 7225SOL    HW222575   1.796   5.562   0.282
 7226SOL     OW22576   0.363   6.564   0.487
 7226SOL    HW122577   0.457   6.552   0.456
 7226SOL    HW222578   0.354   6.652   0.533
 7227SOL     OW22579   0.547   2.251   0.128
 7227SOL    HW122580   0.561   2.153   0.145
 7227SOL    HW222581   0.606   2.281   0.054
 7228SOL     OW22582   6.734   6.902   1.988
 7228SOL    HW122583   6.644   6.891   1.946
 7228SOL    HW222584   6.789   6.820   1.971
 7229SOL     OW22585   1.420   0.047   4.486
 7229SOL    HW122586   1.422   0.139   4.446
 7229SOL    HW222587   1.508   0.027   4.528
 7230SOL     OW22588   4.422   5.297   3.742
 7230SOL    HW122589   4.449   5.328   3.833
 7230SOL    HW222590   4.442   5.370   3.675
 7231SOL     OW22591   5.827   1.732   6.294
 7231SOL    HW122592   5.891   1.807   6.279
 7231SOL    HW222593   5.808   1.722   6.392
 7232SOL     OW22594   4.538   4.635   2.352
 7232SOL    HW122595   4.590   4.614   2.434
 7232SOL    HW222596   4.447   4.670   2.379
 7233SOL     OW22597   0.396   2.920   5.720
 7233SOL    HW122598   0.352   2.830   5.721
 7233SOL    HW222599   0.489   2.911   5.686
 7234SOL     OW22600   6.438   2.268   1.592
 7234SOL    HW122601   6.512   2.326   1.559
 7234SOL    HW222602   6.350   2.310   1.572
 7235SOL     OW22603   5.108   3.790   4.777
 7235SOL    HW122604   5.062   3.702   4.789
 7235SOL    HW222605   5.107   3.816   4.681
 7236SOL     OW22606   4.015   1.316   3.220
 7236SOL    HW122607   3.938   1.327   3.157
 7236SOL    HW222608   4.029   1.401   3.271
 7237SOL     OW22609   6.090   5.942   5.605
 7237SOL    HW122610   6.065   6.034   5.636
 7237SOL    HW222611   6.129   5.890   5.681
 7238SOL     OW22612   2.758   1.992   2.306
 7238SOL    HW122613   2.848   1.949   2.310
 7238SOL    HW222614   2.695   1.933   2.255
 7239SOL     OW22615   1.886   1.413   2.155
 7239SOL    HW122616   1.830   1.428   2.236
 7239SOL    HW222617   1.921   1.500   2.121
 7240SOL     OW22618   2.825   3.979   0.192
 7240SOL    HW122619   2.886   4.058   0.206
 7240SOL    HW222620   2.744   3.989   0.250
 7241SOL     OW22621   3.291   0.025   5.339
 7241SOL    HW122622   3.286   6.956   5.383
 7241SOL    HW222623   3.234   0.026   5.257
 7242SOL     OW22624   5.997   4.768   6.351
 7242SOL    HW122625   6.047   4.788   6.435
 7242SOL    HW222626   5.946   4.683   6.362
 7243SOL     OW22627   0.791   5.869   6.783
 7243SOL    HW122628   0.805   5.903   6.690
 7243SOL    HW222629   0.859   5.798   6.803
 7244SOL     OW22630   6.167   1.764   1.331
 7244SOL    HW122631   6.209   1.723   1.412
 7244SOL    HW222632   6.227   1.836   1.296
 7245SOL     OW22633   0.343   1.735   4.541
 7245SOL    HW122634   0.408   1.681   4.488
 7245SOL    HW222635   0.308   1.810   4.485
 7246SOL     OW22636   6.187   6.918   5.344
 7246SOL    HW122637   6.154   6.841   5.289
 7246SOL    HW222638   6.113   6.951   5.402
 7247SOL     OW22639   2.829   5.832   2.133
 7247SOL    HW122640   2.898   5.764   2.109
 7247SOL    HW222641   2.752   5.787   2.178
 7248SOL     OW22642   3.919   1.239   4.019
 7248SOL    HW122643   3.865   1.209   4.098
 7248SOL    HW222644   4.016   1.231   4.040
 7249SOL     OW22645   5.790   4.467   0.074
 7249SOL    HW122646   5.741   4.428   7.017
 7249SOL    HW222647   5.845   4.395   0.118
 7250SOL     OW22648   2.694   4.632   5.793
 7250SOL    HW122649   2.660   4.639   5.699
 7250SOL    HW222650   2.625   4.586   5.849
 7251SOL     OW22651   6.913   6.732   4.764
 7251SOL    HW122652   6.887   6.680   4.846
 7251SOL    HW222653   6.922   6.829   4.788
 7252SOL     OW22654   3.527   3.124   4.818
 7252SOL    HW122655   3.619   3.103   4.784
 7252SOL    HW222656   3.500   3.054   4.885
 7253SOL     OW22657   3.396   6.319   0.873
 7253SOL    HW122658   3.323   6.251   0.861
 7253SOL    HW222659   3.475   6.293   0.819
 7254SOL     OW22660   4.072   5.881   4.057
 7254SOL    HW122661   4.168   5.902   4.038
 7254SOL    HW222662   4.022   5.875   3.971
 7255SOL     OW22663   3.246   3.469   2.164
 7255SOL    HW122664   3.255   3.370   2.168
 7255SOL    HW222665   3.203   3.495   2.078
 7256SOL     OW22666   4.225   4.833   3.634
 7256SOL    HW122667   4.245   4.903   3.703
 7256SOL    HW222668   4.310   4.809   3.585
 7257SOL     OW22669   5.936   2.398   3.570
 7257SOL    HW122670   5.987   2.475   3.607
 7257SOL    HW222671   5.861   2.374   3.633
 7258SOL     OW22672   3.449   0.603   4.984
 7258SOL    HW122673   3.350   0.590   4.984
 7258SOL    HW222674   3.485   0.586   5.076
 7259SOL     OW22675   2.249   4.111   0.068
 7259SOL    HW122676   2.205   4.026   0.095
 7259SOL    HW222677   2.348   4.104   0.084
 7260SOL     OW22678   3.372   2.035   2.726
 7260SOL    HW122679   3.319   2.106   2.679
 7260SOL    HW222680   3.456   2.017   2.675
 7261SOL     OW22681   1.981   3.391   2.002
 7261SOL    HW122682   1.970   3.306   2.053
 7261SOL    HW222683   2.078   3.417   2.002
 7262SOL     OW22684   5.629   1.841   4.961
 7262SOL    HW122685   5.570   1.867   4.884
 7262SOL    HW222686   5.714   1.802   4.926
 7263SOL     OW22687   1.673   6.053   1.152
 7263SOL    HW122688   1.694   6.087   1.244
 7263SOL    HW222689   1.756   6.049   1.098
 7264SOL     OW22690   6.941   0.932   6.292
 7264SOL    HW122691   6.870   1.000   6.271
 7264SOL    HW222692   6.913   0.843   6.256
 7265SOL     OW22693   4.458   4.776   5.477
 7265SOL    HW122694   4.525   4.710   5.511
 7265SOL    HW222695   4.420   4.827   5.554
 7266SOL     OW22696   4.765   0.372   2.061
 7266SOL    HW122697   4.850   0.329   2.029
 7266SOL    HW222698   4.741   0.334   2.150
 7267SOL     OW22699   0.180   4.018   4.610
 7267SOL    HW122700   0.083   4.023   4.636
 7267SOL    HW222701   0.223   4.107   4.626
 7268SOL     OW22702   4.065   6.559   1.420
 7268SOL    HW122703   4.002   6.531   1.348
 7268SOL    HW222704   4.019   6.552   1.509
 7269SOL     OW22705   1.220   5.743   1.797
 7269SOL    HW122706   1.187   5.684   1.871
 7269SOL    HW222707   1.260   5.687   1.725
 7270SOL     OW22708   2.516   1.044   2.785
 7270SOL    HW122709   2.599   0.998   2.754
 7270SOL    HW222710   2.521   1.142   2.762
 7271SOL     OW22711   0.093   3.694   2.865
 7271SOL    HW122712   0.079   3.670   2.961
 7271SOL    HW222713   0.187   3.722   2.851
 7272SOL     OW22714   5.058   2.516   2.476
 7272SOL    HW122715   5.010   2.587   2.526
 7272SOL    HW222716   5.015   2.503   2.387
 7273SOL     OW22717   5.576   4.252   0.559
 7273SOL    HW122718   5.643   4.178   0.552
 7273SOL    HW222719   5.488   4.219   0.525
 7274SOL     OW22720   6.791   4.740   5.312
 7274SOL    HW122721   6.801   4.839   5.309
 7274SOL    HW222722   6.861   4.698   5.254
 7275SOL     OW22723   6.930   0.455   0.696
 7275SOL    HW122724   6.916   0.488   0.603
 7275SOL    HW222725   6.895   0.362   0.704
 7276SOL     OW22726   2.238   2.739   4.023
 7276SOL    HW122727   2.334   2.711   4.033
 7276SOL    HW222728   2.224   2.827   4.069
 7277SOL     OW22729   4.356   1.923   4.783
 7277SOL    HW122730   4.424   1.863   4.740
 7277SOL    HW222731   4.353   2.010   4.733
 7278SOL     OW22732   3.431   1.468   3.203
 7278SOL    HW122733   3.492   1.545   3.185
 7278SOL    HW222734   3.409   1.464   3.301
 7279SOL     OW22735   5.024   4.941   0.285
 7279SOL    HW122736   5.015   4.968   0.190
 7279SOL    HW222737   4.952   4.876   0.309
 7280SOL     OW22738   5.644   2.370   5.074
 7280SOL    HW122739   5.654   2.271   5.076
 7280SOL    HW222740   5.715   2.412   5.129
 7281SOL     OW22741   3.794   6.847   2.248
 7281SOL    HW122742   3.789   6.801   2.337
 7281SOL    HW222743   3.865   6.804   2.192
 7282SOL     OW22744   6.834   5.167   2.227
 7282SOL    HW122745   6.808   5.124   2.140
 7282SOL    HW222746   6.892   5.247   2.209
 7283SOL     OW22747   4.057   4.742   2.241
 7283SOL    HW122748   4.019   4.676   2.307
 7283SOL    HW222749   3.983   4.798   2.204
 7284SOL     OW22750   6.459   1.836   3.771
 7284SOL    HW122751   6.400   1.864   3.695
 7284SOL    HW222752   6.421   1.873   3.856
 7285SOL     OW22753   4.816   2.958   2.284
 7285SOL    HW122754   4.913   2.963   2.261
 7285SOL    HW222755   4.762   2.979   2.203
 7286SOL     OW22756   0.723   0.912   1.353
 7286SOL    HW122757   0.740   1.010   1.361
 7286SOL    HW222758   0.714   0.872   1.444
 7287SOL     OW22759   1.229   2.672   3.957
 7287SOL    HW122760   1.245   2.665   4.055
 7287SOL    HW222761   1.278   2.599   3.909
 7288SOL     OW22762   2.875   2.078   3.489
 7288SOL    HW122763   2.867   2.094   3.587
 7288SOL    HW222764   2.803   2.129   3.441
 7289SOL     OW22765   6.063   2.426   1.021
 7289SOL    HW122766   5.996   2.456   1.088
 7289SOL    HW222767   6.109   2.343   1.054
 7290SOL     OW22768   3.045   1.897   5.319
 7290SOL    HW122769   3.056   1.931   5.226
 7290SOL    HW222770   3.097   1.813   5.331
 7291SOL     OW22771   4.505   1.261   0.588
 7291SOL    HW122772   4.440   1.277   0.513
 7291SOL    HW222773   4.597   1.287   0.558
 7292SOL     OW22774   2.236   0.118   2.612
 7292SOL    HW122775   2.218   0.210   2.646
 7292SOL    HW222776   2.150   0.067   2.606
 7293SOL     OW22777   1.631   0.522   5.423
 7293SOL    HW122778   1.622   0.506   5.324
 7293SOL    HW222779   1.581   0.606   5.447
 7294SOL     OW22780   2.368   6.080   1.318
 7294SOL    HW122781   2.441   6.139   1.350
 7294SOL    HW222782   2.281   6.129   1.318
 7295SOL     OW22783   6.124   5.091   2.320
 7295SOL    HW122784   6.075   5.008   2.348
 7295SOL    HW222785   6.057   5.162   2.296
 7296SOL     OW22786   5.156   4.893   2.071
 7296SOL    HW122787   5.161   4.795   2.052
 7296SOL    HW222788   5.105   4.908   2.156
 7297SOL     OW22789   3.894   6.277   1.500
 7297SOL    HW122790   3.817   6.323   1.544
 7297SOL    HW222791   3.969   6.268   1.565
 7298SOL     OW22792   4.969   5.754   6.553
 7298SOL    HW122793   4.990   5.688   6.481
 7298SOL    HW222794   4.970   5.708   6.642
 7299SOL     OW22795   1.682   2.931   0.020
 7299SOL    HW122796   1.602   2.931   0.081
 7299SOL    HW222797   1.722   3.022   0.017
 7300SOL     OW22798   0.444   5.004   1.863
 7300SOL    HW122799   0.348   5.028   1.878
 7300SOL    HW222800   0.472   5.033   1.772
 7301SOL     OW22801   5.306   6.942   5.840
 7301SOL    HW122802   5.336   6.850   5.864
 7301SOL    HW222803   5.380   7.007   5.857
 7302SOL     OW22804   5.128   1.580   6.477
 7302SOL    HW122805   5.069   1.515   6.526
 7302SOL    HW222806   5.214   1.590   6.526
 7303SOL     OW22807   2.735   1.421   1.362
 7303SOL    HW122808   2.720   1.514   1.328
 7303SOL    HW222809   2.816   1.383   1.319
 7304SOL     OW22810   2.834   5.830   1.750
 7304SOL    HW122811   2.758   5.820   1.687
 7304SOL    HW222812   2.868   5.740   1.777
 7305SOL     OW22813   6.253   2.086   0.572
 7305SOL    HW122814   6.162   2.047   0.580
 7305SOL    HW222815   6.267   2.152   0.646
 7306SOL     OW22816   2.526   1.974   0.907
 7306SOL    HW122817   2.478   2.061   0.896
 7306SOL    HW222818   2.584   1.958   0.827
 7307SOL     OW22819   1.854   0.027   1.793
 7307SOL    HW122820   1.875   0.004   1.698
 7307SOL    HW222821   1.877   0.123   1.810
 7308SOL     OW22822   5.271   1.111   2.918
 7308SOL    HW122823   5.215   1.034   2.887
 7308SOL    HW222824   5.364   1.079   2.939
 7309SOL     OW22825   1.504   5.453   3.136
 7309SOL    HW122826   1.475   5.393   3.061
 7309SOL    HW222827   1.425   5.473   3.194
 7310SOL     OW22828   1.932   3.020   6.873
 7310SOL    HW122829   1.884   3.066   6.799
 7310SOL    HW222830   1.896   3.051   6.961
 7311SOL     OW22831   6.920   6.518   6.017
 7311SOL    HW122832   6.858   6.586   6.056
 7311SOL    HW222833   7.006   6.562   5.991
 7312SOL     OW22834   6.730   1.932   4.697
 7312SOL    HW122835   6.702   1.936   4.793
 7312SOL    HW222836   6.801   1.863   4.686
 7313SOL     OW22837   2.931   0.848   2.004
 7313SOL    HW122838   2.888   0.760   1.980
 7313SOL    HW222839   2.970   0.890   1.922
 7314SOL     OW22840   0.293   4.192   0.106
 7314SOL    HW122841   0.352   4.189   0.025
 7314SOL    HW222842   0.211   4.245   0.086
 7315SOL     OW22843   1.257   4.380   2.776
 7315SOL    HW122844   1.355   4.402   2.778
 7315SOL    HW222845   1.239   4.318   2.700
 7316SOL     OW22846   3.493   2.206   0.665
 7316SOL    HW122847   3.470   2.111   0.688
 7316SOL    HW222848   3.454   2.229   0.576
 7317SOL     OW22849   3.920   1.952   1.628
 7317SOL    HW122850   3.881   1.903   1.549
 7317SOL    HW222851   3.892   1.906   1.712
 7318SOL     OW22852   4.145   6.686   0.441
 7318SOL    HW122853   4.057   6.649   0.410
 7318SOL    HW222854   4.132   6.737   0.526
 7319SOL     OW22855   6.119   4.445   6.919
 7319SOL    HW122856   6.108   4.359   6.867
 7319SOL    HW222857   6.196   4.436   6.982
 7320SOL     OW22858   6.847   3.008   1.650
 7320SOL    HW122859   6.774   2.952   1.610
 7320SOL    HW222860   6.835   3.103   1.622
 7321SOL     OW22861   1.586   0.029   6.817
 7321SOL    HW122862   1.622   7.013   6.731
 7321SOL    HW222863   1.486   0.030   6.812
 7322SOL     OW22864   0.782   2.800   2.695
 7322SOL    HW122865   0.747   2.715   2.656
 7322SOL    HW222866   0.770   2.874   2.628
 7323SOL     OW22867   1.166   2.118   1.492
 7323SOL    HW122868   1.218   2.076   1.417
 7323SOL    HW222869   1.151   2.050   1.564
 7324SOL     OW22870   5.552   5.107   3.522
 7324SOL    HW122871   5.534   5.159   3.439
 7324SOL    HW222872   5.520   5.158   3.601
 7325SOL     OW22873   4.688   1.131   6.039
 7325SOL    HW122874   4.602   1.114   6.087
 7325SOL    HW222875   4.692   1.075   5.957
 7326SOL     OW22876   2.799   0.581   6.816
 7326SOL    HW122877   2.748   0.532   6.887
 7326SOL    HW222878   2.893   0.595   6.846
 7327SOL     OW22879   6.723   3.616   2.850
 7327SOL    HW122880   6.662   3.618   2.771
 7327SOL    HW222881   6.670   3.630   2.933
 7328SOL     OW22882   4.330   4.689   4.732
 7328SOL    HW122883   4.318   4.626   4.809
 7328SOL    HW222884   4.339   4.782   4.768
 7329SOL     OW22885   3.000   2.989   1.091
 7329SOL    HW122886   2.969   3.075   1.051
 7329SOL    HW222887   3.081   3.006   1.148
 7330SOL     OW22888   3.268   3.473   1.246
 7330SOL    HW122889   3.281   3.392   1.304
 7330SOL    HW222890   3.180   3.467   1.199
 7331SOL     OW22891   4.797   0.442   3.172
 7331SOL    HW122892   4.823   0.535   3.195
 7331SOL    HW222893   4.717   0.415   3.226
 7332SOL     OW22894   2.975   4.404   6.463
 7332SOL    HW122895   2.928   4.349   6.531
 7332SOL    HW222896   2.915   4.479   6.433
 7333SOL     OW22897   6.627   2.607   1.013
 7333SOL    HW122898   6.621   2.598   0.913
 7333SOL    HW222899   6.541   2.575   1.054
 7334SOL     OW22900   2.620   0.290   5.063
 7334SOL    HW122901   2.551   0.283   5.135
 7334SOL    HW222902   2.696   0.229   5.083
 7335SOL     OW22903   0.208   2.850   2.184
 7335SOL    HW122904   0.271   2.924   2.160
 7335SOL    HW222905   0.166   2.813   2.101
 7336SOL     OW22906   1.550   6.443   1.132
 7336SOL    HW122907   1.475   6.390   1.172
 7336SOL    HW222908   1.552   6.428   1.033
 7337SOL     OW22909   2.140   2.457   2.889
 7337SOL    HW122910   2.117   2.554   2.873
 7337SOL    HW222911   2.221   2.451   2.947
 7338SOL     OW22912   5.692   3.015   1.955
 7338SOL    HW122913   5.759   2.949   1.922
 7338SOL    HW222914   5.622   2.967   2.009
 7339SOL     OW22915   6.545   4.975   4.700
 7339SOL    HW122916   6.586   5.065   4.717
 7339SOL    HW222917   6.613   4.915   4.657
 7340SOL     OW22918   2.679   0.364   6.954
 7340SOL    HW122919   2.695   0.329   6.861
 7340SOL    HW222920   2.711   0.297   7.021
 7341SOL     OW22921   6.218   4.960   3.522
 7341SOL    HW122922   6.136   4.909   3.549
 7341SOL    HW222923   6.263   4.997   3.603
 7342SOL     OW22924   6.959   0.065   0.294
 7342SOL    HW122925   6.934   0.161   0.284
 7342SOL    HW222926   6.995   0.049   0.386
 7343SOL     OW22927   6.047   3.906   1.992
 7343SOL    HW122928   6.039   3.936   2.087
 7343SOL    HW222929   6.002   3.973   1.932
 7344SOL     OW22930   1.654   6.349   0.078
 7344SOL    HW122931   1.645   6.299   7.013
 7344SOL    HW222932   1.719   6.300   0.138
 7345SOL     OW22933   4.170   5.434   6.454
 7345SOL    HW122934   4.098   5.502   6.472
 7345SOL    HW222935   4.133   5.360   6.399
 7346SOL     OW22936   3.918   4.912   1.835
 7346SOL    HW122937   3.990   4.864   1.885
 7346SOL    HW222938   3.959   4.980   1.774
 7347SOL     OW22939   6.373   1.666   2.291
 7347SOL    HW122940   6.381   1.761   2.322
 7347SOL    HW222941   6.456   1.616   2.315
 7348SOL     OW22942   1.374   1.805   3.326
 7348SOL    HW122943   1.322   1.780   3.408
 7348SOL    HW222944   1.425   1.889   3.343
 7349SOL     OW22945   3.528   1.823   0.916
 7349SOL    HW122946   3.528   1.740   0.973
 7349SOL    HW222947   3.602   1.883   0.946
 7350SOL     OW22948   1.761   2.147   3.558
 7350SOL    HW122949   1.776   2.091   3.476
 7350SOL    HW222950   1.679   2.115   3.606
 7351SOL     OW22951   4.664   4.575   6.885
 7351SOL    HW122952   4.713   4.594   6.970
 7351SOL    HW222953   4.586   4.515   6.905
 7352SOL     OW22954   0.684   1.862   2.599
 7352SOL    HW122955   0.606   1.866   2.537
 7352SOL    HW222956   0.710   1.767   2.615
 7353SOL     OW22957   5.413   1.579   4.171
 7353SOL    HW122958   5.345   1.567   4.243
 7353SOL    HW222959   5.497   1.617   4.210
 7354SOL     OW22960   6.012   5.392   5.909
 7354SOL    HW122961   5.968   5.318   5.858
 7354SOL    HW222962   5.947   5.432   5.973
 7355SOL     OW22963   1.655   5.566   1.688
 7355SOL    HW122964   1.560   5.596   1.681
 7355SOL    HW222965   1.713   5.644   1.713
 7356SOL     OW22966   6.125   1.822   6.150
 7356SOL    HW122967   6.094   1.882   6.225
 7356SOL    HW222968   6.195   1.869   6.097
 7357SOL     OW22969   6.140   2.129   0.086
 7357SOL    HW122970   6.141   2.033   0.059
 7357SOL    HW222971   6.229   2.171   0.064
 7358SOL     OW22972   3.252   1.079   4.211
 7358SOL    HW122973   3.198   1.002   4.247
 7358SOL    HW222974   3.259   1.070   4.111
 7359SOL     OW22975   3.980   3.147   3.309
 7359SOL    HW122976   3.903   3.173   3.368
 7359SOL    HW222977   3.953   3.070   3.251
 7360SOL     OW22978   0.691   2.848   4.902
 7360SOL    HW122979   0.687   2.756   4.862
 7360SOL    HW222980   0.626   2.854   4.977
 7361SOL     OW22981   5.091   6.228   2.038
 7361SOL    HW122982   5.173   6.171   2.028
 7361SOL    HW222983   5.029   6.185   2.104
 7362SOL     OW22984   2.014   5.769   5.621
 7362SOL    HW122985   2.003   5.849   5.681
 7362SOL    HW222986   1.984   5.687   5.670
 7363SOL     OW22987   5.023   3.264   6.690
 7363SOL    HW122988   4.939   3.317   6.673
 7363SOL    HW222989   5.101   3.326   6.693
 7364SOL     OW22990   4.547   6.144   1.445
 7364SOL    HW122991   4.594   6.066   1.404
 7364SOL    HW222992   4.583   6.161   1.536
 7365SOL     OW22993   2.557   0.219   1.951
 7365SOL    HW122994   2.479   0.256   2.001
 7365SOL    HW222995   2.640   0.230   2.006
 7366SOL     OW22996   0.409   5.346   0.029
 7366SOL    HW122997   0.500   5.377   0.001
 7366SOL    HW222998   0.410   5.247   0.040
 7367SOL     OW22999   4.947   3.814   1.662
 7367SOL    HW123000   4.867   3.756   1.643
 7367SOL    HW223001   4.942   3.896   1.606
 7368SOL     OW23002   3.236   3.210   4.726
 7368SOL    HW123003   3.142   3.209   4.760
 7368SOL    HW223004   3.289   3.141   4.774
 7369SOL     OW23005   4.901   3.676   0.556
 7369SOL    HW123006   4.999   3.655   0.547
 7369SOL    HW223007   4.883   3.765   0.515
 7370SOL     OW23008   2.821   0.071   0.256
 7370SOL    HW123009   2.828   0.087   0.355
 7370SOL    HW223010   2.729   0.039   0.234
 7371SOL     OW23011   2.847   4.953   4.040
 7371SOL    HW123012   2.918   5.015   4.006
 7371SOL    HW223013   2.794   4.918   3.963
 7372SOL     OW23014   3.394   0.582   5.687
 7372SOL    HW123015   3.434   0.490   5.690
 7372SOL    HW223016   3.362   0.601   5.594
 7373SOL     OW23017   3.517   0.814   2.297
 7373SOL    HW123018   3.444   0.854   2.354
 7373SOL    HW223019   3.517   0.715   2.308
 7374SOL     OW23020   1.509   3.112   6.746
 7374SOL    HW123021   1.588   3.175   6.751
 7374SOL    HW223022   1.507   3.069   6.656
 7375SOL     OW23023   1.057   0.658   4.336
 7375SOL    HW123024   1.042   0.694   4.244
 7375SOL    HW223025   1.146   0.689   4.369
 7376SOL     OW23026   2.286   3.317   6.959
 7376SOL    HW123027   2.231   3.256   6.901
 7376SOL    HW223028   2.264   3.412   6.937
 7377SOL     OW23029   4.742   4.414   1.898
 7377SOL    HW123030   4.788   4.467   1.969
 7377SOL    HW223031   4.654   4.381   1.932
 7378SOL     OW23032   6.997   1.208   5.210
 7378SOL    HW123033   6.987   1.163   5.121
 7378SOL    HW223034   6.922   1.273   5.222
 7379SOL     OW23035   4.082   1.301   2.498
 7379SOL    HW123036   4.013   1.372   2.487
 7379SOL    HW223037   4.090   1.249   2.413
 7380SOL     OW23038   0.376   3.439   5.920
 7380SOL    HW123039   0.465   3.484   5.907
 7380SOL    HW223040   0.377   3.387   6.005
 7381SOL     OW23041   4.695   1.960   2.462
 7381SOL    HW123042   4.690   1.906   2.547
 7381SOL    HW223043   4.662   1.905   2.386
 7382SOL     OW23044   6.670   4.688   4.653
 7382SOL    HW123045   6.584   4.638   4.645
 7382SOL    HW223046   6.730   4.642   4.717
 7383SOL     OW23047   0.001   6.423   3.389
 7383SOL    HW123048   7.011   6.456   3.294
 7383SOL    HW223049   0.059   6.342   3.390
 7384SOL     OW23050   5.404   6.741   2.335
 7384SOL    HW123051   5.487   6.695   2.367
 7384SOL    HW223052   5.427   6.835   2.309
 7385SOL     OW23053   4.634   6.290   1.221
 7385SOL    HW123054   4.727   6.313   1.247
 7385SOL    HW223055   4.589   6.243   1.297
 7386SOL     OW23056   0.651   1.930   5.359
 7386SOL    HW123057   0.621   2.005   5.299
 7386SOL    HW223058   0.699   1.968   5.438
 7387SOL     OW23059   3.759   5.193   3.794
 7387SOL    HW123060   3.700   5.113   3.805
 7387SOL    HW223061   3.849   5.164   3.762
 7388SOL     OW23062   6.722   4.683   3.616
 7388SOL    HW123063   6.731   4.586   3.641
 7388SOL    HW223064   6.629   4.701   3.584
 7389SOL     OW23065   1.829   4.681   6.292
 7389SOL    HW123066   1.872   4.650   6.207
 7389SOL    HW223067   1.812   4.603   6.351
 7390SOL     OW23068   0.987   0.498   5.768
 7390SOL    HW123069   0.921   0.443   5.717
 7390SOL    HW223070   0.948   0.588   5.786
 7391SOL     OW23071   6.227   3.329   6.475
 7391SOL    HW123072   6.153   3.345   6.539
 7391SOL    HW223073   6.211   3.383   6.392
 7392SOL     OW23074   1.367   5.253   4.320
 7392SOL    HW123075   1.465   5.242   4.301
 7392SOL    HW223076   1.339   5.186   4.389
 7393SOL     OW23077   6.770   4.684   2.359
 7393SOL    HW123078   6.855   4.641   2.330
 7393SOL    HW223079   6.741   4.752   2.291
 7394SOL     OW23080   4.364   3.831   6.358
 7394SOL    HW123081   4.369   3.864   6.453
 7394SOL    HW223082   4.281   3.777   6.346
 7395SOL     OW23083   0.818   0.192   0.205
 7395SOL    HW123084   0.872   0.275   0.192
 7395SOL    HW223085   0.756   0.180   0.128
 7396SOL     OW23086   1.338   6.659   6.573
 7396SOL    HW123087   1.339   6.759   6.578
 7396SOL    HW223088   1.274   6.623   6.641
 7397SOL     OW23089   6.629   4.542   5.064
 7397SOL    HW123090   6.572   4.476   5.114
 7397SOL    HW223091   6.572   4.618   5.033
 7398SOL     OW23092   4.666   4.222   4.320
 7398SOL    HW123093   4.604   4.297   4.298
 7398SOL    HW223094   4.704   4.236   4.412
 7399SOL     OW23095   5.136   3.923   6.314
 7399SOL    HW123096   5.227   3.895   6.283
 7399SOL    HW223097   5.071   3.908   6.239
 7400SOL     OW23098   2.808   5.065   6.672
 7400SOL    HW123099   2.822   5.055   6.770
 7400SOL    HW223100   2.790   4.975   6.631
 7401SOL     OW23101   0.434   1.668   4.180
 7401SOL    HW123102   0.464   1.625   4.266
 7401SOL    HW223103   0.402   1.597   4.117
 7402SOL     OW23104   2.611   0.180   3.633
 7402SOL    HW123105   2.607   0.080   3.636
 7402SOL    HW223106   2.706   0.209   3.645
 7403SOL     OW23107   2.137   3.401   3.154
 7403SOL    HW123108   2.103   3.376   3.064
 7403SOL    HW223109   2.105   3.335   3.222
 7404SOL     OW23110   1.177   0.631   0.940
 7404SOL    HW123111   1.268   0.665   0.916
 7404SOL    HW223112   1.119   0.708   0.967
 7405SOL     OW23113   3.046   5.310   5.647
 7405SOL    HW123114   2.983   5.261   5.708
 7405SOL    HW223115   3.023   5.290   5.552
 7406SOL     OW23116   0.910   4.280   2.345
 7406SOL    HW123117   0.902   4.231   2.432
 7406SOL    HW223118   1.002   4.268   2.309
 7407SOL     OW23119   1.214   6.090   5.704
 7407SOL    HW123120   1.137   6.121   5.648
 7407SOL    HW223121   1.273   6.168   5.725
 7408SOL     OW23122   1.337   4.547   5.634
 7408SOL    HW123123   1.308   4.621   5.573
 7408SOL    HW223124   1.436   4.539   5.632
 7409SOL     OW23125   1.600   6.903   4.846
 7409SOL    HW123126   1.660   6.953   4.908
 7409SOL    HW223127   1.644   6.893   4.757
 7410SOL     OW23128   6.931   5.390   1.284
 7410SOL    HW123129   6.850   5.359   1.333
 7410SOL    HW223130   6.985   5.450   1.344
 7411SOL     OW23131   2.986   6.117   4.703
 7411SOL    HW123132   2.977   6.187   4.774
 7411SOL    HW223133   2.907   6.057   4.705
 7412SOL     OW23134   1.610   1.141   0.966
 7412SOL    HW123135   1.609   1.056   1.020
 7412SOL    HW223136   1.517   1.177   0.960
 7413SOL     OW23137   5.883   4.071   4.629
 7413SOL    HW123138   5.878   4.170   4.617
 7413SOL    HW223139   5.943   4.031   4.560
 7414SOL     OW23140   6.315   0.014   2.045
 7414SOL    HW123141   6.235   0.064   2.010
 7414SOL    HW223142   6.354   0.063   2.123
 7415SOL     OW23143   1.838   3.259   3.243
 7415SOL    HW123144   1.847   3.356   3.265
 7415SOL    HW223145   1.787   3.213   3.316
 7416SOL     OW23146   3.737   1.177   4.212
 7416SOL    HW123147   3.694   1.122   4.285
 7416SOL    HW223148   3.677   1.253   4.189
 7417SOL     OW23149   1.191   6.389   6.975
 7417SOL    HW123150   1.275   6.350   6.938
 7417SOL    HW223151   1.194   6.386   0.054
 7418SOL     OW23152   2.841   3.678   1.402
 7418SOL    HW123153   2.749   3.703   1.372
 7418SOL    HW223154   2.842   3.583   1.433
 7419SOL     OW23155   5.951   1.277   5.181
 7419SOL    HW123156   5.952   1.179   5.165
 7419SOL    HW223157   5.984   1.325   5.100
 7420SOL     OW23158   6.466   6.058   2.356
 7420SOL    HW123159   6.425   5.983   2.408
 7420SOL    HW223160   6.414   6.141   2.371
 7421SOL     OW23161   3.729   4.258   1.419
 7421SOL    HW123162   3.745   4.193   1.493
 7421SOL    HW223163   3.705   4.208   1.335
 7422SOL     OW23164   7.011   3.435   0.308
 7422SOL    HW123165   6.983   3.504   0.375
 7422SOL    HW223166   6.978   3.345   0.336
 7423SOL     OW23167   1.639   4.707   5.863
 7423SOL    HW123168   1.655   4.776   5.934
 7423SOL    HW223169   1.657   4.746   5.773
 7424SOL     OW23170   5.408   0.921   3.947
 7424SOL    HW123171   5.436   0.827   3.966
 7424SOL    HW223172   5.388   0.968   4.033
 7425SOL     OW23173   3.413   4.825   6.232
 7425SOL    HW123174   3.317   4.841   6.208
 7425SOL    HW223175   3.472   4.880   6.173
 7426SOL     OW23176   1.020   1.360   6.056
 7426SOL    HW123177   0.963   1.387   6.133
 7426SOL    HW223178   1.033   1.261   6.057
 7427SOL     OW23179   3.618   5.679   4.694
 7427SOL    HW123180   3.586   5.733   4.617
 7427SOL    HW223181   3.595   5.583   4.680
 7428SOL     OW23182   3.844   2.209   5.791
 7428SOL    HW123183   3.789   2.143   5.741
 7428SOL    HW223184   3.899   2.161   5.860
 7429SOL     OW23185   0.109   0.656   3.000
 7429SOL    HW123186   0.164   0.719   3.056
 7429SOL    HW223187   0.158   0.570   2.989
 7430SOL     OW23188   6.330   3.502   5.403
 7430SOL    HW123189   6.270   3.575   5.436
 7430SOL    HW223190   6.275   3.423   5.376
 7431SOL     OW23191   0.280   3.637   2.081
 7431SOL    HW123192   0.203   3.602   2.135
 7431SOL    HW223193   0.269   3.609   1.986
 7432SOL     OW23194   0.056   6.359   4.278
 7432SOL    HW123195   7.015   6.436   4.291
 7432SOL    HW223196   0.123   6.381   4.208
 7433SOL     OW23197   6.123   5.180   0.568
 7433SOL    HW123198   6.046   5.117   0.571
 7433SOL    HW223199   6.196   5.142   0.511
 7434SOL     OW23200   3.295   1.712   6.377
 7434SOL    HW123201   3.257   1.752   6.461
 7434SOL    HW223202   3.268   1.768   6.299
 7435SOL     OW23203   2.968   6.055   6.874
 7435SOL    HW123204   3.035   6.118   6.912
 7435SOL    HW223205   2.947   6.081   6.780
 7436SOL     OW23206   5.218   2.983   6.610
 7436SOL    HW123207   5.120   2.988   6.627
 7436SOL    HW223208   5.263   2.945   6.690
 7437SOL     OW23209   0.328   5.856   5.880
 7437SOL    HW123210   0.361   5.761   5.884
 7437SOL    HW223211   0.261   5.865   5.807
 7438SOL     OW23212   0.174   4.488   2.031
 7438SOL    HW123213   0.147   4.393   2.018
 7438SOL    HW223214   0.266   4.492   2.070
 7439SOL     OW23215   1.882   7.004   3.359
 7439SOL    HW123216   1.856   0.079   3.347
 7439SOL    HW223217   1.842   6.949   3.286
 7440SOL     OW23218   1.285   2.776   4.274
 7440SOL    HW123219   1.344   2.696   4.280
 7440SOL    HW223220   1.189   2.748   4.281
 7441SOL     OW23221   5.390   1.096   4.156
 7441SOL    HW123222   5.462   1.165   4.152
 7441SOL    HW223223   5.401   1.040   4.238
 7442SOL     OW23224   1.295   1.382   6.064
 7442SOL    HW123225   1.325   1.411   6.155
 7442SOL    HW223226   1.196   1.393   6.057
 7443SOL     OW23227   1.011   0.969   6.467
 7443SOL    HW123228   0.985   1.038   6.534
 7443SOL    HW223229   1.034   1.014   6.381
 7444SOL     OW23230   0.386   3.193   6.079
 7444SOL    HW123231   0.388   3.207   6.178
 7444SOL    HW223232   0.374   3.096   6.059
 7445SOL     OW23233   5.139   1.202   1.894
 7445SOL    HW123234   5.131   1.238   1.987
 7445SOL    HW223235   5.193   1.118   1.894
 7446SOL     OW23236   6.635   3.823   1.235
 7446SOL    HW123237   6.581   3.827   1.319
 7446SOL    HW223238   6.574   3.830   1.156
 7447SOL     OW23239   1.047   4.086   6.871
 7447SOL    HW123240   1.013   4.172   6.833
 7447SOL    HW223241   0.993   4.060   6.951
 7448SOL     OW23242   5.776   6.782   5.846
 7448SOL    HW123243   5.789   6.880   5.838
 7448SOL    HW223244   5.850   6.742   5.900
 7449SOL     OW23245   4.941   2.239   2.179
 7449SOL    HW123246   4.979   2.306   2.116
 7449SOL    HW223247   4.879   2.285   2.243
 7450SOL     OW23248   4.534   2.172   2.842
 7450SOL    HW123249   4.514   2.244   2.776
 7450SOL    HW223250   4.500   2.198   2.932
 7451SOL     OW23251   1.740   0.752   4.791
 7451SOL    HW123252   1.758   0.814   4.714
 7451SOL    HW223253   1.732   0.658   4.757
 7452SOL     OW23254   2.112   6.995   4.642
 7452SOL    HW123255   2.066   6.920   4.594
 7452SOL    HW223256   2.060   7.020   4.724
 7453SOL     OW23257   5.762   6.130   4.919
 7453SOL    HW123258   5.756   6.112   4.821
 7453SOL    HW223259   5.756   6.228   4.936
 7454SOL     OW23260   0.898   3.359   1.397
 7454SOL    HW123261   0.881   3.436   1.336
 7454SOL    HW223262   0.903   3.392   1.491
 7455SOL     OW23263   4.669   2.670   0.322
 7455SOL    HW123264   4.682   2.591   0.383
 7455SOL    HW223265   4.585   2.718   0.347
 7456SOL     OW23266   1.351   3.713   4.949
 7456SOL    HW123267   1.356   3.659   5.033
 7456SOL    HW223268   1.288   3.789   4.962
 7457SOL     OW23269   5.897   0.963   5.361
 7457SOL    HW123270   5.885   0.988   5.265
 7457SOL    HW223271   5.979   1.008   5.397
 7458SOL     OW23272   3.205   1.231   6.882
 7458SOL    HW123273   3.203   1.133   6.862
 7458SOL    HW223274   3.132   1.276   6.830
 7459SOL     OW23275   4.549   0.398   5.380
 7459SOL    HW123276   4.510   0.408   5.288
 7459SOL    HW223277   4.646   0.375   5.372
 7460SOL     OW23278   0.844   4.617   0.566
 7460SOL    HW123279   0.867   4.537   0.621
 7460SOL    HW223280   0.914   4.631   0.496
 7461SOL     OW23281   5.235   1.065   5.350
 7461SOL    HW123282   5.168   1.049   5.278
 7461SOL    HW223283   5.196   1.125   5.420
 7462SOL     OW23284   2.143   1.887   2.577
 7462SOL    HW123285   2.165   1.848   2.487
 7462SOL    HW223286   2.173   1.824   2.649
 7463SOL     OW23287   4.128   3.535   2.016
 7463SOL    HW123288   4.120   3.449   1.966
 7463SOL    HW223289   4.122   3.611   1.951
 7464SOL     OW23290   4.922   6.253   1.001
 7464SOL    HW123291   5.007   6.303   0.986
 7464SOL    HW223292   4.874   6.290   1.081
 7465SOL     OW23293   2.688   0.494   1.646
 7465SOL    HW123294   2.596   0.533   1.654
 7465SOL    HW223295   2.711   0.481   1.550
 7466SOL     OW23296   0.643   0.151   0.003
 7466SOL    HW123297   0.622   0.249   0.007
 7466SOL    HW223298   0.684   0.129   6.935
 7467SOL     OW23299   0.056   2.120   1.275
 7467SOL    HW123300   0.027   2.166   1.359
 7467SOL    HW223301   0.091   2.187   1.210
 7468SOL     OW23302   5.365   1.485   2.857
 7468SOL    HW123303   5.436   1.507   2.925
 7468SOL    HW223304   5.408   1.459   2.771
 7469SOL     OW23305   1.154   0.982   0.617
 7469SOL    HW123306   1.237   0.928   0.634
 7469SOL    HW223307   1.094   0.931   0.555
 7470SOL     OW23308   0.379   1.675   1.847
 7470SOL    HW123309   0.351   1.768   1.870
 7470SOL    HW223310   0.460   1.678   1.788
 7471SOL     OW23311   6.494   6.495   5.272
 7471SOL    HW123312   6.580   6.525   5.315
 7471SOL    HW223313   6.421   6.560   5.296
 7472SOL     OW23314   3.603   7.016   3.988
 7472SOL    HW123315   3.679   6.951   3.985
 7472SOL    HW223316   3.626   0.072   4.048
 7473SOL     OW23317   6.843   3.490   4.203
 7473SOL    HW123318   6.943   3.501   4.201
 7473SOL    HW223319   6.804   3.538   4.124
 7474SOL     OW23320   3.477   0.984   3.779
 7474SOL    HW123321   3.439   0.946   3.695
 7474SOL    HW223322   3.402   1.015   3.838
 7475SOL     OW23323   4.031   0.634   1.304
 7475SOL    HW123324   3.944   0.619   1.258
 7475SOL    HW223325   4.105   0.595   1.249
 7476SOL     OW23326   4.307   5.928   4.477
 7476SOL    HW123327   4.351   5.998   4.534
 7476SOL    HW223328   4.277   5.852   4.534
 7477SOL     OW23329   4.120   1.107   3.825
 7477SOL    HW123330   4.184   1.115   3.902
 7477SOL    HW223331   4.034   1.151   3.848
 7478SOL     OW23332   2.242   3.794   6.914
 7478SOL    HW123333   2.326   3.793   6.969
 7478SOL    HW223334   2.173   3.851   6.959
 7479SOL     OW23335   4.499   0.884   0.148
 7479SOL    HW123336   4.531   0.842   0.062
 7479SOL    HW223337   4.571   0.878   0.216
 7480SOL     OW23338   6.234   5.827   1.359
 7480SOL    HW123339   6.262   5.858   1.450
 7480SOL    HW223340   6.308   5.846   1.294
 7481SOL     OW23341   5.962   4.716   0.449
 7481SOL    HW123342   5.928   4.678   0.535
 7481SOL    HW223343   6.024   4.650   0.406
 7482SOL     OW23344   4.892   0.750   2.798
 7482SOL    HW123345   4.846   0.663   2.783
 7482SOL    HW223346   4.826   0.817   2.834
 7483SOL     OW23347   3.591   1.413   4.165
 7483SOL    HW123348   3.596   1.477   4.089
 7483SOL    HW223349   3.533   1.451   4.238
 7484SOL     OW23350   2.054   6.088   2.085
 7484SOL    HW123351   2.140   6.051   2.122
 7484SOL    HW223352   1.991   6.107   2.160
 7485SOL     OW23353   3.430   5.732   5.963
 7485SOL    HW123354   3.469   5.824   5.967
 7485SOL    HW223355   3.443   5.694   5.871
 7486SOL     OW23356   3.337   5.936   5.304
 7486SOL    HW123357   3.297   5.860   5.253
 7486SOL    HW223358   3.334   6.019   5.247
 7487SOL     OW23359   2.877   6.478   3.446
 7487SOL    HW123360   2.834   6.514   3.363
 7487SOL    HW223361   2.817   6.410   3.488
 7488SOL     OW23362   3.115   0.183   5.711
 7488SOL    HW123363   3.020   0.206   5.729
 7488SOL    HW223364   3.173   0.226   5.780
 7489SOL     OW23365   4.754   2.737   4.197
 7489SOL    HW123366   4.779   2.827   4.232
 7489SOL    HW223367   4.803   2.666   4.248
 7490SOL     OW23368   6.434   1.269   0.955
 7490SOL    HW123369   6.433   1.207   1.034
 7490SOL    HW223370   6.354   1.251   0.898
 7491SOL     OW23371   0.010   6.235   6.447
 7491SOL    HW123372   6.991   6.266   6.360
 7491SOL    HW223373   6.970   6.167   6.488
 7492SOL     OW23374   2.135   2.880   5.108
 7492SOL    HW123375   2.158   2.786   5.133
 7492SOL    HW223376   2.219   2.932   5.094
 7493SOL     OW23377   5.553   3.543   6.134
 7493SOL    HW123378   5.555   3.444   6.148
 7493SOL    HW223379   5.495   3.586   6.203
 7494SOL     OW23380   6.046   0.806   1.815
 7494SOL    HW123381   6.100   0.801   1.900
 7494SOL    HW223382   5.991   0.889   1.816
 7495SOL     OW23383   2.825   1.705   0.611
 7495SOL    HW123384   2.840   1.763   0.692
 7495SOL    HW223385   2.810   1.764   0.532
 7496SOL     OW23386   0.905   5.458   6.250
 7496SOL    HW123387   0.859   5.527   6.306
 7496SOL    HW223388   0.929   5.497   6.161
 7497SOL     OW23389   1.783   4.626   2.499
 7497SOL    HW123390   1.824   4.552   2.552
 7497SOL    HW223391   1.734   4.688   2.559
 7498SOL     OW23392   2.849   1.207   4.790
 7498SOL    HW123393   2.776   1.190   4.724
 7498SOL    HW223394   2.818   1.275   4.857
 7499SOL     OW23395   5.443   6.607   4.680
 7499SOL    HW123396   5.468   6.554   4.599
 7499SOL    HW223397   5.409   6.545   4.751
 7500SOL     OW23398   4.426   5.768   2.297
 7500SOL    HW123399   4.394   5.848   2.347
 7500SOL    HW223400   4.415   5.783   2.199
 7501SOL     OW23401   1.122   3.787   3.676
 7501SOL    HW123402   1.152   3.763   3.769
 7501SOL    HW223403   1.201   3.792   3.615
 7502SOL     OW23404   2.676   0.784   4.820
 7502SOL    HW123405   2.583   0.806   4.850
 7502SOL    HW223406   2.673   0.747   4.728
 7503SOL     OW23407   3.043   0.954   6.646
 7503SOL    HW123408   3.005   1.044   6.669
 7503SOL    HW223409   3.113   0.965   6.575
 7504SOL     OW23410   4.040   6.366   3.512
 7504SOL    HW123411   4.073   6.443   3.457
 7504SOL    HW223412   3.953   6.389   3.553
 7505SOL     OW23413   1.710   0.900   5.366
 7505SOL    HW123414   1.779   0.846   5.319
 7505SOL    HW223415   1.620   0.884   5.324
 7506SOL     OW23416   2.948   0.842   2.471
 7506SOL    HW123417   2.997   0.892   2.542
 7506SOL    HW223418   2.977   0.875   2.381
 7507SOL     OW23419   0.566   6.310   5.703
 7507SOL    HW123420   0.604   6.266   5.622
 7507SOL    HW223421   0.506   6.246   5.751
 7508SOL     OW23422   5.577   6.585   3.135
 7508SOL    HW123423   5.651   6.533   3.093
 7508SOL    HW223424   5.536   6.530   3.208
 7509SOL     OW23425   5.385   3.635   6.391
 7509SOL    HW123426   5.357   3.722   6.432
 7509SOL    HW223427   5.307   3.572   6.390
 7510SOL     OW23428   3.138   3.691   5.011
 7510SOL    HW123429   3.154   3.749   4.931
 7510SOL    HW223430   3.171   3.738   5.093
 7511SOL     OW23431   1.667   6.975   2.369
 7511SOL    HW123432   1.590   6.917   2.394
 7511SOL    HW223433   1.740   6.919   2.329
 7512SOL     OW23434   2.565   3.270   1.686
 7512SOL    HW123435   2.536   3.355   1.643
 7512SOL    HW223436   2.595   3.205   1.615
 7513SOL     OW23437   1.636   2.146   5.994
 7513SOL    HW123438   1.595   2.108   5.911
 7513SOL    HW223439   1.715   2.091   6.021
 7514SOL     OW23440   3.037   6.010   2.339
 7514SOL    HW123441   3.077   5.991   2.250
 7514SOL    HW223442   2.979   5.934   2.367
 7515SOL     OW23443   0.235   0.107   3.035
 7515SOL    HW123444   0.261   0.190   2.986
 7515SOL    HW223445   0.234   0.125   3.133
 7516SOL     OW23446   0.272   0.744   4.311
 7516SOL    HW123447   0.354   0.699   4.275
 7516SOL    HW223448   0.192   0.687   4.292
 7517SOL     OW23449   0.384   3.807   1.132
 7517SOL    HW123450   0.387   3.818   1.033
 7517SOL    HW223451   0.298   3.764   1.158
 7518SOL     OW23452   4.027   5.469   3.459
 7518SOL    HW123453   4.114   5.501   3.423
 7518SOL    HW223454   4.028   5.370   3.467
 7519SOL     OW23455   1.278   6.238   4.524
 7519SOL    HW123456   1.233   6.275   4.442
 7519SOL    HW223457   1.338   6.307   4.563
 7520SOL     OW23458   0.994   6.647   3.323
 7520SOL    HW123459   1.053   6.709   3.271
 7520SOL    HW223460   0.899   6.678   3.316
 7521SOL     OW23461   4.713   4.174   4.799
 7521SOL    HW123462   4.734   4.080   4.774
 7521SOL    HW223463   4.789   4.211   4.853
 7522SOL     OW23464   2.129   1.696   0.093
 7522SOL    HW123465   2.035   1.669   0.110
 7522SOL    HW223466   2.191   1.635   0.144
 7523SOL     OW23467   5.561   0.095   5.725
 7523SOL    HW123468   5.545   0.024   5.656
 7523SOL    HW223469   5.649   0.076   5.771
 7524SOL     OW23470   0.248   1.742   5.616
 7524SOL    HW123471   0.229   1.665   5.677
 7524SOL    HW223472   0.344   1.738   5.587
 7525SOL     OW23473   1.527   0.954   0.128
 7525SOL    HW123474   1.526   0.855   0.112
 7525SOL    HW223475   1.555   0.972   0.223
 7526SOL     OW23476   3.816   2.930   4.464
 7526SOL    HW123477   3.851   2.935   4.557
 7526SOL    HW223478   3.718   2.911   4.465
 7527SOL     OW23479   5.280   4.220   2.508
 7527SOL    HW123480   5.375   4.192   2.493
 7527SOL    HW223481   5.278   4.317   2.533
 7528SOL     OW23482   4.476   3.028   0.111
 7528SOL    HW123483   4.561   2.974   0.106
 7528SOL    HW223484   4.408   2.977   0.163
 7529SOL     OW23485   4.201   1.335   4.099
 7529SOL    HW123486   4.149   1.383   4.171
 7529SOL    HW223487   4.263   1.400   4.055
 7530SOL     OW23488   6.925   3.575   2.245
 7530SOL    HW123489   6.903   3.478   2.255
 7530SOL    HW223490   6.914   3.621   2.333
 7531SOL     OW23491   4.207   2.011   3.921
 7531SOL    HW123492   4.241   2.047   4.008
 7531SOL    HW223493   4.213   1.911   3.922
 7532SOL     OW23494   5.551   5.709   1.941
 7532SOL    HW123495   5.608   5.658   1.876
 7532SOL    HW223496   5.597   5.712   2.030
 7533SOL     OW23497   3.228   1.339   4.322
 7533SOL    HW123498   3.191   1.361   4.231
 7533SOL    HW223499   3.241   1.241   4.330
 7534SOL     OW23500   4.101   6.002   5.328
 7534SOL    HW123501   4.046   5.931   5.284
 7534SOL    HW223502   4.062   6.023   5.417
 7535SOL     OW23503   2.903   2.666   5.890
 7535SOL    HW123504   2.977   2.617   5.844
 7535SOL    HW223505   2.831   2.602   5.916
 7536SOL     OW23506   4.486   5.326   4.425
 7536SOL    HW123507   4.545   5.326   4.345
 7536SOL    HW223508   4.441   5.415   4.434
 7537SOL     OW23509   1.595   4.567   4.788
 7537SOL    HW123510   1.500   4.558   4.816
 7537SOL    HW223511   1.604   4.642   4.723
 7538SOL     OW23512   3.158   3.526   2.684
 7538SOL    HW123513   3.228   3.597   2.685
 7538SOL    HW223514   3.084   3.551   2.747
 7539SOL     OW23515   2.127   2.992   5.393
 7539SOL    HW123516   2.098   2.952   5.306
 7539SOL    HW223517   2.216   3.037   5.382
 7540SOL     OW23518   2.615   1.303   6.881
 7540SOL    HW123519   2.537   1.279   6.823
 7540SOL    HW223520   2.649   1.394   6.855
 7541SOL     OW23521   6.018   2.149   5.388
 7541SOL    HW123522   5.957   2.069   5.386
 7541SOL    HW223523   6.113   2.118   5.385
 7542SOL     OW23524   0.946   0.154   5.943
 7542SOL    HW123525   0.973   0.243   5.979
 7542SOL    HW223526   0.909   0.098   6.017
 7543SOL     OW23527   4.085   3.284   0.510
 7543SOL    HW123528   4.135   3.364   0.544
 7543SOL    HW223529   4.093   3.281   0.410
 7544SOL     OW23530   1.579   2.141   3.027
 7544SOL    HW123531   1.596   2.215   2.961
 7544SOL    HW223532   1.601   2.173   3.119
 7545SOL     OW23533   4.762   0.043   2.978
 7545SOL    HW123534   4.663   0.047   2.993
 7545SOL    HW223535   4.809   0.089   3.054
 7546SOL     OW23536   5.415   0.632   0.380
 7546SOL    HW123537   5.371   0.661   0.295
 7546SOL    HW223538   5.356   0.566   0.427
 7547SOL     OW23539   3.834   0.610   0.383
 7547SOL    HW123540   3.869   0.630   0.475
 7547SOL    HW223541   3.750   0.662   0.367
 7548SOL     OW23542   2.521   1.696   1.512
 7548SOL    HW123543   2.597   1.640   1.546
 7548SOL    HW223544   2.509   1.680   1.414
 7549SOL     OW23545   5.059   1.820   2.612
 7549SOL    HW123546   5.059   1.721   2.630
 7549SOL    HW223547   4.991   1.865   2.670
 7550SOL     OW23548   2.111   6.173   2.379
 7550SOL    HW123549   2.131   6.165   2.476
 7550SOL    HW223550   2.038   6.109   2.354
 7551SOL     OW23551   4.612   3.193   6.400
 7551SOL    HW123552   4.638   3.214   6.494
 7551SOL    HW223553   4.554   3.112   6.398
 7552SOL     OW23554   2.271   5.310   3.777
 7552SOL    HW123555   2.290   5.407   3.791
 7552SOL    HW223556   2.321   5.257   3.845
 7553SOL     OW23557   4.068   5.224   6.324
 7553SOL    HW123558   3.990   5.190   6.378
 7553SOL    HW223559   4.142   5.158   6.328
 7554SOL     OW23560   4.887   1.235   0.835
 7554SOL    HW123561   4.839   1.290   0.766
 7554SOL    HW223562   4.824   1.168   0.874
 7555SOL     OW23563   6.769   5.651   5.123
 7555SOL    HW123564   6.807   5.608   5.205
 7555SOL    HW223565   6.701   5.720   5.150
 7556SOL     OW23566   0.844   3.196   4.775
 7556SOL    HW123567   0.937   3.225   4.754
 7556SOL    HW223568   0.835   3.183   4.874
 7557SOL     OW23569   5.046   4.094   5.930
 7557SOL    HW123570   5.040   4.192   5.946
 7557SOL    HW223571   5.023   4.075   5.834
 7558SOL     OW23572   2.018   2.977   3.631
 7558SOL    HW123573   2.102   2.947   3.675
 7558SOL    HW223574   2.011   2.936   3.540
 7559SOL     OW23575   6.977   4.765   0.559
 7559SOL    HW123576   6.964   4.814   0.645
 7559SOL    HW223577   0.053   4.766   0.534
 7560SOL     OW23578   5.320   6.730   0.683
 7560SOL    HW123579   5.367   6.784   0.613
 7560SOL    HW223580   5.224   6.759   0.688
 7561SOL     OW23581   6.949   3.572   0.536
 7561SOL    HW123582   6.995   3.624   0.607
 7561SOL    HW223583   6.905   3.491   0.576
 7562SOL     OW23584   5.682   6.300   5.274
 7562SOL    HW123585   5.762   6.277   5.329
 7562SOL    HW223586   5.606   6.239   5.299
 7563SOL     OW23587   3.407   0.409   1.474
 7563SOL    HW123588   3.495   0.389   1.432
 7563SOL    HW223589   3.414   0.492   1.530
 7564SOL     OW23590   5.074   0.171   2.963
 7564SOL    HW123591   5.065   0.249   2.901
 7564SOL    HW223592   5.103   0.091   2.911
 7565SOL     OW23593   4.694   5.250   6.730
 7565SOL    HW123594   4.683   5.280   6.636
 7565SOL    HW223595   4.613   5.275   6.783
 7566SOL     OW23596   0.038   5.722   4.504
 7566SOL    HW123597   6.960   5.741   4.512
 7566SOL    HW223598   0.070   5.753   4.415
 7567SOL     OW23599   2.423   4.418   5.868
 7567SOL    HW123600   2.502   4.377   5.823
 7567SOL    HW223601   2.411   4.378   5.959
 7568SOL     OW23602   5.508   5.934   3.032
 7568SOL    HW123603   5.516   5.997   3.110
 7568SOL    HW223604   5.495   5.841   3.066
 7569SOL     OW23605   4.367   6.101   6.827
 7569SOL    HW123606   4.423   6.066   6.752
 7569SOL    HW223607   4.373   6.201   6.828
 7570SOL     OW23608   5.877   5.398   3.777
 7570SOL    HW123609   5.966   5.432   3.748
 7570SOL    HW223610   5.848   5.324   3.716
 7571SOL     OW23611   5.613   3.876   1.441
 7571SOL    HW123612   5.626   3.879   1.342
 7571SOL    HW223613   5.523   3.911   1.464
 7572SOL     OW23614   4.137   0.976   4.241
 7572SOL    HW123615   4.185   0.919   4.307
 7572SOL    HW223616   4.110   1.062   4.285
 7573SOL     OW23617   6.937   5.380   4.806
 7573SOL    HW123618   6.942   5.461   4.865
 7573SOL    HW223619   7.001   5.390   4.730
 7574SOL     OW23620   5.622   0.920   3.580
 7574SOL    HW123621   5.598   0.826   3.556
 7574SOL    HW223622   5.566   0.951   3.657
 7575SOL     OW23623   4.003   1.243   5.734
 7575SOL    HW123624   3.917   1.261   5.687
 7575SOL    HW223625   4.001   1.152   5.775
 7576SOL     OW23626   6.133   4.075   6.997
 7576SOL    HW123627   6.035   4.054   7.001
 7576SOL    HW223628   6.170   4.076   0.069
 7577SOL     OW23629   6.626   1.042   4.659
 7577SOL    HW123630   6.548   1.017   4.717
 7577SOL    HW223631   6.596   1.052   4.565
 7578SOL     OW23632   2.033   6.002   4.658
 7578SOL    HW123633   2.018   5.907   4.685
 7578SOL    HW223634   1.945   6.049   4.652
 7579SOL     OW23635   3.733   1.863   2.862
 7579SOL    HW123636   3.646   1.823   2.833
 7579SOL    HW223637   3.715   1.945   2.916
 7580SOL     OW23638   1.979   4.220   2.968
 7580SOL    HW123639   2.025   4.229   2.880
 7580SOL    HW223640   2.034   4.162   3.029
 7581SOL     OW23641   5.782   1.619   0.945
 7581SOL    HW123642   5.714   1.626   1.018
 7581SOL    HW223643   5.824   1.528   0.947
 7582SOL     OW23644   3.431   1.826   1.334
 7582SOL    HW123645   3.402   1.752   1.273
 7582SOL    HW223646   3.459   1.905   1.281
 7583SOL     OW23647   5.765   3.878   2.150
 7583SOL    HW123648   5.740   3.781   2.151
 7583SOL    HW223649   5.841   3.894   2.213
 7584SOL     OW23650   2.645   6.641   1.181
 7584SOL    HW123651   2.715   6.643   1.110
 7584SOL    HW223652   2.689   6.628   1.270
 7585SOL     OW23653   1.487   4.453   6.767
 7585SOL    HW123654   1.567   4.474   6.822
 7585SOL    HW223655   1.433   4.537   6.753
 7586SOL     OW23656   2.625   0.076   2.954
 7586SOL    HW123657   2.686   0.032   2.888
 7586SOL    HW223658   2.606   0.170   2.924
 7587SOL     OW23659   1.221   1.891   0.218
 7587SOL    HW123660   1.132   1.927   0.249
 7587SOL    HW223661   1.213   1.793   0.202
 7588SOL     OW23662   0.465   5.071   2.301
 7588SOL    HW123663   0.489   5.083   2.397
 7588SOL    HW223664   0.445   5.161   2.261
 7589SOL     OW23665   6.147   5.953   0.465
 7589SOL    HW123666   6.180   5.955   0.371
 7589SOL    HW223667   6.059   6.000   0.470
 7590SOL     OW23668   2.564   1.796   5.595
 7590SOL    HW123669   2.655   1.825   5.565
 7590SOL    HW223670   2.530   1.724   5.534
 7591SOL     OW23671   0.163   5.385   0.115
 7591SOL    HW123672   0.257   5.372   0.083
 7591SOL    HW223673   0.100   5.343   0.050
 7592SOL     OW23674   6.616   5.356   6.803
 7592SOL    HW123675   6.601   5.346   6.902
 7592SOL    HW223676   6.528   5.347   6.756
 7593SOL     OW23677   5.020   2.322   0.114
 7593SOL    HW123678   4.938   2.276   0.149
 7593SOL    HW223679   5.073   2.257   0.060
 7594SOL     OW23680   0.928   5.939   3.421
 7594SOL    HW123681   0.989   5.868   3.385
 7594SOL    HW223682   0.877   5.903   3.499
 7595SOL     OW23683   6.973   3.414   6.146
 7595SOL    HW123684   7.014   3.388   6.234
 7595SOL    HW223685   0.012   3.480   6.100
 7596SOL     OW23686   4.973   4.299   2.300
 7596SOL    HW123687   4.885   4.259   2.275
 7596SOL    HW223688   5.041   4.276   2.231
 7597SOL     OW23689   3.416   5.618   1.766
 7597SOL    HW123690   3.433   5.714   1.788
 7597SOL    HW223691   3.350   5.580   1.830
 7598SOL     OW23692   6.896   0.055   3.257
 7598SOL    HW123693   6.934   6.985   3.274
 7598SOL    HW223694   6.918   0.115   3.335
 7599SOL     OW23695   6.047   1.541   3.377
 7599SOL    HW123696   5.992   1.623   3.386
 7599SOL    HW223697   6.070   1.505   3.467
 7600SOL     OW23698   1.442   0.148   2.355
 7600SOL    HW123699   1.361   0.146   2.413
 7600SOL    HW223700   1.494   0.064   2.368
 7601SOL     OW23701   2.245   6.209   3.523
 7601SOL    HW123702   2.310   6.284   3.532
 7601SOL    HW223703   2.154   6.239   3.552
 7602SOL     OW23704   2.293   4.290   4.460
 7602SOL    HW123705   2.295   4.209   4.517
 7602SOL    HW223706   2.268   4.265   4.366
 7603SOL     OW23707   0.736   6.031   7.000
 7603SOL    HW123708   0.763   5.964   6.931
 7603SOL    HW223709   0.706   6.115   6.955
 7604SOL     OW23710   3.348   6.079   4.312
 7604SOL    HW123711   3.331   6.169   4.352
 7604SOL    HW223712   3.386   6.018   4.382
 7605SOL     OW23713   0.786   5.146   6.938
 7605SOL    HW123714   0.748   5.195   6.859
 7605SOL    HW223715   0.732   5.064   6.955
 7606SOL     OW23716   0.071   2.934   1.715
 7606SOL    HW123717   0.066   2.878   1.797
 7606SOL    HW223718   6.999   2.954   1.682
 7607SOL     OW23719   5.070   0.202   6.809
 7607SOL    HW123720   5.148   0.260   6.832
 7607SOL    HW223721   5.102   0.110   6.787
 7608SOL     OW23722   2.974   3.699   3.405
 7608SOL    HW123723   2.989   3.600   3.410
 7608SOL    HW223724   2.929   3.721   3.319
 7609SOL     OW23725   0.340   3.336   4.144
 7609SOL    HW123726   0.367   3.255   4.197
 7609SOL    HW223727   0.422   3.388   4.119
 7610SOL     OW23728   5.680   0.604   1.221
 7610SOL    HW123729   5.644   0.533   1.160
 7610SOL    HW223730   5.705   0.563   1.309
 7611SOL     OW23731   1.289   1.988   6.961
 7611SOL    HW123732   1.319   1.983   0.036
 7611SOL    HW223733   1.218   1.920   6.945
 7612SOL     OW23734   3.990   1.909   4.102
 7612SOL    HW123735   4.065   1.865   4.053
 7612SOL    HW223736   3.956   1.987   4.049
 7613SOL     OW23737   4.913   1.037   1.400
 7613SOL    HW123738   4.851   1.049   1.477
 7613SOL    HW223739   4.872   0.974   1.334
 7614SOL     OW23740   3.821   1.839   1.882
 7614SOL    HW123741   3.831   1.741   1.864
 7614SOL    HW223742   3.725   1.862   1.890
 7615SOL     OW23743   3.944   5.203   6.682
 7615SOL    HW123744   3.902   5.292   6.666
 7615SOL    HW223745   3.929   5.144   6.603
 7616SOL     OW23746   0.077   3.634   4.161
 7616SOL    HW123747   0.170   3.624   4.199
 7616SOL    HW223748   0.070   3.720   4.112
 7617SOL     OW23749   2.939   5.407   2.937
 7617SOL    HW123750   2.844   5.400   2.907
 7617SOL    HW223751   2.971   5.317   2.967
 7618SOL     OW23752   1.196   2.384   6.738
 7618SOL    HW123753   1.184   2.336   6.826
 7618SOL    HW223754   1.197   2.317   6.664
 7619SOL     OW23755   5.834   3.152   5.329
 7619SOL    HW123756   5.782   3.079   5.286
 7619SOL    HW223757   5.833   3.139   5.428
 7620SOL     OW23758   3.651   6.746   0.709
 7620SOL    HW123759   3.558   6.728   0.740
 7620SOL    HW223760   3.682   6.834   0.743
 7621SOL     OW23761   1.639   0.809   0.743
 7621SOL    HW123762   1.672   0.904   0.746
 7621SOL    HW223763   1.677   0.763   0.663
 7622SOL     OW23764   4.421   2.880   1.430
 7622SOL    HW123765   4.468   2.799   1.465
 7622SOL    HW223766   4.346   2.904   1.492
 7623SOL     OW23767   4.442   6.331   6.603
 7623SOL    HW123768   4.454   6.234   6.583
 7623SOL    HW223769   4.498   6.384   6.538
 7624SOL     OW23770   0.404   1.938   3.260
 7624SOL    HW123771   0.358   1.958   3.347
 7624SOL    HW223772   0.388   2.013   3.196
 7625SOL     OW23773   5.573   0.805   1.065
 7625SOL    HW123774   5.558   0.752   0.982
 7625SOL    HW223775   5.608   0.745   1.137
 7626SOL     OW23776   0.874   6.726   4.914
 7626SOL    HW123777   0.821   6.674   4.847
 7626SOL    HW223778   0.812   6.780   4.971
 7627SOL     OW23779   6.457   3.102   0.848
 7627SOL    HW123780   6.359   3.120   0.836
 7627SOL    HW223781   6.475   3.072   0.942
 7628SOL     OW23782   2.736   0.542   1.370
 7628SOL    HW123783   2.725   0.626   1.424
 7628SOL    HW223784   2.828   0.540   1.331
 7629SOL     OW23785   6.345   6.318   2.414
 7629SOL    HW123786   6.414   6.362   2.356
 7629SOL    HW223787   6.254   6.340   2.380
 7630SOL     OW23788   6.350   0.259   2.274
 7630SOL    HW123789   6.349   0.345   2.224
 7630SOL    HW223790   6.258   0.219   2.272
 7631SOL     OW23791   1.217   1.698   5.498
 7631SOL    HW123792   1.275   1.657   5.569
 7631SOL    HW223793   1.227   1.645   5.413
 7632SOL     OW23794   4.398   2.046   0.826
 7632SOL    HW123795   4.310   2.089   0.807
 7632SOL    HW223796   4.384   1.966   0.884
 7633SOL     OW23797   5.552   3.811   6.596
 7633SOL    HW123798   5.494   3.783   6.673
 7633SOL    HW223799   5.595   3.899   6.617
 7634SOL     OW23800   1.745   0.861   2.268
 7634SOL    HW123801   1.675   0.929   2.290
 7634SOL    HW223802   1.834   0.894   2.298
 7635SOL     OW23803   2.432   5.801   5.809
 7635SOL    HW123804   2.396   5.885   5.848
 7635SOL    HW223805   2.458   5.738   5.883
 7636SOL     OW23806   0.949   1.247   4.058
 7636SOL    HW123807   0.961   1.295   3.971
 7636SOL    HW223808   0.995   1.159   4.054
 7637SOL     OW23809   1.302   0.085   4.209
 7637SOL    HW123810   1.376   0.084   4.142
 7637SOL    HW223811   1.319   0.016   4.279
 7638SOL     OW23812   5.898   5.672   2.085
 7638SOL    HW123813   5.892   5.732   2.005
 7638SOL    HW223814   5.839   5.708   2.157
 7639SOL     OW23815   0.895   1.671   6.245
 7639SOL    HW123816   0.832   1.686   6.169
 7639SOL    HW223817   0.988   1.662   6.210
 7640SOL     OW23818   2.663   2.456   0.699
 7640SOL    HW123819   2.728   2.513   0.749
 7640SOL    HW223820   2.706   2.369   0.676
 7641SOL     OW23821   6.986   4.587   2.208
 7641SOL    HW123822   0.032   4.569   2.136
 7641SOL    HW223823   6.991   4.514   2.277
 7642SOL     OW23824   2.928   1.846   2.593
 7642SOL    HW123825   2.963   1.907   2.522
 7642SOL    HW223826   2.829   1.836   2.583
 7643SOL     OW23827   4.436   2.395   3.321
 7643SOL    HW123828   4.386   2.326   3.373
 7643SOL    HW223829   4.478   2.461   3.383
 7644SOL     OW23830   6.771   2.900   3.121
 7644SOL    HW123831   6.826   2.941   3.048
 7644SOL    HW223832   6.738   2.810   3.092
 7645SOL     OW23833   4.712   5.097   0.081
 7645SOL    HW123834   4.647   5.021   0.095
 7645SOL    HW223835   4.765   5.079   7.019
 7646SOL     OW23836   2.127   1.865   2.002
 7646SOL    HW123837   2.071   1.783   1.994
 7646SOL    HW223838   2.106   1.911   2.088
 7647SOL     OW23839   1.872   3.652   2.019
 7647SOL    HW123840   1.959   3.692   2.049
 7647SOL    HW223841   1.887   3.558   1.990
 7648SOL     OW23842   4.453   1.248   3.533
 7648SOL    HW123843   4.362   1.280   3.561
 7648SOL    HW223844   4.507   1.327   3.502
 7649SOL     OW23845   1.861   0.651   2.134
 7649SOL    HW123846   1.864   0.567   2.187
 7649SOL    HW223847   1.801   0.717   2.179
 7650SOL     OW23848   6.462   2.899   2.243
 7650SOL    HW123849   6.367   2.928   2.250
 7650SOL    HW223850   6.492   2.863   2.332
 7651SOL     OW23851   2.633   0.063   6.902
 7651SOL    HW123852   2.686   7.006   6.938
 7651SOL    HW223853   2.615   0.048   6.805
 7652SOL     OW23854   6.324   3.593   3.952
 7652SOL    HW123855   6.230   3.627   3.945
 7652SOL    HW223856   6.332   3.530   4.029
 7653SOL     OW23857   2.888   2.175   0.837
 7653SOL    HW123858   2.926   2.251   0.891
 7653SOL    HW223859   2.871   2.097   0.897
 7654SOL     OW23860   4.612   2.610   3.476
 7654SOL    HW123861   4.698   2.560   3.485
 7654SOL    HW223862   4.558   2.600   3.560
 7655SOL     OW23863   3.501   6.732   4.499
 7655SOL    HW123864   3.413   6.774   4.522
 7655SOL    HW223865   3.556   6.797   4.446
 7656SOL     OW23866   0.087   6.183   5.053
 7656SOL    HW123867   0.178   6.186   5.093
 7656SOL    HW223868   0.029   6.252   5.096
 7657SOL     OW23869   2.645   2.215   3.376
 7657SOL    HW123870   2.629   2.258   3.288
 7657SOL    HW223871   2.581   2.138   3.388
 7658SOL     OW23872   4.649   0.463   6.019
 7658SOL    HW123873   4.743   0.438   5.998
 7658SOL    HW223874   4.588   0.431   5.946
 7659SOL     OW23875   6.126   6.783   1.267
 7659SOL    HW123876   6.178   6.864   1.293
 7659SOL    HW223877   6.030   6.795   1.294
 7660SOL     OW23878   5.278   5.241   3.190
 7660SOL    HW123879   5.250   5.208   3.280
 7660SOL    HW223880   5.203   5.231   3.125
 7661SOL     OW23881   5.647   2.447   4.360
 7661SOL    HW123882   5.696   2.502   4.427
 7661SOL    HW223883   5.573   2.397   4.406
 7662SOL     OW23884   1.484   2.866   2.210
 7662SOL    HW123885   1.418   2.845   2.138
 7662SOL    HW223886   1.445   2.845   2.299
 7663SOL     OW23887   0.439   5.485   6.802
 7663SOL    HW123888   0.498   5.563   6.821
 7663SOL    HW223889   0.387   5.461   6.884
 7664SOL     OW23890   3.115   6.290   2.702
 7664SOL    HW123891   3.050   6.358   2.668
 7664SOL    HW223892   3.145   6.316   2.794
 7665SOL     OW23893   2.684   0.562   4.636
 7665SOL    HW123894   2.705   0.532   4.729
 7665SOL    HW223895   2.767   0.599   4.594
 7666SOL     OW23896   0.429   6.746   1.204
 7666SOL    HW123897   0.352   6.709   1.256
 7666SOL    HW223898   0.476   6.815   1.259
 7667SOL     OW23899   4.813   6.659   6.798
 7667SOL    HW123900   4.907   6.627   6.793
 7667SOL    HW223901   4.803   6.724   6.873
 7668SOL     OW23902   3.417   4.407   1.511
 7668SOL    HW123903   3.374   4.356   1.586
 7668SOL    HW223904   3.373   4.383   1.425
 7669SOL     OW23905   4.786   0.380   4.356
 7669SOL    HW123906   4.795   0.415   4.262
 7669SOL    HW223907   4.784   0.280   4.354
 7670SOL     OW23908   1.240   5.852   0.070
 7670SOL    HW123909   1.154   5.841   0.121
 7670SOL    HW223910   1.228   5.922   0.000
 7671SOL     OW23911   4.829   1.586   4.446
 7671SOL    HW123912   4.792   1.528   4.374
 7671SOL    HW223913   4.859   1.529   4.523
 7672SOL     OW23914   6.224   0.498   3.885
 7672SOL    HW123915   6.162   0.527   3.812
 7672SOL    HW223916   6.279   0.421   3.853
 7673SOL     OW23917   1.249   4.570   1.026
 7673SOL    HW123918   1.284   4.650   1.074
 7673SOL    HW223919   1.189   4.599   0.951
 7674SOL     OW23920   6.325   1.685   4.837
 7674SOL    HW123921   6.407   1.641   4.799
 7674SOL    HW223922   6.246   1.665   4.779
 7675SOL     OW23923   5.006   0.241   1.974
 7675SOL    HW123924   5.020   0.162   1.914
 7675SOL    HW223925   5.094   0.268   2.013
 7676SOL     OW23926   1.402   1.346   6.516
 7676SOL    HW123927   1.482   1.367   6.572
 7676SOL    HW223928   1.320   1.353   6.573
 7677SOL     OW23929   1.856   3.536   2.309
 7677SOL    HW123930   1.944   3.493   2.292
 7677SOL    HW223931   1.830   3.592   2.230
 7678SOL     OW23932   0.919   0.884   6.989
 7678SOL    HW123933   0.993   0.824   0.000
 7678SOL    HW223934   0.864   0.836   6.920
 7679SOL     OW23935   0.944   5.247   4.976
 7679SOL    HW123936   1.043   5.256   4.973
 7679SOL    HW223937   0.907   5.258   4.884
 7680SOL     OW23938   3.298   3.334   6.490
 7680SOL    HW123939   3.246   3.347   6.575
 7680SOL    HW223940   3.253   3.382   6.415
 7681SOL     OW23941   3.223   1.452   0.380
 7681SOL    HW123942   3.172   1.481   0.461
 7681SOL    HW223943   3.173   1.378   0.334
 7682SOL     OW23944   2.974   6.620   1.724
 7682SOL    HW123945   3.074   6.627   1.724
 7682SOL    HW223946   2.947   6.533   1.765
 7683SOL     OW23947   6.484   2.222   2.860
 7683SOL    HW123948   6.453   2.223   2.955
 7683SOL    HW223949   6.516   2.130   2.837
 7684SOL     OW23950   5.252   2.084   6.661
 7684SOL    HW123951   5.281   2.148   6.590
 7684SOL    HW223952   5.242   1.993   6.622
 7685SOL     OW23953   3.490   2.928   0.557
 7685SOL    HW123954   3.522   3.020   0.536
 7685SOL    HW223955   3.393   2.931   0.583
 7686SOL     OW23956   4.551   0.338   3.277
 7686SOL    HW123957   4.499   0.361   3.194
 7686SOL    HW223958   4.541   0.241   3.296
 7687SOL     OW23959   4.979   5.006   5.392
 7687SOL    HW123960   5.035   4.951   5.454
 7687SOL    HW223961   4.888   4.965   5.384
 7688SOL     OW23962   6.583   6.702   5.490
 7688SOL    HW123963   6.497   6.735   5.529
 7688SOL    HW223964   6.641   6.781   5.467
 7689SOL     OW23965   4.435   6.094   4.679
 7689SOL    HW123966   4.529   6.115   4.652
 7689SOL    HW223967   4.435   6.023   4.749
 7690SOL     OW23968   5.384   4.640   2.811
 7690SOL    HW123969   5.323   4.580   2.863
 7690SOL    HW223970   5.471   4.595   2.797
 7691SOL     OW23971   4.987   2.544   3.961
 7691SOL    HW123972   5.078   2.549   4.001
 7691SOL    HW223973   4.958   2.636   3.932
 7692SOL     OW23974   1.342   6.152   1.261
 7692SOL    HW123975   1.343   6.213   1.341
 7692SOL    HW223976   1.261   6.094   1.265
 7693SOL     OW23977   4.208   0.841   6.585
 7693SOL    HW123978   4.117   0.879   6.605
 7693SOL    HW223979   4.200   0.743   6.567
 7694SOL     OW23980   0.124   4.423   4.086
 7694SOL    HW123981   0.074   4.500   4.046
 7694SOL    HW223982   0.186   4.457   4.157
 7695SOL     OW23983   4.169   0.296   0.699
 7695SOL    HW123984   4.094   0.357   0.673
 7695SOL    HW223985   4.183   0.227   0.628
 7696SOL     OW23986   6.873   1.946   4.409
 7696SOL    HW123987   6.880   2.012   4.484
 7696SOL    HW223988   6.898   1.992   4.323
 7697SOL     OW23989   2.481   1.826   3.782
 7697SOL    HW123990   2.452   1.758   3.715
 7697SOL    HW223991   2.433   1.912   3.766
 7698SOL     OW23992   6.407   2.679   4.820
 7698SOL    HW123993   6.428   2.639   4.730
 7698SOL    HW223994   6.464   2.634   4.889
 7699SOL     OW23995   2.447   5.512   0.333
 7699SOL    HW123996   2.379   5.580   0.306
 7699SOL    HW223997   2.518   5.555   0.388
 7700SOL     OW23998   4.604   6.951   4.964
 7700SOL    HW123999   4.630   6.939   5.059
 7700SOL    HW224000   4.686   6.958   4.907
 7701SOL     OW24001   6.642   0.871   5.543
 7701SOL    HW124002   6.670   0.956   5.498
 7701SOL    HW224003   6.578   0.821   5.484
 7702SOL     OW24004   3.455   6.594   5.936
 7702SOL    HW124005   3.444   6.635   5.845
 7702SOL    HW224006   3.399   6.512   5.942
 7703SOL     OW24007   0.500   1.231   5.291
 7703SOL    HW124008   0.471   1.135   5.289
 7703SOL    HW224009   0.420   1.290   5.281
 7704SOL     OW24010   4.072   4.440   0.011
 7704SOL    HW124011   4.107   4.456   0.103
 7704SOL    HW224012   4.081   4.523   6.977
 7705SOL     OW24013   3.637   4.896   5.107
 7705SOL    HW124014   3.678   4.934   5.024
 7705SOL    HW224015   3.540   4.878   5.092
 7706SOL     OW24016   6.018   0.033   5.485
 7706SOL    HW124017   5.931   0.002   5.448
 7706SOL    HW224018   6.034   0.128   5.461
 7707SOL     OW24019   0.383   5.589   6.265
 7707SOL    HW124020   0.449   5.606   6.192
 7707SOL    HW224021   0.290   5.592   6.228
 7708SOL     OW24022   4.650   6.147   4.473
 7708SOL    HW124023   4.613   6.236   4.501
 7708SOL    HW224024   4.733   6.162   4.418
 7709SOL     OW24025   4.501   2.573   1.921
 7709SOL    HW124026   4.561   2.631   1.865
 7709SOL    HW224027   4.455   2.506   1.862
 7710SOL     OW24028   2.860   0.118   0.516
 7710SOL    HW124029   2.862   0.071   0.604
 7710SOL    HW224030   2.913   0.203   0.522
 7711SOL     OW24031   5.836   5.972   5.912
 7711SOL    HW124032   5.920   6.027   5.917
 7711SOL    HW224033   5.761   6.029   5.879
 7712SOL     OW24034   5.723   4.891   1.237
 7712SOL    HW124035   5.817   4.859   1.237
 7712SOL    HW224036   5.717   4.979   1.285
 7713SOL     OW24037   1.820   4.272   0.085
 7713SOL    HW124038   1.912   4.285   0.048
 7713SOL    HW224039   1.827   4.230   0.176
 7714SOL     OW24040   5.986   4.597   4.297
 7714SOL    HW124041   5.973   4.526   4.228
 7714SOL    HW224042   5.932   4.574   4.379
 7715SOL     OW24043   5.287   0.590   1.371
 7715SOL    HW124044   5.198   0.546   1.388
 7715SOL    HW224045   5.281   0.647   1.289
 7716SOL     OW24046   4.642   2.437   2.099
 7716SOL    HW124047   4.712   2.384   2.052
 7716SOL    HW224048   4.584   2.483   2.032
 7717SOL     OW24049   2.979   1.451   5.070
 7717SOL    HW124050   2.987   1.459   5.169
 7717SOL    HW224051   2.962   1.541   5.030
 7718SOL     OW24052   2.099   1.589   2.932
 7718SOL    HW124053   2.161   1.510   2.931
 7718SOL    HW224054   2.005   1.557   2.943
 7719SOL     OW24055   0.193   2.297   4.725
 7719SOL    HW124056   0.214   2.316   4.820
 7719SOL    HW224057   0.267   2.243   4.684
 7720SOL     OW24058   6.458   6.403   0.920
 7720SOL    HW124059   6.471   6.384   0.822
 7720SOL    HW224060   6.365   6.379   0.947
 7721SOL     OW24061   2.322   4.352   3.489
 7721SOL    HW124062   2.347   4.343   3.393
 7721SOL    HW224063   2.314   4.261   3.530
 7722SOL     OW24064   6.305   4.813   2.983
 7722SOL    HW124065   6.362   4.800   2.902
 7722SOL    HW224066   6.362   4.811   3.065
 7723SOL     OW24067   0.080   3.239   0.593
 7723SOL    HW124068   0.002   3.220   0.533
 7723SOL    HW224069   0.048   3.287   0.674
 7724SOL     OW24070   1.625   3.806   1.296
 7724SOL    HW124071   1.600   3.895   1.258
 7724SOL    HW224072   1.620   3.736   1.224
 7725SOL     OW24073   5.562   2.324   3.198
 7725SOL    HW124074   5.660   2.340   3.207
 7725SOL    HW224075   5.517   2.342   3.285
 7726SOL     OW24076   0.520   4.429   2.922
 7726SOL    HW124077   0.564   4.389   3.002
 7726SOL    HW224078   0.434   4.473   2.949
 7727SOL     OW24079   6.039   2.547   3.765
 7727SOL    HW124080   6.096   2.613   3.813
 7727SOL    HW224081   5.944   2.556   3.794
 7728SOL     OW24082   1.700   3.286   3.012
 7728SOL    HW124083   1.751   3.284   3.098
 7728SOL    HW224084   1.677   3.192   2.985
 7729SOL     OW24085   4.996   2.402   0.996
 7729SOL    HW124086   4.984   2.333   1.068
 7729SOL    HW224087   5.009   2.492   1.038
 7730SOL     OW24088   4.672   6.312   2.884
 7730SOL    HW124089   4.661   6.215   2.863
 7730SOL    HW224090   4.754   6.325   2.939
 7731SOL     OW24091   6.288   1.077   0.626
 7731SOL    HW124092   6.273   1.078   0.527
 7731SOL    HW224093   6.376   1.035   0.645
 7732SOL     OW24094   4.967   5.839   0.689
 7732SOL    HW124095   4.943   5.851   0.593
 7732SOL    HW224096   4.902   5.777   0.732
 7733SOL     OW24097   4.233   0.259   1.536
 7733SOL    HW124098   4.239   0.356   1.560
 7733SOL    HW224099   4.242   0.204   1.619
 7734SOL     OW24100   1.441   3.124   3.372
 7734SOL    HW124101   1.423   3.086   3.463
 7734SOL    HW224102   1.354   3.150   3.329
 7735SOL     OW24103   4.964   4.353   6.585
 7735SOL    HW124104   5.020   4.436   6.589
 7735SOL    HW224105   4.989   4.300   6.503
 7736SOL     OW24106   5.448   4.141   0.212
 7736SOL    HW124107   5.402   4.206   0.272
 7736SOL    HW224108   5.414   4.152   0.119
 7737SOL     OW24109   4.661   2.467   0.757
 7737SOL    HW124110   4.703   2.396   0.814
 7737SOL    HW224111   4.589   2.427   0.701
 7738SOL     OW24112   3.001   5.996   0.311
 7738SOL    HW124113   2.923   5.933   0.301
 7738SOL    HW224114   3.078   5.947   0.352
 7739SOL     OW24115   1.132   2.580   0.297
 7739SOL    HW124116   1.077   2.662   0.310
 7739SOL    HW224117   1.078   2.499   0.323
 7740SOL     OW24118   6.835   6.985   2.499
 7740SOL    HW124119   6.781   0.036   2.542
 7740SOL    HW224120   6.891   0.003   2.426
 7741SOL     OW24121   2.191   5.875   3.673
 7741SOL    HW124122   2.154   5.786   3.700
 7741SOL    HW224123   2.288   5.879   3.694
 7742SOL     OW24124   5.867   1.797   3.339
 7742SOL    HW124125   5.774   1.808   3.373
 7742SOL    HW224126   5.886   1.866   3.269
 7743SOL     OW24127   4.603   3.028   5.730
 7743SOL    HW124128   4.600   2.934   5.697
 7743SOL    HW224129   4.540   3.084   5.677
 7744SOL     OW24130   6.385   6.862   3.829
 7744SOL    HW124131   6.436   6.945   3.850
 7744SOL    HW224132   6.293   6.887   3.797
 7745SOL     OW24133   3.547   2.707   6.686
 7745SOL    HW124134   3.486   2.720   6.608
 7745SOL    HW224135   3.583   2.796   6.715
 7746SOL     OW24136   1.849   0.127   0.201
 7746SOL    HW124137   1.836   0.035   0.165
 7746SOL    HW224138   1.937   0.132   0.249
 7747SOL     OW24139   5.141   6.557   0.820
 7747SOL    HW124140   5.168   6.485   0.883
 7747SOL    HW224141   5.221   6.612   0.796
 7748SOL     OW24142   2.023   3.925   6.396
 7748SOL    HW124143   1.984   3.946   6.307
 7748SOL    HW224144   2.089   3.996   6.421
 7749SOL     OW24145   5.155   3.301   5.988
 7749SOL    HW124146   5.187   3.252   6.069
 7749SOL    HW224147   5.170   3.246   5.907
 7750SOL     OW24148   0.502   6.477   1.944
 7750SOL    HW124149   0.540   6.497   1.853
 7750SOL    HW224150   0.553   6.401   1.984
 7751SOL     OW24151   0.920   1.929   1.486
 7751SOL    HW124152   0.999   1.921   1.547
 7751SOL    HW224153   0.935   2.004   1.421
 7752SOL     OW24154   4.779   1.053   4.416
 7752SOL    HW124155   4.835   1.050   4.334
 7752SOL    HW224156   4.682   1.059   4.391
 7753SOL     OW24157   2.131   1.247   5.281
 7753SOL    HW124158   2.134   1.277   5.186
 7753SOL    HW224159   2.198   1.299   5.334
 7754SOL     OW24160   4.440   6.605   1.610
 7754SOL    HW124161   4.440   6.508   1.587
 7754SOL    HW224162   4.359   6.648   1.570
 7755SOL     OW24163   1.964   4.551   6.095
 7755SOL    HW124164   1.927   4.519   6.007
 7755SOL    HW224165   2.060   4.574   6.084
 7756SOL     OW24166   2.697   6.058   1.439
 7756SOL    HW124167   2.635   6.132   1.413
 7756SOL    HW224168   2.781   6.096   1.478
 7757SOL     OW24169   0.420   4.608   3.287
 7757SOL    HW124170   0.424   4.540   3.214
 7757SOL    HW224171   0.471   4.576   3.366
 7758SOL     OW24172   1.473   0.782   5.218
 7758SOL    HW124173   1.397   0.743   5.272
 7758SOL    HW224174   1.439   0.809   5.128
 7759SOL     OW24175   3.068   2.117   6.719
 7759SOL    HW124176   3.024   2.206   6.731
 7759SOL    HW224177   3.147   2.127   6.658
 7760SOL     OW24178   4.436   2.586   1.652
 7760SOL    HW124179   4.501   2.659   1.671
 7760SOL    HW224180   4.440   2.563   1.555
 7761SOL     OW24181   4.381   5.578   4.476
 7761SOL    HW124182   4.447   5.648   4.448
 7761SOL    HW224183   4.306   5.622   4.525
 7762SOL     OW24184   6.981   0.787   4.020
 7762SOL    HW124185   6.984   0.827   3.928
 7762SOL    HW224186   6.984   0.687   4.012
 7763SOL     OW24187   2.390   0.015   4.716
 7763SOL    HW124188   2.296   7.017   4.688
 7763SOL    HW224189   2.439   0.060   4.642
 7764SOL     OW24190   3.156   3.873   5.228
 7764SOL    HW124191   3.148   3.971   5.208
 7764SOL    HW224192   3.190   3.861   5.321
 7765SOL     OW24193   6.321   3.246   4.355
 7765SOL    HW124194   6.302   3.307   4.432
 7765SOL    HW224195   6.390   3.180   4.381
 7766SOL     OW24196   0.608   4.396   0.039
 7766SOL    HW124197   0.702   4.392   0.075
 7766SOL    HW224198   0.585   4.308   7.017
 7767SOL     OW24199   2.653   0.974   3.180
 7767SOL    HW124200   2.659   1.074   3.178
 7767SOL    HW224201   2.698   0.940   3.263
 7768SOL     OW24202   4.583   4.783   2.980
 7768SOL    HW124203   4.518   4.776   3.055
 7768SOL    HW224204   4.608   4.691   2.949
 7769SOL     OW24205   3.407   2.365   5.357
 7769SOL    HW124206   3.342   2.361   5.282
 7769SOL    HW224207   3.440   2.459   5.367
 7770SOL     OW24208   1.231   3.587   4.714
 7770SOL    HW124209   1.295   3.637   4.772
 7770SOL    HW224210   1.191   3.650   4.647
 7771SOL     OW24211   3.602   2.580   6.206
 7771SOL    HW124212   3.639   2.624   6.124
 7771SOL    HW224213   3.561   2.649   6.266
 7772SOL     OW24214   5.488   0.574   1.591
 7772SOL    HW124215   5.400   0.567   1.544
 7772SOL    HW224216   5.473   0.581   1.690
 7773SOL     OW24217   3.506   6.394   0.472
 7773SOL    HW124218   3.439   6.333   0.429
 7773SOL    HW224219   3.596   6.352   0.469
 7774SOL     OW24220   4.521   1.487   2.954
 7774SOL    HW124221   4.484   1.493   3.047
 7774SOL    HW224222   4.457   1.530   2.890
 7775SOL     OW24223   3.232   0.947   7.012
 7775SOL    HW124224   3.233   0.849   6.993
 7775SOL    HW224225   3.144   0.973   0.032
 7776SOL     OW24226   1.296   0.605   5.372
 7776SOL    HW124227   1.374   0.625   5.431
 7776SOL    HW224228   1.284   0.506   5.365
 7777SOL     OW24229   4.950   5.485   2.919
 7777SOL    HW124230   4.957   5.555   2.847
 7777SOL    HW224231   4.889   5.518   2.991
 7778SOL     OW24232   5.691   4.513   3.063
 7778SOL    HW124233   5.736   4.602   3.079
 7778SOL    HW224234   5.662   4.475   3.150
 7779SOL     OW24235   3.675   5.966   2.171
 7779SOL    HW124236   3.614   5.892   2.199
 7779SOL    HW224237   3.769   5.945   2.199
 7780SOL     OW24238   5.982   6.066   5.095
 7780SOL    HW124239   6.002   5.970   5.114
 7780SOL    HW224240   5.894   6.072   5.046
 7781SOL     OW24241   1.622   2.701   0.357
 7781SOL    HW124242   1.704   2.670   0.309
 7781SOL    HW224243   1.576   2.622   0.398
 7782SOL     OW24244   5.893   4.508   3.371
 7782SOL    HW124245   5.951   4.549   3.441
 7782SOL    HW224246   5.817   4.569   3.351
 7783SOL     OW24247   1.010   0.788   5.165
 7783SOL    HW124248   0.973   0.761   5.077
 7783SOL    HW224249   0.992   0.886   5.180
 7784SOL     OW24250   2.347   2.753   2.846
 7784SOL    HW124251   2.421   2.773   2.781
 7784SOL    HW224252   2.260   2.749   2.796
 7785SOL     OW24253   0.712   6.154   2.508
 7785SOL    HW124254   0.756   6.121   2.424
 7785SOL    HW224255   0.740   6.097   2.584
 7786SOL     OW24256   4.739   0.084   6.095
 7786SOL    HW124257   4.817   0.115   6.042
 7786SOL    HW224258   4.655   0.104   6.045
 7787SOL     OW24259   2.882   2.501   1.363
 7787SOL    HW124260   2.947   2.425   1.358
 7787SOL    HW224261   2.887   2.543   1.454
 7788SOL     OW24262   0.421   4.178   1.592
 7788SOL    HW124263   0.419   4.085   1.555
 7788SOL    HW224264   0.499   4.227   1.553
 7789SOL     OW24265   3.736   0.826   6.393
 7789SOL    HW124266   3.772   0.819   6.300
 7789SOL    HW224267   3.804   0.794   6.458
 7790SOL     OW24268   5.278   4.442   1.924
 7790SOL    HW124269   5.305   4.346   1.927
 7790SOL    HW224270   5.195   4.452   1.869
 7791SOL     OW24271   2.664   5.522   2.526
 7791SOL    HW124272   2.744   5.465   2.508
 7791SOL    HW224273   2.640   5.515   2.623
 7792SOL     OW24274   1.457   1.715   2.264
 7792SOL    HW124275   1.387   1.787   2.268
 7792SOL    HW224276   1.545   1.756   2.244
 7793SOL     OW24277   5.176   1.069   6.622
 7793SOL    HW124278   5.234   0.992   6.597
 7793SOL    HW224279   5.091   1.065   6.569
 7794SOL     OW24280   0.421   6.221   2.810
 7794SOL    HW124281   0.335   6.202   2.858
 7794SOL    HW224282   0.408   6.295   2.745
 7795SOL     OW24283   2.912   5.460   6.304
 7795SOL    HW124284   2.915   5.377   6.360
 7795SOL    HW224285   2.954   5.441   6.215
 7796SOL     OW24286   3.486   3.206   6.239
 7796SOL    HW124287   3.411   3.140   6.243
 7796SOL    HW224288   3.450   3.299   6.249
 7797SOL     OW24289   1.111   6.193   3.165
 7797SOL    HW124290   1.109   6.165   3.261
 7797SOL    HW224291   1.203   6.227   3.143
 7798SOL     OW24292   0.808   2.627   1.014
 7798SOL    HW124293   0.842   2.623   0.920
 7798SOL    HW224294   0.797   2.534   1.049
 7799SOL     OW24295   2.614   6.210   3.773
 7799SOL    HW124296   2.530   6.263   3.785
 7799SOL    HW224297   2.669   6.217   3.856
 7800SOL     OW24298   0.128   6.423   1.533
 7800SOL    HW124299   0.157   6.455   1.442
 7800SOL    HW224300   0.196   6.359   1.568
 7801SOL     OW24301   1.924   2.248   2.350
 7801SOL    HW124302   1.955   2.199   2.432
 7801SOL    HW224303   1.999   2.305   2.316
 7802SOL     OW24304   6.887   3.326   4.920
 7802SOL    HW124305   6.930   3.415   4.906
 7802SOL    HW224306   6.826   3.306   4.843
 7803SOL     OW24307   4.328   2.434   5.816
 7803SOL    HW124308   4.415   2.482   5.814
 7803SOL    HW224309   4.253   2.500   5.809
 7804SOL     OW24310   2.822   2.241   5.364
 7804SOL    HW124311   2.839   2.257   5.266
 7804SOL    HW224312   2.903   2.266   5.416
 7805SOL     OW24313   5.786   3.139   0.656
 7805SOL    HW124314   5.715   3.111   0.721
 7805SOL    HW224315   5.838   3.058   0.626
 7806SOL     OW24316   0.014   2.267   5.596
 7806SOL    HW124317   7.019   2.361   5.563
 7806SOL    HW224318   0.037   2.270   5.693
 7807SOL     OW24319   2.228   4.943   5.849
 7807SOL    HW124320   2.258   4.874   5.784
 7807SOL    HW224321   2.142   4.915   5.891
 7808SOL     OW24322   5.141   3.831   2.883
 7808SOL    HW124323   5.130   3.842   2.784
 7808SOL    HW224324   5.154   3.735   2.904
 7809SOL     OW24325   4.634   5.397   3.393
 7809SOL    HW124326   4.661   5.493   3.390
 7809SOL    HW224327   4.595   5.370   3.305
 7810SOL     OW24328   4.227   6.375   5.473
 7810SOL    HW124329   4.256   6.408   5.562
 7810SOL    HW224330   4.287   6.413   5.402
 7811SOL     OW24331   1.353   5.574   2.198
 7811SOL    HW124332   1.397   5.612   2.117
 7811SOL    HW224333   1.412   5.504   2.238
 7812SOL     OW24334   2.535   2.222   6.290
 7812SOL    HW124335   2.456   2.186   6.241
 7812SOL    HW224336   2.619   2.190   6.246
 7813SOL     OW24337   6.157   1.497   1.044
 7813SOL    HW124338   6.225   1.567   1.067
 7813SOL    HW224339   6.199   1.406   1.052
 7814SOL     OW24340   0.700   3.266   2.398
 7814SOL    HW124341   0.670   3.304   2.486
 7814SOL    HW224342   0.677   3.330   2.325
 7815SOL     OW24343   5.971   3.017   5.034
 7815SOL    HW124344   5.914   3.093   5.064
 7815SOL    HW224345   5.930   2.931   5.065
 7816SOL     OW24346   0.819   1.368   4.867
 7816SOL    HW124347   0.834   1.327   4.777
 7816SOL    HW224348   0.729   1.339   4.901
 7817SOL     OW24349   2.879   3.055   6.628
 7817SOL    HW124350   2.933   2.995   6.570
 7817SOL    HW224351   2.937   3.130   6.662
 7818SOL     OW24352   5.480   0.828   2.244
 7818SOL    HW124353   5.482   0.923   2.210
 7818SOL    HW224354   5.570   0.787   2.230
 7819SOL     OW24355   1.295   3.823   3.905
 7819SOL    HW124356   1.362   3.756   3.873
 7819SOL    HW224357   1.329   3.915   3.889
 7820SOL     OW24358   1.854   0.077   5.574
 7820SOL    HW124359   1.933   0.046   5.522
 7820SOL    HW224360   1.806   0.149   5.523
 7821SOL     OW24361   5.922   5.579   6.270
 7821SOL    HW124362   6.012   5.536   6.261
 7821SOL    HW224363   5.915   5.654   6.205
 7822SOL     OW24364   1.128   0.843   4.765
 7822SOL    HW124365   1.074   0.834   4.848
 7822SOL    HW224366   1.177   0.930   4.766
 7823SOL     OW24367   1.161   4.433   6.836
 7823SOL    HW124368   1.165   4.408   6.932
 7823SOL    HW224369   1.076   4.398   6.795
 7824SOL     OW24370   5.041   2.543   2.964
 7824SOL    HW124371   4.956   2.509   2.923
 7824SOL    HW224372   5.025   2.633   3.005
 7825SOL     OW24373   3.464   3.200   1.899
 7825SOL    HW124374   3.545   3.234   1.850
 7825SOL    HW224375   3.493   3.140   1.973
 7826SOL     OW24376   6.979   0.845   0.447
 7826SOL    HW124377   6.908   0.775   0.432
 7826SOL    HW224378   0.039   0.802   0.488
 7827SOL     OW24379   5.324   4.952   1.411
 7827SOL    HW124380   5.228   4.930   1.392
 7827SOL    HW224381   5.329   5.038   1.462
 7828SOL     OW24382   0.583   6.569   1.041
 7828SOL    HW124383   0.507   6.609   1.092
 7828SOL    HW224384   0.592   6.614   0.953
 7829SOL     OW24385   3.659   2.742   1.576
 7829SOL    HW124386   3.674   2.645   1.596
 7829SOL    HW224387   3.563   2.765   1.592
 7830SOL     OW24388   5.628   3.142   6.833
 7830SOL    HW124389   5.530   3.124   6.843
 7830SOL    HW224390   5.643   3.208   6.759
 7831SOL     OW24391   0.963   3.393   0.258
 7831SOL    HW124392   0.976   3.296   0.240
 7831SOL    HW224393   1.046   3.432   0.297
 7832SOL     OW24394   2.689   2.469   5.639
 7832SOL    HW124395   2.656   2.543   5.581
 7832SOL    HW224396   2.748   2.507   5.711
 7833SOL     OW24397   0.269   6.844   0.537
 7833SOL    HW124398   0.270   6.943   0.550
 7833SOL    HW224399   0.182   6.817   0.496
 7834SOL     OW24400   1.028   0.643   1.426
 7834SOL    HW124401   1.002   0.701   1.503
 7834SOL    HW224402   1.126   0.654   1.407
 7835SOL     OW24403   2.143   3.185   4.950
 7835SOL    HW124404   2.159   3.203   4.853
 7835SOL    HW224405   2.223   3.139   4.989
 7836SOL     OW24406   2.475   6.138   0.044
 7836SOL    HW124407   2.561   6.098   0.012
 7836SOL    HW224408   2.475   6.143   0.144
 7837SOL     OW24409   6.199   6.864   2.961
 7837SOL    HW124410   6.233   6.786   2.909
 7837SOL    HW224411   6.174   6.835   3.053
 7838SOL     OW24412   4.135   6.451   4.655
 7838SOL    HW124413   4.036   6.469   4.654
 7838SOL    HW224414   4.151   6.354   4.669
 7839SOL     OW24415   6.451   4.534   4.669
 7839SOL    HW124416   6.416   4.506   4.758
 7839SOL    HW224417   6.516   4.465   4.635
 7840SOL     OW24418   5.169   2.557   4.191
 7840SOL    HW124419   5.250   2.498   4.186
 7840SOL    HW224420   5.197   2.649   4.219
 7841SOL     OW24421   0.548   1.502   6.394
 7841SOL    HW124422   0.588   1.434   6.455
 7841SOL    HW224423   0.602   1.506   6.310
 7842SOL     OW24424   2.262   0.950   2.771
 7842SOL    HW124425   2.221   0.922   2.858
 7842SOL    HW224426   2.353   0.987   2.787
 7843SOL     OW24427   5.282   3.550   0.758
 7843SOL    HW124428   5.381   3.533   0.760
 7843SOL    HW224429   5.235   3.468   0.724
 7844SOL     OW24430   4.220   0.573   3.407
 7844SOL    HW124431   4.201   0.540   3.499
 7844SOL    HW224432   4.249   0.669   3.411
 7845SOL     OW24433   6.127   1.619   4.676
 7845SOL    HW124434   6.064   1.590   4.747
 7845SOL    HW224435   6.080   1.676   4.610
 7846SOL     OW24436   2.939   0.013   1.724
 7846SOL    HW124437   2.972   0.107   1.713
 7846SOL    HW224438   2.919   6.995   1.634
 7847SOL     OW24439   6.803   0.774   0.715
 7847SOL    HW124440   6.899   0.750   0.726
 7847SOL    HW224441   6.781   0.855   0.769
 7848SOL     OW24442   4.550   3.862   1.657
 7848SOL    HW124443   4.534   3.766   1.679
 7848SOL    HW224444   4.593   3.907   1.736
 7849SOL     OW24445   5.876   3.289   4.765
 7849SOL    HW124446   5.966   3.286   4.809
 7849SOL    HW224447   5.885   3.262   4.669
 7850SOL     OW24448   1.065   0.715   5.446
 7850SOL    HW124449   1.154   0.680   5.418
 7850SOL    HW224450   1.023   0.764   5.370
 7851SOL     OW24451   6.106   6.903   0.441
 7851SOL    HW124452   6.200   6.875   0.461
 7851SOL    HW224453   6.100   7.003   0.446
 7852SOL     OW24454   2.957   6.241   6.669
 7852SOL    HW124455   2.987   6.227   6.575
 7852SOL    HW224456   2.963   6.338   6.692
 7853SOL     OW24457   2.684   3.040   0.003
 7853SOL    HW124458   2.784   3.039   0.003
 7853SOL    HW224459   2.652   3.126   6.985
 7854SOL     OW24460   3.429   4.119   2.444
 7854SOL    HW124461   3.460   4.160   2.358
 7854SOL    HW224462   3.329   4.119   2.447
 7855SOL     OW24463   4.438   5.857   6.321
 7855SOL    HW124464   4.439   5.757   6.310
 7855SOL    HW224465   4.364   5.882   6.383
 7856SOL     OW24466   5.376   3.701   5.387
 7856SOL    HW124467   5.332   3.613   5.368
 7856SOL    HW224468   5.334   3.772   5.331
 7857SOL     OW24469   6.416   1.619   5.852
 7857SOL    HW124470   6.496   1.589   5.802
 7857SOL    HW224471   6.333   1.588   5.805
 7858SOL     OW24472   6.073   3.747   3.221
 7858SOL    HW124473   6.120   3.662   3.245
 7858SOL    HW224474   5.989   3.726   3.173
 7859SOL     OW24475   1.145   5.245   6.198
 7859SOL    HW124476   1.097   5.313   6.254
 7859SOL    HW224477   1.219   5.205   6.252
 7860SOL     OW24478   4.073   6.895   1.656
 7860SOL    HW124479   4.007   6.970   1.660
 7860SOL    HW224480   4.111   6.880   1.747
 7861SOL     OW24481   5.005   4.969   0.734
 7861SOL    HW124482   5.029   5.051   0.786
 7861SOL    HW224483   5.006   4.989   0.637
 7862SOL     OW24484   3.058   4.561   1.310
 7862SOL    HW124485   2.987   4.632   1.306
 7862SOL    HW224486   3.097   4.559   1.402
 7863SOL     OW24487   6.515   5.910   2.092
 7863SOL    HW124488   6.461   5.826   2.092
 7863SOL    HW224489   6.531   5.940   2.186
 7864SOL     OW24490   0.631   5.216   4.432
 7864SOL    HW124491   0.720   5.194   4.393
 7864SOL    HW224492   0.643   5.249   4.526
 7865SOL     OW24493   3.433   6.811   3.007
 7865SOL    HW124494   3.368   6.870   3.053
 7865SOL    HW224495   3.441   6.839   2.911
 7866SOL     OW24496   2.594   1.935   4.093
 7866SOL    HW124497   2.506   1.907   4.055
 7866SOL    HW224498   2.587   1.945   4.192
 7867SOL     OW24499   5.847   4.390   2.057
 7867SOL    HW124500   5.800   4.312   2.099
 7867SOL    HW224501   5.946   4.377   2.063
 7868SOL     OW24502   5.358   6.165   0.620
 7868SOL    HW124503   5.335   6.197   0.712
 7868SOL    HW224504   5.354   6.065   0.618
 7869SOL     OW24505   0.591   3.367   1.845
 7869SOL    HW124506   0.527   3.362   1.768
 7869SOL    HW224507   0.684   3.349   1.811
 7870SOL     OW24508   6.851   5.323   3.970
 7870SOL    HW124509   6.768   5.266   3.969
 7870SOL    HW224510   6.912   5.293   3.896
 7871SOL     OW24511   5.097   3.206   3.055
 7871SOL    HW124512   5.093   3.113   3.019
 7871SOL    HW224513   5.015   3.223   3.110
 7872SOL     OW24514   6.938   3.251   2.614
 7872SOL    HW124515   6.856   3.227   2.667
 7872SOL    HW224516   6.967   3.343   2.638
 7873SOL     OW24517   0.188   5.431   5.058
 7873SOL    HW124518   0.252   5.434   5.134
 7873SOL    HW224519   0.179   5.523   5.019
 7874SOL     OW24520   5.993   1.835   0.357
 7874SOL    HW124521   6.073   1.791   0.316
 7874SOL    HW224522   5.920   1.840   0.288
 7875SOL     OW24523   4.271   3.100   6.054
 7875SOL    HW124524   4.285   3.021   5.995
 7875SOL    HW224525   4.173   3.123   6.056
 7876SOL     OW24526   6.676   0.470   3.708
 7876SOL    HW124527   6.658   0.397   3.643
 7876SOL    HW224528   6.595   0.528   3.716
 7877SOL     OW24529   0.100   2.423   2.948
 7877SOL    HW124530   0.005   2.434   2.919
 7877SOL    HW224531   0.160   2.428   2.869
 7878SOL     OW24532   4.712   4.142   2.477
 7878SOL    HW124533   4.702   4.183   2.387
 7878SOL    HW224534   4.755   4.052   2.469
 7879SOL     OW24535   4.905   0.150   3.960
 7879SOL    HW124536   4.928   0.218   3.891
 7879SOL    HW224537   4.849   0.078   3.918
 7880SOL     OW24538   0.149   6.686   6.454
 7880SOL    HW124539   0.217   6.672   6.526
 7880SOL    HW224540   0.195   6.687   6.365
 7881SOL     OW24541   0.229   4.287   4.683
 7881SOL    HW124542   0.157   4.347   4.717
 7881SOL    HW224543   0.294   4.269   4.757
 7882SOL     OW24544   6.766   3.376   3.055
 7882SOL    HW124545   6.725   3.387   3.145
 7882SOL    HW224546   6.695   3.384   2.985
 7883SOL     OW24547   3.002   1.297   3.255
 7883SOL    HW124548   3.071   1.279   3.326
 7883SOL    HW224549   2.932   1.359   3.291
 7884SOL     OW24550   0.942   4.371   4.529
 7884SOL    HW124551   0.936   4.450   4.468
 7884SOL    HW224552   0.956   4.288   4.475
 7885SOL     OW24553   6.171   5.669   2.675
 7885SOL    HW124554   6.079   5.666   2.715
 7885SOL    HW224555   6.221   5.746   2.715
 7886SOL     OW24556   4.713   2.756   2.062
 7886SOL    HW124557   4.624   2.734   2.100
 7886SOL    HW224558   4.710   2.845   2.017
 7887SOL     OW24559   3.254   3.535   0.136
 7887SOL    HW124560   3.302   3.556   0.221
 7887SOL    HW224561   3.193   3.611   0.112
 7888SOL     OW24562   5.758   1.571   3.895
 7888SOL    HW124563   5.839   1.618   3.859
 7888SOL    HW224564   5.755   1.479   3.858
 7889SOL     OW24565   5.961   4.772   1.239
 7889SOL    HW124566   5.965   4.677   1.206
 7889SOL    HW224567   6.003   4.832   1.172
 7890SOL     OW24568   1.128   3.463   4.412
 7890SOL    HW124569   1.037   3.457   4.370
 7890SOL    HW224570   1.136   3.549   4.463
 7891SOL     OW24571   0.340   2.297   3.859
 7891SOL    HW124572   0.428   2.296   3.908
 7891SOL    HW224573   0.346   2.361   3.783
 7892SOL     OW24574   1.115   3.346   6.153
 7892SOL    HW124575   1.039   3.408   6.172
 7892SOL    HW224576   1.093   3.288   6.075
 7893SOL     OW24577   6.475   1.131   2.009
 7893SOL    HW124578   6.524   1.152   1.924
 7893SOL    HW224579   6.479   1.210   2.070
 7894SOL     OW24580   2.200   0.851   6.175
 7894SOL    HW124581   2.191   0.936   6.226
 7894SOL    HW224582   2.219   0.775   6.238
 7895SOL     OW24583   3.715   6.194   3.379
 7895SOL    HW124584   3.653   6.146   3.317
 7895SOL    HW224585   3.784   6.131   3.413
 7896SOL     OW24586   4.115   2.336   1.140
 7896SOL    HW124587   4.152   2.255   1.185
 7896SOL    HW224588   4.058   2.387   1.204
 7897SOL     OW24589   3.767   4.211   0.061
 7897SOL    HW124590   3.678   4.204   0.106
 7897SOL    HW224591   3.759   4.186   6.986
 7898SOL     OW24592   5.446   0.401   4.063
 7898SOL    HW124593   5.374   0.332   4.059
 7898SOL    HW224594   5.503   0.386   4.144
 7899SOL     OW24595   5.311   4.822   1.026
 7899SOL    HW124596   5.387   4.762   1.052
 7899SOL    HW224597   5.336   4.917   1.045
 7900SOL     OW24598   0.806   3.714   0.554
 7900SOL    HW124599   0.755   3.800   0.554
 7900SOL    HW224600   0.885   3.721   0.615
 7901SOL     OW24601   5.955   1.116   6.413
 7901SOL    HW124602   5.999   1.155   6.493
 7901SOL    HW224603   5.872   1.167   6.392
 7902SOL     OW24604   0.402   6.464   2.645
 7902SOL    HW124605   0.414   6.514   2.560
 7902SOL    HW224606   0.439   6.518   2.721
 7903SOL     OW24607   2.100   1.810   4.769
 7903SOL    HW124608   2.009   1.837   4.735
 7903SOL    HW224609   2.092   1.781   4.865
 7904SOL     OW24610   5.772   0.749   2.218
 7904SOL    HW124611   5.796   0.670   2.275
 7904SOL    HW224612   5.763   0.830   2.276
 7905SOL     OW24613   5.754   0.308   0.473
 7905SOL    HW124614   5.762   0.214   0.442
 7905SOL    HW224615   5.842   0.340   0.508
 7906SOL     OW24616   1.429   4.854   1.227
 7906SOL    HW124617   1.484   4.847   1.144
 7906SOL    HW224618   1.350   4.914   1.210
 7907SOL     OW24619   6.228   0.185   3.641
 7907SOL    HW124620   6.270   0.123   3.575
 7907SOL    HW224621   6.134   0.155   3.659
 7908SOL     OW24622   0.485   0.381   6.633
 7908SOL    HW124623   0.514   0.333   6.551
 7908SOL    HW224624   0.445   0.316   6.698
 7909SOL     OW24625   5.651   3.979   1.910
 7909SOL    HW124626   5.669   3.974   2.008
 7909SOL    HW224627   5.600   3.898   1.881
 7910SOL     OW24628   2.230   3.629   0.634
 7910SOL    HW124629   2.288   3.573   0.575
 7910SOL    HW224630   2.196   3.573   0.709
 7911SOL     OW24631   1.151   4.298   0.568
 7911SOL    HW124632   1.139   4.255   0.479
 7911SOL    HW224633   1.198   4.386   0.557
 7912SOL     OW24634   5.640   5.344   0.164
 7912SOL    HW124635   5.718   5.381   0.112
 7912SOL    HW224636   5.557   5.391   0.137
 7913SOL     OW24637   0.377   3.686   0.634
 7913SOL    HW124638   0.336   3.723   0.551
 7913SOL    HW224639   0.445   3.616   0.609
 7914SOL     OW24640   6.089   5.265   4.923
 7914SOL    HW124641   6.189   5.275   4.918
 7914SOL    HW224642   6.045   5.332   4.863
 7915SOL     OW24643   3.467   0.042   2.818
 7915SOL    HW124644   3.398   0.086   2.875
 7915SOL    HW224645   3.549   0.025   2.873
 7916SOL     OW24646   1.478   0.634   4.359
 7916SOL    HW124647   1.422   0.677   4.430
 7916SOL    HW224648   1.544   0.700   4.324
 7917SOL     OW24649   3.931   3.483   0.012
 7917SOL    HW124650   3.864   3.430   6.981
 7917SOL    HW224651   3.895   3.575   0.029
 7918SOL     OW24652   1.996   0.762   4.908
 7918SOL    HW124653   2.031   0.842   4.860
 7918SOL    HW224654   1.909   0.734   4.867
 7919SOL     OW24655   1.130   5.486   2.445
 7919SOL    HW124656   1.125   5.388   2.427
 7919SOL    HW224657   1.150   5.535   2.360
 7920SOL     OW24658   4.813   0.212   0.523
 7920SOL    HW124659   4.728   0.206   0.470
 7920SOL    HW224660   4.791   0.222   0.620
 7921SOL     OW24661   4.948   1.334   1.531
 7921SOL    HW124662   4.970   1.250   1.581
 7921SOL    HW224663   4.939   1.409   1.596
 7922SOL     OW24664   0.560   5.834   1.119
 7922SOL    HW124665   0.615   5.848   1.201
 7922SOL    HW224666   0.565   5.737   1.092
 7923SOL     OW24667   3.952   1.221   6.663
 7923SOL    HW124668   3.971   1.319   6.671
 7923SOL    HW224669   3.873   1.198   6.720
 7924SOL     OW24670   6.364   0.663   1.298
 7924SOL    HW124671   6.292   0.671   1.367
 7924SOL    HW224672   6.357   0.575   1.252
 7925SOL     OW24673   2.624   6.646   0.885
 7925SOL    HW124674   2.579   6.635   0.796
 7925SOL    HW224675   2.555   6.665   0.955
 7926SOL     OW24676   5.045   6.383   6.258
 7926SOL    HW124677   4.977   6.311   6.273
 7926SOL    HW224678   5.059   6.394   6.159
 7927SOL     OW24679   5.230   6.863   2.525
 7927SOL    HW124680   5.201   6.794   2.591
 7927SOL    HW224681   5.318   6.838   2.486
 7928SOL     OW24682   6.498   1.292   3.375
 7928SOL    HW124683   6.407   1.253   3.392
 7928SOL    HW224684   6.519   1.360   3.444
 7929SOL     OW24685   4.292   4.272   6.121
 7929SOL    HW124686   4.368   4.289   6.183
 7929SOL    HW224687   4.327   4.239   6.033
 7930SOL     OW24688   3.988   5.761   5.679
 7930SOL    HW124689   3.955   5.766   5.584
 7930SOL    HW224690   3.994   5.665   5.707
 7931SOL     OW24691   3.053   2.474   0.710
 7931SOL    HW124692   3.064   2.393   0.653
 7931SOL    HW224693   3.033   2.553   0.652
 7932SOL     OW24694   0.238   5.716   1.500
 7932SOL    HW124695   0.219   5.695   1.404
 7932SOL    HW224696   0.151   5.727   1.548
 7933SOL     OW24697   6.896   1.153   5.977
 7933SOL    HW124698   6.895   1.091   6.055
 7933SOL    HW224699   6.922   1.245   6.008
 7934SOL     OW24700   1.329   4.289   1.029
 7934SOL    HW124701   1.333   4.241   0.942
 7934SOL    HW224702   1.290   4.380   1.016
 7935SOL     OW24703   5.401   3.589   2.489
 7935SOL    HW124704   5.424   3.678   2.528
 7935SOL    HW224705   5.481   3.529   2.492
 7936SOL     OW24706   3.280   6.312   4.065
 7936SOL    HW124707   3.340   6.237   4.035
 7936SOL    HW224708   3.299   6.333   4.161
 7937SOL     OW24709   2.465   5.609   6.475
 7937SOL    HW124710   2.423   5.614   6.384
 7937SOL    HW224711   2.551   5.558   6.470
 7938SOL     OW24712   3.865   6.498   4.637
 7938SOL    HW124713   3.795   6.527   4.703
 7938SOL    HW224714   3.828   6.504   4.545
 7939SOL     OW24715   0.801   2.229   5.209
 7939SOL    HW124716   0.708   2.228   5.247
 7939SOL    HW224717   0.800   2.274   5.120
 7940SOL     OW24718   4.934   1.158   3.048
 7940SOL    HW124719   4.946   1.147   2.950
 7940SOL    HW224720   4.844   1.197   3.067
 7941SOL     OW24721   3.960   6.714   2.083
 7941SOL    HW124722   3.905   6.652   2.028
 7941SOL    HW224723   4.041   6.666   2.117
 7942SOL     OW24724   0.634   3.687   1.459
 7942SOL    HW124725   0.671   3.752   1.392
 7942SOL    HW224726   0.547   3.650   1.425
 7943SOL     OW24727   2.221   5.070   6.725
 7943SOL    HW124728   2.193   4.987   6.677
 7943SOL    HW224729   2.320   5.083   6.714
 7944SOL     OW24730   1.158   3.045   1.085
 7944SOL    HW124731   1.235   2.989   1.116
 7944SOL    HW224732   1.105   3.075   1.165
 7945SOL     OW24733   5.528   4.898   2.630
 7945SOL    HW124734   5.567   4.909   2.721
 7945SOL    HW224735   5.477   4.981   2.606
 7946SOL     OW24736   4.023   1.264   5.128
 7946SOL    HW124737   3.966   1.184   5.152
 7946SOL    HW224738   3.975   1.347   5.155
 7947SOL     OW24739   0.829   2.682   5.163
 7947SOL    HW124740   0.913   2.638   5.195
 7947SOL    HW224741   0.755   2.615   5.162
 7948SOL     OW24742   1.365   4.973   2.417
 7948SOL    HW124743   1.392   4.890   2.466
 7948SOL    HW224744   1.446   5.024   2.389
 7949SOL     OW24745   3.846   5.069   6.431
 7949SOL    HW124746   3.764   5.124   6.417
 7949SOL    HW224747   3.820   4.976   6.457
 7950SOL     OW24748   5.942   5.030   5.483
 7950SOL    HW124749   5.965   5.096   5.412
 7950SOL    HW224750   6.024   4.980   5.510
 7951SOL     OW24751   3.272   5.574   2.667
 7951SOL    HW124752   3.172   5.581   2.674
 7951SOL    HW224753   3.298   5.561   2.572
 7952SOL     OW24754   5.333   3.186   6.939
 7952SOL    HW124755   5.314   3.097   6.896
 7952SOL    HW224756   5.247   3.235   6.952
 7953SOL     OW24757   3.288   1.741   0.607
 7953SOL    HW124758   3.262   1.685   0.686
 7953SOL    HW224759   3.367   1.699   0.562
 7954SOL     OW24760   3.580   3.204   0.515
 7954SOL    HW124761   3.678   3.224   0.516
 7954SOL    HW224762   3.532   3.268   0.575
 7955SOL     OW24763   1.528   1.368   6.789
 7955SOL    HW124764   1.473   1.393   6.869
 7955SOL    HW224765   1.594   1.441   6.770
 7956SOL     OW24766   6.968   0.783   1.070
 7956SOL    HW124767   6.887   0.769   1.127
 7956SOL    HW224768   0.030   0.767   1.124
 7957SOL     OW24769   4.914   0.274   5.000
 7957SOL    HW124770   4.943   0.347   5.062
 7957SOL    HW224771   4.948   0.186   5.034
 7958SOL     OW24772   5.618   3.372   0.000
 7958SOL    HW124773   5.626   3.305   0.074
 7958SOL    HW224774   5.603   3.325   6.934
 7959SOL     OW24775   5.111   0.687   5.611
 7959SOL    HW124776   5.164   0.602   5.614
 7959SOL    HW224777   5.129   0.733   5.524
 7960SOL     OW24778   0.041   0.858   6.523
 7960SOL    HW124779   0.098   0.778   6.546
 7960SOL    HW224780   0.015   0.854   6.427
 7961SOL     OW24781   6.379   0.488   0.189
 7961SOL    HW124782   6.335   0.503   0.100
 7961SOL    HW224783   6.432   0.403   0.186
 7962SOL     OW24784   6.189   6.382   5.696
 7962SOL    HW124785   6.183   6.480   5.675
 7962SOL    HW224786   6.229   6.370   5.786
 7963SOL     OW24787   6.700   5.107   4.085
 7963SOL    HW124788   6.741   5.017   4.101
 7963SOL    HW224789   6.665   5.143   4.172
 7964SOL     OW24790   6.096   3.331   1.931
 7964SOL    HW124791   6.058   3.290   1.848
 7964SOL    HW224792   6.027   3.388   1.975
 7965SOL     OW24793   4.123   1.711   6.821
 7965SOL    HW124794   4.157   1.757   6.739
 7965SOL    HW224795   4.198   1.701   6.887
 7966SOL     OW24796   4.346   4.321   5.693
 7966SOL    HW124797   4.317   4.256   5.623
 7966SOL    HW224798   4.312   4.412   5.670
 7967SOL     OW24799   1.409   4.914   2.107
 7967SOL    HW124800   1.356   4.952   2.183
 7967SOL    HW224801   1.346   4.874   2.040
 7968SOL     OW24802   6.471   2.004   4.264
 7968SOL    HW124803   6.492   2.101   4.253
 7968SOL    HW224804   6.466   1.983   4.362
 7969SOL     OW24805   4.836   6.096   0.117
 7969SOL    HW124806   4.900   6.021   0.103
 7969SOL    HW224807   4.770   6.072   0.188
 7970SOL     OW24808   6.165   3.360   2.459
 7970SOL    HW124809   6.132   3.309   2.538
 7970SOL    HW224810   6.157   3.304   2.377
 7971SOL     OW24811   3.051   1.671   0.932
 7971SOL    HW124812   2.982   1.608   0.965
 7971SOL    HW224813   3.112   1.624   0.868
 7972SOL     OW24814   3.776   2.890   2.883
 7972SOL    HW124815   3.858   2.948   2.875
 7972SOL    HW224816   3.721   2.899   2.800
 7973SOL     OW24817   6.143   3.483   3.259
 7973SOL    HW124818   6.115   3.390   3.236
 7973SOL    HW224819   6.213   3.514   3.195
 7974SOL     OW24820   6.296   1.695   5.129
 7974SOL    HW124821   6.207   1.650   5.126
 7974SOL    HW224822   6.328   1.711   5.036
 7975SOL     OW24823   5.583   1.321   1.061
 7975SOL    HW124824   5.623   1.409   1.085
 7975SOL    HW224825   5.510   1.334   0.994
 7976SOL     OW24826   1.335   6.649   0.165
 7976SOL    HW124827   1.369   6.719   0.228
 7976SOL    HW224828   1.405   6.629   0.096
 7977SOL     OW24829   5.540   6.298   3.086
 7977SOL    HW124830   5.549   6.210   3.133
 7977SOL    HW224831   5.447   6.332   3.095
 7978SOL     OW24832   0.404   4.466   1.116
 7978SOL    HW124833   0.337   4.460   1.190
 7978SOL    HW224834   0.359   4.502   1.034
 7979SOL     OW24835   1.523   3.942   4.874
 7979SOL    HW124836   1.509   3.843   4.887
 7979SOL    HW224837   1.588   3.956   4.799
 7980SOL     OW24838   3.579   5.252   6.171
 7980SOL    HW124839   3.506   5.269   6.104
 7980SOL    HW224840   3.605   5.155   6.168
 7981SOL     OW24841   1.956   5.439   3.055
 7981SOL    HW124842   1.944   5.340   3.067
 7981SOL    HW224843   1.990   5.478   3.140
 7982SOL     OW24844   1.032   2.040   6.260
 7982SOL    HW124845   0.995   2.011   6.171
 7982SOL    HW224846   1.019   2.139   6.271
 7983SOL     OW24847   5.239   0.722   1.148
 7983SOL    HW124848   5.196   0.810   1.126
 7983SOL    HW224849   5.267   0.677   1.063
 7984SOL     OW24850   1.373   1.792   1.734
 7984SOL    HW124851   1.406   1.814   1.826
 7984SOL    HW224852   1.381   1.693   1.718
 7985SOL     OW24853   2.014   2.490   5.685
 7985SOL    HW124854   2.033   2.449   5.596
 7985SOL    HW224855   2.099   2.519   5.728
 7986SOL     OW24856   3.255   1.030   3.933
 7986SOL    HW124857   3.164   0.990   3.948
 7986SOL    HW224858   3.245   1.120   3.890
 7987SOL     OW24859   1.129   3.523   0.706
 7987SOL    HW124860   1.121   3.466   0.625
 7987SOL    HW224861   1.225   3.544   0.723
 7988SOL     OW24862   0.220   1.730   1.268
 7988SOL    HW124863   0.229   1.766   1.361
 7988SOL    HW224864   0.168   1.795   1.212
 7989SOL     OW24865   0.936   4.406   0.706
 7989SOL    HW124866   1.011   4.351   0.668
 7989SOL    HW224867   0.888   4.353   0.775
 7990SOL     OW24868   2.993   5.540   5.451
 7990SOL    HW124869   3.021   5.629   5.414
 7990SOL    HW224870   3.055   5.469   5.417
 7991SOL     OW24871   5.622   1.352   5.239
 7991SOL    HW124872   5.644   1.296   5.159
 7991SOL    HW224873   5.626   1.449   5.214
 7992SOL     OW24874   2.415   0.728   0.372
 7992SOL    HW124875   2.466   0.669   0.309
 7992SOL    HW224876   2.440   0.705   0.466
 7993SOL     OW24877   6.645   6.224   1.579
 7993SOL    HW124878   6.579   6.180   1.640
 7993SOL    HW224879   6.677   6.309   1.622
 7994SOL     OW24880   5.489   0.874   3.303
 7994SOL    HW124881   5.416   0.806   3.307
 7994SOL    HW224882   5.459   0.959   3.345
 7995SOL     OW24883   0.401   4.577   1.808
 7995SOL    HW124884   0.405   4.596   1.907
 7995SOL    HW224885   0.326   4.630   1.768
 7996SOL     OW24886   3.871   6.578   2.944
 7996SOL    HW124887   3.899   6.530   2.861
 7996SOL    HW224888   3.818   6.660   2.918
 7997SOL     OW24889   0.448   2.174   6.564
 7997SOL    HW124890   0.445   2.174   6.664
 7997SOL    HW224891   0.542   2.164   6.533
 7998SOL     OW24892   2.886   0.733   0.398
 7998SOL    HW124893   2.844   0.646   0.373
 7998SOL    HW224894   2.979   0.737   0.362
 7999SOL     OW24895   1.462   1.286   5.135
 7999SOL    HW124896   1.520   1.299   5.216
 7999SOL    HW224897   1.501   1.214   5.079
 8000SOL     OW24898   5.744   6.292   6.058
 8000SOL    HW124899   5.792   6.293   5.970
 8000SOL    HW224900   5.646   6.278   6.042
 8001SOL     OW24901   4.762   0.395   1.115
 8001SOL    HW124902   4.698   0.359   1.182
 8001SOL    HW224903   4.744   0.492   1.100
 8002SOL     OW24904   0.089   0.296   6.241
 8002SOL    HW124905   0.029   0.296   6.321
 8002SOL    HW224906   0.181   0.325   6.270
 8003SOL     OW24907   1.843   6.693   2.535
 8003SOL    HW124908   1.751   6.695   2.498
 8003SOL    HW224909   1.843   6.732   2.627
 8004SOL     OW24910   0.983   2.910   4.069
 8004SOL    HW124911   0.990   3.005   4.101
 8004SOL    HW224912   1.062   2.858   4.101
 8005SOL     OW24913   2.469   0.291   3.331
 8005SOL    HW124914   2.538   0.227   3.298
 8005SOL    HW224915   2.408   0.316   3.257
 8006SOL     OW24916   3.852   4.840   5.245
 8006SOL    HW124917   3.862   4.742   5.263
 8006SOL    HW224918   3.769   4.856   5.192
 8007SOL     OW24919   6.111   1.347   6.824
 8007SOL    HW124920   6.202   1.389   6.823
 8007SOL    HW224921   6.043   1.416   6.849
 8008SOL     OW24922   4.575   6.602   0.056
 8008SOL    HW124923   4.631   6.681   0.033
 8008SOL    HW224924   4.611   6.558   0.138
 8009SOL     OW24925   5.085   1.321   1.022
 8009SOL    HW124926   5.092   1.252   1.094
 8009SOL    HW224927   5.005   1.302   0.964
 8010SOL     OW24928   2.780   2.582   5.328
 8010SOL    HW124929   2.732   2.633   5.399
 8010SOL    HW224930   2.721   2.510   5.291
 8011SOL     OW24931   3.580   1.754   2.212
 8011SOL    HW124932   3.528   1.839   2.223
 8011SOL    HW224933   3.603   1.741   2.116
 8012SOL     OW24934   1.052   2.871   5.659
 8012SOL    HW124935   1.128   2.918   5.614
 8012SOL    HW224936   1.083   2.834   5.746
 8013SOL     OW24937   1.611   2.528   3.564
 8013SOL    HW124938   1.697   2.557   3.522
 8013SOL    HW224939   1.614   2.545   3.662
 8014SOL     OW24940   1.941   0.965   3.238
 8014SOL    HW124941   1.898   0.934   3.323
 8014SOL    HW224942   1.894   0.925   3.160
 8015SOL     OW24943   2.452   6.910   5.512
 8015SOL    HW124944   2.477   6.964   5.431
 8015SOL    HW224945   2.499   6.822   5.509
 8016SOL     OW24946   4.667   1.621   5.585
 8016SOL    HW124947   4.608   1.559   5.636
 8016SOL    HW224948   4.636   1.627   5.490
 8017SOL     OW24949   6.863   0.332   0.334
 8017SOL    HW124950   6.820   0.338   0.244
 8017SOL    HW224951   6.796   0.356   0.405
 8018SOL     OW24952   4.015   1.414   0.458
 8018SOL    HW124953   4.042   1.464   0.375
 8018SOL    HW224954   4.067   1.328   0.463
 8019SOL     OW24955   2.944   3.509   0.787
 8019SOL    HW124956   2.893   3.595   0.786
 8019SOL    HW224957   3.041   3.527   0.769
 8020SOL     OW24958   6.832   0.507   4.846
 8020SOL    HW124959   6.753   0.502   4.784
 8020SOL    HW224960   6.891   0.584   4.819
 8021SOL     OW24961   1.636   1.966   2.484
 8021SOL    HW124962   1.665   1.873   2.460
 8021SOL    HW224963   1.547   1.962   2.529
 8022SOL     OW24964   5.224   1.202   2.187
 8022SOL    HW124965   5.246   1.197   2.284
 8022SOL    HW224966   5.305   1.176   2.134
 8023SOL     OW24967   4.821   6.234   3.746
 8023SOL    HW124968   4.788   6.146   3.712
 8023SOL    HW224969   4.757   6.306   3.721
 8024SOL     OW24970   1.980   6.125   6.279
 8024SOL    HW124971   2.033   6.197   6.324
 8024SOL    HW224972   1.933   6.070   6.348
 8025SOL     OW24973   2.302   5.055   1.517
 8025SOL    HW124974   2.358   4.995   1.459
 8025SOL    HW224975   2.208   5.057   1.482
 8026SOL     OW24976   0.743   5.624   6.453
 8026SOL    HW124977   0.663   5.663   6.497
 8026SOL    HW224978   0.789   5.695   6.398
 8027SOL     OW24979   3.678   6.387   6.402
 8027SOL    HW124980   3.594   6.370   6.453
 8027SOL    HW224981   3.757   6.366   6.460
 8028SOL     OW24982   2.937   5.473   4.502
 8028SOL    HW124983   2.968   5.497   4.594
 8028SOL    HW224984   2.949   5.375   4.487
 8029SOL     OW24985   6.218   1.156   1.453
 8029SOL    HW124986   6.239   1.253   1.444
 8029SOL    HW224987   6.136   1.134   1.400
 8030SOL     OW24988   6.073   4.914   1.037
 8030SOL    HW124989   6.068   4.882   0.943
 8030SOL    HW224990   6.169   4.923   1.064
 8031SOL     OW24991   6.561   0.769   3.176
 8031SOL    HW124992   6.553   0.682   3.129
 8031SOL    HW224993   6.559   0.755   3.274
 8032SOL     OW24994   5.219   2.712   0.920
 8032SOL    HW124995   5.308   2.734   0.960
 8032SOL    HW224996   5.201   2.773   0.843
 8033SOL     OW24997   3.831   4.517   0.662
 8033SOL    HW124998   3.824   4.534   0.564
 8033SOL    HW224999   3.788   4.592   0.712
 8034SOL     OW25000   5.781   7.006   5.356
 8034SOL    HW125001   5.781   0.054   5.284
 8034SOL    HW225002   5.776   6.915   5.316
 8035SOL     OW25003   4.770   1.659   3.062
 8035SOL    HW125004   4.724   1.738   3.020
 8035SOL    HW225005   4.797   1.595   2.991
 8036SOL     OW25006   6.139   3.168   3.976
 8036SOL    HW125007   6.227   3.120   3.982
 8036SOL    HW225008   6.073   3.111   3.928
 8037SOL     OW25009   1.442   2.997   6.367
 8037SOL    HW125010   1.510   3.054   6.322
 8037SOL    HW225011   1.485   2.914   6.402
 8038SOL     OW25012   6.085   6.414   2.281
 8038SOL    HW125013   5.989   6.438   2.266
 8038SOL    HW225014   6.141   6.452   2.208
 8039SOL     OW25015   1.452   2.194   5.742
 8039SOL    HW125016   1.369   2.192   5.686
 8039SOL    HW225017   1.487   2.287   5.746
 8040SOL     OW25018   1.704   5.569   5.863
 8040SOL    HW125019   1.638   5.515   5.811
 8040SOL    HW225020   1.657   5.647   5.906
 8041SOL     OW25021   3.925   1.629   3.101
 8041SOL    HW125022   3.860   1.687   3.151
 8041SOL    HW225023   3.972   1.683   3.032
 8042SOL     OW25024   4.609   4.422   5.726
 8042SOL    HW125025   4.532   4.386   5.673
 8042SOL    HW225026   4.633   4.356   5.797
 8043SOL     OW25027   5.276   4.282   0.640
 8043SOL    HW125028   5.300   4.370   0.599
 8043SOL    HW225029   5.295   4.285   0.738
 8044SOL     OW25030   3.509   3.847   0.865
 8044SOL    HW125031   3.466   3.851   0.956
 8044SOL    HW225032   3.469   3.919   0.808
 8045SOL     OW25033   0.507   1.052   2.676
 8045SOL    HW125034   0.542   1.084   2.764
 8045SOL    HW225035   0.572   0.987   2.636
 8046SOL     OW25036   0.116   5.112   2.126
 8046SOL    HW125037   0.214   5.125   2.137
 8046SOL    HW225038   0.095   5.015   2.121
 8047SOL     OW25039   3.863   0.193   5.554
 8047SOL    HW125040   3.794   0.251   5.511
 8047SOL    HW225041   3.875   0.221   5.650
 8048SOL     OW25042   3.367   4.020   0.072
 8048SOL    HW125043   3.415   4.082   0.134
 8048SOL    HW225044   3.433   3.971   0.015
 8049SOL     OW25045   1.675   6.922   0.587
 8049SOL    HW125046   1.587   6.955   0.620
 8049SOL    HW225047   1.665   6.886   0.494
 8050SOL     OW25048   1.768   4.522   4.110
 8050SOL    HW125049   1.734   4.539   4.203
 8050SOL    HW225050   1.839   4.590   4.089
 8051SOL     OW25051   3.255   6.326   4.396
 8051SOL    HW125052   3.299   6.415   4.387
 8051SOL    HW225053   3.174   6.334   4.454
 8052SOL     OW25054   2.334   1.994   1.881
 8052SOL    HW125055   2.411   1.945   1.841
 8052SOL    HW225056   2.268   1.929   1.919
 8053SOL     OW25057   2.616   3.405   6.283
 8053SOL    HW125058   2.610   3.376   6.188
 8053SOL    HW225059   2.586   3.330   6.343
 8054SOL     OW25060   5.290   4.188   4.740
 8054SOL    HW125061   5.378   4.184   4.692
 8054SOL    HW225062   5.289   4.266   4.802
 8055SOL     OW25063   0.273   0.544   5.205
 8055SOL    HW125064   0.184   0.567   5.246
 8055SOL    HW225065   0.271   0.568   5.108
 8056SOL     OW25066   2.365   0.695   3.864
 8056SOL    HW125067   2.391   0.735   3.953
 8056SOL    HW225068   2.363   0.768   3.795
 8057SOL     OW25069   2.335   2.674   1.809
 8057SOL    HW125070   2.305   2.651   1.716
 8057SOL    HW225071   2.373   2.592   1.853
 8058SOL     OW25072   3.019   6.692   2.855
 8058SOL    HW125073   2.989   6.775   2.809
 8058SOL    HW225074   3.075   6.716   2.934
 8059SOL     OW25075   2.466   3.243   6.476
 8059SOL    HW125076   2.442   3.150   6.447
 8059SOL    HW225077   2.382   3.297   6.488
 8060SOL     OW25078   6.635   0.063   5.795
 8060SOL    HW125079   6.716   0.109   5.832
 8060SOL    HW225080   6.585   0.127   5.735
 8061SOL     OW25081   0.600   1.317   2.595
 8061SOL    HW125082   0.570   1.222   2.598
 8061SOL    HW225083   0.641   1.336   2.506
 8062SOL     OW25084   4.393   6.154   5.356
 8062SOL    HW125085   4.299   6.122   5.357
 8062SOL    HW225086   4.395   6.254   5.364
 8063SOL     OW25087   3.345   0.617   3.109
 8063SOL    HW125088   3.441   0.637   3.088
 8063SOL    HW225089   3.318   0.532   3.064
 8064SOL     OW25090   6.261   3.158   0.082
 8064SOL    HW125091   6.291   3.138   7.009
 8064SOL    HW225092   6.235   3.073   0.128
 8065SOL     OW25093   3.153   0.007   5.089
 8065SOL    HW125094   3.140   0.029   4.993
 8065SOL    HW225095   3.141   6.929   5.103
 8066SOL     OW25096   6.980   1.088   4.959
 8066SOL    HW125097   0.053   1.122   4.956
 8066SOL    HW225098   6.936   1.102   4.871
 8067SOL     OW25099   5.035   2.830   3.543
 8067SOL    HW125100   5.027   2.850   3.640
 8067SOL    HW225101   4.943   2.828   3.502
 8068SOL     OW25102   6.411   4.518   1.383
 8068SOL    HW125103   6.450   4.480   1.467
 8068SOL    HW225104   6.368   4.606   1.403
 8069SOL     OW25105   3.122   5.124   2.313
 8069SOL    HW125106   3.161   5.035   2.292
 8069SOL    HW225107   3.028   5.113   2.346
 8070SOL     OW25108   5.375   4.512   0.551
 8070SOL    HW125109   5.460   4.515   0.498
 8070SOL    HW225110   5.380   4.580   0.624
 8071SOL     OW25111   4.127   6.798   5.998
 8071SOL    HW125112   4.118   6.767   6.093
 8071SOL    HW225113   4.063   6.873   5.981
 8072SOL     OW25114   1.821   3.192   6.705
 8072SOL    HW125115   1.827   3.160   6.610
 8072SOL    HW225116   1.781   3.284   6.707
 8073SOL     OW25117   2.969   0.064   6.536
 8073SOL    HW125118   3.029   0.060   6.615
 8073SOL    HW225119   2.963   6.995   6.493
 8074SOL     OW25120   2.107   2.057   0.262
 8074SOL    HW125121   2.162   1.991   0.211
 8074SOL    HW225122   2.060   2.118   0.198
 8075SOL     OW25123   6.971   6.472   6.898
 8075SOL    HW125124   6.969   6.381   6.859
 8075SOL    HW225125   6.975   6.466   6.998
 8076SOL     OW25126   6.459   0.158   6.889
 8076SOL    HW125127   6.489   0.086   6.826
 8076SOL    HW225128   6.394   0.120   6.955
 8077SOL     OW25129   4.422   5.761   2.041
 8077SOL    HW125130   4.429   5.833   1.971
 8077SOL    HW225131   4.391   5.676   1.998
 8078SOL     OW25132   1.047   1.269   1.018
 8078SOL    HW125133   1.042   1.239   0.923
 8078SOL    HW225134   1.058   1.368   1.022
 8079SOL     OW25135   1.181   1.262   5.087
 8079SOL    HW125136   1.170   1.361   5.075
 8079SOL    HW225137   1.274   1.242   5.117
 8080SOL     OW25138   1.430   3.689   2.853
 8080SOL    HW125139   1.453   3.621   2.923
 8080SOL    HW225140   1.349   3.741   2.881
 8081SOL     OW25141   6.250   4.977   4.737
 8081SOL    HW125142   6.344   4.944   4.724
 8081SOL    HW225143   6.196   4.908   4.784
 8082SOL     OW25144   2.740   1.551   2.518
 8082SOL    HW125145   2.760   1.512   2.608
 8082SOL    HW225146   2.643   1.538   2.497
 8083SOL     OW25147   5.528   2.150   4.695
 8083SOL    HW125148   5.445   2.199   4.665
 8083SOL    HW225149   5.503   2.058   4.724
 8084SOL     OW25150   2.346   0.022   6.299
 8084SOL    HW125151   2.443   0.043   6.287
 8084SOL    HW225152   2.302   0.095   6.351
 8085SOL     OW25153   0.469   5.287   3.898
 8085SOL    HW125154   0.386   5.278   3.953
 8085SOL    HW225155   0.547   5.252   3.950
 8086SOL     OW25156   0.693   1.099   2.092
 8086SOL    HW125157   0.602   1.074   2.060
 8086SOL    HW225158   0.758   1.098   2.016
 8087SOL     OW25159   1.293   0.634   0.137
 8087SOL    HW125160   1.263   0.551   0.184
 8087SOL    HW225161   1.235   0.651   0.058
 8088SOL     OW25162   5.362   6.695   6.339
 8088SOL    HW125163   5.320   6.785   6.336
 8088SOL    HW225164   5.420   6.688   6.420
 8089SOL     OW25165   6.208   2.509   6.438
 8089SOL    HW125166   6.212   2.436   6.506
 8089SOL    HW225167   6.190   2.469   6.348
 8090SOL     OW25168   4.307   1.733   6.599
 8090SOL    HW125169   4.397   1.729   6.555
 8090SOL    HW225170   4.264   1.643   6.593
 8091SOL     OW25171   1.278   4.258   4.651
 8091SOL    HW125172   1.288   4.246   4.750
 8091SOL    HW225173   1.222   4.184   4.614
 8092SOL     OW25174   4.785   1.940   5.368
 8092SOL    HW125175   4.790   1.892   5.455
 8092SOL    HW225176   4.693   1.931   5.330
 8093SOL     OW25177   2.769   6.298   2.831
 8093SOL    HW125178   2.786   6.215   2.779
 8093SOL    HW225179   2.842   6.310   2.899
 8094SOL     OW25180   0.838   3.785   4.421
 8094SOL    HW125181   0.832   3.727   4.502
 8094SOL    HW225182   0.774   3.752   4.351
 8095SOL     OW25183   1.218   4.242   5.322
 8095SOL    HW125184   1.304   4.206   5.358
 8095SOL    HW225185   1.189   4.321   5.376
 8096SOL     OW25186   1.172   6.625   2.056
 8096SOL    HW125187   1.134   6.716   2.048
 8096SOL    HW225188   1.113   6.569   2.114
 8097SOL     OW25189   2.863   6.891   5.174
 8097SOL    HW125190   2.956   6.856   5.160
 8097SOL    HW225191   2.826   6.850   5.258
 8098SOL     OW25192   0.697   5.776   3.632
 8098SOL    HW125193   0.664   5.695   3.584
 8098SOL    HW225194   0.747   5.748   3.714
 8099SOL     OW25195   3.652   5.635   3.795
 8099SOL    HW125196   3.736   5.610   3.748
 8099SOL    HW225197   3.592   5.685   3.732
 8100SOL     OW25198   6.333   1.184   6.533
 8100SOL    HW125199   6.433   1.186   6.530
 8100SOL    HW225200   6.296   1.270   6.500
 8101SOL     OW25201   2.075   6.069   0.796
 8101SOL    HW125202   2.075   5.986   0.740
 8101SOL    HW225203   2.111   6.146   0.742
 8102SOL     OW25204   1.158   3.230   4.696
 8102SOL    HW125205   1.190   3.176   4.774
 8102SOL    HW225206   1.120   3.317   4.729
 8103SOL     OW25207   3.769   1.184   2.131
 8103SOL    HW125208   3.825   1.220   2.205
 8103SOL    HW225209   3.737   1.092   2.154
 8104SOL     OW25210   1.954   6.355   5.895
 8104SOL    HW125211   1.973   6.268   5.850
 8104SOL    HW225212   1.856   6.377   5.884
 8105SOL     OW25213   6.443   1.680   3.315
 8105SOL    HW125214   6.395   1.644   3.395
 8105SOL    HW225215   6.467   1.605   3.254
 8106SOL     OW25216   2.412   6.317   4.088
 8106SOL    HW125217   2.427   6.220   4.106
 8106SOL    HW225218   2.376   6.361   4.170
 8107SOL     OW25219   2.043   5.706   4.454
 8107SOL    HW125220   1.944   5.709   4.440
 8107SOL    HW225221   2.090   5.739   4.372
 8108SOL     OW25222   0.262   1.288   6.875
 8108SOL    HW125223   0.296   1.381   6.876
 8108SOL    HW225224   0.163   1.288   6.887
 8109SOL     OW25225   6.739   3.596   6.424
 8109SOL    HW125226   6.727   3.500   6.400
 8109SOL    HW225227   6.751   3.605   6.523
 8110SOL     OW25228   4.645   4.786   0.956
 8110SOL    HW125229   4.629   4.769   0.858
 8110SOL    HW225230   4.685   4.877   0.968
 8111SOL     OW25231   5.920   0.948   3.196
 8111SOL    HW125232   6.016   0.973   3.183
 8111SOL    HW225233   5.863   1.030   3.191
 8112SOL     OW25234   0.430   2.748   5.075
 8112SOL    HW125235   0.337   2.776   5.100
 8112SOL    HW225236   0.492   2.763   5.152
 8113SOL     OW25237   6.237   3.185   1.322
 8113SOL    HW125238   6.226   3.250   1.247
 8113SOL    HW225239   6.152   3.180   1.375
 8114SOL     OW25240   1.735   4.260   2.261
 8114SOL    HW125241   1.696   4.350   2.279
 8114SOL    HW225242   1.796   4.234   2.336
 8115SOL     OW25243   3.209   6.967   6.928
 8115SOL    HW125244   3.153   0.026   6.903
 8115SOL    HW225245   3.161   6.914   6.998
 8116SOL     OW25246   3.264   5.126   0.744
 8116SOL    HW125247   3.190   5.102   0.682
 8116SOL    HW225248   3.236   5.109   0.838
 8117SOL     OW25249   2.212   6.699   2.957
 8117SOL    HW125250   2.115   6.675   2.947
 8117SOL    HW225251   2.245   6.742   2.874
 8118SOL     OW25252   6.301   4.082   6.564
 8118SOL    HW125253   6.401   4.092   6.558
 8118SOL    HW225254   6.266   4.143   6.635
 8119SOL     OW25255   5.519   5.754   5.428
 8119SOL    HW125256   5.432   5.799   5.408
 8119SOL    HW225257   5.594   5.808   5.391
 8120SOL     OW25258   2.250   5.643   0.599
 8120SOL    HW125259   2.306   5.624   0.680
 8120SOL    HW225260   2.213   5.557   0.564
 8121SOL     OW25261   0.964   4.523   3.208
 8121SOL    HW125262   1.003   4.512   3.117
 8121SOL    HW225263   0.976   4.439   3.261
 8122SOL     OW25264   1.117   4.522   2.966
 8122SOL    HW125265   1.168   4.478   2.892
 8122SOL    HW225266   1.140   4.619   2.968
 8123SOL     OW25267   0.786   2.027   6.838
 8123SOL    HW125268   0.817   1.940   6.801
 8123SOL    HW225269   0.855   2.097   6.822
 8124SOL     OW25270   5.054   5.900   3.949
 8124SOL    HW125271   5.138   5.938   3.986
 8124SOL    HW225272   5.020   5.829   4.010
 8125SOL     OW25273   0.502   0.741   2.859
 8125SOL    HW125274   0.537   0.809   2.923
 8125SOL    HW225275   0.418   0.776   2.817
 8126SOL     OW25276   3.984   4.867   3.969
 8126SOL    HW125277   3.898   4.879   4.018
 8126SOL    HW225278   4.061   4.872   4.034
 8127SOL     OW25279   2.395   2.623   0.357
 8127SOL    HW125280   2.297   2.602   0.358
 8127SOL    HW225281   2.447   2.543   0.383
 8128SOL     OW25282   3.396   2.796   1.629
 8128SOL    HW125283   3.329   2.740   1.679
 8128SOL    HW225284   3.358   2.887   1.613
 8129SOL     OW25285   1.291   2.235   0.203
 8129SOL    HW125286   1.287   2.168   0.277
 8129SOL    HW225287   1.367   2.298   0.218
 8130SOL     OW25288   1.301   5.430   0.235
 8130SOL    HW125289   1.366   5.454   0.307
 8130SOL    HW225290   1.350   5.401   0.153
 8131SOL     OW25291   2.633   2.561   1.279
 8131SOL    HW125292   2.631   2.631   1.208
 8131SOL    HW225293   2.728   2.542   1.305
 8132SOL     OW25294   6.578   0.034   3.895
 8132SOL    HW125295   6.546   0.127   3.876
 8132SOL    HW225296   6.587   0.022   3.994
 8133SOL     OW25297   3.539   5.316   1.613
 8133SOL    HW125298   3.500   5.401   1.576
 8133SOL    HW225299   3.591   5.337   1.696
 8134SOL     OW25300   6.330   1.277   5.779
 8134SOL    HW125301   6.327   1.181   5.753
 8134SOL    HW225302   6.412   1.319   5.741
 8135SOL     OW25303   2.320   0.267   1.672
 8135SOL    HW125304   2.304   0.328   1.749
 8135SOL    HW225305   2.382   0.194   1.700
 8136SOL     OW25306   5.137   5.442   2.393
 8136SOL    HW125307   5.220   5.429   2.338
 8136SOL    HW225308   5.089   5.355   2.402
 8137SOL     OW25309   3.379   1.310   5.625
 8137SOL    HW125310   3.315   1.235   5.607
 8137SOL    HW225311   3.422   1.339   5.540
 8138SOL     OW25312   5.558   1.217   1.894
 8138SOL    HW125313   5.617   1.295   1.911
 8138SOL    HW225314   5.571   1.185   1.800
 8139SOL     OW25315   1.034   1.644   2.544
 8139SOL    HW125316   1.072   1.734   2.565
 8139SOL    HW225317   1.105   1.585   2.507
 8140SOL     OW25318   4.701   1.296   4.586
 8140SOL    HW125319   4.761   1.225   4.549
 8140SOL    HW225320   4.614   1.294   4.536
 8141SOL     OW25321   3.886   5.320   5.835
 8141SOL    HW125322   3.813   5.271   5.788
 8141SOL    HW225323   3.848   5.387   5.898
 8142SOL     OW25324   6.460   4.657   0.501
 8142SOL    HW125325   6.476   4.739   0.555
 8142SOL    HW225326   6.426   4.684   0.410
 8143SOL     OW25327   6.078   4.569   6.014
 8143SOL    HW125328   6.081   4.495   6.080
 8143SOL    HW225329   6.139   4.547   5.937
 8144SOL     OW25330   5.282   6.702   6.768
 8144SOL    HW125331   5.346   6.719   6.693
 8144SOL    HW225332   5.326   6.725   6.855
 8145SOL     OW25333   5.927   5.850   2.727
 8145SOL    HW125334   6.004   5.823   2.669
 8145SOL    HW225335   5.942   5.816   2.819
 8146SOL     OW25336   3.559   0.998   5.563
 8146SOL    HW125337   3.659   0.992   5.560
 8146SOL    HW225338   3.523   0.993   5.470
 8147SOL     OW25339   4.325   1.913   3.503
 8147SOL    HW125340   4.233   1.876   3.496
 8147SOL    HW225341   4.391   1.837   3.509
 8148SOL     OW25342   5.364   2.584   2.530
 8148SOL    HW125343   5.375   2.671   2.578
 8148SOL    HW225344   5.266   2.562   2.525
 8149SOL     OW25345   3.743   5.354   2.722
 8149SOL    HW125346   3.771   5.319   2.633
 8149SOL    HW225347   3.648   5.386   2.716
 8150SOL     OW25348   0.666   5.069   0.798
 8150SOL    HW125349   0.618   5.145   0.841
 8150SOL    HW225350   0.630   5.055   0.706
 8151SOL     OW25351   0.787   2.523   3.617
 8151SOL    HW125352   0.747   2.526   3.709
 8151SOL    HW225353   0.804   2.616   3.585
 8152SOL     OW25354   2.225   1.012   3.350
 8152SOL    HW125355   2.248   0.930   3.404
 8152SOL    HW225356   2.129   1.034   3.365
 8153SOL     OW25357   3.038   0.252   1.668
 8153SOL    HW125358   3.111   0.231   1.733
 8153SOL    HW225359   3.055   0.342   1.627
 8154SOL     OW25360   2.340   6.331   3.837
 8154SOL    HW125361   2.361   6.340   3.934
 8154SOL    HW225362   2.301   6.417   3.803
 8155SOL     OW25363   3.133   2.960   2.092
 8155SOL    HW125364   3.098   2.924   2.005
 8155SOL    HW225365   3.119   2.892   2.164
 8156SOL     OW25366   5.682   1.067   5.518
 8156SOL    HW125367   5.745   1.038   5.446
 8156SOL    HW225368   5.597   1.099   5.477
 8157SOL     OW25369   5.961   4.244   6.385
 8157SOL    HW125370   6.023   4.272   6.312
 8157SOL    HW225371   5.985   4.293   6.469
 8158SOL     OW25372   1.068   6.052   1.331
 8158SOL    HW125373   1.082   5.954   1.317
 8158SOL    HW225374   1.055   6.071   1.428
 8159SOL     OW25375   2.021   5.416   2.007
 8159SOL    HW125376   2.114   5.434   1.974
 8159SOL    HW225377   1.965   5.383   1.931
 8160SOL     OW25378   4.796   2.639   0.913
 8160SOL    HW125379   4.742   2.591   0.843
 8160SOL    HW225380   4.830   2.725   0.876
 8161SOL     OW25381   4.680   0.850   0.383
 8161SOL    HW125382   4.654   0.936   0.428
 8161SOL    HW225383   4.779   0.848   0.370
 8162SOL     OW25384   5.894   0.057   0.578
 8162SOL    HW125385   5.980   0.096   0.546
 8162SOL    HW225386   5.912   7.003   0.641
 8163SOL     OW25387   2.338   4.268   5.213
 8163SOL    HW125388   2.383   4.329   5.147
 8163SOL    HW225389   2.352   4.173   5.186
 8164SOL     OW25390   4.930   2.233   1.209
 8164SOL    HW125391   4.857   2.289   1.247
 8164SOL    HW225392   4.950   2.157   1.271
 8165SOL     OW25393   1.547   4.048   1.181
 8165SOL    HW125394   1.601   4.130   1.200
 8165SOL    HW225395   1.450   4.071   1.185
 8166SOL     OW25396   2.571   0.546   2.079
 8166SOL    HW125397   2.563   0.467   2.018
 8166SOL    HW225398   2.487   0.600   2.074
 8167SOL     OW25399   5.796   2.776   3.569
 8167SOL    HW125400   5.783   2.688   3.615
 8167SOL    HW225401   5.872   2.826   3.612
 8168SOL     OW25402   3.702   1.593   3.437
 8168SOL    HW125403   3.709   1.493   3.435
 8168SOL    HW225404   3.608   1.620   3.419
 8169SOL     OW25405   4.420   3.886   6.628
 8169SOL    HW125406   4.383   3.979   6.625
 8169SOL    HW225407   4.497   3.882   6.692
 8170SOL     OW25408   0.816   5.749   4.097
 8170SOL    HW125409   0.886   5.689   4.138
 8170SOL    HW225410   0.727   5.728   4.136
 8171SOL     OW25411   0.547   1.716   6.577
 8171SOL    HW125412   0.635   1.755   6.550
 8171SOL    HW225413   0.527   1.636   6.521
 8172SOL     OW25414   0.025   0.094   0.545
 8172SOL    HW125415   7.009   0.052   0.628
 8172SOL    HW225416   0.106   0.147   0.567
 8173SOL     OW25417   3.537   2.626   0.137
 8173SOL    HW125418   3.559   2.633   0.040
 8173SOL    HW225419   3.530   2.717   0.177
 8174SOL     OW25420   5.591   1.357   1.547
 8174SOL    HW125421   5.632   1.269   1.521
 8174SOL    HW225422   5.528   1.386   1.474
 8175SOL     OW25423   0.492   1.824   6.231
 8175SOL    HW125424   0.451   1.751   6.176
 8175SOL    HW225425   0.496   1.908   6.177
 8176SOL     OW25426   2.640   5.501   2.050
 8176SOL    HW125427   2.668   5.424   2.107
 8176SOL    HW225428   2.711   5.519   1.982
 8177SOL     OW25429   0.833   6.708   4.390
 8177SOL    HW125430   0.771   6.768   4.441
 8177SOL    HW225431   0.826   6.615   4.426
 8178SOL     OW25432   1.405   6.257   6.861
 8178SOL    HW125433   1.436   6.259   6.766
 8178SOL    HW225434   1.471   6.205   6.915
 8179SOL     OW25435   3.265   3.039   7.018
 8179SOL    HW125436   3.181   3.003   0.037
 8179SOL    HW225437   3.298   3.115   0.052
 8180SOL     OW25438   6.947   6.774   4.503
 8180SOL    HW125439   6.931   6.749   4.599
 8180SOL    HW225440   0.013   6.823   4.496
 8181SOL     OW25441   2.549   2.193   2.932
 8181SOL    HW125442   2.559   2.234   3.023
 8181SOL    HW225443   2.636   2.198   2.883
 8182SOL     OW25444   3.244   2.305   5.598
 8182SOL    HW125445   3.311   2.333   5.530
 8182SOL    HW225446   3.168   2.257   5.554
 8183SOL     OW25447   1.024   3.437   4.822
 8183SOL    HW125448   1.099   3.497   4.793
 8183SOL    HW225449   1.031   3.420   4.920
 8184SOL     OW25450   0.457   0.359   5.313
 8184SOL    HW125451   0.504   0.404   5.389
 8184SOL    HW225452   0.387   0.419   5.276
 8185SOL     OW25453   3.154   1.515   2.476
 8185SOL    HW125454   3.220   1.575   2.431
 8185SOL    HW225455   3.085   1.570   2.522
 8186SOL     OW25456   3.147   5.938   5.700
 8186SOL    HW125457   3.110   5.846   5.715
 8186SOL    HW225458   3.232   5.932   5.648
 8187SOL     OW25459   1.452   2.196   5.404
 8187SOL    HW125460   1.393   2.119   5.429
 8187SOL    HW225461   1.533   2.161   5.356
 8188SOL     OW25462   6.055   2.153   2.746
 8188SOL    HW125463   6.125   2.198   2.802
 8188SOL    HW225464   5.987   2.110   2.806
 8189SOL     OW25465   5.890   4.599   2.809
 8189SOL    HW125466   5.943   4.605   2.894
 8189SOL    HW225467   5.795   4.579   2.830
 8190SOL     OW25468   5.134   3.142   3.533
 8190SOL    HW125469   5.194   3.165   3.457
 8190SOL    HW225470   5.061   3.210   3.540
 8191SOL     OW25471   0.443   5.041   4.071
 8191SOL    HW125472   0.512   5.110   4.094
 8191SOL    HW225473   0.486   4.966   4.022
 8192SOL     OW25474   2.413   5.431   2.344
 8192SOL    HW125475   2.438   5.527   2.340
 8192SOL    HW225476   2.338   5.413   2.281
 8193SOL     OW25477   4.692   6.828   5.213
 8193SOL    HW125478   4.697   6.880   5.298
 8193SOL    HW225479   4.769   6.765   5.208
 8194SOL     OW25480   6.830   0.796   0.053
 8194SOL    HW125481   6.796   0.871   7.019
 8194SOL    HW225482   6.831   0.712   7.019
 8195SOL     OW25483   6.514   0.063   0.314
 8195SOL    HW125484   6.488   0.124   0.389
 8195SOL    HW225485   6.596   0.011   0.341
 8196SOL     OW25486   3.391   6.647   6.604
 8196SOL    HW125487   3.412   6.654   6.701
 8196SOL    HW225488   3.306   6.595   6.592
 8197SOL     OW25489   0.017   0.520   6.500
 8197SOL    HW125490   0.042   0.514   6.404
 8197SOL    HW225491   0.091   0.560   6.552
 8198SOL     OW25492   2.580   6.718   3.143
 8198SOL    HW125493   2.510   6.782   3.112
 8198SOL    HW225494   2.576   6.634   3.088
 8199SOL     OW25495   6.951   3.511   0.044
 8199SOL    HW125496   6.941   3.511   0.143
 8199SOL    HW225497   6.892   3.440   0.005
 8200SOL     OW25498   5.016   4.351   1.099
 8200SOL    HW125499   5.109   4.332   1.133
 8200SOL    HW225500   4.956   4.275   1.124
 8201SOL     OW25501   5.816   6.923   3.688
 8201SOL    HW125502   5.750   6.923   3.613
 8201SOL    HW225503   5.900   6.969   3.658
 8202SOL     OW25504   1.445   4.501   3.356
 8202SOL    HW125505   1.496   4.450   3.425
 8202SOL    HW225506   1.435   4.445   3.274
 8203SOL     OW25507   5.356   4.115   1.757
 8203SOL    HW125508   5.429   4.068   1.807
 8203SOL    HW225509   5.393   4.195   1.710
 8204SOL     OW25510   3.421   0.005   2.074
 8204SOL    HW125511   3.514   0.037   2.057
 8204SOL    HW225512   3.387   6.978   1.993
 8205SOL     OW25513   5.723   5.612   1.465
 8205SOL    HW125514   5.792   5.641   1.398
 8205SOL    HW225515   5.681   5.527   1.434
 8206SOL     OW25516   3.935   1.975   5.318
 8206SOL    HW125517   3.951   2.074   5.313
 8206SOL    HW225518   3.965   1.941   5.407
 8207SOL     OW25519   3.065   5.169   6.254
 8207SOL    HW125520   2.995   5.195   6.188
 8207SOL    HW225521   3.027   5.176   6.347
 8208SOL     OW25522   1.781   4.267   1.091
 8208SOL    HW125523   1.690   4.276   1.050
 8208SOL    HW225524   1.776   4.290   1.188
 8209SOL     OW25525   1.093   0.540   5.133
 8209SOL    HW125526   1.169   0.512   5.191
 8209SOL    HW225527   1.072   0.637   5.149
 8210SOL     OW25528   2.322   1.532   0.190
 8210SOL    HW125529   2.272   1.445   0.193
 8210SOL    HW225530   2.405   1.524   0.245
 8211SOL     OW25531   3.267   2.948   4.115
 8211SOL    HW125532   3.365   2.936   4.102
 8211SOL    HW225533   3.226   2.981   4.030
 8212SOL     OW25534   2.835   0.292   1.169
 8212SOL    HW125535   2.829   0.315   1.266
 8212SOL    HW225536   2.818   0.195   1.157
 8213SOL     OW25537   4.497   4.298   1.577
 8213SOL    HW125538   4.494   4.214   1.524
 8213SOL    HW225539   4.493   4.276   1.675
 8214SOL     OW25540   3.307   5.685   4.169
 8214SOL    HW125541   3.356   5.649   4.248
 8214SOL    HW225542   3.208   5.682   4.187
 8215SOL     OW25543   4.566   6.630   6.669
 8215SOL    HW125544   4.495   6.637   6.739
 8215SOL    HW225545   4.655   6.621   6.714
 8216SOL     OW25546   4.892   5.704   1.540
 8216SOL    HW125547   4.969   5.728   1.600
 8216SOL    HW225548   4.808   5.699   1.594
 8217SOL     OW25549   2.508   5.622   3.278
 8217SOL    HW125550   2.436   5.673   3.324
 8217SOL    HW225551   2.582   5.604   3.343
 8218SOL     OW25552   1.691   0.266   5.487
 8218SOL    HW125553   1.613   0.209   5.513
 8218SOL    HW225554   1.661   0.362   5.480
 8219SOL     OW25555   3.807   4.040   1.099
 8219SOL    HW125556   3.891   4.075   1.058
 8219SOL    HW225557   3.760   3.981   1.034
 8220SOL     OW25558   3.678   3.708   4.235
 8220SOL    HW125559   3.748   3.773   4.207
 8220SOL    HW225560   3.659   3.718   4.333
 8221SOL     OW25561   5.858   2.999   3.217
 8221SOL    HW125562   5.770   3.040   3.242
 8221SOL    HW225563   5.926   3.020   3.287
 8222SOL     OW25564   6.181   2.797   0.944
 8222SOL    HW125565   6.253   2.865   0.939
 8222SOL    HW225566   6.170   2.767   1.039
 8223SOL     OW25567   0.490   5.911   5.028
 8223SOL    HW125568   0.565   5.961   4.985
 8223SOL    HW225569   0.406   5.925   4.976
 8224SOL     OW25570   5.600   1.612   0.431
 8224SOL    HW125571   5.560   1.704   0.436
 8224SOL    HW225572   5.573   1.560   0.512
 8225SOL     OW25573   5.376   1.794   0.770
 8225SOL    HW125574   5.422   1.878   0.740
 8225SOL    HW225575   5.358   1.799   0.868
 8226SOL     OW25576   3.692   0.080   0.368
 8226SOL    HW125577   3.713   0.171   0.332
 8226SOL    HW225578   3.592   0.069   0.375
 8227SOL     OW25579   4.910   1.950   2.789
 8227SOL    HW125580   4.979   1.999   2.843
 8227SOL    HW225581   4.831   1.929   2.847
 8228SOL     OW25582   1.913   0.442   5.531
 8228SOL    HW125583   1.922   0.404   5.623
 8228SOL    HW225584   1.824   0.418   5.493
 8229SOL     OW25585   4.411   4.720   1.217
 8229SOL    HW125586   4.339   4.761   1.273
 8229SOL    HW225587   4.500   4.739   1.258
 8230SOL     OW25588   5.313   0.522   5.678
 8230SOL    HW125589   5.331   0.489   5.771
 8230SOL    HW225590   5.321   0.446   5.614
 8231SOL     OW25591   2.474   1.558   3.013
 8231SOL    HW125592   2.494   1.621   3.087
 8231SOL    HW225593   2.522   1.586   2.930
 8232SOL     OW25594   3.858   6.447   2.686
 8232SOL    HW125595   3.778   6.493   2.724
 8232SOL    HW225596   3.866   6.355   2.726
 8233SOL     OW25597   1.030   0.881   5.932
 8233SOL    HW125598   0.991   0.833   5.853
 8233SOL    HW225599   1.000   0.976   5.931
 8234SOL     OW25600   1.758   1.956   0.665
 8234SOL    HW125601   1.789   1.937   0.758
 8234SOL    HW225602   1.754   1.871   0.613
 8235SOL     OW25603   0.115   5.422   0.876
 8235SOL    HW125604   0.125   5.340   0.931
 8235SOL    HW225605   0.042   5.479   0.912
 8236SOL     OW25606   0.489   6.688   6.983
 8236SOL    HW125607   0.495   6.590   6.965
 8236SOL    HW225608   0.534   6.739   6.910
 8237SOL     OW25609   4.579   5.477   6.562
 8237SOL    HW125610   4.514   5.452   6.634
 8237SOL    HW225611   4.550   5.561   6.518
 8238SOL     OW25612   1.332   4.510   0.537
 8238SOL    HW125613   1.315   4.598   0.493
 8238SOL    HW225614   1.430   4.501   0.556
 8239SOL     OW25615   0.883   1.357   5.177
 8239SOL    HW125616   0.861   1.452   5.154
 8239SOL    HW225617   0.919   1.311   5.096
 8240SOL     OW25618   3.551   3.641   4.489
 8240SOL    HW125619   3.528   3.738   4.477
 8240SOL    HW225620   3.467   3.589   4.506
 8241SOL     OW25621   1.685   4.202   5.968
 8241SOL    HW125622   1.643   4.284   6.008
 8241SOL    HW225623   1.649   4.121   6.013
 8242SOL     OW25624   0.560   2.835   4.250
 8242SOL    HW125625   0.525   2.868   4.162
 8242SOL    HW225626   0.483   2.803   4.306
 8243SOL     OW25627   0.733   4.603   4.899
 8243SOL    HW125628   0.725   4.585   4.997
 8243SOL    HW225629   0.800   4.540   4.859
 8244SOL     OW25630   1.158   0.309   4.287
 8244SOL    HW125631   1.215   0.229   4.273
 8244SOL    HW225632   1.064   0.281   4.304
 8245SOL     OW25633   5.258   1.657   3.971
 8245SOL    HW125634   5.193   1.587   3.944
 8245SOL    HW225635   5.327   1.617   4.033
 8246SOL     OW25636   1.534   5.270   6.175
 8246SOL    HW125637   1.487   5.203   6.232
 8246SOL    HW225638   1.471   5.304   6.105
 8247SOL     OW25639   3.289   5.350   3.057
 8247SOL    HW125640   3.354   5.306   3.120
 8247SOL    HW225641   3.222   5.283   3.027
 8248SOL     OW25642   0.617   5.060   2.910
 8248SOL    HW125643   0.573   5.150   2.912
 8248SOL    HW225644   0.692   5.061   2.845
 8249SOL     OW25645   2.721   2.073   6.156
 8249SOL    HW125646   2.640   2.017   6.140
 8249SOL    HW225647   2.797   2.015   6.186
 8250SOL     OW25648   1.826   1.363   6.485
 8250SOL    HW125649   1.797   1.297   6.554
 8250SOL    HW225650   1.876   1.316   6.413
 8251SOL     OW25651   0.119   1.982   4.655
 8251SOL    HW125652   0.061   2.062   4.666
 8251SOL    HW225653   0.151   1.976   4.560
 8252SOL     OW25654   1.493   2.234   6.611
 8252SOL    HW125655   1.486   2.219   6.512
 8252SOL    HW225656   1.452   2.156   6.659
 8253SOL     OW25657   4.489   5.731   0.747
 8253SOL    HW125658   4.410   5.685   0.788
 8253SOL    HW225659   4.460   5.782   0.666
 8254SOL     OW25660   5.336   4.903   0.032
 8254SOL    HW125661   5.359   4.965   0.107
 8254SOL    HW225662   5.407   4.833   0.024
 8255SOL     OW25663   0.858   6.280   6.454
 8255SOL    HW125664   0.875   6.280   6.356
 8255SOL    HW225665   0.937   6.242   6.502
 8256SOL     OW25666   1.690   5.770   3.279
 8256SOL    HW125667   1.683   5.678   3.316
 8256SOL    HW225668   1.786   5.792   3.261
 8257SOL     OW25669   4.854   3.550   3.159
 8257SOL    HW125670   4.873   3.549   3.061
 8257SOL    HW225671   4.826   3.458   3.189
 8258SOL     OW25672   6.863   3.090   2.047
 8258SOL    HW125673   6.876   3.165   1.982
 8258SOL    HW225674   6.940   3.089   2.111
 8259SOL     OW25675   4.651   1.452   4.257
 8259SOL    HW125676   4.587   1.422   4.328
 8259SOL    HW225677   4.631   1.547   4.232
 8260SOL     OW25678   4.379   1.451   1.345
 8260SOL    HW125679   4.429   1.506   1.278
 8260SOL    HW225680   4.330   1.378   1.297
 8261SOL     OW25681   5.904   0.282   2.994
 8261SOL    HW125682   5.898   0.184   3.013
 8261SOL    HW225683   5.997   0.304   2.965
 8262SOL     OW25684   6.459   4.005   2.126
 8262SOL    HW125685   6.444   4.071   2.200
 8262SOL    HW225686   6.545   3.957   2.143
 8263SOL     OW25687   0.217   2.003   6.377
 8263SOL    HW125688   0.228   1.935   6.448
 8263SOL    HW225689   0.293   2.068   6.379
 8264SOL     OW25690   2.468   0.006   2.522
 8264SOL    HW125691   2.450   0.002   2.424
 8264SOL    HW225692   2.387   0.040   2.570
 8265SOL     OW25693   5.239   0.325   0.726
 8265SOL    HW125694   5.208   0.230   0.731
 8265SOL    HW225695   5.339   0.328   0.733
 8266SOL     OW25696   2.545   0.511   3.633
 8266SOL    HW125697   2.572   0.539   3.725
 8266SOL    HW225698   2.570   0.583   3.568
 8267SOL     OW25699   1.051   4.015   3.339
 8267SOL    HW125700   1.045   4.114   3.325
 8267SOL    HW225701   1.015   3.968   3.259
 8268SOL     OW25702   3.075   4.461   6.773
 8268SOL    HW125703   2.980   4.449   6.742
 8268SOL    HW225704   3.076   4.501   6.864
 8269SOL     OW25705   5.424   2.319   3.411
 8269SOL    HW125706   5.344   2.264   3.387
 8269SOL    HW225707   5.395   2.401   3.461
 8270SOL     OW25708   3.536   0.501   6.082
 8270SOL    HW125709   3.598   0.424   6.096
 8270SOL    HW225710   3.443   0.473   6.106
 8271SOL     OW25711   3.895   6.507   6.019
 8271SOL    HW125712   3.841   6.564   5.958
 8271SOL    HW225713   3.928   6.426   5.969
 8272SOL     OW25714   1.116   0.305   1.534
 8272SOL    HW125715   1.114   0.209   1.561
 8272SOL    HW225716   1.111   0.312   1.434
 8273SOL     OW25717   3.036   0.167   6.802
 8273SOL    HW125718   3.108   0.235   6.798
 8273SOL    HW225719   2.997   0.165   6.895
 8274SOL     OW25720   5.498   6.035   5.929
 8274SOL    HW125721   5.476   6.107   5.995
 8274SOL    HW225722   5.487   5.946   5.973
 8275SOL     OW25723   5.285   0.583   3.777
 8275SOL    HW125724   5.296   0.591   3.877
 8275SOL    HW225725   5.217   0.649   3.746
 8276SOL     OW25726   0.454   2.410   6.176
 8276SOL    HW125727   0.441   2.508   6.160
 8276SOL    HW225728   0.528   2.397   6.242
 8277SOL     OW25729   1.089   6.073   5.969
 8277SOL    HW125730   1.143   6.124   6.036
 8277SOL    HW225731   1.146   6.048   5.891
 8278SOL     OW25732   3.806   1.158   0.851
 8278SOL    HW125733   3.896   1.138   0.888
 8278SOL    HW225734   3.763   1.231   0.905
 8279SOL     OW25735   5.124   5.223   5.952
 8279SOL    HW125736   5.110   5.233   6.051
 8279SOL    HW225737   5.036   5.231   5.906
 8280SOL     OW25738   5.058   3.080   0.013
 8280SOL    HW125739   5.081   3.178   0.015
 8280SOL    HW225740   5.103   3.035   0.090
 8281SOL     OW25741   2.505   5.004   6.733
 8281SOL    HW125742   2.581   5.051   6.779
 8281SOL    HW225743   2.484   4.919   6.781
 8282SOL     OW25744   3.141   2.949   0.783
 8282SOL    HW125745   3.187   2.883   0.842
 8282SOL    HW225746   3.069   2.996   0.835
 8283SOL     OW25747   0.534   5.361   2.954
 8283SOL    HW125748   0.527   5.443   3.010
 8283SOL    HW225749   0.456   5.355   2.892
 8284SOL     OW25750   2.527   2.041   2.092
 8284SOL    HW125751   2.580   1.959   2.112
 8284SOL    HW225752   2.459   2.021   2.021
 8285SOL     OW25753   3.434   4.572   6.087
 8285SOL    HW125754   3.443   4.592   5.989
 8285SOL    HW225755   3.414   4.657   6.136
 8286SOL     OW25756   5.566   1.097   5.792
 8286SOL    HW125757   5.610   1.058   5.711
 8286SOL    HW225758   5.636   1.119   5.860
 8287SOL     OW25759   2.034   0.693   3.142
 8287SOL    HW125760   2.025   0.786   3.179
 8287SOL    HW225761   2.016   0.695   3.044
 8288SOL     OW25762   1.578   1.150   3.071
 8288SOL    HW125763   1.673   1.175   3.050
 8288SOL    HW225764   1.518   1.189   3.002
 8289SOL     OW25765   6.413   1.874   5.790
 8289SOL    HW125766   6.390   1.778   5.804
 8289SOL    HW225767   6.351   1.914   5.722
 8290SOL     OW25768   4.218   2.443   1.765
 8290SOL    HW125769   4.166   2.402   1.690
 8290SOL    HW225770   4.298   2.490   1.729
 8291SOL     OW25771   4.904   5.034   6.193
 8291SOL    HW125772   4.988   5.084   6.215
 8291SOL    HW225773   4.843   5.035   6.272
 8292SOL     OW25774   0.914   4.013   4.587
 8292SOL    HW125775   0.897   3.952   4.509
 8292SOL    HW225776   0.830   4.063   4.609
 8293SOL     OW25777   2.884   5.139   3.738
 8293SOL    HW125778   2.958   5.123   3.673
 8293SOL    HW225779   2.840   5.053   3.762
 8294SOL     OW25780   5.376   3.420   5.877
 8294SOL    HW125781   5.277   3.407   5.888
 8294SOL    HW225782   5.399   3.411   5.780
 8295SOL     OW25783   5.182   4.187   2.113
 8295SOL    HW125784   5.242   4.245   2.169
 8295SOL    HW225785   5.226   4.099   2.097
 8296SOL     OW25786   3.841   6.529   1.859
 8296SOL    HW125787   3.877   6.553   1.768
 8296SOL    HW225788   3.890   6.449   1.894
 8297SOL     OW25789   5.573   4.438   2.846
 8297SOL    HW125790   5.595   4.457   2.942
 8297SOL    HW225791   5.522   4.353   2.840
 8298SOL     OW25792   6.379   0.435   5.871
 8298SOL    HW125793   6.363   0.490   5.953
 8298SOL    HW225794   6.394   0.496   5.793
 8299SOL     OW25795   1.176   3.591   1.238
 8299SOL    HW125796   1.221   3.675   1.208
 8299SOL    HW225797   1.078   3.607   1.247
 8300SOL     OW25798   5.853   4.888   2.904
 8300SOL    HW125799   5.904   4.817   2.952
 8300SOL    HW225800   5.759   4.891   2.939
 8301SOL     OW25801   4.506   6.581   0.658
 8301SOL    HW125802   4.599   6.543   0.666
 8301SOL    HW225803   4.509   6.679   0.675
 8302SOL     OW25804   3.940   6.630   5.368
 8302SOL    HW125805   3.980   6.664   5.283
 8302SOL    HW225806   3.841   6.645   5.366
 8303SOL     OW25807   0.198   6.254   2.932
 8303SOL    HW125808   0.234   6.238   3.024
 8303SOL    HW225809   0.101   6.231   2.930
 8304SOL     OW25810   5.205   3.761   3.420
 8304SOL    HW125811   5.188   3.816   3.338
 8304SOL    HW225812   5.287   3.795   3.467
 8305SOL     OW25813   5.030   6.207   4.664
 8305SOL    HW125814   5.016   6.296   4.622
 8305SOL    HW225815   5.089   6.152   4.605
 8306SOL     OW25816   0.135   0.933   2.511
 8306SOL    HW125817   0.220   0.913   2.462
 8306SOL    HW225818   0.059   0.885   2.467
 8307SOL     OW25819   1.700   4.028   3.142
 8307SOL    HW125820   1.603   4.006   3.153
 8307SOL    HW225821   1.756   3.955   3.181
 8308SOL     OW25822   1.037   5.369   0.934
 8308SOL    HW125823   1.132   5.361   0.962
 8308SOL    HW225824   1.000   5.456   0.965
 8309SOL     OW25825   5.746   4.258   4.327
 8309SOL    HW125826   5.708   4.168   4.347
 8309SOL    HW225827   5.846   4.251   4.320
 8310SOL     OW25828   1.091   6.918   0.286
 8310SOL    HW125829   1.123   6.857   0.214
 8310SOL    HW225830   1.144   6.903   0.369
 8311SOL     OW25831   5.890   7.007   3.022
 8311SOL    HW125832   5.817   0.007   3.087
 8311SOL    HW225833   5.873   6.919   2.980
 8312SOL     OW25834   5.752   1.605   0.072
 8312SOL    HW125835   5.745   1.675   0.143
 8312SOL    HW225836   5.754   1.515   0.115
 8313SOL     OW25837   4.855   2.196   5.002
 8313SOL    HW125838   4.771   2.202   5.056
 8313SOL    HW225839   4.930   2.240   5.051
 8314SOL     OW25840   5.083   6.267   5.261
 8314SOL    HW125841   5.045   6.298   5.349
 8314SOL    HW225842   5.031   6.188   5.229
 8315SOL     OW25843   3.549   3.692   5.029
 8315SOL    HW125844   3.539   3.772   5.090
 8315SOL    HW225845   3.618   3.712   4.960
 8316SOL     OW25846   2.335   2.758   6.262
 8316SOL    HW125847   2.255   2.727   6.313
 8316SOL    HW225848   2.389   2.679   6.233
 8317SOL     OW25849   1.978   1.049   3.622
 8317SOL    HW125850   1.915   1.001   3.560
 8317SOL    HW225851   2.029   0.982   3.676
 8318SOL     OW25852   3.926   6.941   0.018
 8318SOL    HW125853   3.921   0.020   0.026
 8318SOL    HW225854   4.001   6.907   0.075
 8319SOL     OW25855   1.561   6.609   6.724
 8319SOL    HW125856   1.494   6.655   6.666
 8319SOL    HW225857   1.650   6.606   6.678
 8320SOL     OW25858   2.996   3.550   4.734
 8320SOL    HW125859   2.965   3.542   4.639
 8320SOL    HW225860   2.962   3.636   4.772
 8321SOL     OW25861   6.924   6.659   1.244
 8321SOL    HW125862   6.855   6.603   1.289
 8321SOL    HW225863   6.927   6.637   1.146
 8322SOL     OW25864   1.103   6.834   6.402
 8322SOL    HW125865   1.148   6.904   6.458
 8322SOL    HW225866   1.114   6.857   6.306
 8323SOL     OW25867   5.332   4.022   0.577
 8323SOL    HW125868   5.303   3.963   0.653
 8323SOL    HW225869   5.310   4.117   0.598
 8324SOL     OW25870   4.945   6.128   6.293
 8324SOL    HW125871   4.946   6.082   6.381
 8324SOL    HW225872   4.999   6.075   6.227
 8325SOL     OW25873   1.179   5.730   6.089
 8325SOL    HW125874   1.107   5.683   6.039
 8325SOL    HW225875   1.240   5.662   6.131
 8326SOL     OW25876   2.021   3.806   1.495
 8326SOL    HW125877   1.955   3.761   1.555
 8326SOL    HW225878   1.976   3.834   1.411
 8327SOL     OW25879   0.691   6.833   4.619
 8327SOL    HW125880   0.732   6.911   4.666
 8327SOL    HW225881   0.591   6.839   4.625
 8328SOL     OW25882   1.504   6.851   7.001
 8328SOL    HW125883   1.513   6.753   6.985
 8328SOL    HW225884   1.556   6.901   6.932
 8329SOL     OW25885   1.736   2.761   5.125
 8329SOL    HW125886   1.730   2.856   5.094
 8329SOL    HW225887   1.763   2.758   5.221
 8330SOL     OW25888   3.227   1.260   5.972
 8330SOL    HW125889   3.214   1.161   5.964
 8330SOL    HW225890   3.145   1.302   6.011
 8331SOL     OW25891   1.843   2.562   6.583
 8331SOL    HW125892   1.902   2.485   6.607
 8331SOL    HW225893   1.751   2.530   6.563
 8332SOL     OW25894   5.850   5.759   1.842
 8332SOL    HW125895   5.847   5.828   1.770
 8332SOL    HW225896   5.818   5.671   1.805
 8333SOL     OW25897   2.458   4.819   1.396
 8333SOL    HW125898   2.467   4.851   1.491
 8333SOL    HW225899   2.477   4.721   1.393
 8334SOL     OW25900   3.955   2.264   6.048
 8334SOL    HW125901   3.870   2.286   6.000
 8334SOL    HW225902   3.936   2.203   6.125
 8335SOL     OW25903   5.005   3.824   6.111
 8335SOL    HW125904   4.972   3.734   6.140
 8335SOL    HW225905   5.065   3.813   6.032
 8336SOL     OW25906   0.895   3.932   3.745
 8336SOL    HW125907   0.846   3.908   3.661
 8336SOL    HW225908   0.987   3.892   3.743
 8337SOL     OW25909   1.224   1.385   4.552
 8337SOL    HW125910   1.193   1.468   4.507
 8337SOL    HW225911   1.235   1.402   4.650
 8338SOL     OW25912   4.569   5.482   2.517
 8338SOL    HW125913   4.523   5.409   2.569
 8338SOL    HW225914   4.615   5.543   2.581
 8339SOL     OW25915   6.212   6.847   0.863
 8339SOL    HW125916   6.173   6.782   0.928
 8339SOL    HW225917   6.312   6.843   0.868
 8340SOL     OW25918   6.097   2.480   0.179
 8340SOL    HW125919   6.028   2.546   0.208
 8340SOL    HW225920   6.093   2.399   0.238
 8341SOL     OW25921   3.440   1.067   0.461
 8341SOL    HW125922   3.406   0.983   0.504
 8341SOL    HW225923   3.410   1.070   0.366
 8342SOL     OW25924   4.863   0.470   0.193
 8342SOL    HW125925   4.915   0.384   0.196
 8342SOL    HW225926   4.830   0.492   0.285
 8343SOL     OW25927   6.027   3.895   3.448
 8343SOL    HW125928   5.981   3.832   3.510
 8343SOL    HW225929   6.036   3.852   3.358
 8344SOL     OW25930   1.269   4.814   5.160
 8344SOL    HW125931   1.281   4.725   5.203
 8344SOL    HW225932   1.345   4.874   5.185
 8345SOL     OW25933   4.341   1.037   3.658
 8345SOL    HW125934   4.363   1.108   3.590
 8345SOL    HW225935   4.275   1.074   3.724
 8346SOL     OW25936   5.638   3.098   5.081
 8346SOL    HW125937   5.641   3.045   5.165
 8346SOL    HW225938   5.569   3.059   5.019
 8347SOL     OW25939   2.729   0.189   6.469
 8347SOL    HW125940   2.825   0.172   6.494
 8347SOL    HW225941   2.720   0.283   6.435
 8348SOL     OW25942   3.611   6.393   2.279
 8348SOL    HW125943   3.635   6.315   2.221
 8348SOL    HW225944   3.693   6.425   2.327
 8349SOL     OW25945   0.900   6.164   1.975
 8349SOL    HW125946   0.825   6.139   1.914
 8349SOL    HW225947   0.986   6.162   1.925
 8350SOL     OW25948   2.461   0.373   0.431
 8350SOL    HW125949   2.473   0.456   0.485
 8350SOL    HW225950   2.483   0.392   0.336
 8351SOL     OW25951   6.267   3.706   2.797
 8351SOL    HW125952   6.258   3.801   2.830
 8351SOL    HW225953   6.346   3.699   2.737
 8352SOL     OW25954   2.224   5.874   1.410
 8352SOL    HW125955   2.274   5.956   1.384
 8352SOL    HW225956   2.236   5.803   1.341
 8353SOL     OW25957   1.181   4.306   2.172
 8353SOL    HW125958   1.086   4.294   2.142
 8353SOL    HW225959   1.241   4.306   2.092
 8354SOL     OW25960   2.968   0.169   3.348
 8354SOL    HW125961   2.909   0.250   3.339
 8354SOL    HW225962   2.996   0.139   3.257
 8355SOL     OW25963   2.080   5.790   5.986
 8355SOL    HW125964   2.101   5.887   5.996
 8355SOL    HW225965   2.164   5.736   5.995
 8356SOL     OW25966   1.809   5.500   0.987
 8356SOL    HW125967   1.905   5.494   1.015
 8356SOL    HW225968   1.773   5.589   1.011
 8357SOL     OW25969   4.043   6.347   5.849
 8357SOL    HW125970   4.102   6.427   5.836
 8357SOL    HW225971   4.027   6.303   5.761
 8358SOL     OW25972   0.855   2.054   4.958
 8358SOL    HW125973   0.871   2.039   5.055
 8358SOL    HW225974   0.903   1.984   4.905
 8359SOL     OW25975   2.980   2.130   5.650
 8359SOL    HW125976   3.051   2.136   5.721
 8359SOL    HW225977   3.022   2.106   5.563
 8360SOL     OW25978   5.041   0.385   1.165
 8360SOL    HW125979   5.062   0.385   1.262
 8360SOL    HW225980   4.942   0.387   1.152
 8361SOL     OW25981   3.538   0.447   0.080
 8361SOL    HW125982   3.541   0.546   0.090
 8361SOL    HW225983   3.612   0.406   0.133
 8362SOL     OW25984   0.018   3.988   1.727
 8362SOL    HW125985   0.065   3.908   1.765
 8362SOL    HW225986   0.085   4.060   1.710
 8363SOL     OW25987   2.724   2.885   6.737
 8363SOL    HW125988   2.722   2.887   6.837
 8363SOL    HW225989   2.775   2.964   6.703
 8364SOL     OW25990   6.705   2.904   4.459
 8364SOL    HW125991   6.798   2.888   4.425
 8364SOL    HW225992   6.639   2.886   4.386
 8365SOL     OW25993   1.720   2.698   2.424
 8365SOL    HW125994   1.737   2.795   2.409
 8365SOL    HW225995   1.632   2.687   2.471
 8366SOL     OW25996   4.928   5.564   1.903
 8366SOL    HW125997   4.937   5.465   1.914
 8366SOL    HW225998   4.966   5.610   1.984
 8367SOL     OW25999   4.070   4.907   4.356
 8367SOL    HW126000   4.003   4.930   4.426
 8367SOL    HW226001   4.153   4.872   4.399
 8368SOL     OW26002   6.769   6.891   0.667
 8368SOL    HW126003   6.826   6.962   0.708
 8368SOL    HW226004   6.789   6.803   0.710
 8369SOL     OW26005   2.104   0.521   0.456
 8369SOL    HW126006   2.069   0.592   0.395
 8369SOL    HW226007   2.193   0.548   0.492
 8370SOL     OW26008   2.812   3.108   0.636
 8370SOL    HW126009   2.730   3.126   0.582
 8370SOL    HW226010   2.873   3.187   0.631
 8371SOL     OW26011   1.681   4.897   6.281
 8371SOL    HW126012   1.626   4.908   6.364
 8371SOL    HW226013   1.753   4.829   6.298
 8372SOL     OW26014   2.419   5.282   2.594
 8372SOL    HW126015   2.499   5.282   2.654
 8372SOL    HW226016   2.431   5.353   2.524
 8373SOL     OW26017   0.092   0.939   4.637
 8373SOL    HW126018   0.169   0.964   4.696
 8373SOL    HW226019   0.057   1.020   4.591
 8374SOL     OW26020   1.746   0.443   4.327
 8374SOL    HW126021   1.681   0.513   4.358
 8374SOL    HW226022   1.784   0.396   4.406
 8375SOL     OW26023   4.027   1.223   4.338
 8375SOL    HW126024   4.009   1.221   4.437
 8375SOL    HW226025   4.007   1.314   4.302
 8376SOL     OW26026   2.087   1.019   2.981
 8376SOL    HW126027   2.050   1.052   2.894
 8376SOL    HW226028   2.047   0.930   3.003
 8377SOL     OW26029   4.872   5.872   6.945
 8377SOL    HW126030   4.790   5.824   6.977
 8377SOL    HW226031   4.848   5.930   6.867
 8378SOL     OW26032   5.974   5.795   3.614
 8378SOL    HW126033   5.894   5.836   3.569
 8378SOL    HW226034   6.044   5.865   3.627
 8379SOL     OW26035   6.059   1.306   2.075
 8379SOL    HW126036   6.127   1.360   2.125
 8379SOL    HW226037   5.988   1.276   2.138
 8380SOL     OW26038   6.190   5.623   0.456
 8380SOL    HW126039   6.113   5.678   0.490
 8380SOL    HW226040   6.268   5.682   0.439
 8381SOL     OW26041   0.236   1.957   1.925
 8381SOL    HW126042   0.283   2.025   1.870
 8381SOL    HW226043   0.167   2.001   1.982
 8382SOL     OW26044   2.477   0.628   0.595
 8382SOL    HW126045   2.430   0.598   0.678
 8382SOL    HW226046   2.576   0.631   0.611
 8383SOL     OW26047   2.768   6.048   6.217
 8383SOL    HW126048   2.834   6.117   6.187
 8383SOL    HW226049   2.816   5.970   6.257
 8384SOL     OW26050   0.970   2.650   0.787
 8384SOL    HW126051   1.037   2.693   0.726
 8384SOL    HW226052   0.990   2.552   0.795
 8385SOL     OW26053   3.573   4.137   1.179
 8385SOL    HW126054   3.662   4.103   1.149
 8385SOL    HW226055   3.516   4.156   1.100
 8386SOL     OW26056   2.098   5.787   1.862
 8386SOL    HW126057   2.167   5.842   1.815
 8386SOL    HW226058   2.144   5.721   1.922
 8387SOL     OW26059   1.588   1.091   2.332
 8387SOL    HW126060   1.491   1.108   2.346
 8387SOL    HW226061   1.613   1.116   2.238
 8388SOL     OW26062   3.535   0.029   1.271
 8388SOL    HW126063   3.472   7.013   1.203
 8388SOL    HW226064   3.483   0.066   1.348
 8389SOL     OW26065   1.052   2.661   4.214
 8389SOL    HW126066   0.957   2.664   4.184
 8389SOL    HW226067   1.096   2.578   4.179
 8390SOL     OW26068   2.487   0.655   5.835
 8390SOL    HW126069   2.580   0.641   5.802
 8390SOL    HW226070   2.476   0.612   5.925
 8391SOL     OW26071   5.343   5.884   1.654
 8391SOL    HW126072   5.382   5.821   1.588
 8391SOL    HW226073   5.264   5.841   1.699
 8392SOL     OW26074   5.688   5.916   5.280
 8392SOL    HW126075   5.632   5.999   5.287
 8392SOL    HW226076   5.725   5.909   5.188
 8393SOL     OW26077   0.277   6.242   3.211
 8393SOL    HW126078   0.333   6.296   3.273
 8393SOL    HW226079   0.255   6.154   3.254
 8394SOL     OW26080   0.775   2.058   3.039
 8394SOL    HW126081   0.785   2.006   3.124
 8394SOL    HW226082   0.761   2.155   3.061
 8395SOL     OW26083   6.600   5.872   5.170
 8395SOL    HW126084   6.648   5.909   5.250
 8395SOL    HW226085   6.501   5.875   5.186
 8396SOL     OW26086   4.834   3.564   2.332
 8396SOL    HW126087   4.847   3.485   2.272
 8396SOL    HW226088   4.736   3.579   2.346
 8397SOL     OW26089   1.885   6.390   2.689
 8397SOL    HW126090   1.821   6.378   2.613
 8397SOL    HW226091   1.873   6.317   2.756
 8398SOL     OW26092   4.396   1.362   0.367
 8398SOL    HW126093   4.350   1.311   0.294
 8398SOL    HW226094   4.403   1.458   0.342
 8399SOL     OW26095   5.651   6.311   0.351
 8399SOL    HW126096   5.705   6.318   0.267
 8399SOL    HW226097   5.691   6.368   0.422
 8400SOL     OW26098   0.284   0.281   2.692
 8400SOL    HW126099   0.197   0.233   2.704
 8400SOL    HW226100   0.302   0.293   2.595
 8401SOL     OW26101   3.549   4.690   6.424
 8401SOL    HW126102   3.481   4.728   6.362
 8401SOL    HW226103   3.520   4.706   6.519
 8402SOL     OW26104   4.560   1.641   6.880
 8402SOL    HW126105   4.537   1.588   6.799
 8402SOL    HW226106   4.613   1.584   6.943
 8403SOL     OW26107   1.297   1.384   4.802
 8403SOL    HW126108   1.347   1.464   4.834
 8403SOL    HW226109   1.360   1.308   4.787
 8404SOL     OW26110   4.535   5.616   5.646
 8404SOL    HW126111   4.588   5.644   5.726
 8404SOL    HW226112   4.596   5.573   5.579
 8405SOL     OW26113   0.454   2.216   5.712
 8405SOL    HW126114   0.514   2.265   5.775
 8405SOL    HW226115   0.465   2.117   5.726
 8406SOL     OW26116   5.298   2.033   1.584
 8406SOL    HW126117   5.236   2.090   1.638
 8406SOL    HW226118   5.389   2.036   1.625
 8407SOL     OW26119   4.887   4.179   3.236
 8407SOL    HW126120   4.852   4.097   3.192
 8407SOL    HW226121   4.851   4.260   3.190
 8408SOL     OW26122   4.690   2.174   4.148
 8408SOL    HW126123   4.598   2.206   4.170
 8408SOL    HW226124   4.727   2.229   4.073
 8409SOL     OW26125   1.006   1.509   3.984
 8409SOL    HW126126   0.972   1.465   3.901
 8409SOL    HW226127   1.090   1.463   4.014
 8410SOL     OW26128   4.251   6.762   1.496
 8410SOL    HW126129   4.186   6.698   1.454
 8410SOL    HW226130   4.201   6.829   1.551
 8411SOL     OW26131   1.755   4.369   4.437
 8411SOL    HW126132   1.657   4.378   4.421
 8411SOL    HW226133   1.771   4.308   4.514
 8412SOL     OW26134   4.996   2.751   3.165
 8412SOL    HW126135   4.944   2.670   3.191
 8412SOL    HW226136   5.069   2.768   3.231
 8413SOL     OW26137   3.623   4.724   0.771
 8413SOL    HW126138   3.528   4.707   0.798
 8413SOL    HW226139   3.677   4.749   0.851
 8414SOL     OW26140   3.959   6.484   3.186
 8414SOL    HW126141   3.898   6.503   3.263
 8414SOL    HW226142   3.911   6.503   3.101
 8415SOL     OW26143   6.397   4.192   3.123
 8415SOL    HW126144   6.340   4.116   3.152
 8415SOL    HW226145   6.363   4.227   3.035
 8416SOL     OW26146   5.337   3.731   2.252
 8416SOL    HW126147   5.242   3.700   2.252
 8416SOL    HW226148   5.388   3.681   2.322
 8417SOL     OW26149   2.203   5.990   6.120
 8417SOL    HW126150   2.117   6.036   6.143
 8417SOL    HW226151   2.223   5.920   6.188
 8418SOL     OW26152   7.010   5.774   2.910
 8418SOL    HW126153   0.005   5.807   2.817
 8418SOL    HW226154   0.063   5.714   2.937
 8419SOL     OW26155   4.316   0.670   3.156
 8419SOL    HW126156   4.332   0.587   3.103
 8419SOL    HW226157   4.310   0.647   3.253
 8420SOL     OW26158   3.640   0.683   5.788
 8420SOL    HW126159   3.665   0.775   5.818
 8420SOL    HW226160   3.542   0.680   5.769
 8421SOL     OW26161   1.767   6.466   2.100
 8421SOL    HW126162   1.802   6.552   2.138
 8421SOL    HW226163   1.753   6.401   2.175
 8422SOL     OW26164   4.531   0.025   0.941
 8422SOL    HW126165   4.513   6.965   0.997
 8422SOL    HW226166   4.474   0.101   0.974
 8423SOL     OW26167   3.424   4.368   0.765
 8423SOL    HW126168   3.357   4.295   0.747
 8423SOL    HW226169   3.516   4.332   0.753
 8424SOL     OW26170   3.535   1.699   3.137
 8424SOL    HW126171   3.614   1.752   3.169
 8424SOL    HW226172   3.455   1.759   3.132
 8425SOL     OW26173   6.323   5.129   0.813
 8425SOL    HW126174   6.283   5.188   0.883
 8425SOL    HW226175   6.268   5.136   0.729
 8426SOL     OW26176   3.773   3.523   3.158
 8426SOL    HW126177   3.831   3.458   3.108
 8426SOL    HW226178   3.822   3.556   3.239
 8427SOL     OW26179   2.213   4.108   6.456
 8427SOL    HW126180   2.200   4.190   6.511
 8427SOL    HW226181   2.298   4.116   6.403
 8428SOL     OW26182   0.146   3.972   2.117
 8428SOL    HW126183   0.152   3.999   2.213
 8428SOL    HW226184   0.097   3.886   2.110
 8429SOL     OW26185   1.795   6.081   3.567
 8429SOL    HW126186   1.764   5.986   3.570
 8429SOL    HW226187   1.727   6.137   3.521
 8430SOL     OW26188   4.326   4.646   2.792
 8430SOL    HW126189   4.374   4.559   2.784
 8430SOL    HW226190   4.393   4.719   2.806
 8431SOL     OW26191   3.036   4.913   1.520
 8431SOL    HW126192   3.047   4.921   1.619
 8431SOL    HW226193   3.126   4.913   1.476
 8432SOL     OW26194   3.839   6.604   6.500
 8432SOL    HW126195   3.892   6.545   6.439
 8432SOL    HW226196   3.752   6.628   6.456
 8433SOL     OW26197   1.523   2.386   6.178
 8433SOL    HW126198   1.524   2.360   6.082
 8433SOL    HW226199   1.527   2.303   6.235
 8434SOL     OW26200   5.020   6.204   5.607
 8434SOL    HW126201   5.103   6.249   5.641
 8434SOL    HW226202   5.010   6.116   5.653
 8435SOL     OW26203   4.422   2.088   1.666
 8435SOL    HW126204   4.470   2.160   1.716
 8435SOL    HW226205   4.459   1.999   1.691
 8436SOL     OW26206   4.450   4.533   1.819
 8436SOL    HW126207   4.461   4.434   1.804
 8436SOL    HW226208   4.441   4.551   1.917
 8437SOL     OW26209   1.011   1.894   0.801
 8437SOL    HW126210   0.993   1.796   0.802
 8437SOL    HW226211   1.101   1.911   0.760
 8438SOL     OW26212   1.489   4.811   2.609
 8438SOL    HW126213   1.576   4.798   2.656
 8438SOL    HW226214   1.448   4.723   2.588
 8439SOL     OW26215   6.718   5.469   2.325
 8439SOL    HW126216   6.637   5.524   2.344
 8439SOL    HW226217   6.800   5.523   2.339
 8440SOL     OW26218   0.865   1.099   1.887
 8440SOL    HW126219   0.964   1.107   1.881
 8440SOL    HW226220   0.823   1.151   1.812
 8441SOL     OW26221   4.768   5.638   6.184
 8441SOL    HW126222   4.781   5.575   6.108
 8441SOL    HW226223   4.815   5.604   6.265
 8442SOL     OW26224   2.142   4.711   6.796
 8442SOL    HW126225   2.148   4.766   6.713
 8442SOL    HW226226   2.047   4.709   6.827
 8443SOL     OW26227   1.869   0.269   2.912
 8443SOL    HW126228   1.808   0.192   2.930
 8443SOL    HW226229   1.852   0.341   2.979
 8444SOL     OW26230   3.697   6.457   3.363
 8444SOL    HW126231   3.710   6.360   3.383
 8444SOL    HW226232   3.651   6.468   3.275
 8445SOL     OW26233   3.777   4.852   2.899
 8445SOL    HW126234   3.810   4.918   2.967
 8445SOL    HW226235   3.854   4.816   2.846
 8446SOL     OW26236   5.556   4.658   2.507
 8446SOL    HW126237   5.543   4.754   2.531
 8446SOL    HW226238   5.652   4.634   2.518
 8447SOL     OW26239   4.898   2.133   1.809
 8447SOL    HW126240   4.833   2.108   1.880
 8447SOL    HW226241   4.851   2.140   1.721
 8448SOL     OW26242   0.248   3.656   6.740
 8448SOL    HW126243   0.322   3.715   6.707
 8448SOL    HW226244   0.245   3.659   6.840
 8449SOL     OW26245   1.096   3.092   4.459
 8449SOL    HW126246   0.997   3.080   4.469
 8449SOL    HW226247   1.132   3.140   4.539
 8450SOL     OW26248   2.407   5.935   2.795
 8450SOL    HW126249   2.472   5.893   2.858
 8450SOL    HW226250   2.344   5.993   2.847
 8451SOL     OW26251   3.888   2.879   1.395
 8451SOL    HW126252   3.834   2.950   1.349
 8451SOL    HW226253   3.838   2.846   1.475
 8452SOL     OW26254   6.880   0.374   1.059
 8452SOL    HW126255   6.980   0.371   1.055
 8452SOL    HW226256   6.852   0.404   1.151
 8453SOL     OW26257   6.520   3.961   6.074
 8453SOL    HW126258   6.422   3.964   6.055
 8453SOL    HW226259   6.536   3.951   6.172
 8454SOL     OW26260   1.721   0.004   3.911
 8454SOL    HW126261   1.736   0.080   3.974
 8454SOL    HW226262   1.653   0.031   3.842
 8455SOL     OW26263   4.495   1.462   1.052
 8455SOL    HW126264   4.401   1.457   1.018
 8455SOL    HW226265   4.520   1.375   1.094
 8456SOL     OW26266   5.272   5.491   3.328
 8456SOL    HW126267   5.325   5.477   3.412
 8456SOL    HW226268   5.292   5.417   3.263
 8457SOL     OW26269   0.098   6.646   5.926
 8457SOL    HW126270   0.185   6.673   5.884
 8457SOL    HW226271   0.029   6.716   5.909
 8458SOL     OW26272   1.838   1.782   0.442
 8458SOL    HW126273   1.786   1.719   0.383
 8458SOL    HW226274   1.934   1.755   0.443
 8459SOL     OW26275   3.794   5.649   2.468
 8459SOL    HW126276   3.743   5.703   2.535
 8459SOL    HW226277   3.754   5.557   2.461
 8460SOL     OW26278   4.638   1.758   0.529
 8460SOL    HW126279   4.551   1.801   0.554
 8460SOL    HW226280   4.707   1.781   0.597
 8461SOL     OW26281   6.892   3.814   1.285
 8461SOL    HW126282   6.799   3.820   1.250
 8461SOL    HW226283   6.905   3.882   1.357
 8462SOL     OW26284   3.561   4.368   6.200
 8462SOL    HW126285   3.496   4.429   6.154
 8462SOL    HW226286   3.622   4.423   6.257
 8463SOL     OW26287   0.212   1.762   6.985
 8463SOL    HW126288   0.126   1.769   6.934
 8463SOL    HW226289   0.193   1.741   0.060
 8464SOL     OW26290   0.452   2.985   6.945
 8464SOL    HW126291   0.374   3.045   6.926
 8464SOL    HW226292   0.420   2.892   6.958
 8465SOL     OW26293   4.080   2.936   1.140
 8465SOL    HW126294   4.056   2.856   1.196
 8465SOL    HW226295   4.068   2.915   1.043
 8466SOL     OW26296   5.531   0.465   5.072
 8466SOL    HW126297   5.446   0.511   5.047
 8466SOL    HW226298   5.571   0.509   5.152
 8467SOL     OW26299   3.280   1.180   0.935
 8467SOL    HW126300   3.222   1.228   0.868
 8467SOL    HW226301   3.364   1.150   0.890
 8468SOL     OW26302   6.071   3.344   6.972
 8468SOL    HW126303   6.099   3.341   0.047
 8468SOL    HW226304   6.129   3.408   6.922
 8469SOL     OW26305   3.736   2.434   5.718
 8469SOL    HW126306   3.774   2.353   5.760
 8469SOL    HW226307   3.639   2.443   5.743
 8470SOL     OW26308   1.035   4.830   1.182
 8470SOL    HW126309   1.070   4.895   1.115
 8470SOL    HW226310   1.078   4.847   1.270
 8471SOL     OW26311   3.522   1.377   5.410
 8471SOL    HW126312   3.571   1.302   5.367
 8471SOL    HW226313   3.472   1.429   5.341
 8472SOL     OW26314   5.747   1.231   6.243
 8472SOL    HW126315   5.770   1.325   6.217
 8472SOL    HW226316   5.667   1.201   6.190
 8473SOL     OW26317   4.785   4.638   6.661
 8473SOL    HW126318   4.851   4.712   6.674
 8473SOL    HW226319   4.745   4.613   6.749
 8474SOL     OW26320   3.065   3.638   2.345
 8474SOL    HW126321   3.058   3.538   2.348
 8474SOL    HW226322   3.160   3.665   2.362
 8475SOL     OW26323   6.728   3.261   1.692
 8475SOL    HW126324   6.652   3.214   1.737
 8475SOL    HW226325   6.714   3.360   1.699
 8476SOL     OW26326   6.320   0.207   1.642
 8476SOL    HW126327   6.239   0.160   1.676
 8476SOL    HW226328   6.390   0.140   1.617
 8477SOL     OW26329   5.388   6.742   1.313
 8477SOL    HW126330   5.463   6.695   1.267
 8477SOL    HW226331   5.414   6.836   1.332
 8478SOL     OW26332   0.259   0.082   5.308
 8478SOL    HW126333   0.271   0.016   5.234
 8478SOL    HW226334   0.349   0.114   5.339
 8479SOL     OW26335   1.419   2.397   1.443
 8479SOL    HW126336   1.506   2.388   1.393
 8479SOL    HW226337   1.437   2.437   1.532
 8480SOL     OW26338   4.941   3.795   0.149
 8480SOL    HW126339   5.004   3.873   0.147
 8480SOL    HW226340   4.869   3.813   0.216
 8481SOL     OW26341   3.935   2.185   4.020
 8481SOL    HW126342   3.980   2.185   3.931
 8481SOL    HW226343   3.992   2.233   4.087
 8482SOL     OW26344   4.416   1.209   0.021
 8482SOL    HW126345   4.338   1.147   0.022
 8482SOL    HW226346   4.495   1.164   0.064
 8483SOL     OW26347   3.145   5.972   3.606
 8483SOL    HW126348   3.183   5.953   3.696
 8483SOL    HW226349   3.085   6.052   3.612
 8484SOL     OW26350   6.373   5.839   4.555
 8484SOL    HW126351   6.436   5.770   4.519
 8484SOL    HW226352   6.426   5.909   4.604
 8485SOL     OW26353   3.334   2.475   6.901
 8485SOL    HW126354   3.278   2.475   6.984
 8485SOL    HW226355   3.418   2.527   6.917
 8486SOL     OW26356   1.379   1.004   2.504
 8486SOL    HW126357   1.458   1.059   2.532
 8486SOL    HW226358   1.295   1.057   2.518
 8487SOL     OW26359   5.182   1.850   5.950
 8487SOL    HW126360   5.095   1.874   5.994
 8487SOL    HW226361   5.255   1.848   6.018
 8488SOL     OW26362   5.079   5.807   2.029
 8488SOL    HW126363   5.042   5.791   2.121
 8488SOL    HW226364   5.143   5.733   2.006
 8489SOL     OW26365   5.442   0.923   1.552
 8489SOL    HW126366   5.348   0.929   1.586
 8489SOL    HW226367   5.476   0.830   1.566
 8490SOL     OW26368   2.318   6.888   0.024
 8490SOL    HW126369   2.362   6.826   6.979
 8490SOL    HW226370   2.361   6.978   0.020
 8491SOL     OW26371   2.811   6.131   2.416
 8491SOL    HW126372   2.813   6.230   2.404
 8491SOL    HW226373   2.905   6.096   2.417
 8492SOL     OW26374   5.963   4.322   4.605
 8492SOL    HW126375   5.982   4.316   4.507
 8492SOL    HW226376   6.049   4.323   4.656
 8493SOL     OW26377   3.726   1.148   0.287
 8493SOL    HW126378   3.756   1.178   0.377
 8493SOL    HW226379   3.626   1.139   0.286
 8494SOL     OW26380   5.942   5.237   1.910
 8494SOL    HW126381   5.858   5.198   1.872
 8494SOL    HW226382   5.922   5.285   1.995
 8495SOL     OW26383   6.736   6.044   0.290
 8495SOL    HW126384   6.741   6.141   0.316
 8495SOL    HW226385   6.716   6.036   0.193
 8496SOL     OW26386   4.794   1.538   1.923
 8496SOL    HW126387   4.779   1.445   1.956
 8496SOL    HW226388   4.861   1.537   1.848
 8497SOL     OW26389   6.728   0.963   3.868
 8497SOL    HW126390   6.779   1.047   3.886
 8497SOL    HW226391   6.701   0.921   3.955
 8498SOL     OW26392   4.639   6.874   4.448
 8498SOL    HW126393   4.544   6.845   4.436
 8498SOL    HW226394   4.678   6.826   4.528
 8499SOL     OW26395   6.827   5.832   6.899
 8499SOL    HW126396   6.868   5.916   6.935
 8499SOL    HW226397   6.899   5.771   6.866
 8500SOL     OW26398   1.942   0.507   5.921
 8500SOL    HW126399   2.005   0.585   5.935
 8500SOL    HW226400   1.885   0.496   6.003
 8501SOL     OW26401   0.964   1.259   0.501
 8501SOL    HW126402   0.977   1.347   0.455
 8501SOL    HW226403   0.866   1.241   0.511
 8502SOL     OW26404   0.687   2.985   6.631
 8502SOL    HW126405   0.721   2.949   6.718
 8502SOL    HW226406   0.718   3.079   6.619
 8503SOL     OW26407   6.186   6.140   4.205
 8503SOL    HW126408   6.283   6.121   4.185
 8503SOL    HW226409   6.137   6.156   4.120
 8504SOL     OW26410   2.400   5.024   2.523
 8504SOL    HW126411   2.493   4.986   2.525
 8504SOL    HW226412   2.404   5.122   2.538
 8505SOL     OW26413   5.153   3.159   2.676
 8505SOL    HW126414   5.167   3.108   2.591
 8505SOL    HW226415   5.214   3.238   2.678
 8506SOL     OW26416   2.357   0.167   6.978
 8506SOL    HW126417   2.453   0.187   6.995
 8506SOL    HW226418   2.343   0.151   6.880
 8507SOL     OW26419   4.787   6.709   5.619
 8507SOL    HW126420   4.719   6.782   5.627
 8507SOL    HW226421   4.791   6.678   5.524
 8508SOL     OW26422   4.392   1.600   0.233
 8508SOL    HW126423   4.339   1.600   0.148
 8508SOL    HW226424   4.386   1.690   0.275
 8509SOL     OW26425   6.259   0.459   3.584
 8509SOL    HW126426   6.348   0.494   3.556
 8509SOL    HW226427   6.260   0.359   3.581
 8510SOL     OW26428   5.423   2.284   4.377
 8510SOL    HW126429   5.452   2.189   4.369
 8510SOL    HW226430   5.399   2.304   4.472
 8511SOL     OW26431   5.874   2.725   2.044
 8511SOL    HW126432   5.920   2.768   2.121
 8511SOL    HW226433   5.776   2.745   2.048
 8512SOL     OW26434   1.886   6.848   4.247
 8512SOL    HW126435   1.904   6.943   4.223
 8512SOL    HW226436   1.788   6.830   4.246
 8513SOL     OW26437   6.038   6.147   0.056
 8513SOL    HW126438   6.038   6.246   0.070
 8513SOL    HW226439   5.945   6.117   0.032
 8514SOL     OW26440   2.833   6.501   3.856
 8514SOL    HW126441   2.913   6.524   3.800
 8514SOL    HW226442   2.850   6.414   3.903
 8515SOL     OW26443   5.470   1.644   1.380
 8515SOL    HW126444   5.449   1.552   1.345
 8515SOL    HW226445   5.424   1.657   1.467
 8516SOL     OW26446   6.278   2.375   2.348
 8516SOL    HW126447   6.199   2.432   2.325
 8516SOL    HW226448   6.332   2.358   2.266
 8517SOL     OW26449   1.930   2.799   6.436
 8517SOL    HW126450   1.865   2.731   6.469
 8517SOL    HW226451   2.010   2.754   6.399
 8518SOL     OW26452   3.549   5.448   0.355
 8518SOL    HW126453   3.481   5.377   0.337
 8518SOL    HW226454   3.640   5.408   0.350
 8519SOL     OW26455   0.884   5.441   2.094
 8519SOL    HW126456   0.836   5.407   2.175
 8519SOL    HW226457   0.928   5.365   2.047
 8520SOL     OW26458   4.293   0.729   0.245
 8520SOL    HW126459   4.291   0.652   0.181
 8520SOL    HW226460   4.359   0.797   0.214
 8521SOL     OW26461   0.992   5.901   5.574
 8521SOL    HW126462   1.027   5.980   5.524
 8521SOL    HW226463   0.970   5.928   5.667
 8522SOL     OW26464   1.500   5.960   4.878
 8522SOL    HW126465   1.536   6.009   4.957
 8522SOL    HW226466   1.510   5.861   4.892
 8523SOL     OW26467   1.515   6.589   6.978
 8523SOL    HW126468   1.526   6.587   6.879
 8523SOL    HW226469   1.579   6.523   7.019
 8524SOL     OW26470   1.613   2.857   6.171
 8524SOL    HW126471   1.628   2.956   6.180
 8524SOL    HW226472   1.635   2.829   6.078
 8525SOL     OW26473   6.081   3.233   3.157
 8525SOL    HW126474   6.101   3.151   3.104
 8525SOL    HW226475   5.983   3.236   3.178
 8526SOL     OW26476   2.303   2.821   2.509
 8526SOL    HW126477   2.367   2.764   2.561
 8526SOL    HW226478   2.316   2.917   2.535
 8527SOL     OW26479   4.602   0.746   4.591
 8527SOL    HW126480   4.689   0.704   4.566
 8527SOL    HW226481   4.607   0.779   4.685
 8528SOL     OW26482   4.521   2.656   6.374
 8528SOL    HW126483   4.608   2.661   6.326
 8528SOL    HW226484   4.458   2.597   6.323
 8529SOL     OW26485   1.046   5.027   6.926
 8529SOL    HW126486   1.096   5.052   6.843
 8529SOL    HW226487   0.957   5.073   6.928
 8530SOL     OW26488   1.469   3.741   5.319
 8530SOL    HW126489   1.396   3.679   5.289
 8530SOL    HW226490   1.527   3.765   5.242
 8531SOL     OW26491   5.274   4.965   2.441
 8531SOL    HW126492   5.230   4.875   2.437
 8531SOL    HW226493   5.223   5.029   2.385
 8532SOL     OW26494   3.223   4.535   5.621
 8532SOL    HW126495   3.172   4.568   5.541
 8532SOL    HW226496   3.162   4.536   5.701
 8533SOL     OW26497   3.815   1.081   4.861
 8533SOL    HW126498   3.903   1.092   4.816
 8533SOL    HW226499   3.774   1.171   4.878
 8534SOL     OW26500   1.579   3.141   2.534
 8534SOL    HW126501   1.522   3.207   2.485
 8534SOL    HW226502   1.607   3.181   2.622
 8535SOL     OW26503   0.262   2.008   4.431
 8535SOL    HW126504   0.281   2.003   4.333
 8535SOL    HW226505   0.319   2.080   4.472
 8536SOL     OW26506   0.402   1.246   5.938
 8536SOL    HW126507   0.378   1.309   6.011
 8536SOL    HW226508   0.468   1.179   5.972
 8537SOL     OW26509   5.658   0.457   1.875
 8537SOL    HW126510   5.613   0.546   1.871
 8537SOL    HW226511   5.656   0.423   1.970
 8538SOL     OW26512   6.090   0.813   5.007
 8538SOL    HW126513   6.117   0.724   5.045
 8538SOL    HW226514   6.043   0.799   4.920
 8539SOL     OW26515   0.413   2.933   1.809
 8539SOL    HW126516   0.335   2.895   1.760
 8539SOL    HW226517   0.383   3.009   1.867
 8540SOL     OW26518   3.731   0.372   0.246
 8540SOL    HW126519   3.788   0.331   0.174
 8540SOL    HW226520   3.783   0.442   0.295
 8541SOL     OW26521   3.044   0.951   4.651
 8541SOL    HW126522   3.101   1.033   4.649
 8541SOL    HW226523   3.006   0.939   4.743
 8542SOL     OW26524   2.080   4.790   6.307
 8542SOL    HW126525   1.993   4.745   6.327
 8542SOL    HW226526   2.064   4.868   6.246
 8543SOL     OW26527   2.495   1.935   6.092
 8543SOL    HW126528   2.415   1.994   6.080
 8543SOL    HW226529   2.489   1.858   6.027
 8544SOL     OW26530   4.910   4.191   4.992
 8544SOL    HW126531   4.957   4.247   5.061
 8544SOL    HW226532   4.911   4.095   5.020
 8545SOL     OW26533   2.973   0.289   6.028
 8545SOL    HW126534   2.980   0.191   6.012
 8545SOL    HW226535   2.968   0.338   5.941
 8546SOL     OW26536   5.917   0.466   1.778
 8546SOL    HW126537   5.818   0.471   1.793
 8546SOL    HW226538   5.947   0.550   1.732
 8547SOL     OW26539   6.040   6.151   5.972
 8547SOL    HW126540   6.139   6.148   5.968
 8547SOL    HW226541   6.008   6.242   5.945
 8548SOL     OW26542   0.650   2.770   6.103
 8548SOL    HW126543   0.622   2.746   6.009
 8548SOL    HW226544   0.580   2.737   6.167
 8549SOL     OW26545   1.827   0.836   3.005
 8549SOL    HW126546   1.731   0.857   2.983
 8549SOL    HW226547   1.873   0.800   2.924
 8550SOL     OW26548   0.772   4.516   6.714
 8550SOL    HW126549   0.813   4.606   6.700
 8550SOL    HW226550   0.673   4.526   6.725
 8551SOL     OW26551   2.143   1.927   5.597
 8551SOL    HW126552   2.200   1.889   5.525
 8551SOL    HW226553   2.190   2.006   5.639
 8552SOL     OW26554   2.525   1.833   3.213
 8552SOL    HW126555   2.555   1.836   3.308
 8552SOL    HW226556   2.425   1.837   3.209
 8553SOL     OW26557   5.177   2.859   0.694
 8553SOL    HW126558   5.083   2.845   0.663
 8553SOL    HW226559   5.239   2.803   0.638
 8554SOL     OW26560   1.130   0.187   0.323
 8554SOL    HW126561   1.096   0.113   0.264
 8554SOL    HW226562   1.096   0.174   0.416
 8555SOL     OW26563   4.507   1.009   4.308
 8555SOL    HW126564   4.437   1.074   4.337
 8555SOL    HW226565   4.495   0.987   4.211
 8556SOL     OW26566   1.652   6.211   0.398
 8556SOL    HW126567   1.588   6.140   0.425
 8556SOL    HW226568   1.602   6.292   0.367
 8557SOL     OW26569   0.617   0.882   0.128
 8557SOL    HW126570   0.533   0.919   0.168
 8557SOL    HW226571   0.623   0.910   0.033
 8558SOL     OW26572   2.766   4.759   3.479
 8558SOL    HW126573   2.854   4.799   3.504
 8558SOL    HW226574   2.773   4.719   3.388
 8559SOL     OW26575   0.748   5.576   2.782
 8559SOL    HW126576   0.816   5.578   2.855
 8559SOL    HW226577   0.699   5.663   2.779
 8560SOL     OW26578   2.967   4.178   1.752
 8560SOL    HW126579   3.053   4.175   1.803
 8560SOL    HW226580   2.927   4.270   1.759
 8561SOL     OW26581   4.897   6.706   2.300
 8561SOL    HW126582   4.829   6.753   2.243
 8561SOL    HW226583   4.882   6.730   2.396
 8562SOL     OW26584   4.351   0.800   6.930
 8562SOL    HW126585   4.404   0.792   6.846
 8562SOL    HW226586   4.385   0.735   6.997
 8563SOL     OW26587   1.705   5.277   2.406
 8563SOL    HW126588   1.805   5.286   2.413
 8563SOL    HW226589   1.683   5.189   2.365
 8564SOL     OW26590   4.515   0.725   6.710
 8564SOL    HW126591   4.510   0.776   6.624
 8564SOL    HW226592   4.509   0.627   6.692
 8565SOL     OW26593   2.843   5.478   1.547
 8565SOL    HW126594   2.855   5.387   1.506
 8565SOL    HW226595   2.779   5.531   1.491
 8566SOL     OW26596   3.488   0.906   2.877
 8566SOL    HW126597   3.420   0.978   2.892
 8566SOL    HW226598   3.571   0.928   2.928
 8567SOL     OW26599   2.235   2.236   1.950
 8567SOL    HW126600   2.166   2.237   1.878
 8567SOL    HW226601   2.302   2.164   1.932
 8568SOL     OW26602   6.974   1.055   0.119
 8568SOL    HW126603   0.035   1.044   0.063
 8568SOL    HW226604   6.916   0.973   0.110
 8569SOL     OW26605   4.878   2.205   6.571
 8569SOL    HW126606   4.780   2.195   6.590
 8569SOL    HW226607   4.922   2.250   6.649
 8570SOL     OW26608   1.740   3.300   4.217
 8570SOL    HW126609   1.744   3.388   4.263
 8570SOL    HW226610   1.666   3.245   4.256
 8571SOL     OW26611   1.355   0.740   3.449
 8571SOL    HW126612   1.275   0.684   3.431
 8571SOL    HW226613   1.389   0.722   3.542
 8572SOL     OW26614   3.049   3.988   5.580
 8572SOL    HW126615   3.062   4.069   5.523
 8572SOL    HW226616   3.002   4.014   5.664
 8573SOL     OW26617   3.619   6.222   0.745
 8573SOL    HW126618   3.701   6.254   0.792
 8573SOL    HW226619   3.635   6.217   0.647
 8574SOL     OW26620   6.168   6.602   5.562
 8574SOL    HW126621   6.108   6.622   5.485
 8574SOL    HW226622   6.233   6.677   5.574
 8575SOL     OW26623   2.927   6.390   3.001
 8575SOL    HW126624   3.020   6.385   3.038
 8575SOL    HW226625   2.867   6.434   3.067
 8576SOL     OW26626   0.645   4.225   3.653
 8576SOL    HW126627   0.578   4.299   3.657
 8576SOL    HW226628   0.619   4.153   3.717
 8577SOL     OW26629   1.961   1.724   6.764
 8577SOL    HW126630   2.003   1.649   6.815
 8577SOL    HW226631   1.912   1.784   6.828
 8578SOL     OW26632   6.138   6.971   5.736
 8578SOL    HW126633   6.077   6.978   5.658
 8578SOL    HW226634   6.157   0.042   5.772
 8579SOL     OW26635   3.271   5.808   2.422
 8579SOL    HW126636   3.174   5.805   2.445
 8579SOL    HW226637   3.320   5.865   2.488
 8580SOL     OW26638   1.751   0.566   1.290
 8580SOL    HW126639   1.838   0.521   1.312
 8580SOL    HW226640   1.766   0.665   1.284
 8581SOL     OW26641   3.363   4.845   1.050
 8581SOL    HW126642   3.450   4.805   1.079
 8581SOL    HW226643   3.325   4.792   0.975
 8582SOL     OW26644   3.616   4.458   5.503
 8582SOL    HW126645   3.539   4.439   5.564
 8582SOL    HW226646   3.638   4.376   5.451
 8583SOL     OW26647   4.401   0.401   3.055
 8583SOL    HW126648   4.474   0.431   2.993
 8583SOL    HW226649   4.315   0.395   3.004
 8584SOL     OW26650   6.730   1.218   4.297
 8584SOL    HW126651   6.660   1.236   4.228
 8584SOL    HW226652   6.820   1.236   4.259
 8585SOL     OW26653   5.069   1.862   1.815
 8585SOL    HW126654   5.043   1.922   1.890
 8585SOL    HW226655   5.076   1.916   1.730
 8586SOL     OW26656   6.119   5.739   0.951
 8586SOL    HW126657   6.038   5.686   0.977
 8586SOL    HW226658   6.190   5.677   0.919
 8587SOL     OW26659   1.933   1.391   5.868
 8587SOL    HW126660   1.939   1.291   5.869
 8587SOL    HW226661   1.971   1.425   5.781
 8588SOL     OW26662   2.983   1.526   6.814
 8588SOL    HW126663   3.020   1.557   6.902
 8588SOL    HW226664   3.058   1.513   6.750
 8589SOL     OW26665   6.961   2.939   6.151
 8589SOL    HW126666   6.893   2.960   6.222
 8589SOL    HW226667   6.995   3.024   6.111
 8590SOL     OW26668   1.232   1.437   2.581
 8590SOL    HW126669   1.251   1.468   2.674
 8590SOL    HW226670   1.301   1.474   2.519
 8591SOL     OW26671   6.613   5.011   7.003
 8591SOL    HW126672   6.710   5.033   6.989
 8591SOL    HW226673   6.563   5.093   0.008
 8592SOL     OW26674   1.346   2.058   6.205
 8592SOL    HW126675   1.263   2.103   6.238
 8592SOL    HW226676   1.347   1.963   6.235
 8593SOL     OW26677   3.460   0.827   6.400
 8593SOL    HW126678   3.560   0.823   6.399
 8593SOL    HW226679   3.423   0.737   6.424
 8594SOL     OW26680   6.664   2.633   5.677
 8594SOL    HW126681   6.627   2.679   5.758
 8594SOL    HW226682   6.711   2.549   5.705
 8595SOL     OW26683   5.090   6.391   2.544
 8595SOL    HW126684   5.158   6.404   2.471
 8595SOL    HW226685   5.137   6.364   2.628
 8596SOL     OW26686   0.511   2.717   3.514
 8596SOL    HW126687   0.523   2.641   3.449
 8596SOL    HW226688   0.567   2.794   3.486
 8597SOL     OW26689   6.114   3.082   0.814
 8597SOL    HW126690   6.065   3.130   0.742
 8597SOL    HW226691   6.122   3.140   0.895
 8598SOL     OW26692   5.487   0.122   4.249
 8598SOL    HW126693   5.460   0.062   4.325
 8598SOL    HW226694   5.419   0.116   4.176
 8599SOL     OW26695   1.010   2.785   3.829
 8599SOL    HW126696   1.086   2.731   3.865
 8599SOL    HW226697   0.985   2.856   3.895
 8600SOL     OW26698   4.106   2.694   1.380
 8600SOL    HW126699   4.040   2.767   1.393
 8600SOL    HW226700   4.099   2.628   1.455
 8601SOL     OW26701   0.995   0.024   3.262
 8601SOL    HW126702   0.980   0.101   3.200
 8601SOL    HW226703   0.907   7.001   3.282
 8602SOL     OW26704   2.236   6.784   4.218
 8602SOL    HW126705   2.329   6.750   4.202
 8602SOL    HW226706   2.194   6.733   4.294
 8603SOL     OW26707   0.027   0.686   0.831
 8603SOL    HW126708   7.007   0.712   0.918
 8603SOL    HW226709   7.014   0.596   0.804
 8604SOL     OW26710   0.162   3.984   6.019
 8604SOL    HW126711   0.245   3.965   6.071
 8604SOL    HW226712   0.088   4.006   6.082
 8605SOL     OW26713   0.095   4.824   4.239
 8605SOL    HW126714   0.122   4.864   4.152
 8605SOL    HW226715   0.167   4.763   4.273
 8606SOL     OW26716   2.385   2.732   0.040
 8606SOL    HW126717   2.426   2.723   0.131
 8606SOL    HW226718   2.297   2.779   0.048
 8607SOL     OW26719   2.489   4.359   1.593
 8607SOL    HW126720   2.483   4.275   1.647
 8607SOL    HW226721   2.567   4.353   1.531
 8608SOL     OW26722   2.188   4.783   2.928
 8608SOL    HW126723   2.232   4.873   2.919
 8608SOL    HW226724   2.090   4.795   2.945
 8609SOL     OW26725   4.362   1.143   3.999
 8609SOL    HW126726   4.432   1.193   3.948
 8609SOL    HW226727   4.326   1.201   4.071
 8610SOL     OW26728   0.574   6.654   2.822
 8610SOL    HW126729   0.606   6.708   2.744
 8610SOL    HW226730   0.570   6.712   2.903
 8611SOL     OW26731   2.531   1.576   4.251
 8611SOL    HW126732   2.582   1.632   4.316
 8611SOL    HW226733   2.489   1.499   4.300
 8612SOL     OW26734   4.112   3.360   3.167
 8612SOL    HW126735   4.115   3.445   3.221
 8612SOL    HW226736   4.049   3.295   3.211
 8613SOL     OW26737   3.420   2.934   1.153
 8613SOL    HW126738   3.516   2.934   1.182
 8613SOL    HW226739   3.374   2.855   1.193
 8614SOL     OW26740   1.340   2.465   2.089
 8614SOL    HW126741   1.400   2.428   2.160
 8614SOL    HW226742   1.335   2.565   2.099
 8615SOL     OW26743   3.935   1.320   3.730
 8615SOL    HW126744   3.895   1.301   3.820
 8615SOL    HW226745   3.878   1.279   3.659
 8616SOL     OW26746   4.312   4.742   2.484
 8616SOL    HW126747   4.229   4.790   2.513
 8616SOL    HW226748   4.314   4.651   2.525
 8617SOL     OW26749   4.234   0.238   4.081
 8617SOL    HW126750   4.284   0.162   4.123
 8617SOL    HW226751   4.293   0.318   4.075
 8618SOL     OW26752   5.243   3.757   1.326
 8618SOL    HW126753   5.172   3.824   1.303
 8618SOL    HW226754   5.298   3.737   1.245
 8619SOL     OW26755   5.524   4.313   1.152
 8619SOL    HW126756   5.608   4.328   1.100
 8619SOL    HW226757   5.547   4.277   1.243
 8620SOL     OW26758   1.793   0.836   4.526
 8620SOL    HW126759   1.725   0.840   4.453
 8620SOL    HW226760   1.878   0.796   4.491
 8621SOL     OW26761   5.200   2.501   1.739
 8621SOL    HW126762   5.134   2.576   1.727
 8621SOL    HW226763   5.292   2.534   1.720
 8622SOL     OW26764   6.533   5.141   3.072
 8622SOL    HW126765   6.474   5.220   3.093
 8622SOL    HW226766   6.538   5.081   3.152
 8623SOL     OW26767   6.472   2.955   4.735
 8623SOL    HW126768   6.569   2.932   4.730
 8623SOL    HW226769   6.422   2.881   4.780
 8624SOL     OW26770   2.947   4.138   5.773
 8624SOL    HW126771   2.936   4.227   5.728
 8624SOL    HW226772   2.941   4.151   5.872
 8625SOL     OW26773   4.226   2.125   5.656
 8625SOL    HW126774   4.146   2.066   5.662
 8625SOL    HW226775   4.201   2.218   5.682
 8626SOL     OW26776   4.494   4.140   0.534
 8626SOL    HW126777   4.475   4.205   0.461
 8626SOL    HW226778   4.582   4.161   0.576
 8627SOL     OW26779   1.847   0.854   2.644
 8627SOL    HW126780   1.763   0.799   2.645
 8627SOL    HW226781   1.878   0.866   2.549
 8628SOL     OW26782   0.632   6.575   0.425
 8628SOL    HW126783   0.672   6.594   0.514
 8628SOL    HW226784   0.705   6.563   0.357
 8629SOL     OW26785   0.273   0.321   4.465
 8629SOL    HW126786   0.274   0.408   4.515
 8629SOL    HW226787   0.351   0.265   4.493
 8630SOL     OW26788   5.198   2.975   2.482
 8630SOL    HW126789   5.167   2.963   2.388
 8630SOL    HW226790   5.149   2.912   2.542
 8631SOL     OW26791   3.008   5.815   6.961
 8631SOL    HW126792   3.022   5.825   0.039
 8631SOL    HW226793   2.997   5.906   6.919
 8632SOL     OW26794   4.480   4.435   5.363
 8632SOL    HW126795   4.462   4.337   5.356
 8632SOL    HW226796   4.425   4.475   5.436
 8633SOL     OW26797   5.596   3.573   5.873
 8633SOL    HW126798   5.577   3.568   5.971
 8633SOL    HW226799   5.518   3.536   5.822
 8634SOL     OW26800   5.314   4.518   0.878
 8634SOL    HW126801   5.217   4.540   0.884
 8634SOL    HW226802   5.328   4.422   0.903
 8635SOL     OW26803   6.086   2.763   6.422
 8635SOL    HW126804   6.054   2.778   6.515
 8635SOL    HW226805   6.134   2.676   6.416
 8636SOL     OW26806   4.964   6.695   0.980
 8636SOL    HW126807   5.010   6.657   0.900
 8636SOL    HW226808   5.033   6.719   1.049
 8637SOL     OW26809   2.342   2.046   6.543
 8637SOL    HW126810   2.373   2.130   6.500
 8637SOL    HW226811   2.365   1.968   6.484
 8638SOL     OW26812   4.473   2.886   5.365
 8638SOL    HW126813   4.459   2.806   5.308
 8638SOL    HW226814   4.384   2.927   5.388
 8639SOL     OW26815   4.309   3.295   6.484
 8639SOL    HW126816   4.365   3.363   6.437
 8639SOL    HW226817   4.234   3.267   6.424
 8640SOL     OW26818   3.072   3.337   1.652
 8640SOL    HW126819   3.051   3.344   1.554
 8640SOL    HW226820   3.006   3.277   1.696
 8641SOL     OW26821   4.612   6.089   2.709
 8641SOL    HW126822   4.711   6.099   2.693
 8641SOL    HW226823   4.572   6.038   2.633
 8642SOL     OW26824   1.628   6.327   4.217
 8642SOL    HW126825   1.529   6.335   4.203
 8642SOL    HW226826   1.646   6.283   4.305
 8643SOL     OW26827   3.622   6.980   0.977
 8643SOL    HW126828   3.532   6.952   1.010
 8643SOL    HW226829   3.658   0.031   1.037
 8644SOL     OW26830   5.848   1.337   6.605
 8644SOL    HW126831   5.906   1.417   6.621
 8644SOL    HW226832   5.859   1.272   6.680
 8645SOL     OW26833   6.093   4.254   2.089
 8645SOL    HW126834   6.039   4.216   2.165
 8645SOL    HW226835   6.066   4.209   2.004
 8646SOL     OW26836   0.221   1.528   5.780
 8646SOL    HW126837   0.145   1.532   5.844
 8646SOL    HW226838   0.306   1.509   5.829
 8647SOL     OW26839   2.399   4.693   1.953
 8647SOL    HW126840   2.478   4.634   1.970
 8647SOL    HW226841   2.324   4.638   1.916
 8648SOL     OW26842   5.845   5.298   0.852
 8648SOL    HW126843   5.877   5.335   0.765
 8648SOL    HW226844   5.834   5.199   0.844
 8649SOL     OW26845   4.493   6.901   0.672
 8649SOL    HW126846   4.588   6.877   0.653
 8649SOL    HW226847   4.490   6.968   0.747
 8650SOL     OW26848   1.986   6.673   4.007
 8650SOL    HW126849   1.901   6.635   4.043
 8650SOL    HW226850   2.029   6.731   4.076
 8651SOL     OW26851   3.162   2.094   1.182
 8651SOL    HW126852   3.089   2.026   1.186
 8651SOL    HW226853   3.191   2.106   1.087
 8652SOL     OW26854   1.672   3.988   3.800
 8652SOL    HW126855   1.732   3.971   3.879
 8652SOL    HW226856   1.719   4.047   3.735
 8653SOL     OW26857   0.104   1.356   6.283
 8653SOL    HW126858   0.016   1.394   6.254
 8653SOL    HW226859   0.178   1.404   6.236
 8654SOL     OW26860   0.896   4.583   1.850
 8654SOL    HW126861   0.866   4.671   1.814
 8654SOL    HW226862   0.851   4.509   1.800
 8655SOL     OW26863   0.108   1.023   5.342
 8655SOL    HW126864   0.056   1.101   5.308
 8655SOL    HW226865   0.057   0.979   5.416
 8656SOL     OW26866   5.402   0.327   1.319
 8656SOL    HW126867   5.370   0.422   1.319
 8656SOL    HW226868   5.489   0.322   1.367
 8657SOL     OW26869   5.364   0.899   2.510
 8657SOL    HW126870   5.349   0.812   2.557
 8657SOL    HW226871   5.395   0.882   2.417
 8658SOL     OW26872   0.217   5.009   0.745
 8658SOL    HW126873   0.122   4.979   0.745
 8658SOL    HW226874   0.229   5.081   0.677
 8659SOL     OW26875   4.848   1.283   2.302
 8659SOL    HW126876   4.913   1.356   2.324
 8659SOL    HW226877   4.809   1.299   2.211
 8660SOL     OW26878   0.263   3.128   1.388
 8660SOL    HW126879   0.298   3.105   1.297
 8660SOL    HW226880   0.239   3.225   1.391
 8661SOL     OW26881   6.156   3.465   2.814
 8661SOL    HW126882   6.213   3.394   2.855
 8661SOL    HW226883   6.209   3.550   2.806
 8662SOL     OW26884   3.101   5.175   2.931
 8662SOL    HW126885   3.115   5.182   2.832
 8662SOL    HW226886   3.052   5.090   2.951
 8663SOL     OW26887   3.592   5.806   3.308
 8663SOL    HW126888   3.632   5.898   3.308
 8663SOL    HW226889   3.640   5.749   3.241
 8664SOL     OW26890   2.652   5.366   3.005
 8664SOL    HW126891   2.704   5.355   3.090
 8664SOL    HW226892   2.570   5.420   3.023
 8665SOL     OW26893   5.860   3.546   6.170
 8665SOL    HW126894   5.773   3.596   6.165
 8665SOL    HW226895   5.853   3.472   6.237
 8666SOL     OW26896   4.629   6.743   3.321
 8666SOL    HW126897   4.697   6.810   3.289
 8666SOL    HW226898   4.626   6.666   3.257
 8667SOL     OW26899   4.832   1.926   4.143
 8667SOL    HW126900   4.800   2.021   4.145
 8667SOL    HW226901   4.867   1.901   4.233
 8668SOL     OW26902   4.939   3.054   5.154
 8668SOL    HW126903   4.882   2.992   5.100
 8668SOL    HW226904   4.887   3.086   5.233
 8669SOL     OW26905   6.084   6.540   6.235
 8669SOL    HW126906   6.168   6.512   6.190
 8669SOL    HW226907   6.027   6.460   6.253
 8670SOL     OW26908   6.223   4.536   5.779
 8670SOL    HW126909   6.262   4.445   5.788
 8670SOL    HW226910   6.273   4.588   5.710
 8671SOL     OW26911   6.914   2.046   2.608
 8671SOL    HW126912   6.848   2.109   2.567
 8671SOL    HW226913   6.880   1.952   2.599
 8672SOL     OW26914   6.905   1.069   3.664
 8672SOL    HW126915   6.945   0.984   3.631
 8672SOL    HW226916   6.812   1.052   3.697
 8673SOL     OW26917   1.015   1.888   1.100
 8673SOL    HW126918   0.994   1.896   1.003
 8673SOL    HW226919   1.022   1.979   1.141
 8674SOL     OW26920   6.909   4.733   2.836
 8674SOL    HW126921   6.866   4.763   2.751
 8674SOL    HW226922   6.985   4.796   2.858
 8675SOL     OW26923   3.992   1.962   5.634
 8675SOL    HW126924   3.901   1.961   5.594
 8675SOL    HW226925   3.992   1.914   5.721
 8676SOL     OW26926   5.564   1.039   0.882
 8676SOL    HW126927   5.516   1.121   0.915
 8676SOL    HW226928   5.499   0.963   0.876
 8677SOL     OW26929   1.277   6.908   5.505
 8677SOL    HW126930   1.260   6.811   5.526
 8677SOL    HW226931   1.249   6.964   5.583
 8678SOL     OW26932   2.090   1.103   0.945
 8678SOL    HW126933   2.186   1.088   0.919
 8678SOL    HW226934   2.062   1.032   1.009
 8679SOL     OW26935   2.122   1.406   4.679
 8679SOL    HW126936   2.215   1.422   4.645
 8679SOL    HW226937   2.056   1.451   4.618
 8680SOL     OW26938   6.896   1.976   6.122
 8680SOL    HW126939   6.886   1.993   6.024
 8680SOL    HW226940   6.829   2.029   6.173
 8681SOL     OW26941   5.464   5.762   1.133
 8681SOL    HW126942   5.366   5.758   1.113
 8681SOL    HW226943   5.481   5.830   1.204
 8682SOL     OW26944   0.632   0.555   1.113
 8682SOL    HW126945   0.690   0.618   1.165
 8682SOL    HW226946   0.670   0.543   1.021
 8683SOL     OW26947   2.407   4.421   4.722
 8683SOL    HW126948   2.412   4.375   4.810
 8683SOL    HW226949   2.353   4.366   4.658
 8684SOL     OW26950   0.307   3.258   4.693
 8684SOL    HW126951   0.253   3.338   4.719
 8684SOL    HW226952   0.248   3.178   4.689
 8685SOL     OW26953   4.905   2.449   5.377
 8685SOL    HW126954   4.813   2.453   5.416
 8685SOL    HW226955   4.933   2.353   5.367
 8686SOL     OW26956   0.035   5.922   2.687
 8686SOL    HW126957   6.961   5.946   2.665
 8686SOL    HW226958   0.094   6.002   2.676
 8687SOL     OW26959   5.852   3.393   3.910
 8687SOL    HW126960   5.885   3.468   3.967
 8687SOL    HW226961   5.912   3.382   3.831
 8688SOL     OW26962   0.939   4.243   6.459
 8688SOL    HW126963   0.877   4.178   6.416
 8688SOL    HW226964   0.963   4.314   6.393
 8689SOL     OW26965   4.740   4.031   6.660
 8689SOL    HW126966   4.672   3.996   6.597
 8689SOL    HW226967   4.829   4.036   6.615
 8690SOL     OW26968   2.133   1.952   3.530
 8690SOL    HW126969   2.125   1.900   3.615
 8690SOL    HW226970   2.157   1.891   3.455
 8691SOL     OW26971   2.844   2.273   5.101
 8691SOL    HW126972   2.939   2.278   5.071
 8691SOL    HW226973   2.786   2.325   5.038
 8692SOL     OW26974   4.310   1.784   5.820
 8692SOL    HW126975   4.304   1.748   5.727
 8692SOL    HW226976   4.332   1.710   5.884
 8693SOL     OW26977   6.312   0.585   6.121
 8693SOL    HW126978   6.408   0.612   6.131
 8693SOL    HW226979   6.253   0.655   6.161
 8694SOL     OW26980   5.526   3.742   4.158
 8694SOL    HW126981   5.458   3.676   4.124
 8694SOL    HW226982   5.601   3.748   4.093
 8695SOL     OW26983   3.525   4.618   5.826
 8695SOL    HW126984   3.614   4.589   5.860
 8695SOL    HW226985   3.484   4.545   5.772
 8696SOL     OW26986   3.111   5.742   5.934
 8696SOL    HW126987   3.210   5.751   5.938
 8696SOL    HW226988   3.085   5.679   5.861
 8697SOL     OW26989   1.378   3.889   5.937
 8697SOL    HW126990   1.376   3.801   5.985
 8697SOL    HW226991   1.379   3.873   5.838
 8698SOL     OW26992   5.538   5.707   5.153
 8698SOL    HW126993   5.582   5.788   5.116
 8698SOL    HW226994   5.517   5.721   5.250
 8699SOL     OW26995   1.788   3.174   0.062
 8699SOL    HW126996   1.768   3.260   0.014
 8699SOL    HW226997   1.807   3.193   0.158
 8700SOL     OW26998   0.806   0.250   5.056
 8700SOL    HW126999   0.752   0.324   5.097
 8700SOL    HW227000   0.810   0.173   5.119
 8701SOL     OW27001   1.027   1.880   6.964
 8701SOL    HW127002   1.030   1.785   6.995
 8701SOL    HW227003   0.990   1.884   6.871
 8702SOL     OW27004   5.811   4.158   1.371
 8702SOL    HW127005   5.834   4.065   1.400
 8702SOL    HW227006   5.712   4.164   1.357
 8703SOL     OW27007   2.786   4.822   1.537
 8703SOL    HW127008   2.758   4.740   1.585
 8703SOL    HW227009   2.885   4.834   1.545
 8704SOL     OW27010   1.161   2.234   3.684
 8704SOL    HW127011   1.121   2.279   3.604
 8704SOL    HW227012   1.231   2.169   3.654
 8705SOL     OW27013   4.361   2.462   0.022
 8705SOL    HW127014   4.278   2.514   0.002
 8705SOL    HW227015   4.427   2.475   6.969
 8706SOL     OW27016   4.953   3.373   6.313
 8706SOL    HW127017   4.935   3.282   6.351
 8706SOL    HW227018   4.905   3.442   6.366
 8707SOL     OW27019   1.375   1.787   4.220
 8707SOL    HW127020   1.403   1.872   4.265
 8707SOL    HW227021   1.345   1.807   4.127
 8708SOL     OW27022   5.594   1.931   2.163
 8708SOL    HW127023   5.529   1.864   2.127
 8708SOL    HW227024   5.684   1.915   2.124
 8709SOL     OW27025   6.596   0.461   5.488
 8709SOL    HW127026   6.695   0.450   5.500
 8709SOL    HW227027   6.550   0.374   5.506
 8710SOL     OW27028   2.156   1.171   4.025
 8710SOL    HW127029   2.239   1.179   3.970
 8710SOL    HW227030   2.087   1.117   3.975
 8711SOL     OW27031   1.492   0.275   1.761
 8711SOL    HW127032   1.547   0.306   1.839
 8711SOL    HW227033   1.519   0.325   1.679
 8712SOL     OW27034   1.917   2.752   5.732
 8712SOL    HW127035   1.948   2.677   5.674
 8712SOL    HW227036   1.992   2.816   5.748
 8713SOL     OW27037   0.230   4.728   1.639
 8713SOL    HW127038   0.251   4.786   1.561
 8713SOL    HW227039   0.186   4.783   1.711
 8714SOL     OW27040   6.729   6.623   6.842
 8714SOL    HW127041   6.808   6.561   6.839
 8714SOL    HW227042   6.760   6.716   6.825
 8715SOL     OW27043   2.761   2.203   0.603
 8715SOL    HW127044   2.818   2.199   0.521
 8715SOL    HW227045   2.816   2.175   0.682
 8716SOL     OW27046   6.826   6.454   1.580
 8716SOL    HW127047   6.781   6.434   1.493
 8716SOL    HW227048   6.910   6.505   1.562
 8717SOL     OW27049   2.668   4.505   0.609
 8717SOL    HW127050   2.735   4.543   0.672
 8717SOL    HW227051   2.593   4.571   0.595
 8718SOL     OW27052   2.312   4.389   6.131
 8718SOL    HW127053   2.255   4.310   6.109
 8718SOL    HW227054   2.266   4.472   6.099
 8719SOL     OW27055   3.843   0.991   5.514
 8719SOL    HW127056   3.839   0.964   5.610
 8719SOL    HW227057   3.933   1.029   5.493
 8720SOL     OW27058   6.758   4.115   5.099
 8720SOL    HW127059   6.777   4.043   5.165
 8720SOL    HW227060   6.680   4.169   5.131
 8721SOL     OW27061   0.069   6.963   6.322
 8721SOL    HW127062   0.111   6.890   6.268
 8721SOL    HW227063   0.075   6.940   6.419
 8722SOL     OW27064   4.093   1.139   1.740
 8722SOL    HW127065   4.025   1.147   1.667
 8722SOL    HW227066   4.181   1.174   1.707
 8723SOL     OW27067   4.896   6.817   2.554
 8723SOL    HW127068   4.967   6.887   2.545
 8723SOL    HW227069   4.915   6.760   2.634
 8724SOL     OW27070   4.077   0.766   4.798
 8724SOL    HW127071   3.997   0.748   4.740
 8724SOL    HW227072   4.084   0.695   4.868
 8725SOL     OW27073   0.259   6.428   4.493
 8725SOL    HW127074   0.172   6.403   4.451
 8725SOL    HW227075   0.300   6.504   4.441
 8726SOL     OW27076   1.039   1.215   0.745
 8726SOL    HW127077   1.117   1.157   0.721
 8726SOL    HW227078   0.985   1.235   0.663
 8727SOL     OW27079   5.385   5.269   6.270
 8727SOL    HW127080   5.386   5.368   6.280
 8727SOL    HW227081   5.442   5.243   6.192
 8728SOL     OW27082   6.430   1.064   3.103
 8728SOL    HW127083   6.464   1.053   3.010
 8728SOL    HW227084   6.507   1.075   3.166
 8729SOL     OW27085   3.337   5.455   6.620
 8729SOL    HW127086   3.403   5.507   6.674
 8729SOL    HW227087   3.372   5.444   6.526
 8730SOL     OW27088   4.796   5.084   1.806
 8730SOL    HW127089   4.795   5.037   1.718
 8730SOL    HW227090   4.727   5.042   1.866
 8731SOL     OW27091   0.595   2.046   3.529
 8731SOL    HW127092   0.653   2.070   3.451
 8731SOL    HW227093   0.509   2.096   3.521
 8732SOL     OW27094   5.196   5.571   0.765
 8732SOL    HW127095   5.197   5.473   0.784
 8732SOL    HW227096   5.176   5.586   0.669
 8733SOL     OW27097   6.624   4.908   2.247
 8733SOL    HW127098   6.671   4.965   2.314
 8733SOL    HW227099   6.551   4.961   2.203
 8734SOL     OW27100   0.179   3.290   1.929
 8734SOL    HW127101   0.080   3.293   1.916
 8734SOL    HW227102   0.218   3.379   1.905
 8735SOL     OW27103   1.717   3.814   5.907
 8735SOL    HW127104   1.620   3.791   5.894
 8735SOL    HW227105   1.763   3.813   5.819
 8736SOL     OW27106   0.663   5.712   2.064
 8736SOL    HW127107   0.754   5.700   2.025
 8736SOL    HW227108   0.650   5.808   2.089
 8737SOL     OW27109   1.532   5.834   6.847
 8737SOL    HW127110   1.462   5.853   6.779
 8737SOL    HW227111   1.573   5.744   6.830
 8738SOL     OW27112   1.310   3.619   3.423
 8738SOL    HW127113   1.406   3.593   3.438
 8738SOL    HW227114   1.253   3.537   3.420
 8739SOL     OW27115   5.394   4.350   4.929
 8739SOL    HW127116   5.349   4.374   5.016
 8739SOL    HW227117   5.453   4.271   4.943
 8740SOL     OW27118   3.095   1.457   4.092
 8740SOL    HW127119   3.121   1.530   4.028
 8740SOL    HW227120   2.997   1.464   4.111
 8741SOL     OW27121   1.003   6.921   2.632
 8741SOL    HW127122   0.967   7.009   2.600
 8741SOL    HW227123   1.083   6.896   2.578
 8742SOL     OW27124   3.050   1.638   2.758
 8742SOL    HW127125   3.134   1.652   2.811
 8742SOL    HW227126   3.048   1.702   2.681
 8743SOL     OW27127   1.740   1.022   1.397
 8743SOL    HW127128   1.645   0.995   1.376
 8743SOL    HW227129   1.743   1.120   1.416
 8744SOL     OW27130   3.704   4.444   6.445
 8744SOL    HW127131   3.754   4.450   6.531
 8744SOL    HW227132   3.657   4.530   6.427
 8745SOL     OW27133   6.401   1.783   6.541
 8745SOL    HW127134   6.396   1.717   6.466
 8745SOL    HW227135   6.494   1.818   6.549
 8746SOL     OW27136   4.921   5.078   4.511
 8746SOL    HW127137   4.952   5.019   4.436
 8746SOL    HW227138   4.832   5.046   4.543
 8747SOL     OW27139   0.229   0.684   1.848
 8747SOL    HW127140   0.319   0.727   1.852
 8747SOL    HW227141   0.226   0.621   1.770
 8748SOL     OW27142   1.013   2.405   3.501
 8748SOL    HW127143   1.082   2.477   3.514
 8748SOL    HW227144   0.922   2.446   3.504
 8749SOL     OW27145   2.623   1.357   5.515
 8749SOL    HW127146   2.554   1.337   5.585
 8749SOL    HW227147   2.683   1.430   5.547
 8750SOL     OW27148   4.031   2.521   6.106
 8750SOL    HW127149   4.085   2.521   6.190
 8750SOL    HW227150   4.007   2.427   6.083
 8751SOL     OW27151   0.372   5.894   2.009
 8751SOL    HW127152   0.365   5.925   2.103
 8751SOL    HW227153   0.466   5.863   1.991
 8752SOL     OW27154   4.768   3.416   6.583
 8752SOL    HW127155   4.709   3.440   6.659
 8752SOL    HW227156   4.772   3.492   6.518
 8753SOL     OW27157   1.503   2.942   0.236
 8753SOL    HW127158   1.539   2.850   0.251
 8753SOL    HW227159   1.424   2.957   0.295
 8754SOL     OW27160   3.079   5.410   6.714
 8754SOL    HW127161   3.051   5.454   6.800
 8754SOL    HW227162   3.169   5.446   6.687
 8755SOL     OW27163   0.418   2.257   2.520
 8755SOL    HW127164   0.386   2.350   2.538
 8755SOL    HW227165   0.393   2.197   2.596
 8756SOL     OW27166   1.951   2.432   3.202
 8756SOL    HW127167   1.896   2.379   3.137
 8756SOL    HW227168   1.935   2.399   3.295
 8757SOL     OW27169   5.325   6.191   5.182
 8757SOL    HW127170   5.238   6.234   5.206
 8757SOL    HW227171   5.309   6.099   5.146
 8758SOL     OW27172   3.418   6.538   3.890
 8758SOL    HW127173   3.453   6.521   3.798
 8758SOL    HW227174   3.394   6.452   3.933
 8759SOL     OW27175   6.137   1.424   0.401
 8759SOL    HW127176   6.091   1.464   0.322
 8759SOL    HW227177   6.217   1.373   0.370
 8760SOL     OW27178   2.251   2.276   4.508
 8760SOL    HW127179   2.270   2.218   4.429
 8760SOL    HW227180   2.227   2.218   4.586
 8761SOL     OW27181   4.740   0.762   2.365
 8761SOL    HW127182   4.676   0.780   2.440
 8761SOL    HW227183   4.728   0.832   2.294
 8762SOL     OW27184   1.533   4.979   3.176
 8762SOL    HW127185   1.472   4.917   3.226
 8762SOL    HW227186   1.500   5.073   3.186
 8763SOL     OW27187   0.747   1.310   5.956
 8763SOL    HW127188   0.716   1.286   5.864
 8763SOL    HW227189   0.838   1.273   5.971
 8764SOL     OW27190   3.686   5.163   5.721
 8764SOL    HW127191   3.600   5.130   5.759
 8764SOL    HW227192   3.741   5.086   5.690
 8765SOL     OW27193   5.396   6.460   4.916
 8765SOL    HW127194   5.378   6.537   4.977
 8765SOL    HW227195   5.318   6.397   4.918
 8766SOL     OW27196   4.927   4.624   5.607
 8766SOL    HW127197   4.978   4.549   5.648
 8766SOL    HW227198   4.880   4.593   5.525
 8767SOL     OW27199   2.949   0.923   3.679
 8767SOL    HW127200   3.022   0.862   3.650
 8767SOL    HW227201   2.949   1.006   3.623
 8768SOL     OW27202   6.546   2.418   0.257
 8768SOL    HW127203   6.601   2.396   0.337
 8768SOL    HW227204   6.605   2.428   0.177
 8769SOL     OW27205   0.224   1.327   0.688
 8769SOL    HW127206   0.227   1.425   0.704
 8769SOL    HW227207   0.159   1.307   0.614
 8770SOL     OW27208   4.812   4.053   2.045
 8770SOL    HW127209   4.834   3.959   2.068
 8770SOL    HW227210   4.769   4.056   1.955
 8771SOL     OW27211   0.244   3.419   6.592
 8771SOL    HW127212   0.302   3.343   6.623
 8771SOL    HW227213   0.245   3.492   6.660
 8772SOL     OW27214   5.694   0.166   3.752
 8772SOL    HW127215   5.689   0.157   3.653
 8772SOL    HW227216   5.643   0.091   3.796
 8773SOL     OW27217   0.309   1.231   3.919
 8773SOL    HW127218   0.408   1.242   3.928
 8773SOL    HW227219   0.284   1.136   3.937
 8774SOL     OW27220   1.682   0.508   0.805
 8774SOL    HW127221   1.684   0.409   0.788
 8774SOL    HW227222   1.637   0.554   0.729
 8775SOL     OW27223   5.156   1.747   4.508
 8775SOL    HW127224   5.189   1.837   4.482
 8775SOL    HW227225   5.169   1.733   4.607
 8776SOL     OW27226   4.167   3.057   0.154
 8776SOL    HW127227   4.175   3.151   0.185
 8776SOL    HW227228   4.162   3.055   0.054
 8777SOL     OW27229   0.934   1.959   3.366
 8777SOL    HW127230   0.931   1.949   3.466
 8777SOL    HW227231   0.853   1.915   3.326
 8778SOL     OW27232   4.096   4.877   5.962
 8778SOL    HW127233   4.094   4.852   5.865
 8778SOL    HW227234   4.014   4.930   5.984
 8779SOL     OW27235   3.449   5.068   3.485
 8779SOL    HW127236   3.397   5.027   3.560
 8779SOL    HW227237   3.512   5.136   3.523
 8780SOL     OW27238   6.334   5.332   3.154
 8780SOL    HW127239   6.269   5.256   3.157
 8780SOL    HW227240   6.302   5.406   3.213
 8781SOL     OW27241   3.771   6.136   2.416
 8781SOL    HW127242   3.849   6.117   2.356
 8781SOL    HW227243   3.724   6.219   2.386
 8782SOL     OW27244   4.801   0.806   1.796
 8782SOL    HW127245   4.769   0.765   1.881
 8782SOL    HW227246   4.829   0.734   1.733
 8783SOL     OW27247   5.072   3.479   5.047
 8783SOL    HW127248   4.986   3.527   5.027
 8783SOL    HW227249   5.056   3.381   5.046
 8784SOL     OW27250   5.556   6.572   0.723
 8784SOL    HW127251   5.469   6.622   0.718
 8784SOL    HW227252   5.538   6.477   0.749
 8785SOL     OW27253   0.914   5.851   5.921
 8785SOL    HW127254   0.826   5.850   5.873
 8785SOL    HW227255   0.954   5.942   5.914
 8786SOL     OW27256   3.848   1.858   2.185
 8786SOL    HW127257   3.791   1.797   2.239
 8786SOL    HW227258   3.834   1.841   2.087
 8787SOL     OW27259   3.259   0.058   1.483
 8787SOL    HW127260   3.311   7.006   1.526
 8787SOL    HW227261   3.218   0.117   1.553
 8788SOL     OW27262   0.555   0.211   4.428
 8788SOL    HW127263   0.627   0.156   4.385
 8788SOL    HW227264   0.584   0.306   4.432
 8789SOL     OW27265   0.192   2.928   5.124
 8789SOL    HW127266   0.227   2.952   5.215
 8789SOL    HW227267   0.132   3.001   5.092
 8790SOL     OW27268   5.277   2.547   6.613
 8790SOL    HW127269   5.369   2.576   6.636
 8790SOL    HW227270   5.247   2.476   6.677
 8791SOL     OW27271   4.131   5.291   6.048
 8791SOL    HW127272   4.050   5.319   5.996
 8791SOL    HW227273   4.104   5.269   6.141
 8792SOL     OW27274   5.264   5.425   1.089
 8792SOL    HW127275   5.241   5.491   1.161
 8792SOL    HW227276   5.337   5.462   1.032
 8793SOL     OW27277   0.237   4.356   4.405
 8793SOL    HW127278   0.193   4.318   4.487
 8793SOL    HW227279   0.336   4.351   4.415
 8794SOL     OW27280   0.462   0.672   2.143
 8794SOL    HW127281   0.498   0.662   2.235
 8794SOL    HW227282   0.363   0.655   2.144
 8795SOL     OW27283   1.709   5.169   5.382
 8795SOL    HW127284   1.736   5.078   5.350
 8795SOL    HW227285   1.610   5.173   5.390
 8796SOL     OW27286   6.807   3.397   3.546
 8796SOL    HW127287   6.764   3.487   3.541
 8796SOL    HW227288   6.788   3.346   3.461
 8797SOL     OW27289   5.531   0.012   3.868
 8797SOL    HW127290   5.525   6.969   3.791
 8797SOL    HW227291   5.514   6.984   3.953
 8798SOL     OW27292   4.183   6.633   5.785
 8798SOL    HW127293   4.169   6.701   5.858
 8798SOL    HW227294   4.119   6.650   5.710
 8799SOL     OW27295   1.833   5.090   1.847
 8799SOL    HW127296   1.836   5.060   1.943
 8799SOL    HW227297   1.903   5.042   1.795
 8800SOL     OW27298   0.098   6.026   5.385
 8800SOL    HW127299   0.143   5.943   5.351
 8800SOL    HW227300   0.145   6.107   5.350
 8801SOL     OW27301   6.079   2.617   5.402
 8801SOL    HW127302   6.108   2.692   5.461
 8801SOL    HW227303   5.983   2.629   5.377
 8802SOL     OW27304   1.390   6.489   5.510
 8802SOL    HW127305   1.413   6.494   5.413
 8802SOL    HW227306   1.311   6.548   5.529
 8803SOL     OW27307   6.305   0.207   6.538
 8803SOL    HW127308   6.395   0.191   6.580
 8803SOL    HW227309   6.239   0.142   6.575
 8804SOL     OW27310   1.397   5.950   2.209
 8804SOL    HW127311   1.416   6.048   2.205
 8804SOL    HW227312   1.327   5.927   2.142
 8805SOL     OW27313   4.938   4.930   2.605
 8805SOL    HW127314   4.951   4.862   2.677
 8805SOL    HW227315   4.958   4.889   2.516
 8806SOL     OW27316   2.044   6.781   0.232
 8806SOL    HW127317   2.066   6.816   0.323
 8806SOL    HW227318   2.069   6.684   0.226
 8807SOL     OW27319   4.865   2.610   1.441
 8807SOL    HW127320   4.798   2.658   1.384
 8807SOL    HW227321   4.957   2.634   1.411
 8808SOL     OW27322   2.360   2.271   0.882
 8808SOL    HW127323   2.442   2.271   0.938
 8808SOL    HW227324   2.281   2.298   0.937
 8809SOL     OW27325   1.301   3.881   3.413
 8809SOL    HW127326   1.214   3.923   3.384
 8809SOL    HW227327   1.291   3.782   3.413
 8810SOL     OW27328   0.589   1.099   6.063
 8810SOL    HW127329   0.634   1.188   6.065
 8810SOL    HW227330   0.548   1.080   6.152
 8811SOL     OW27331   4.202   6.009   2.530
 8811SOL    HW127332   4.176   6.104   2.546
 8811SOL    HW227333   4.120   5.952   2.523
 8812SOL     OW27334   4.235   1.480   6.508
 8812SOL    HW127335   4.187   1.466   6.421
 8812SOL    HW227336   4.326   1.439   6.502
 8813SOL     OW27337   2.166   4.578   3.434
 8813SOL    HW127338   2.231   4.507   3.461
 8813SOL    HW227339   2.194   4.666   3.472
 8814SOL     OW27340   5.507   6.681   6.604
 8814SOL    HW127341   5.547   6.590   6.613
 8814SOL    HW227342   5.576   6.745   6.571
 8815SOL     OW27343   5.341   1.119   0.628
 8815SOL    HW127344   5.398   1.056   0.574
 8815SOL    HW227345   5.372   1.213   0.614
 8816SOL     OW27346   0.462   6.607   5.386
 8816SOL    HW127347   0.496   6.573   5.298
 8816SOL    HW227348   0.449   6.706   5.380
 8817SOL     OW27349   1.701   2.881   4.505
 8817SOL    HW127350   1.718   2.907   4.600
 8817SOL    HW227351   1.690   2.963   4.449
 8818SOL     OW27352   1.979   6.801   4.507
 8818SOL    HW127353   2.045   6.726   4.499
 8818SOL    HW227354   1.968   6.846   4.418
 8819SOL     OW27355   5.654   4.684   5.940
 8819SOL    HW127356   5.706   4.745   6.001
 8819SOL    HW227357   5.705   4.671   5.855
 8820SOL     OW27358   3.268   0.313   4.331
 8820SOL    HW127359   3.360   0.335   4.299
 8820SOL    HW227360   3.215   0.397   4.339
 8821SOL     OW27361   0.963   4.735   0.308
 8821SOL    HW127362   1.009   4.792   0.240
 8821SOL    HW227363   0.930   4.792   0.383
 8822SOL     OW27364   6.951   6.880   4.040
 8822SOL    HW127365   7.014   6.802   4.038
 8822SOL    HW227366   6.962   6.934   3.957
 8823SOL     OW27367   3.689   1.041   3.048
 8823SOL    HW127368   3.765   1.088   3.002
 8823SOL    HW227369   3.725   0.978   3.116
 8824SOL     OW27370   2.015   1.035   1.475
 8824SOL    HW127371   1.919   1.048   1.502
 8824SOL    HW227372   2.047   1.117   1.427
 8825SOL     OW27373   6.779   6.907   6.834
 8825SOL    HW127374   6.862   6.908   6.778
 8825SOL    HW227375   6.802   6.934   6.927
 8826SOL     OW27376   0.535   3.432   0.618
 8826SOL    HW127377   0.547   3.429   0.717
 8826SOL    HW227378   0.625   3.434   0.574
 8827SOL     OW27379   4.227   7.004   2.281
 8827SOL    HW127380   4.299   7.001   2.350
 8827SOL    HW227381   4.157   6.936   2.303
 8828SOL     OW27382   4.092   3.197   6.374
 8828SOL    HW127383   4.107   3.107   6.415
 8828SOL    HW227384   4.005   3.234   6.405
 8829SOL     OW27385   0.479   1.911   2.415
 8829SOL    HW127386   0.450   1.850   2.341
 8829SOL    HW227387   0.473   2.006   2.385
 8830SOL     OW27388   2.983   1.770   3.647
 8830SOL    HW127389   2.963   1.735   3.555
 8830SOL    HW227390   2.898   1.800   3.690
 8831SOL     OW27391   0.252   2.572   1.933
 8831SOL    HW127392   0.205   2.507   1.992
 8831SOL    HW227393   0.207   2.575   1.844
 8832SOL     OW27394   6.484   0.336   4.085
 8832SOL    HW127395   6.438   0.335   3.996
 8832SOL    HW227396   6.552   0.409   4.087
 8833SOL     OW27397   3.178   3.243   0.731
 8833SOL    HW127398   3.266   3.287   0.748
 8833SOL    HW227399   3.189   3.143   0.735
 8834SOL     OW27400   5.236   3.692   5.627
 8834SOL    HW127401   5.319   3.651   5.589
 8834SOL    HW227402   5.158   3.632   5.608
 8835SOL     OW27403   6.154   1.071   5.440
 8835SOL    HW127404   6.217   1.031   5.374
 8835SOL    HW227405   6.150   1.170   5.427
 8836SOL     OW27406   5.133   1.701   0.303
 8836SOL    HW127407   5.067   1.642   0.350
 8836SOL    HW227408   5.181   1.758   0.370
 8837SOL     OW27409   5.854   6.835   1.373
 8837SOL    HW127410   5.886   6.785   1.453
 8837SOL    HW227411   5.835   6.930   1.399
 8838SOL     OW27412   0.275   4.548   2.925
 8838SOL    HW127413   0.260   4.635   2.972
 8838SOL    HW227414   0.236   4.553   2.833
 8839SOL     OW27415   5.123   5.846   2.889
 8839SOL    HW127416   5.074   5.789   2.822
 8839SOL    HW227417   5.100   5.815   2.981
 8840SOL     OW27418   0.139   1.187   1.428
 8840SOL    HW127419   0.101   1.150   1.343
 8840SOL    HW227420   0.200   1.119   1.470
 8841SOL     OW27421   3.520   1.548   1.773
 8841SOL    HW127422   3.543   1.564   1.869
 8841SOL    HW227423   3.420   1.545   1.763
 8842SOL     OW27424   3.488   3.247   4.142
 8842SOL    HW127425   3.404   3.222   4.191
 8842SOL    HW227426   3.507   3.344   4.156
 8843SOL     OW27427   1.657   4.123   5.599
 8843SOL    HW127428   1.739   4.176   5.577
 8843SOL    HW227429   1.648   4.116   5.699
 8844SOL     OW27430   5.004   1.835   5.249
 8844SOL    HW127431   4.916   1.872   5.277
 8844SOL    HW227432   4.989   1.755   5.191
 8845SOL     OW27433   0.813   4.977   2.128
 8845SOL    HW127434   0.853   5.026   2.205
 8845SOL    HW227435   0.862   4.890   2.114
 8846SOL     OW27436   5.569   4.910   3.222
 8846SOL    HW127437   5.547   4.984   3.157
 8846SOL    HW227438   5.530   4.931   3.311
 8847SOL     OW27439   2.423   2.155   2.663
 8847SOL    HW127440   2.455   2.170   2.757
 8847SOL    HW227441   2.412   2.243   2.617
 8848SOL     OW27442   3.829   1.835   1.398
 8848SOL    HW127443   3.796   1.929   1.394
 8848SOL    HW227444   3.820   1.793   1.307
 8849SOL     OW27445   3.034   5.192   4.324
 8849SOL    HW127446   3.094   5.197   4.403
 8849SOL    HW227447   2.939   5.180   4.354
 8850SOL     OW27448   3.284   1.661   1.161
 8850SOL    HW127449   3.229   1.678   1.079
 8850SOL    HW227450   3.239   1.591   1.217
 8851SOL     OW27451   0.295   5.139   3.208
 8851SOL    HW127452   0.394   5.124   3.204
 8851SOL    HW227453   0.268   5.162   3.301
 8852SOL     OW27454   5.232   2.328   5.801
 8852SOL    HW127455   5.224   2.274   5.717
 8852SOL    HW227456   5.220   2.425   5.779
 8853SOL     OW27457   4.336   0.808   5.564
 8853SOL    HW127458   4.394   0.727   5.559
 8853SOL    HW227459   4.378   0.882   5.511
 8854SOL     OW27460   2.184   1.656   6.158
 8854SOL    HW127461   2.244   1.734   6.150
 8854SOL    HW227462   2.101   1.672   6.105
 8855SOL     OW27463   6.148   5.605   6.713
 8855SOL    HW127464   6.230   5.661   6.698
 8855SOL    HW227465   6.148   5.571   6.807
 8856SOL     OW27466   5.884   1.000   5.100
 8856SOL    HW127467   5.920   0.915   5.062
 8856SOL    HW227468   5.788   1.011   5.073
 8857SOL     OW27469   6.416   2.025   3.971
 8857SOL    HW127470   6.412   2.044   4.069
 8857SOL    HW227471   6.371   2.098   3.921
 8858SOL     OW27472   0.532   3.439   6.352
 8858SOL    HW127473   0.516   3.340   6.358
 8858SOL    HW227474   0.450   3.488   6.380
 8859SOL     OW27475   1.450   5.936   5.679
 8859SOL    HW127476   1.478   5.915   5.773
 8859SOL    HW227477   1.358   5.976   5.680
 8860SOL     OW27478   1.098   1.953   2.918
 8860SOL    HW127479   1.005   1.970   2.884
 8860SOL    HW227480   1.093   1.920   3.013
 8861SOL     OW27481   4.246   3.745   0.325
 8861SOL    HW127482   4.269   3.698   0.410
 8861SOL    HW227483   4.287   3.836   0.325
 8862SOL     OW27484   5.825   1.519   4.413
 8862SOL    HW127485   5.861   1.451   4.476
 8862SOL    HW227486   5.792   1.598   4.464
 8863SOL     OW27487   2.229   5.805   4.956
 8863SOL    HW127488   2.272   5.881   5.005
 8863SOL    HW227489   2.299   5.738   4.931
 8864SOL     OW27490   1.800   3.041   6.472
 8864SOL    HW127491   1.731   2.978   6.508
 8864SOL    HW227492   1.885   2.991   6.454
 8865SOL     OW27493   2.823   2.238   5.988
 8865SOL    HW127494   2.784   2.170   6.050
 8865SOL    HW227495   2.813   2.206   5.894
 8866SOL     OW27496   3.550   6.499   3.648
 8866SOL    HW127497   3.622   6.481   3.581
 8866SOL    HW227498   3.462   6.471   3.609
 8867SOL     OW27499   5.946   2.133   3.697
 8867SOL    HW127500   5.866   2.188   3.670
 8867SOL    HW227501   5.962   2.144   3.795
 8868SOL     OW27502   4.800   4.134   0.241
 8868SOL    HW127503   4.736   4.059   0.222
 8868SOL    HW227504   4.790   4.162   0.337
 8869SOL     OW27505   4.771   2.863   3.460
 8869SOL    HW127506   4.683   2.816   3.467
 8869SOL    HW227507   4.778   2.905   3.369
 8870SOL     OW27508   4.259   1.319   0.744
 8870SOL    HW127509   4.220   1.297   0.655
 8870SOL    HW227510   4.356   1.294   0.744
 8871SOL     OW27511   2.295   1.797   3.382
 8871SOL    HW127512   2.326   1.740   3.459
 8871SOL    HW227513   2.252   1.739   3.313
 8872SOL     OW27514   1.567   3.840   4.520
 8872SOL    HW127515   1.484   3.798   4.482
 8872SOL    HW227516   1.552   3.938   4.533
 8873SOL     OW27517   0.325   5.293   4.592
 8873SOL    HW127518   0.337   5.205   4.548
 8873SOL    HW227519   0.286   5.280   4.683
 8874SOL     OW27520   2.853   0.479   0.684
 8874SOL    HW127521   2.826   0.434   0.769
 8874SOL    HW227522   2.888   0.570   0.704
 8875SOL     OW27523   1.705   2.464   4.313
 8875SOL    HW127524   1.782   2.517   4.348
 8875SOL    HW227525   1.729   2.423   4.225
 8876SOL     OW27526   0.655   0.748   4.920
 8876SOL    HW127527   0.625   0.742   4.825
 8876SOL    HW227528   0.576   0.768   4.979
 8877SOL     OW27529   2.795   0.150   4.710
 8877SOL    HW127530   2.868   0.086   4.734
 8877SOL    HW227531   2.738   0.165   4.791
 8878SOL     OW27532   6.983   4.155   6.852
 8878SOL    HW127533   6.969   4.158   6.753
 8878SOL    HW227534   0.035   4.090   6.873
 8879SOL     OW27535   5.670   6.366   6.839
 8879SOL    HW127536   5.645   6.367   6.742
 8879SOL    HW227537   5.664   6.459   6.876
 8880SOL     OW27538   6.579   4.868   4.292
 8880SOL    HW127539   6.499   4.834   4.342
 8880SOL    HW227540   6.661   4.856   4.347
 8881SOL     OW27541   0.120   1.422   1.574
 8881SOL    HW127542   0.122   1.333   1.529
 8881SOL    HW227543   0.079   1.489   1.512
 8882SOL     OW27544   5.450   1.835   6.886
 8882SOL    HW127545   5.397   1.825   6.802
 8882SOL    HW227546   5.436   1.754   6.944
 8883SOL     OW27547   6.318   0.629   5.662
 8883SOL    HW127548   6.282   0.694   5.729
 8883SOL    HW227549   6.357   0.679   5.584
 8884SOL     OW27550   6.039   0.200   6.345
 8884SOL    HW127551   6.000   0.260   6.276
 8884SOL    HW227552   6.127   0.237   6.375
 8885SOL     OW27553   5.493   3.779   1.803
 8885SOL    HW127554   5.463   3.713   1.872
 8885SOL    HW227555   5.416   3.799   1.742
 8886SOL     OW27556   3.003   6.877   5.872
 8886SOL    HW127557   3.064   6.800   5.887
 8886SOL    HW227558   2.970   6.876   5.778
 8887SOL     OW27559   2.784   0.809   0.926
 8887SOL    HW127560   2.721   0.821   0.849
 8887SOL    HW227561   2.734   0.778   1.006
 8888SOL     OW27562   2.711   1.682   1.831
 8888SOL    HW127563   2.655   1.743   1.776
 8888SOL    HW227564   2.774   1.736   1.887
 8889SOL     OW27565   4.368   0.048   4.536
 8889SOL    HW127566   4.289   7.015   4.505
 8889SOL    HW227567   4.347   0.092   4.623
 8890SOL     OW27568   0.237   5.267   4.858
 8890SOL    HW127569   0.210   5.322   4.937
 8890SOL    HW227570   0.314   5.208   4.882
 8891SOL     OW27571   4.977   2.623   6.260
 8891SOL    HW127572   5.039   2.661   6.329
 8891SOL    HW227573   4.980   2.523   6.264
 8892SOL     OW27574   1.777   0.489   3.090
 8892SOL    HW127575   1.831   0.453   3.166
 8892SOL    HW227576   1.792   0.588   3.082
 8893SOL     OW27577   0.429   1.620   0.868
 8893SOL    HW127578   0.405   1.691   0.802
 8893SOL    HW227579   0.437   1.661   0.959
 8894SOL     OW27580   4.231   2.479   6.323
 8894SOL    HW127581   4.250   2.384   6.295
 8894SOL    HW227582   4.228   2.484   6.423
 8895SOL     OW27583   0.618   6.722   2.029
 8895SOL    HW127584   0.549   6.652   2.051
 8895SOL    HW227585   0.575   6.812   2.032
 8896SOL     OW27586   2.121   4.310   4.673
 8896SOL    HW127587   2.170   4.333   4.590
 8896SOL    HW227588   2.113   4.210   4.681
 8897SOL     OW27589   1.710   1.602   1.568
 8897SOL    HW127590   1.750   1.694   1.559
 8897SOL    HW227591   1.754   1.540   1.502
 8898SOL     OW27592   6.166   3.916   4.137
 8898SOL    HW127593   6.254   3.915   4.184
 8898SOL    HW227594   6.125   3.825   4.138
 8899SOL     OW27595   1.814   4.885   0.635
 8899SOL    HW127596   1.857   4.958   0.581
 8899SOL    HW227597   1.715   4.900   0.637
 8900SOL     OW27598   4.774   2.389   2.907
 8900SOL    HW127599   4.785   2.341   2.820
 8900SOL    HW227600   4.787   2.326   2.983
 8901SOL     OW27601   1.249   0.119   2.574
 8901SOL    HW127602   1.154   0.148   2.562
 8901SOL    HW227603   1.251   0.031   2.621
 8902SOL     OW27604   1.382   5.469   5.959
 8902SOL    HW127605   1.320   5.396   5.931
 8902SOL    HW227606   1.411   5.521   5.879
 8903SOL     OW27607   2.106   1.814   3.769
 8903SOL    HW127608   2.157   1.738   3.807
 8903SOL    HW227609   2.019   1.781   3.732
 8904SOL     OW27610   0.205   6.139   3.755
 8904SOL    HW127611   0.233   6.135   3.659
 8904SOL    HW227612   0.116   6.094   3.765
 8905SOL     OW27613   2.305   3.462   5.568
 8905SOL    HW127614   2.207   3.440   5.569
 8905SOL    HW227615   2.355   3.393   5.620
 8906SOL     OW27616   6.743   6.371   5.903
 8906SOL    HW127617   6.759   6.273   5.910
 8906SOL    HW227618   6.812   6.420   5.955
 8907SOL     OW27619   3.227   2.704   5.303
 8907SOL    HW127620   3.162   2.637   5.339
 8907SOL    HW227621   3.321   2.674   5.323
 8908SOL     OW27622   1.577   1.915   1.500
 8908SOL    HW127623   1.517   1.885   1.574
 8908SOL    HW227624   1.672   1.902   1.527
 8909SOL     OW27625   2.389   0.811   6.757
 8909SOL    HW127626   2.462   0.869   6.721
 8909SOL    HW227627   2.368   0.837   6.851
 8910SOL     OW27628   2.687   3.405   6.805
 8910SOL    HW127629   2.655   3.342   6.876
 8910SOL    HW227630   2.689   3.358   6.716
 8911SOL     OW27631   3.455   2.107   4.729
 8911SOL    HW127632   3.535   2.120   4.671
 8911SOL    HW227633   3.379   2.162   4.693
 8912SOL     OW27634   4.676   1.577   5.899
 8912SOL    HW127635   4.582   1.606   5.914
 8912SOL    HW227636   4.725   1.575   5.986
 8913SOL     OW27637   4.966   4.231   1.437
 8913SOL    HW127638   4.910   4.181   1.372
 8913SOL    HW227639   4.920   4.234   1.526
 8914SOL     OW27640   3.300   1.818   4.989
 8914SOL    HW127641   3.315   1.773   5.078
 8914SOL    HW227642   3.241   1.897   5.002
 8915SOL     OW27643   1.622   3.775   2.597
 8915SOL    HW127644   1.565   3.760   2.516
 8915SOL    HW227645   1.564   3.782   2.678
 8916SOL     OW27646   6.961   4.343   2.979
 8916SOL    HW127647   0.040   4.332   2.989
 8916SOL    HW227648   6.916   4.256   2.995
 8917SOL     OW27649   6.175   5.937   0.186
 8917SOL    HW127650   6.126   6.008   0.135
 8917SOL    HW227651   6.123   5.851   0.181
 8918SOL     OW27652   5.149   5.607   6.356
 8918SOL    HW127653   5.196   5.572   6.437
 8918SOL    HW227654   5.215   5.627   6.285
 8919SOL     OW27655   3.378   5.074   1.411
 8919SOL    HW127656   3.348   5.092   1.504
 8919SOL    HW227657   3.298   5.065   1.351
 8920SOL     OW27658   6.144   5.389   5.562
 8920SOL    HW127659   6.171   5.336   5.482
 8920SOL    HW227660   6.173   5.341   5.645
 8921SOL     OW27661   0.854   0.684   3.841
 8921SOL    HW127662   0.811   0.640   3.763
 8921SOL    HW227663   0.799   0.762   3.871
 8922SOL     OW27664   1.579   4.582   0.830
 8922SOL    HW127665   1.511   4.653   0.810
 8922SOL    HW227666   1.622   4.600   0.918
 8923SOL     OW27667   1.874   4.254   6.535
 8923SOL    HW127668   1.807   4.326   6.518
 8923SOL    HW227669   1.965   4.286   6.510
 8924SOL     OW27670   3.171   5.038   5.164
 8924SOL    HW127671   3.200   5.086   5.246
 8924SOL    HW227672   3.072   5.027   5.164
 8925SOL     OW27673   6.989   0.168   2.314
 8925SOL    HW127674   0.044   0.164   2.379
 8925SOL    HW227675   6.927   0.242   2.339
 8926SOL     OW27676   5.590   2.495   1.515
 8926SOL    HW127677   5.624   2.454   1.600
 8926SOL    HW227678   5.532   2.429   1.467
 8927SOL     OW27679   2.283   2.576   5.005
 8927SOL    HW127680   2.300   2.656   4.948
 8927SOL    HW227681   2.339   2.500   4.974
 8928SOL     OW27682   0.639   0.093   5.865
 8928SOL    HW127683   0.657   0.142   5.950
 8928SOL    HW227684   0.726   0.064   5.824
 8929SOL     OW27685   0.171   3.648   3.753
 8929SOL    HW127686   0.230   3.567   3.762
 8929SOL    HW227687   0.148   3.682   3.843
 8930SOL     OW27688   1.299   5.011   4.494
 8930SOL    HW127689   1.200   5.012   4.488
 8930SOL    HW227690   1.332   4.917   4.493
 8931SOL     OW27691   4.674   1.582   1.447
 8931SOL    HW127692   4.641   1.507   1.505
 8931SOL    HW227693   4.719   1.544   1.366
 8932SOL     OW27694   6.382   0.554   6.499
 8932SOL    HW127695   6.471   0.526   6.462
 8932SOL    HW227696   6.311   0.534   6.432
 8933SOL     OW27697   1.644   0.168   4.832
 8933SOL    HW127698   1.556   0.216   4.835
 8933SOL    HW227699   1.666   0.132   4.922
 8934SOL     OW27700   3.433   5.366   2.821
 8934SOL    HW127701   3.443   5.455   2.776
 8934SOL    HW227702   3.355   5.369   2.884
 8935SOL     OW27703   4.440   2.332   2.655
 8935SOL    HW127704   4.440   2.420   2.607
 8935SOL    HW227705   4.446   2.257   2.588
 8936SOL     OW27706   0.545   5.146   1.646
 8936SOL    HW127707   0.509   5.182   1.560
 8936SOL    HW227708   0.643   5.162   1.650
 8937SOL     OW27709   6.688   6.644   3.950
 8937SOL    HW127710   6.668   6.717   4.016
 8937SOL    HW227711   6.784   6.618   3.957
 8938SOL     OW27712   6.632   1.222   0.628
 8938SOL    HW127713   6.629   1.176   0.539
 8938SOL    HW227714   6.663   1.157   0.697
 8939SOL     OW27715   0.390   2.714   3.965
 8939SOL    HW127716   0.345   2.759   4.042
 8939SOL    HW227717   0.451   2.779   3.920
 8940SOL     OW27718   6.735   3.093   1.111
 8940SOL    HW127719   6.706   3.002   1.141
 8940SOL    HW227720   6.800   3.130   1.178
 8941SOL     OW27721   5.124   2.233   1.702
 8941SOL    HW127722   5.161   2.309   1.756
 8941SOL    HW227723   5.042   2.197   1.747
 8942SOL     OW27724   6.118   4.533   3.675
 8942SOL    HW127725   6.043   4.466   3.681
 8942SOL    HW227726   6.199   4.496   3.721
 8943SOL     OW27727   5.016   3.783   6.917
 8943SOL    HW127728   4.983   3.790   7.011
 8943SOL    HW227729   5.107   3.741   6.917
 8944SOL     OW27730   4.755   5.544   4.075
 8944SOL    HW127731   4.704   5.627   4.058
 8944SOL    HW227732   4.694   5.474   4.114
 8945SOL     OW27733   5.815   4.298   5.395
 8945SOL    HW127734   5.759   4.308   5.477
 8945SOL    HW227735   5.851   4.205   5.391
 8946SOL     OW27736   5.494   0.966   4.395
 8946SOL    HW127737   5.530   1.056   4.419
 8946SOL    HW227738   5.515   0.901   4.468
 8947SOL     OW27739   1.770   5.227   5.996
 8947SOL    HW127740   1.697   5.223   6.065
 8947SOL    HW227741   1.739   5.180   5.913
 8948SOL     OW27742   6.569   0.988   3.456
 8948SOL    HW127743   6.592   1.072   3.506
 8948SOL    HW227744   6.628   0.981   3.376
 8949SOL     OW27745   3.081   6.241   0.165
 8949SOL    HW127746   3.043   6.152   0.192
 8949SOL    HW227747   3.007   6.308   0.157
 8950SOL     OW27748   4.811   4.153   1.210
 8950SOL    HW127749   4.712   4.161   1.224
 8950SOL    HW227750   4.830   4.129   1.115
 8951SOL     OW27751   1.826   1.662   4.540
 8951SOL    HW127752   1.798   1.757   4.555
 8951SOL    HW227753   1.923   1.660   4.515
 8952SOL     OW27754   2.055   4.753   3.815
 8952SOL    HW127755   2.060   4.654   3.797
 8952SOL    HW227756   2.127   4.778   3.880
 8953SOL     OW27757   1.590   5.139   2.091
 8953SOL    HW127758   1.677   5.109   2.130
 8953SOL    HW227759   1.522   5.067   2.101
 8954SOL     OW27760   1.226   5.233   4.905
 8954SOL    HW127761   1.175   5.256   4.823
 8954SOL    HW227762   1.322   5.257   4.893
 8955SOL     OW27763   5.475   2.649   3.778
 8955SOL    HW127764   5.548   2.583   3.760
 8955SOL    HW227765   5.514   2.731   3.820
 8956SOL     OW27766   0.946   5.617   5.629
 8956SOL    HW127767   0.953   5.716   5.627
 8956SOL    HW227768   1.029   5.579   5.671
 8957SOL     OW27769   0.858   5.628   2.447
 8957SOL    HW127770   0.867   5.583   2.358
 8957SOL    HW227771   0.907   5.575   2.516
 8958SOL     OW27772   1.672   4.001   5.185
 8958SOL    HW127773   1.768   3.990   5.158
 8958SOL    HW227774   1.617   4.024   5.105
 8959SOL     OW27775   0.124   3.116   2.494
 8959SOL    HW127776   0.199   3.180   2.480
 8959SOL    HW227777   0.048   3.164   2.540
 8960SOL     OW27778   5.670   4.196   3.913
 8960SOL    HW127779   5.611   4.250   3.853
 8960SOL    HW227780   5.624   4.180   4.000
 8961SOL     OW27781   3.098   6.741   5.123
 8961SOL    HW127782   3.031   6.670   5.146
 8961SOL    HW227783   3.168   6.702   5.063
 8962SOL     OW27784   0.674   5.696   1.545
 8962SOL    HW127785   0.678   5.774   1.482
 8962SOL    HW227786   0.589   5.646   1.530
 8963SOL     OW27787   3.397   5.842   4.535
 8963SOL    HW127788   3.297   5.843   4.540
 8963SOL    HW227789   3.428   5.760   4.487
 8964SOL     OW27790   0.099   2.800   4.577
 8964SOL    HW127791   0.027   2.826   4.512
 8964SOL    HW227792   0.101   2.700   4.587
 8965SOL     OW27793   4.580   5.535   0.175
 8965SOL    HW127794   4.616   5.448   0.208
 8965SOL    HW227795   4.638   5.610   0.209
 8966SOL     OW27796   5.261   5.262   6.562
 8966SOL    HW127797   5.354   5.240   6.534
 8966SOL    HW227798   5.252   5.362   6.570
 8967SOL     OW27799   3.032   0.046   3.106
 8967SOL    HW127800   2.989   0.097   3.032
 8967SOL    HW227801   3.001   6.972   3.104
 8968SOL     OW27802   3.499   4.864   2.260
 8968SOL    HW127803   3.566   4.835   2.192
 8968SOL    HW227804   3.546   4.908   2.336
 8969SOL     OW27805   6.940   1.207   3.284
 8969SOL    HW127806   0.007   1.242   3.249
 8969SOL    HW227807   6.921   1.247   3.373
 8970SOL     OW27808   1.855   0.779   5.775
 8970SOL    HW127809   1.926   0.760   5.843
 8970SOL    HW227810   1.898   0.800   5.687
 8971SOL     OW27811   4.445   5.509   0.592
 8971SOL    HW127812   4.489   5.569   0.659
 8971SOL    HW227813   4.515   5.460   0.541
 8972SOL     OW27814   6.369   4.585   0.798
 8972SOL    HW127815   6.350   4.486   0.793
 8972SOL    HW227816   6.395   4.618   0.707
 8973SOL     OW27817   0.518   2.524   1.996
 8973SOL    HW127818   0.518   2.426   2.014
 8973SOL    HW227819   0.426   2.553   1.970
 8974SOL     OW27820   1.978   4.311   4.258
 8974SOL    HW127821   1.893   4.307   4.310
 8974SOL    HW227822   1.998   4.405   4.232
 8975SOL     OW27823   0.586   0.074   6.220
 8975SOL    HW127824   0.635   0.004   6.169
 8975SOL    HW227825   0.488   0.062   6.207
 8976SOL     OW27826   6.573   6.679   1.770
 8976SOL    HW127827   6.637   6.713   1.701
 8976SOL    HW227828   6.522   6.757   1.808
 8977SOL     OW27829   0.193   5.032   5.850
 8977SOL    HW127830   0.259   5.085   5.903
 8977SOL    HW227831   0.214   4.934   5.859
 8978SOL     OW27832   5.590   5.403   5.738
 8978SOL    HW127833   5.688   5.400   5.719
 8978SOL    HW227834   5.541   5.434   5.656
 8979SOL     OW27835   0.826   5.120   5.788
 8979SOL    HW127836   0.875   5.042   5.826
 8979SOL    HW227837   0.743   5.087   5.742
 8980SOL     OW27838   3.414   0.839   4.791
 8980SOL    HW127839   3.384   0.777   4.863
 8980SOL    HW227840   3.399   0.934   4.819
 8981SOL     OW27841   3.920   3.039   6.831
 8981SOL    HW127842   3.856   2.994   6.894
 8981SOL    HW227843   4.006   3.057   6.879
 8982SOL     OW27844   0.710   1.175   1.392
 8982SOL    HW127845   0.617   1.212   1.393
 8982SOL    HW227846   0.753   1.195   1.304
 8983SOL     OW27847   1.192   6.873   2.399
 8983SOL    HW127848   1.101   6.874   2.357
 8983SOL    HW227849   1.218   6.779   2.421
 8984SOL     OW27850   6.072   0.190   4.040
 8984SOL    HW127851   5.988   0.203   4.093
 8984SOL    HW227852   6.105   0.096   4.053
 8985SOL     OW27853   4.541   2.954   0.872
 8985SOL    HW127854   4.522   2.944   0.970
 8985SOL    HW227855   4.549   2.864   0.830
 8986SOL     OW27856   0.524   5.270   0.670
 8986SOL    HW127857   0.535   5.312   0.581
 8986SOL    HW227858   0.435   5.224   0.674
 8987SOL     OW27859   2.080   0.096   1.111
 8987SOL    HW127860   2.131   0.164   1.057
 8987SOL    HW227861   2.009   0.055   1.054
 8988SOL     OW27862   0.909   5.613   1.452
 8988SOL    HW127863   0.825   5.658   1.483
 8988SOL    HW227864   0.927   5.533   1.509
 8989SOL     OW27865   5.116   1.615   1.937
 8989SOL    HW127866   5.104   1.710   1.909
 8989SOL    HW227867   5.212   1.589   1.927
 8990SOL     OW27868   3.677   0.581   1.946
 8990SOL    HW127869   3.713   0.534   1.865
 8990SOL    HW227870   3.716   0.539   2.028
 8991SOL     OW27871   2.131   2.526   0.357
 8991SOL    HW127872   2.095   2.470   0.431
 8991SOL    HW227873   2.145   2.470   0.276
 8992SOL     OW27874   0.412   3.378   0.348
 8992SOL    HW127875   0.472   3.384   0.268
 8992SOL    HW227876   0.468   3.379   0.431
 8993SOL     OW27877   5.670   3.127   3.835
 8993SOL    HW127878   5.720   3.176   3.906
 8993SOL    HW227879   5.572   3.130   3.855
 8994SOL     OW27880   0.611   5.180   3.204
 8994SOL    HW127881   0.648   5.089   3.186
 8994SOL    HW227882   0.630   5.240   3.126
 8995SOL     OW27883   1.776   3.799   4.711
 8995SOL    HW127884   1.736   3.778   4.622
 8995SOL    HW227885   1.746   3.731   4.778
 8996SOL     OW27886   0.132   4.064   2.678
 8996SOL    HW127887   0.198   4.135   2.699
 8996SOL    HW227888   0.170   4.001   2.610
 8997SOL     OW27889   4.603   1.641   5.303
 8997SOL    HW127890   4.503   1.634   5.294
 8997SOL    HW227891   4.636   1.711   5.240
 8998SOL     OW27892   1.758   2.180   5.643
 8998SOL    HW127893   1.660   2.189   5.657
 8998SOL    HW227894   1.784   2.083   5.651
 8999SOL     OW27895   6.108   1.006   4.560
 8999SOL    HW127896   6.165   1.060   4.499
 8999SOL    HW227897   6.013   1.011   4.530
 9000SOL     OW27898   2.967   4.052   0.503
 9000SOL    HW127899   2.905   4.109   0.557
 9000SOL    HW227900   2.959   4.076   0.406
 9001SOL     OW27901   1.579   5.313   3.818
 9001SOL    HW127902   1.519   5.324   3.898
 9001SOL    HW227903   1.667   5.357   3.836
 9002SOL     OW27904   5.730   4.321   5.982
 9002SOL    HW127905   5.704   4.412   5.948
 9002SOL    HW227906   5.708   4.315   6.080
 9003SOL     OW27907   5.751   2.741   0.015
 9003SOL    HW127908   5.778   2.832   7.003
 9003SOL    HW227909   5.752   2.741   0.115
 9004SOL     OW27910   4.559   6.613   1.259
 9004SOL    HW127911   4.596   6.522   1.275
 9004SOL    HW227912   4.526   6.620   1.165
 9005SOL     OW27913   4.929   1.833   3.249
 9005SOL    HW127914   4.889   1.808   3.161
 9005SOL    HW227915   5.023   1.864   3.235
 9006SOL     OW27916   0.981   5.394   1.278
 9006SOL    HW127917   0.980   5.460   1.353
 9006SOL    HW227918   0.993   5.442   1.191
 9007SOL     OW27919   2.882   6.791   3.915
 9007SOL    HW127920   2.979   6.769   3.911
 9007SOL    HW227921   2.832   6.738   3.848
 9008SOL     OW27922   6.968   4.383   2.390
 9008SOL    HW127923   6.884   4.363   2.340
 9008SOL    HW227924   6.976   4.321   2.468
 9009SOL     OW27925   3.019   6.108   0.605
 9009SOL    HW127926   3.035   6.150   0.515
 9009SOL    HW227927   3.039   6.174   0.677
 9010SOL     OW27928   0.914   6.111   5.139
 9010SOL    HW127929   1.005   6.153   5.135
 9010SOL    HW227930   0.923   6.012   5.131
 9011SOL     OW27931   4.823   2.031   0.877
 9011SOL    HW127932   4.819   1.995   0.970
 9011SOL    HW227933   4.853   1.958   0.814
 9012SOL     OW27934   0.078   5.100   1.341
 9012SOL    HW127935   0.123   5.189   1.347
 9012SOL    HW227936   0.039   5.076   1.430
 9013SOL     OW27937   6.364   5.885   3.381
 9013SOL    HW127938   6.455   5.880   3.422
 9013SOL    HW227939   6.317   5.797   3.390
 9014SOL     OW27940   2.629   1.192   0.830
 9014SOL    HW127941   2.593   1.247   0.906
 9014SOL    HW227942   2.729   1.198   0.829
 9015SOL     OW27943   0.327   0.890   6.459
 9015SOL    HW127944   0.377   0.872   6.374
 9015SOL    HW227945   0.269   0.971   6.448
 9016SOL     OW27946   5.912   5.733   6.510
 9016SOL    HW127947   5.901   5.643   6.468
 9016SOL    HW227948   6.009   5.748   6.531
 9017SOL     OW27949   6.632   2.524   3.512
 9017SOL    HW127950   6.546   2.483   3.481
 9017SOL    HW227951   6.638   2.517   3.612
 9018SOL     OW27952   3.811   2.290   5.442
 9018SOL    HW127953   3.793   2.366   5.505
 9018SOL    HW227954   3.730   2.231   5.438
 9019SOL     OW27955   2.086   0.253   0.351
 9019SOL    HW127956   2.157   0.213   0.408
 9019SOL    HW227957   2.073   0.349   0.377
 9020SOL     OW27958   0.861   4.520   2.931
 9020SOL    HW127959   0.960   4.520   2.946
 9020SOL    HW227960   0.825   4.429   2.950
 9021SOL     OW27961   6.452   5.562   5.283
 9021SOL    HW127962   6.457   5.595   5.377
 9021SOL    HW227963   6.369   5.598   5.240
 9022SOL     OW27964   2.946   1.044   0.035
 9022SOL    HW127965   2.933   1.123   6.995
 9022SOL    HW227966   2.872   0.979   0.021
 9023SOL     OW27967   3.753   3.220   3.431
 9023SOL    HW127968   3.737   3.305   3.480
 9023SOL    HW227969   3.675   3.199   3.371
 9024SOL     OW27970   2.037   6.570   6.511
 9024SOL    HW127971   2.116   6.617   6.472
 9024SOL    HW227972   2.005   6.619   6.592
 9025SOL     OW27973   5.725   5.161   1.339
 9025SOL    HW127974   5.812   5.162   1.291
 9025SOL    HW227975   5.690   5.255   1.346
 9026SOL     OW27976   3.546   2.921   5.138
 9026SOL    HW127977   3.590   2.853   5.197
 9026SOL    HW227978   3.479   2.972   5.191
 9027SOL     OW27979   2.725   2.421   3.562
 9027SOL    HW127980   2.697   2.363   3.485
 9027SOL    HW227981   2.755   2.510   3.528
 9028SOL     OW27982   3.036   4.753   5.183
 9028SOL    HW127983   3.016   4.808   5.264
 9028SOL    HW227984   2.966   4.682   5.173
 9029SOL     OW27985   4.884   6.279   3.238
 9029SOL    HW127986   4.796   6.249   3.275
 9029SOL    HW227987   4.868   6.355   3.175
 9030SOL     OW27988   2.432   0.761   2.363
 9030SOL    HW127989   2.528   0.786   2.377
 9030SOL    HW227990   2.397   0.805   2.280
 9031SOL     OW27991   2.554   5.889   6.147
 9031SOL    HW127992   2.496   5.962   6.183
 9031SOL    HW227993   2.649   5.920   6.146
 9032SOL     OW27994   2.327   1.863   1.521
 9032SOL    HW127995   2.322   1.923   1.600
 9032SOL    HW227996   2.409   1.806   1.527
 9033SOL     OW27997   1.782   3.564   2.944
 9033SOL    HW127998   1.779   3.469   2.975
 9033SOL    HW227999   1.858   3.575   2.879
 9034SOL     OW28000   3.395   6.722   5.718
 9034SOL    HW128001   3.407   6.792   5.789
 9034SOL    HW228002   3.397   6.766   5.629
 9035SOL     OW28003   0.187   1.181   4.376
 9035SOL    HW128004   0.206   1.102   4.318
 9035SOL    HW228005   0.269   1.205   4.428
 9036SOL     OW28006   0.762   2.605   5.562
 9036SOL    HW128007   0.838   2.540   5.562
 9036SOL    HW228008   0.794   2.693   5.527
 9037SOL     OW28009   2.236   4.556   6.331
 9037SOL    HW128010   2.202   4.632   6.277
 9037SOL    HW228011   2.299   4.501   6.276
 9038SOL     OW28012   4.591   6.431   5.562
 9038SOL    HW128013   4.551   6.408   5.473
 9038SOL    HW228014   4.630   6.523   5.558
 9039SOL     OW28015   1.999   5.738   5.066
 9039SOL    HW128016   2.039   5.680   5.137
 9039SOL    HW228017   2.071   5.791   5.021
 9040SOL     OW28018   1.689   1.504   2.657
 9040SOL    HW128019   1.780   1.507   2.699
 9040SOL    HW228020   1.681   1.422   2.601
 9041SOL     OW28021   1.429   3.246   0.919
 9041SOL    HW128022   1.466   3.171   0.973
 9041SOL    HW228023   1.376   3.307   0.978
 9042SOL     OW28024   2.553   4.553   3.279
 9042SOL    HW128025   2.513   4.471   3.237
 9042SOL    HW228026   2.487   4.628   3.276
 9043SOL     OW28027   0.664   2.377   5.840
 9043SOL    HW128028   0.667   2.473   5.813
 9043SOL    HW228029   0.697   2.367   5.934
 9044SOL     OW28030   6.280   0.419   1.154
 9044SOL    HW128031   6.237   0.381   1.236
 9044SOL    HW228032   6.309   0.344   1.094
 9045SOL     OW28033   2.742   6.898   3.326
 9045SOL    HW128034   2.706   6.820   3.275
 9045SOL    HW228035   2.841   6.887   3.339
 9046SOL     OW28036   3.345   4.161   4.904
 9046SOL    HW128037   3.268   4.120   4.856
 9046SOL    HW228038   3.427   4.157   4.846
 9047SOL     OW28039   1.057   4.673   4.499
 9047SOL    HW128040   0.964   4.644   4.474
 9047SOL    HW228041   1.058   4.699   4.595
 9048SOL     OW28042   0.495   3.382   4.549
 9048SOL    HW128043   0.434   3.345   4.619
 9048SOL    HW228044   0.468   3.476   4.528
 9049SOL     OW28045   5.453   6.136   6.179
 9049SOL    HW128046   5.375   6.133   6.242
 9049SOL    HW228047   5.536   6.108   6.227
 9050SOL     OW28048   0.096   4.791   6.351
 9050SOL    HW128049   7.018   4.782   6.339
 9050SOL    HW228050   0.126   4.731   6.425
 9051SOL     OW28051   5.587   6.224   6.531
 9051SOL    HW128052   5.491   6.203   6.511
 9051SOL    HW228053   5.639   6.231   6.446
 9052SOL     OW28054   2.266   5.160   4.299
 9052SOL    HW128055   2.334   5.188   4.367
 9052SOL    HW228056   2.263   5.061   4.293
 9053SOL     OW28057   2.513   2.600   4.066
 9053SOL    HW128058   2.590   2.639   4.015
 9053SOL    HW228059   2.465   2.534   4.008
 9054SOL     OW28060   2.332   0.359   1.336
 9054SOL    HW128061   2.324   0.414   1.419
 9054SOL    HW228062   2.402   0.398   1.276
 9055SOL     OW28063   0.656   2.571   3.846
 9055SOL    HW128064   0.560   2.583   3.822
 9055SOL    HW228065   0.683   2.643   3.910
 9056SOL     OW28066   5.477   0.394   3.045
 9056SOL    HW128067   5.470   0.299   3.075
 9056SOL    HW228068   5.573   0.420   3.038
 9057SOL     OW28069   5.897   5.997   6.381
 9057SOL    HW128070   5.978   6.012   6.325
 9057SOL    HW228071   5.911   5.916   6.438
 9058SOL     OW28072   1.705   2.984   4.773
 9058SOL    HW128073   1.779   2.997   4.839
 9058SOL    HW228074   1.661   2.896   4.789
 9059SOL     OW28075   6.361   1.870   3.118
 9059SOL    HW128076   6.438   1.934   3.118
 9059SOL    HW228077   6.373   1.803   3.191
 9060SOL     OW28078   0.409   3.378   1.653
 9060SOL    HW128079   0.410   3.283   1.621
 9060SOL    HW228080   0.417   3.440   1.575
 9061SOL     OW28081   5.182   5.475   1.795
 9061SOL    HW128082   5.155   5.474   1.699
 9061SOL    HW228083   5.148   5.393   1.841
 9062SOL     OW28084   0.702   4.972   3.523
 9062SOL    HW128085   0.681   5.026   3.605
 9062SOL    HW228086   0.629   4.985   3.455
 9063SOL     OW28087   3.194   0.661   2.254
 9063SOL    HW128088   3.179   0.753   2.216
 9063SOL    HW228089   3.121   0.600   2.223
 9064SOL     OW28090   0.568   4.151   3.350
 9064SOL    HW128091   0.637   4.181   3.416
 9064SOL    HW228092   0.589   4.058   3.320
 9065SOL     OW28093   2.587   5.451   5.063
 9065SOL    HW128094   2.607   5.358   5.030
 9065SOL    HW228095   2.552   5.446   5.156
 9066SOL     OW28096   5.109   4.830   5.538
 9066SOL    HW128097   5.134   4.897   5.609
 9066SOL    HW228098   5.057   4.756   5.580
 9067SOL     OW28099   6.567   0.352   4.746
 9067SOL    HW128100   6.512   0.385   4.669
 9067SOL    HW228101   6.590   0.255   4.731
 9068SOL     OW28102   5.012   6.831   4.546
 9068SOL    HW128103   5.080   6.765   4.579
 9068SOL    HW228104   4.957   6.789   4.474
 9069SOL     OW28105   4.640   2.065   1.934
 9069SOL    HW128106   4.623   2.153   1.889
 9069SOL    HW228107   4.571   2.049   2.004
 9070SOL     OW28108   1.521   1.950   5.695
 9070SOL    HW128109   1.562   1.952   5.604
 9070SOL    HW228110   1.486   2.040   5.719
 9071SOL     OW28111   5.169   1.237   5.536
 9071SOL    HW128112   5.208   1.230   5.628
 9071SOL    HW228113   5.090   1.299   5.537
 9072SOL     OW28114   5.458   0.360   2.393
 9072SOL    HW128115   5.405   0.311   2.462
 9072SOL    HW228116   5.539   0.401   2.437
 9073SOL     OW28117   3.960   0.955   6.623
 9073SOL    HW128118   3.914   0.952   6.712
 9073SOL    HW228119   3.968   1.050   6.593
 9074SOL     OW28120   1.261   0.055   1.396
 9074SOL    HW128121   1.323   0.065   1.473
 9074SOL    HW228122   1.289   0.117   1.322
 9075SOL     OW28123   6.945   0.947   1.517
 9075SOL    HW128124   6.877   0.901   1.460
 9075SOL    HW228125   6.913   0.951   1.612
 9076SOL     OW28126   6.363   0.519   2.088
 9076SOL    HW128127   6.271   0.552   2.107
 9076SOL    HW228128   6.402   0.570   2.011
 9077SOL     OW28129   6.078   1.308   6.171
 9077SOL    HW128130   6.084   1.346   6.079
 9077SOL    HW228131   5.983   1.311   6.202
 9078SOL     OW28132   5.475   5.511   0.051
 9078SOL    HW128133   5.458   5.578   0.123
 9078SOL    HW228134   5.476   5.556   6.983
 9079SOL     OW28135   1.331   0.372   5.998
 9079SOL    HW128136   1.347   0.468   6.021
 9079SOL    HW228137   1.233   0.353   6.003
 9080SOL     OW28138   6.467   3.787   1.033
 9080SOL    HW128139   6.423   3.722   0.971
 9080SOL    HW228140   6.467   3.878   0.992
 9081SOL     OW28141   3.952   2.190   0.962
 9081SOL    HW128142   4.019   2.236   1.020
 9081SOL    HW228143   3.860   2.218   0.988
 9082SOL     OW28144   3.171   6.077   5.945
 9082SOL    HW128145   3.170   6.030   5.857
 9082SOL    HW228146   3.078   6.108   5.967
 9083SOL     OW28147   4.796   5.086   6.499
 9083SOL    HW128148   4.735   5.026   6.448
 9083SOL    HW228149   4.807   5.051   6.592
 9084SOL     OW28150   0.665   2.894   5.666
 9084SOL    HW128151   0.715   2.876   5.581
 9084SOL    HW228152   0.700   2.977   5.709
 9085SOL     OW28153   3.112   5.301   0.374
 9085SOL    HW128154   3.206   5.281   0.343
 9085SOL    HW228155   3.084   5.390   0.338
 9086SOL     OW28156   0.363   4.740   0.298
 9086SOL    HW128157   0.352   4.647   0.265
 9086SOL    HW228158   0.446   4.780   0.258
 9087SOL     OW28159   6.017   1.742   1.896
 9087SOL    HW128160   5.977   1.739   1.804
 9087SOL    HW228161   6.111   1.708   1.892
 9088SOL     OW28162   6.325   0.904   1.813
 9088SOL    HW128163   6.228   0.879   1.814
 9088SOL    HW228164   6.334   1.001   1.834
 9089SOL     OW28165   4.692   5.650   3.497
 9089SOL    HW128166   4.615   5.601   3.538
 9089SOL    HW228167   4.778   5.616   3.535
 9090SOL     OW28168   6.062   6.279   4.922
 9090SOL    HW128169   5.994   6.298   4.851
 9090SOL    HW228170   6.024   6.217   4.990
 9091SOL     OW28171   3.354   2.232   0.417
 9091SOL    HW128172   3.421   2.289   0.370
 9091SOL    HW228173   3.352   2.141   0.375
 9092SOL     OW28174   1.198   6.649   5.590
 9092SOL    HW128175   1.185   6.601   5.676
 9092SOL    HW228176   1.114   6.643   5.535
 9093SOL     OW28177   1.849   5.431   0.491
 9093SOL    HW128178   1.897   5.470   0.569
 9093SOL    HW228179   1.877   5.479   0.407
 9094SOL     OW28180   6.690   5.759   2.437
 9094SOL    HW128181   6.600   5.724   2.461
 9094SOL    HW228182   6.702   5.754   2.338
 9095SOL     OW28183   4.777   3.611   6.358
 9095SOL    HW128184   4.709   3.573   6.296
 9095SOL    HW228185   4.758   3.708   6.372
 9096SOL     OW28186   5.885   2.996   2.755
 9096SOL    HW128187   5.810   2.965   2.696
 9096SOL    HW228188   5.864   2.972   2.850
 9097SOL     OW28189   0.471   3.886   6.754
 9097SOL    HW128190   0.555   3.871   6.704
 9097SOL    HW228191   0.490   3.883   6.853
 9098SOL     OW28192   3.890   3.969   2.015
 9098SOL    HW128193   3.953   4.016   1.952
 9098SOL    HW228194   3.798   3.967   1.975
 9099SOL     OW28195   2.560   3.462   0.745
 9099SOL    HW128196   2.635   3.396   0.741
 9099SOL    HW228197   2.570   3.520   0.826
 9100SOL     OW28198   0.886   3.596   1.225
 9100SOL    HW128199   0.800   3.646   1.224
 9100SOL    HW228200   0.879   3.515   1.166
 9101SOL     OW28201   1.494   2.570   2.517
 9101SOL    HW128202   1.475   2.545   2.612
 9101SOL    HW228203   1.490   2.488   2.459
 9102SOL     OW28204   3.747   5.345   1.853
 9102SOL    HW128205   3.816   5.297   1.906
 9102SOL    HW228206   3.789   5.424   1.807
 9103SOL     OW28207   0.228   4.026   0.777
 9103SOL    HW128208   0.305   4.059   0.723
 9103SOL    HW228209   0.145   4.076   0.751
 9104SOL     OW28210   4.422   5.966   1.846
 9104SOL    HW128211   4.442   6.057   1.883
 9104SOL    HW228212   4.324   5.959   1.827
 9105SOL     OW28213   1.480   0.455   6.458
 9105SOL    HW128214   1.483   0.451   6.358
 9105SOL    HW228215   1.463   0.549   6.488
 9106SOL     OW28216   5.810   4.787   0.182
 9106SOL    HW128217   5.880   4.728   0.221
 9106SOL    HW228218   5.735   4.798   0.248
 9107SOL     OW28219   3.699   6.788   0.036
 9107SOL    HW128220   3.776   6.850   0.051
 9107SOL    HW228221   3.714   6.737   6.972
 9108SOL     OW28222   4.942   4.371   5.369
 9108SOL    HW128223   4.947   4.470   5.351
 9108SOL    HW228224   5.031   4.337   5.397
 9109SOL     OW28225   2.420   2.052   3.416
 9109SOL    HW128226   2.375   1.963   3.424
 9109SOL    HW228227   2.414   2.083   3.321
 9110SOL     OW28228   1.926   5.490   3.335
 9110SOL    HW128229   1.828   5.479   3.316
 9110SOL    HW228230   1.937   5.542   3.420
 9111SOL     OW28231   3.315   4.123   1.314
 9111SOL    HW128232   3.411   4.105   1.293
 9111SOL    HW228233   3.294   4.218   1.294
 9112SOL     OW28234   0.578   3.592   3.594
 9112SOL    HW128235   0.566   3.673   3.651
 9112SOL    HW228236   0.559   3.615   3.499
 9113SOL     OW28237   5.174   0.968   0.370
 9113SOL    HW128238   5.272   0.952   0.385
 9113SOL    HW228239   5.154   0.962   0.272
 9114SOL     OW28240   2.450   4.429   2.124
 9114SOL    HW128241   2.481   4.453   2.032
 9114SOL    HW228242   2.524   4.448   2.190
 9115SOL     OW28243   0.987   4.905   4.360
 9115SOL    HW128244   1.012   4.823   4.308
 9115SOL    HW228245   0.908   4.949   4.317
 9116SOL     OW28246   0.042   1.581   6.564
 9116SOL    HW128247   0.032   1.522   6.645
 9116SOL    HW228248   0.136   1.579   6.533
 9117SOL     OW28249   6.520   3.081   6.314
 9117SOL    HW128250   6.494   3.112   6.223
 9117SOL    HW228251   6.475   2.994   6.334
 9118SOL     OW28252   6.419   0.130   1.297
 9118SOL    HW128253   6.422   0.224   1.332
 9118SOL    HW228254   6.338   0.084   1.333
 9119SOL     OW28255   5.259   1.167   2.470
 9119SOL    HW128256   5.240   1.199   2.563
 9119SOL    HW228257   5.300   1.076   2.473
 9120SOL     OW28258   5.492   2.274   6.010
 9120SOL    HW128259   5.492   2.331   6.092
 9120SOL    HW228260   5.402   2.277   5.967
 9121SOL     OW28261   0.813   3.167   5.070
 9121SOL    HW128262   0.850   3.107   5.141
 9121SOL    HW228263   0.732   3.214   5.105
 9122SOL     OW28264   1.560   2.374   2.259
 9122SOL    HW128265   1.637   2.436   2.242
 9122SOL    HW228266   1.592   2.296   2.313
 9123SOL     OW28267   3.350   6.172   5.168
 9123SOL    HW128268   3.397   6.207   5.088
 9123SOL    HW228269   3.387   6.215   5.251
 9124SOL     OW28270   6.126   5.633   5.381
 9124SOL    HW128271   6.179   5.577   5.317
 9124SOL    HW228272   6.120   5.588   5.469
 9125SOL     OW28273   4.567   4.374   3.647
 9125SOL    HW128274   4.563   4.439   3.570
 9125SOL    HW228275   4.659   4.337   3.654
 9126SOL     OW28276   6.194   1.474   2.249
 9126SOL    HW128277   6.219   1.407   2.319
 9126SOL    HW228278   6.261   1.548   2.249
 9127SOL     OW28279   5.852   0.043   5.868
 9127SOL    HW128280   5.929   0.010   5.923
 9127SOL    HW228281   5.855   0.143   5.862
 9128SOL     OW28282   4.261   1.502   4.999
 9128SOL    HW128283   4.273   1.410   4.961
 9128SOL    HW228284   4.237   1.495   5.096
 9129SOL     OW28285   2.109   3.481   0.228
 9129SOL    HW128286   2.143   3.484   0.134
 9129SOL    HW228287   2.102   3.385   0.258
 9130SOL     OW28288   0.047   4.165   6.580
 9130SOL    HW128289   0.067   4.263   6.593
 9130SOL    HW228290   0.128   4.120   6.544
 9131SOL     OW28291   0.263   3.939   4.966
 9131SOL    HW128292   0.303   4.031   4.965
 9131SOL    HW228293   0.238   3.915   5.060
 9132SOL     OW28294   6.873   3.982   3.776
 9132SOL    HW128295   6.877   4.082   3.775
 9132SOL    HW228296   6.905   3.947   3.689
 9133SOL     OW28297   2.844   4.912   0.922
 9133SOL    HW128298   2.867   5.002   0.887
 9133SOL    HW228299   2.877   4.842   0.857
 9134SOL     OW28300   3.319   6.860   0.829
 9134SOL    HW128301   3.375   6.781   0.853
 9134SOL    HW228302   3.345   6.938   0.886
 9135SOL     OW28303   0.219   0.122   2.435
 9135SOL    HW128304   0.241   0.025   2.428
 9135SOL    HW228305   0.303   0.176   2.437
 9136SOL     OW28306   4.707   5.059   5.869
 9136SOL    HW128307   4.652   5.015   5.940
 9136SOL    HW228308   4.795   5.087   5.907
 9137SOL     OW28309   5.970   1.288   1.335
 9137SOL    HW128310   5.945   1.377   1.297
 9137SOL    HW228311   6.022   1.236   1.266
 9138SOL     OW28312   6.625   5.052   5.780
 9138SOL    HW128313   6.655   5.130   5.725
 9138SOL    HW228314   6.648   4.967   5.732
 9139SOL     OW28315   2.522   1.260   4.899
 9139SOL    HW128316   2.597   1.215   4.947
 9139SOL    HW228317   2.482   1.330   4.957
 9140SOL     OW28318   6.463   2.556   2.444
 9140SOL    HW128319   6.425   2.585   2.531
 9140SOL    HW228320   6.395   2.503   2.393
 9141SOL     OW28321   5.681   6.498   6.466
 9141SOL    HW128322   5.661   6.496   6.368
 9141SOL    HW228323   5.752   6.431   6.486
 9142SOL     OW28324   0.250   2.658   5.335
 9142SOL    HW128325   0.227   2.755   5.344
 9142SOL    HW228326   0.350   2.647   5.336
 9143SOL     OW28327   4.373   3.960   0.180
 9143SOL    HW128328   4.431   4.029   0.137
 9143SOL    HW228329   4.291   4.004   0.217
 9144SOL     OW28330   2.125   5.421   6.135
 9144SOL    HW128331   2.176   5.390   6.215
 9144SOL    HW228332   2.163   5.508   6.103
 9145SOL     OW28333   0.377   5.033   1.010
 9145SOL    HW128334   0.290   5.012   1.055
 9145SOL    HW228335   0.358   5.075   0.921
 9146SOL     OW28336   5.220   1.500   1.480
 9146SOL    HW128337   5.256   1.566   1.546
 9146SOL    HW228338   5.194   1.416   1.528
 9147SOL     OW28339   5.902   6.625   4.654
 9147SOL    HW128340   5.832   6.692   4.679
 9147SOL    HW228341   5.992   6.667   4.662
 9148SOL     OW28342   5.957   6.699   1.595
 9148SOL    HW128343   6.029   6.637   1.566
 9148SOL    HW228344   5.910   6.661   1.675
 9149SOL     OW28345   4.904   2.548   4.296
 9149SOL    HW128346   4.999   2.539   4.266
 9149SOL    HW228347   4.870   2.458   4.325
 9150SOL     OW28348   3.789   5.968   3.647
 9150SOL    HW128349   3.691   5.972   3.627
 9150SOL    HW228350   3.840   5.957   3.562
 9151SOL     OW28351   0.914   3.843   3.158
 9151SOL    HW128352   0.932   3.849   3.060
 9151SOL    HW228353   0.925   3.748   3.188
 9152SOL     OW28354   2.368   5.643   4.138
 9152SOL    HW128355   2.373   5.551   4.178
 9152SOL    HW228356   2.445   5.698   4.170
 9153SOL     OW28357   1.596   3.069   0.507
 9153SOL    HW128358   1.557   3.037   0.421
 9153SOL    HW228359   1.643   2.994   0.553
 9154SOL     OW28360   2.663   4.842   6.559
 9154SOL    HW128361   2.566   4.866   6.564
 9154SOL    HW228362   2.678   4.754   6.604
 9155SOL     OW28363   1.857   3.912   0.448
 9155SOL    HW128364   1.900   3.835   0.401
 9155SOL    HW228365   1.829   3.884   0.539
 9156SOL     OW28366   3.090   2.863   1.408
 9156SOL    HW128367   3.123   2.957   1.418
 9156SOL    HW228368   3.151   2.812   1.347
 9157SOL     OW28369   6.115   4.835   5.580
 9157SOL    HW128370   6.207   4.875   5.586
 9157SOL    HW228371   6.091   4.796   5.669
 9158SOL     OW28372   6.292   3.342   4.647
 9158SOL    HW128373   6.389   3.317   4.639
 9158SOL    HW228374   6.277   3.396   4.729
 9159SOL     OW28375   0.794   6.259   3.754
 9159SOL    HW128376   0.715   6.267   3.815
 9159SOL    HW228377   0.875   6.236   3.808
 9160SOL     OW28378   6.718   0.504   5.138
 9160SOL    HW128379   6.737   0.503   5.040
 9160SOL    HW228380   6.623   0.476   5.153
 9161SOL     OW28381   4.927   4.317   4.225
 9161SOL    HW128382   4.997   4.246   4.217
 9161SOL    HW228383   4.839   4.275   4.245
 9162SOL     OW28384   4.587   1.774   3.613
 9162SOL    HW128385   4.661   1.789   3.678
 9162SOL    HW228386   4.618   1.799   3.521
 9163SOL     OW28387   1.639   3.282   3.724
 9163SOL    HW128388   1.561   3.220   3.736
 9163SOL    HW228389   1.692   3.286   3.808
 9164SOL     OW28390   2.896   1.161   6.789
 9164SOL    HW128391   2.803   1.140   6.820
 9164SOL    HW228392   2.892   1.225   6.712
 9165SOL     OW28393   6.535   1.624   6.130
 9165SOL    HW128394   6.475   1.658   6.058
 9165SOL    HW228395   6.574   1.536   6.102
 9166SOL     OW28396   4.888   6.016   1.217
 9166SOL    HW128397   4.951   6.080   1.261
 9166SOL    HW228398   4.825   6.067   1.157
 9167SOL     OW28399   1.654   3.508   6.562
 9167SOL    HW128400   1.682   3.603   6.547
 9167SOL    HW228401   1.593   3.504   6.641
 9168SOL     OW28402   1.102   6.495   5.211
 9168SOL    HW128403   1.193   6.478   5.251
 9168SOL    HW228404   1.113   6.540   5.123
 9169SOL     OW28405   0.266   1.502   5.038
 9169SOL    HW128406   0.282   1.422   5.094
 9169SOL    HW228407   0.173   1.500   5.000
 9170SOL     OW28408   0.589   5.045   0.143
 9170SOL    HW128409   0.608   4.952   0.172
 9170SOL    HW228410   0.675   5.095   0.132
 9171SOL     OW28411   3.326   5.603   0.498
 9171SOL    HW128412   3.372   5.651   0.572
 9171SOL    HW228413   3.394   5.562   0.437
 9172SOL     OW28414   3.111   1.032   5.284
 9172SOL    HW128415   3.069   1.068   5.201
 9172SOL    HW228416   3.119   0.932   5.277
 9173SOL     OW28417   6.024   4.310   5.007
 9173SOL    HW128418   6.080   4.293   5.089
 9173SOL    HW228419   5.981   4.400   5.014
 9174SOL     OW28420   6.167   4.642   0.993
 9174SOL    HW128421   6.208   4.639   0.902
 9174SOL    HW228422   6.204   4.719   1.044
 9175SOL     OW28423   1.733   6.855   4.632
 9175SOL    HW128424   1.660   6.822   4.573
 9175SOL    HW228425   1.821   6.840   4.587
 9176SOL     OW28426   2.587   0.447   5.600
 9176SOL    HW128427   2.665   0.509   5.601
 9176SOL    HW228428   2.508   0.493   5.559
 9177SOL     OW28429   1.444   5.349   4.667
 9177SOL    HW128430   1.483   5.257   4.659
 9177SOL    HW228431   1.513   5.417   4.644
 9178SOL     OW28432   2.008   5.764   0.895
 9178SOL    HW128433   2.009   5.850   0.947
 9178SOL    HW228434   2.037   5.689   0.955
 9179SOL     OW28435   3.256   6.073   3.875
 9179SOL    HW128436   3.329   6.117   3.823
 9179SOL    HW228437   3.294   6.027   3.955
 9180SOL     OW28438   5.708   2.067   2.993
 9180SOL    HW128439   5.703   2.166   2.979
 9180SOL    HW228440   5.627   2.037   3.044
 9181SOL     OW28441   3.994   2.114   3.556
 9181SOL    HW128442   3.898   2.125   3.528
 9181SOL    HW228443   4.003   2.134   3.654
 9182SOL     OW28444   2.233   6.840   2.396
 9182SOL    HW128445   2.297   6.765   2.415
 9182SOL    HW228446   2.281   6.912   2.346
 9183SOL     OW28447   5.115   6.402   0.297
 9183SOL    HW128448   5.087   6.462   0.372
 9183SOL    HW228449   5.200   6.355   0.322
 9184SOL     OW28450   4.973   1.437   0.128
 9184SOL    HW128451   4.967   1.337   0.129
 9184SOL    HW228452   5.005   1.470   0.217
 9185SOL     OW28453   4.523   6.571   4.926
 9185SOL    HW128454   4.484   6.575   4.834
 9185SOL    HW228455   4.606   6.515   4.925
 9186SOL     OW28456   5.992   0.805   3.890
 9186SOL    HW128457   6.013   0.798   3.987
 9186SOL    HW228458   6.023   0.722   3.843
 9187SOL     OW28459   2.594   0.755   1.531
 9187SOL    HW128460   2.694   0.753   1.532
 9187SOL    HW228461   2.560   0.781   1.621
 9188SOL     OW28462   2.243   6.847   1.928
 9188SOL    HW128463   2.143   6.849   1.921
 9188SOL    HW228464   2.271   6.776   1.992
 9189SOL     OW28465   5.805   6.092   1.497
 9189SOL    HW128466   5.734   6.030   1.530
 9189SOL    HW228467   5.893   6.067   1.539
 9190SOL     OW28468   1.680   5.059   0.285
 9190SOL    HW128469   1.731   5.131   0.238
 9190SOL    HW228470   1.590   5.094   0.312
 9191SOL     OW28471   5.740   0.508   6.024
 9191SOL    HW128472   5.703   0.516   5.931
 9191SOL    HW228473   5.666   0.493   6.089
 9192SOL     OW28474   0.591   4.162   5.845
 9192SOL    HW128475   0.491   4.167   5.842
 9192SOL    HW228476   0.623   4.106   5.769
 9193SOL     OW28477   4.788   4.835   0.381
 9193SOL    HW128478   4.692   4.824   0.409
 9193SOL    HW228479   4.845   4.770   0.431
 9194SOL     OW28480   3.007   1.048   3.125
 9194SOL    HW128481   2.982   0.982   3.196
 9194SOL    HW228482   3.034   1.134   3.168
 9195SOL     OW28483   1.754   2.319   3.850
 9195SOL    HW128484   1.790   2.307   3.942
 9195SOL    HW228485   1.824   2.295   3.783
 9196SOL     OW28486   3.929   0.507   4.175
 9196SOL    HW128487   3.948   0.427   4.117
 9196SOL    HW228488   4.015   0.554   4.195
 9197SOL     OW28489   1.493   4.754   1.850
 9197SOL    HW128490   1.543   4.683   1.900
 9197SOL    HW228491   1.409   4.715   1.811
 9198SOL     OW28492   6.724   5.085   6.039
 9198SOL    HW128493   6.686   5.014   6.099
 9198SOL    HW228494   6.703   5.063   5.944
 9199SOL     OW28495   1.099   3.717   6.130
 9199SOL    HW128496   1.198   3.721   6.113
 9199SOL    HW228497   1.082   3.667   6.214
 9200SOL     OW28498   3.007   0.338   0.518
 9200SOL    HW128499   2.939   0.387   0.573
 9200SOL    HW228500   3.099   0.371   0.543
 9201SOL     OW28501   0.586   2.848   0.483
 9201SOL    HW128502   0.542   2.915   0.544
 9201SOL    HW228503   0.634   2.780   0.539
 9202SOL     OW28504   1.945   6.598   3.143
 9202SOL    HW128505   1.923   6.580   3.047
 9202SOL    HW228506   2.009   6.528   3.176
 9203SOL     OW28507   0.655   5.294   6.742
 9203SOL    HW128508   0.621   5.327   6.654
 9203SOL    HW228509   0.642   5.365   6.811
 9204SOL     OW28510   3.977   2.539   6.697
 9204SOL    HW128511   4.029   2.526   6.612
 9204SOL    HW228512   4.028   2.598   6.759
 9205SOL     OW28513   5.827   4.595   2.514
 9205SOL    HW128514   5.894   4.536   2.467
 9205SOL    HW228515   5.845   4.594   2.612
 9206SOL     OW28516   4.109   5.521   1.913
 9206SOL    HW128517   4.159   5.597   1.872
 9206SOL    HW228518   4.012   5.529   1.890
 9207SOL     OW28519   4.315   4.878   6.731
 9207SOL    HW128520   4.329   4.959   6.673
 9207SOL    HW228521   4.229   4.834   6.706
 9208SOL     OW28522   5.836   3.936   3.841
 9208SOL    HW128523   5.768   4.007   3.825
 9208SOL    HW228524   5.928   3.975   3.835
 9209SOL     OW28525   3.139   1.183   0.265
 9209SOL    HW128526   3.233   1.149   0.257
 9209SOL    HW228527   3.075   1.112   0.234
 9210SOL     OW28528   6.828   1.336   3.029
 9210SOL    HW128529   6.867   1.372   3.114
 9210SOL    HW228530   6.733   1.365   3.021
 9211SOL     OW28531   6.485   3.085   4.500
 9211SOL    HW128532   6.466   3.037   4.586
 9211SOL    HW228533   6.570   3.050   4.461
 9212SOL     OW28534   4.396   5.390   4.019
 9212SOL    HW128535   4.322   5.332   3.987
 9212SOL    HW228536   4.365   5.485   4.025
 9213SOL     OW28537   5.763   3.138   5.911
 9213SOL    HW128538   5.828   3.076   5.954
 9213SOL    HW228539   5.793   3.156   5.817
 9214SOL     OW28540   6.981   5.771   5.850
 9214SOL    HW128541   0.027   5.706   5.813
 9214SOL    HW228542   6.959   5.747   5.944
 9215SOL     OW28543   1.571   2.463   6.735
 9215SOL    HW128544   1.500   2.525   6.702
 9215SOL    HW228545   1.563   2.375   6.688
 9216SOL     OW28546   2.687   0.378   2.941
 9216SOL    HW128547   2.594   0.377   2.976
 9216SOL    HW228548   2.688   0.419   2.849
 9217SOL     OW28549   0.337   0.636   6.028
 9217SOL    HW128550   0.259   0.608   5.972
 9217SOL    HW228551   0.413   0.573   6.013
 9218SOL     OW28552   3.925   6.474   0.382
 9218SOL    HW128553   3.882   6.559   0.411
 9218SOL    HW228554   3.884   6.444   0.296
 9219SOL     OW28555   0.104   2.995   0.064
 9219SOL    HW128556   0.156   3.046   7.016
 9219SOL    HW228557   0.143   3.011   0.154
 9220SOL     OW28558   2.361   0.068   1.100
 9220SOL    HW128559   2.406   7.000   1.099
 9220SOL    HW228560   2.267   0.058   1.132
 9221SOL     OW28561   3.162   0.617   4.223
 9221SOL    HW128562   3.086   0.627   4.159
 9221SOL    HW228563   3.246   0.653   4.181
 9222SOL     OW28564   2.458   6.791   6.605
 9222SOL    HW128565   2.463   6.772   6.704
 9222SOL    HW228566   2.364   6.814   6.580
 9223SOL     OW28567   1.474   1.714   4.479
 9223SOL    HW128568   1.479   1.621   4.443
 9223SOL    HW228569   1.469   1.779   4.403
 9224SOL     OW28570   2.844   5.533   4.996
 9224SOL    HW128571   2.754   5.558   5.031
 9224SOL    HW228572   2.835   5.499   4.902
 9225SOL     OW28573   3.807   6.856   5.772
 9225SOL    HW128574   3.832   6.894   5.683
 9225SOL    HW228575   3.860   6.900   5.844
 9226SOL     OW28576   5.844   0.044   1.809
 9226SOL    HW128577   5.916   6.999   1.833
 9226SOL    HW228578   5.779   0.051   1.885
 9227SOL     OW28579   1.011   5.448   1.612
 9227SOL    HW128580   1.072   5.372   1.591
 9227SOL    HW228581   1.034   5.485   1.702
 9228SOL     OW28582   1.330   0.156   6.371
 9228SOL    HW128583   1.427   0.169   6.393
 9228SOL    HW228584   1.322   0.119   6.278
 9229SOL     OW28585   1.613   5.562   4.590
 9229SOL    HW128586   1.540   5.590   4.527
 9229SOL    HW228587   1.634   5.637   4.653
 9230SOL     OW28588   6.313   0.562   3.016
 9230SOL    HW128589   6.323   0.580   3.114
 9230SOL    HW228590   6.316   0.649   2.966
 9231SOL     OW28591   1.502   4.600   4.326
 9231SOL    HW128592   1.424   4.659   4.346
 9231SOL    HW228593   1.494   4.562   4.234
 9232SOL     OW28594   2.934   5.658   1.035
 9232SOL    HW128595   2.864   5.599   1.075
 9232SOL    HW228596   3.018   5.605   1.022
 9233SOL     OW28597   5.418   5.728   1.460
 9233SOL    HW128598   5.479   5.770   1.393
 9233SOL    HW228599   5.368   5.652   1.418
 9234SOL     OW28600   3.477   5.004   4.497
 9234SOL    HW128601   3.470   5.098   4.464
 9234SOL    HW228602   3.388   4.960   4.490
 9235SOL     OW28603   1.325   2.435   3.787
 9235SOL    HW128604   1.262   2.374   3.740
 9235SOL    HW228605   1.392   2.380   3.838
 9236SOL     OW28606   2.653   4.283   5.784
 9236SOL    HW128607   2.730   4.315   5.728
 9236SOL    HW228608   2.679   4.287   5.880
 9237SOL     OW28609   2.206   4.820   4.944
 9237SOL    HW128610   2.220   4.722   4.962
 9237SOL    HW228611   2.120   4.850   4.984
 9238SOL     OW28612   4.517   1.624   6.133
 9238SOL    HW128613   4.572   1.696   6.176
 9238SOL    HW228614   4.423   1.628   6.167
 9239SOL     OW28615   0.258   3.798   1.458
 9239SOL    HW128616   0.304   3.876   1.415
 9239SOL    HW228617   0.245   3.816   1.555
 9240SOL     OW28618   5.762   1.794   0.720
 9240SOL    HW128619   5.758   1.761   0.815
 9240SOL    HW228620   5.837   1.750   0.672
 9241SOL     OW28621   0.167   5.989   6.075
 9241SOL    HW128622   0.215   5.961   6.159
 9241SOL    HW228623   0.190   5.927   6.001
 9242SOL     OW28624   6.454   5.771   0.734
 9242SOL    HW128625   6.441   5.739   0.640
 9242SOL    HW228626   6.548   5.755   0.762
 9243SOL     OW28627   5.853   6.222   2.574
 9243SOL    HW128628   5.792   6.218   2.494
 9243SOL    HW228629   5.880   6.317   2.591
 9244SOL     OW28630   4.692   5.693   5.837
 9244SOL    HW128631   4.789   5.719   5.834
 9244SOL    HW228632   4.654   5.717   5.926
 9245SOL     OW28633   1.364   5.393   2.896
 9245SOL    HW128634   1.412   5.374   2.811
 9245SOL    HW228635   1.318   5.310   2.928
 9246SOL     OW28636   6.808   4.557   3.034
 9246SOL    HW128637   6.863   4.478   3.007
 9246SOL    HW228638   6.830   4.634   2.976
 9247SOL     OW28639   0.740   6.813   3.042
 9247SOL    HW128640   0.714   6.801   3.138
 9247SOL    HW228641   0.797   6.736   3.012
 9248SOL     OW28642   2.139   2.624   6.391
 9248SOL    HW128643   2.167   2.613   6.486
 9248SOL    HW228644   2.089   2.543   6.361
 9249SOL     OW28645   5.648   2.862   6.204
 9249SOL    HW128646   5.607   2.940   6.158
 9249SOL    HW228647   5.578   2.812   6.255
 9250SOL     OW28648   5.313   3.584   4.996
 9250SOL    HW128649   5.219   3.555   5.012
 9250SOL    HW228650   5.373   3.504   4.998
 9251SOL     OW28651   3.436   2.135   3.218
 9251SOL    HW128652   3.459   2.223   3.176
 9251SOL    HW228653   3.391   2.077   3.150
 9252SOL     OW28654   6.343   0.046   4.349
 9252SOL    HW128655   6.248   0.014   4.358
 9252SOL    HW228656   6.343   0.136   4.305
 9253SOL     OW28657   4.716   5.876   6.054
 9253SOL    HW128658   4.620   5.856   6.037
 9253SOL    HW228659   4.756   5.802   6.108
 9254SOL     OW28660   6.074   4.468   1.606
 9254SOL    HW128661   6.132   4.497   1.682
 9254SOL    HW228662   6.057   4.545   1.544
 9255SOL     OW28663   5.259   2.887   0.335
 9255SOL    HW128664   5.171   2.934   0.351
 9255SOL    HW228665   5.278   2.825   0.411
 9256SOL     OW28666   3.999   4.866   3.071
 9256SOL    HW128667   4.016   4.959   3.103
 9256SOL    HW228668   3.968   4.809   3.148
 9257SOL     OW28669   0.531   3.910   2.618
 9257SOL    HW128670   0.619   3.867   2.643
 9257SOL    HW228671   0.539   3.953   2.529
 9258SOL     OW28672   3.997   3.253   3.895
 9258SOL    HW128673   4.035   3.260   3.803
 9258SOL    HW228674   3.972   3.158   3.913
 9259SOL     OW28675   1.925   2.455   0.984
 9259SOL    HW128676   1.853   2.513   0.945
 9259SOL    HW228677   1.897   2.359   0.979
 9260SOL     OW28678   5.319   1.714   5.558
 9260SOL    HW128679   5.321   1.638   5.623
 9260SOL    HW228680   5.389   1.699   5.488
 9261SOL     OW28681   5.112   0.127   6.190
 9261SOL    HW128682   5.051   0.117   6.111
 9261SOL    HW228683   5.170   0.047   6.197
 9262SOL     OW28684   6.480   2.921   5.431
 9262SOL    HW128685   6.574   2.935   5.462
 9262SOL    HW228686   6.444   3.006   5.393
 9263SOL     OW28687   6.284   4.286   0.839
 9263SOL    HW128688   6.244   4.228   0.911
 9263SOL    HW228689   6.305   4.230   0.759
 9264SOL     OW28690   5.692   3.824   0.266
 9264SOL    HW128691   5.689   3.736   0.220
 9264SOL    HW228692   5.601   3.845   0.304
 9265SOL     OW28693   3.232   1.537   0.773
 9265SOL    HW128694   3.184   1.470   0.717
 9265SOL    HW228695   3.321   1.501   0.801
 9266SOL     OW28696   2.303   5.984   2.132
 9266SOL    HW128697   2.361   6.027   2.201
 9266SOL    HW228698   2.277   5.892   2.163
 9267SOL     OW28699   6.798   3.879   5.251
 9267SOL    HW128700   6.753   3.846   5.168
 9267SOL    HW228701   6.741   3.858   5.331
 9268SOL     OW28702   0.985   6.043   1.592
 9268SOL    HW128703   0.957   5.952   1.622
 9268SOL    HW228704   0.904   6.093   1.559
 9269SOL     OW28705   3.360   2.773   6.476
 9269SOL    HW128706   3.308   2.848   6.517
 9269SOL    HW228707   3.306   2.689   6.482
 9270SOL     OW28708   4.708   6.970   5.437
 9270SOL    HW128709   4.747   0.020   5.496
 9270SOL    HW228710   4.626   7.006   5.392
 9271SOL     OW28711   1.610   5.784   0.515
 9271SOL    HW128712   1.571   5.757   0.427
 9271SOL    HW228713   1.708   5.767   0.514
 9272SOL     OW28714   3.181   5.031   5.618
 9272SOL    HW128715   3.081   5.023   5.629
 9272SOL    HW228716   3.222   5.051   5.707
 9273SOL     OW28717   5.146   5.884   3.697
 9273SOL    HW128718   5.131   5.909   3.793
 9273SOL    HW228719   5.208   5.806   3.692
 9274SOL     OW28720   6.245   2.502   6.957
 9274SOL    HW128721   6.192   2.467   0.014
 9274SOL    HW228722   6.265   2.599   6.971
 9275SOL     OW28723   0.595   1.990   0.051
 9275SOL    HW128724   0.676   2.012   7.017
 9275SOL    HW228725   0.514   2.032   0.009
 9276SOL     OW28726   2.647   4.715   3.852
 9276SOL    HW128727   2.645   4.684   3.947
 9276SOL    HW228728   2.595   4.801   3.844
 9277SOL     OW28729   3.961   4.000   6.730
 9277SOL    HW128730   3.930   3.915   6.689
 9277SOL    HW228731   3.882   4.052   6.763
 9278SOL     OW28732   1.954   1.025   3.920
 9278SOL    HW128733   1.871   1.058   3.875
 9278SOL    HW228734   1.929   0.974   4.002
 9279SOL     OW28735   4.601   0.762   1.529
 9279SOL    HW128736   4.531   0.718   1.473
 9279SOL    HW228737   4.591   0.862   1.522
 9280SOL     OW28738   1.826   0.278   3.445
 9280SOL    HW128739   1.879   0.271   3.529
 9280SOL    HW228740   1.879   0.330   3.377
 9281SOL     OW28741   3.428   3.859   1.125
 9281SOL    HW128742   3.440   3.958   1.127
 9281SOL    HW228743   3.409   3.825   1.217
 9282SOL     OW28744   4.386   2.032   4.422
 9282SOL    HW128745   4.339   2.066   4.504
 9282SOL    HW228746   4.470   1.985   4.449
 9283SOL     OW28747   5.810   1.141   2.774
 9283SOL    HW128748   5.865   1.057   2.779
 9283SOL    HW228749   5.729   1.123   2.718
 9284SOL     OW28750   3.649   5.225   0.049
 9284SOL    HW128751   3.550   5.233   0.039
 9284SOL    HW228752   3.674   5.232   0.145
 9285SOL     OW28753   5.111   3.346   0.064
 9285SOL    HW128754   5.159   3.343   0.152
 9285SOL    HW228755   5.042   3.417   0.066
 9286SOL     OW28756   5.635   0.330   5.578
 9286SOL    HW128757   5.637   0.242   5.625
 9286SOL    HW228758   5.549   0.340   5.528
 9287SOL     OW28759   3.051   5.850   0.641
 9287SOL    HW128760   3.150   5.852   0.655
 9287SOL    HW228761   3.016   5.943   0.637
 9288SOL     OW28762   2.747   1.410   5.780
 9288SOL    HW128763   2.769   1.498   5.739
 9288SOL    HW228764   2.825   1.376   5.832
 9289SOL     OW28765   3.588   1.523   2.319
 9289SOL    HW128766   3.549   1.493   2.406
 9289SOL    HW228767   3.601   1.622   2.320
 9290SOL     OW28768   4.622   1.929   4.532
 9290SOL    HW128769   4.673   1.890   4.455
 9290SOL    HW228770   4.590   1.855   4.591
 9291SOL     OW28771   2.409   0.243   5.241
 9291SOL    HW128772   2.380   0.292   5.323
 9291SOL    HW228773   2.330   0.201   5.197
 9292SOL     OW28774   6.498   3.413   5.942
 9292SOL    HW128775   6.577   3.458   5.900
 9292SOL    HW228776   6.469   3.466   6.022
 9293SOL     OW28777   6.260   4.313   1.288
 9293SOL    HW128778   6.339   4.271   1.244
 9293SOL    HW228779   6.289   4.395   1.337
 9294SOL     OW28780   3.685   6.376   5.695
 9294SOL    HW128781   3.672   6.421   5.607
 9294SOL    HW228782   3.708   6.446   5.764
 9295SOL     OW28783   4.859   1.830   3.736
 9295SOL    HW128784   4.887   1.828   3.640
 9295SOL    HW228785   4.940   1.827   3.795
 9296SOL     OW28786   7.020   6.220   6.734
 9296SOL    HW128787   0.006   6.243   6.636
 9296SOL    HW228788   0.079   6.166   6.761
 9297SOL     OW28789   0.147   0.713   1.212
 9297SOL    HW128790   0.195   0.796   1.185
 9297SOL    HW228791   0.210   0.653   1.261
 9298SOL     OW28792   2.084   6.221   5.674
 9298SOL    HW128793   2.183   6.230   5.670
 9298SOL    HW228794   2.060   6.137   5.723
 9299SOL     OW28795   0.841   3.059   4.548
 9299SOL    HW128796   0.756   3.077   4.498
 9299SOL    HW228797   0.830   3.089   4.643
 9300SOL     OW28798   0.222   5.021   4.553
 9300SOL    HW128799   0.156   5.033   4.480
 9300SOL    HW228800   0.252   4.926   4.556
 9301SOL     OW28801   4.528   4.782   3.634
 9301SOL    HW128802   4.566   4.735   3.554
 9301SOL    HW228803   4.556   4.735   3.717
 9302SOL     OW28804   2.175   2.988   4.221
 9302SOL    HW128805   2.183   2.990   4.321
 9302SOL    HW228806   2.202   3.077   4.184
 9303SOL     OW28807   3.800   6.311   1.016
 9303SOL    HW128808   3.740   6.369   0.962
 9303SOL    HW228809   3.824   6.229   0.963
 9304SOL     OW28810   4.240   4.201   1.129
 9304SOL    HW128811   4.312   4.271   1.125
 9304SOL    HW228812   4.207   4.191   1.222
 9305SOL     OW28813   4.092   1.500   1.821
 9305SOL    HW128814   4.109   1.484   1.724
 9305SOL    HW228815   4.012   1.559   1.832
 9306SOL     OW28816   0.255   4.609   4.824
 9306SOL    HW128817   0.348   4.586   4.794
 9306SOL    HW228818   0.256   4.634   4.921
 9307SOL     OW28819   1.348   3.341   1.377
 9307SOL    HW128820   1.333   3.407   1.450
 9307SOL    HW228821   1.285   3.360   1.302
 9308SOL     OW28822   0.868   3.936   1.245
 9308SOL    HW128823   0.949   3.943   1.187
 9308SOL    HW228824   0.896   3.921   1.340
 9309SOL     OW28825   3.526   5.001   5.351
 9309SOL    HW128826   3.566   4.985   5.260
 9309SOL    HW228827   3.536   4.919   5.407
 9310SOL     OW28828   4.626   6.047   6.373
 9310SOL    HW128829   4.581   5.975   6.320
 9310SOL    HW228830   4.715   6.067   6.332
 9311SOL     OW28831   5.879   4.850   1.968
 9311SOL    HW128832   5.821   4.769   1.959
 9311SOL    HW228833   5.974   4.822   1.984
 9312SOL     OW28834   1.492   3.932   1.517
 9312SOL    HW128835   1.403   3.962   1.482
 9312SOL    HW228836   1.538   3.876   1.448
 9313SOL     OW28837   0.294   0.857   1.042
 9313SOL    HW128838   0.273   0.936   0.985
 9313SOL    HW228839   0.392   0.854   1.060
 9314SOL     OW28840   3.860   5.516   6.310
 9314SOL    HW128841   3.832   5.498   6.216
 9314SOL    HW228842   3.899   5.608   6.316
 9315SOL     OW28843   6.408   0.748   5.152
 9315SOL    HW128844   6.369   0.839   5.164
 9315SOL    HW228845   6.490   0.754   5.095
 9316SOL     OW28846   4.019   5.495   5.695
 9316SOL    HW128847   4.082   5.452   5.629
 9316SOL    HW228848   3.977   5.424   5.752
 9317SOL     OW28849   6.614   5.649   3.107
 9317SOL    HW128850   6.520   5.629   3.078
 9317SOL    HW228851   6.639   5.741   3.075
 9318SOL     OW28852   6.864   1.151   4.732
 9318SOL    HW128853   6.918   1.162   4.649
 9318SOL    HW228854   6.783   1.096   4.712
 9319SOL     OW28855   0.574   2.718   5.861
 9319SOL    HW128856   0.482   2.681   5.854
 9319SOL    HW228857   0.609   2.740   5.770
 9320SOL     OW28858   4.598   1.921   6.811
 9320SOL    HW128859   4.681   1.927   6.754
 9320SOL    HW228860   4.589   1.828   6.845
 9321SOL     OW28861   6.145   7.015   2.545
 9321SOL    HW128862   6.122   0.048   2.464
 9321SOL    HW228863   6.120   0.046   2.627
 9322SOL     OW28864   6.893   6.307   6.213
 9322SOL    HW128865   6.886   6.379   6.145
 9322SOL    HW228866   6.884   6.218   6.168
 9323SOL     OW28867   2.084   0.138   5.822
 9323SOL    HW128868   2.171   0.092   5.806
 9323SOL    HW228869   2.018   0.109   5.753
 9324SOL     OW28870   1.529   4.967   0.584
 9324SOL    HW128871   1.469   4.992   0.660
 9324SOL    HW228872   1.559   5.049   0.536
 9325SOL     OW28873   5.195   1.725   0.589
 9325SOL    HW128874   5.254   1.749   0.666
 9325SOL    HW228875   5.175   1.627   0.592
 9326SOL     OW28876   2.484   0.249   0.896
 9326SOL    HW128877   2.415   0.196   0.945
 9326SOL    HW228878   2.470   0.346   0.913
 9327SOL     OW28879   4.760   6.472   2.589
 9327SOL    HW128880   4.827   6.544   2.608
 9327SOL    HW228881   4.673   6.514   2.564
 9328SOL     OW28882   4.045   1.273   6.035
 9328SOL    HW128883   4.065   1.325   5.952
 9328SOL    HW228884   4.089   1.317   6.114
 9329SOL     OW28885   6.893   3.773   2.442
 9329SOL    HW128886   6.903   3.777   2.541
 9329SOL    HW228887   6.888   3.866   2.406
 9330SOL     OW28888   0.194   6.205   0.304
 9330SOL    HW128889   0.228   6.276   0.242
 9330SOL    HW228890   0.204   6.236   0.398
 9331SOL     OW28891   1.260   1.072   5.788
 9331SOL    HW128892   1.279   1.048   5.883
 9331SOL    HW228893   1.197   1.005   5.749
 9332SOL     OW28894   3.626   4.001   2.907
 9332SOL    HW128895   3.682   3.924   2.935
 9332SOL    HW228896   3.597   4.053   2.987
 9333SOL     OW28897   4.671   3.698   1.444
 9333SOL    HW128898   4.711   3.788   1.462
 9333SOL    HW228899   4.605   3.675   1.515
 9334SOL     OW28900   3.880   6.907   3.730
 9334SOL    HW128901   3.883   6.868   3.822
 9334SOL    HW228902   3.814   6.855   3.674
 9335SOL     OW28903   1.247   0.711   5.842
 9335SOL    HW128904   1.173   0.762   5.885
 9335SOL    HW228905   1.224   0.692   5.746
 9336SOL     OW28906   3.652   5.921   6.585
 9336SOL    HW128907   3.591   5.965   6.519
 9336SOL    HW228908   3.680   5.987   6.655
 9337SOL     OW28909   5.153   0.505   3.266
 9337SOL    HW128910   5.218   0.457   3.325
 9337SOL    HW228911   5.167   0.604   3.273
 9338SOL     OW28912   4.490   0.683   2.014
 9338SOL    HW128913   4.587   0.662   2.026
 9338SOL    HW228914   4.475   0.721   1.922
 9339SOL     OW28915   5.391   6.836   0.432
 9339SOL    HW128916   5.456   6.908   0.458
 9339SOL    HW228917   5.440   6.759   0.393
 9340SOL     OW28918   4.985   3.717   5.225
 9340SOL    HW128919   4.922   3.657   5.175
 9340SOL    HW228920   5.069   3.729   5.173
 9341SOL     OW28921   0.558   5.919   6.257
 9341SOL    HW128922   0.559   6.019   6.263
 9341SOL    HW228923   0.569   5.880   6.349
 9342SOL     OW28924   2.095   0.534   4.176
 9342SOL    HW128925   2.165   0.509   4.110
 9342SOL    HW228926   2.004   0.529   4.133
 9343SOL     OW28927   6.382   4.581   3.216
 9343SOL    HW128928   6.452   4.526   3.263
 9343SOL    HW228929   6.333   4.523   3.151
 9344SOL     OW28930   4.649   5.576   1.679
 9344SOL    HW128931   4.643   5.668   1.718
 9344SOL    HW228932   4.630   5.580   1.581
 9345SOL     OW28933   6.054   3.745   1.766
 9345SOL    HW128934   6.066   3.809   1.690
 9345SOL    HW228935   6.043   3.796   1.851
 9346SOL     OW28936   6.105   1.169   1.090
 9346SOL    HW128937   6.082   1.077   1.122
 9346SOL    HW228938   6.124   1.167   0.992
 9347SOL     OW28939   1.681   5.370   0.740
 9347SOL    HW128940   1.743   5.379   0.662
 9347SOL    HW228941   1.718   5.421   0.818
 9348SOL     OW28942   4.177   5.670   1.640
 9348SOL    HW128943   4.095   5.614   1.626
 9348SOL    HW228944   4.173   5.749   1.579
 9349SOL     OW28945   0.971   0.158   2.514
 9349SOL    HW128946   1.011   0.143   2.424
 9349SOL    HW228947   0.903   0.231   2.509
 9350SOL     OW28948   0.862   2.862   5.462
 9350SOL    HW128949   0.929   2.876   5.535
 9350SOL    HW228950   0.883   2.923   5.386
 9351SOL     OW28951   3.274   1.254   6.396
 9351SOL    HW128952   3.217   1.220   6.321
 9351SOL    HW228953   3.322   1.337   6.366
 9352SOL     OW28954   2.509   3.420   0.250
 9352SOL    HW128955   2.594   3.443   0.296
 9352SOL    HW228956   2.439   3.398   0.318
 9353SOL     OW28957   0.613   5.146   2.027
 9353SOL    HW128958   0.668   5.097   2.095
 9353SOL    HW228959   0.557   5.080   1.976
 9354SOL     OW28960   6.814   2.319   6.407
 9354SOL    HW128961   6.893   2.264   6.433
 9354SOL    HW228962   6.822   2.344   6.310
 9355SOL     OW28963   0.843   2.352   4.963
 9355SOL    HW128964   0.855   2.268   4.910
 9355SOL    HW228965   0.904   2.423   4.926
 9356SOL     OW28966   3.771   6.985   1.401
 9356SOL    HW128967   3.685   7.007   1.355
 9356SOL    HW228968   3.760   6.997   1.500
 9357SOL     OW28969   1.026   2.550   6.449
 9357SOL    HW128970   0.995   2.628   6.395
 9357SOL    HW228971   1.061   2.582   6.537
 9358SOL     OW28972   0.271   4.557   2.605
 9358SOL    HW128973   0.179   4.558   2.645
 9358SOL    HW228974   0.280   4.633   2.541
 9359SOL     OW28975   1.663   5.574   6.213
 9359SOL    HW128976   1.627   5.500   6.156
 9359SOL    HW228977   1.747   5.610   6.173
 9360SOL     OW28978   1.614   5.965   6.602
 9360SOL    HW128979   1.618   6.060   6.571
 9360SOL    HW228980   1.521   5.930   6.588
 9361SOL     OW28981   2.059   5.978   3.431
 9361SOL    HW128982   2.137   5.961   3.490
 9361SOL    HW228983   2.015   6.064   3.457
 9362SOL     OW28984   1.945   1.646   2.002
 9362SOL    HW128985   1.912   1.574   1.940
 9362SOL    HW228986   1.869   1.705   2.028
 9363SOL     OW28987   3.436   5.065   1.966
 9363SOL    HW128988   3.379   5.146   1.980
 9363SOL    HW228989   3.382   4.983   1.989
 9364SOL     OW28990   2.509   2.896   1.737
 9364SOL    HW128991   2.461   2.812   1.763
 9364SOL    HW228992   2.450   2.974   1.753
 9365SOL     OW28993   2.630   1.995   4.351
 9365SOL    HW128994   2.727   1.971   4.356
 9365SOL    HW228995   2.616   2.088   4.386
 9366SOL     OW28996   3.603   5.948   0.680
 9366SOL    HW128997   3.585   6.046   0.689
 9366SOL    HW228998   3.673   5.933   0.611
 9367SOL     OW28999   5.485   0.666   0.841
 9367SOL    HW129000   5.394   0.696   0.811
 9367SOL    HW229001   5.535   0.631   0.762
 9368SOL     OW29002   3.756   0.009   2.503
 9368SOL    HW129003   3.661   6.997   2.498
 9368SOL    HW229004   3.764   0.095   2.453
 9369SOL     OW29005   0.426   5.723   4.753
 9369SOL    HW129006   0.459   5.657   4.684
 9369SOL    HW229007   0.334   5.698   4.782
 9370SOL     OW29008   4.409   1.539   4.007
 9370SOL    HW129009   4.489   1.578   4.053
 9370SOL    HW229010   4.439   1.466   3.945
 9371SOL     OW29011   3.848   5.332   1.215
 9371SOL    HW129012   3.811   5.418   1.250
 9371SOL    HW229013   3.823   5.322   1.119
 9372SOL     OW29014   4.615   0.076   1.385
 9372SOL    HW129015   4.548   0.059   1.458
 9372SOL    HW229016   4.591   0.022   1.304
 9373SOL     OW29017   6.184   2.636   0.461
 9373SOL    HW129018   6.181   2.710   0.529
 9373SOL    HW229019   6.093   2.624   0.421
 9374SOL     OW29020   0.614   4.389   5.672
 9374SOL    HW129021   0.619   4.324   5.748
 9374SOL    HW229022   0.527   4.437   5.674
 9375SOL     OW29023   6.954   2.082   0.224
 9375SOL    HW129024   6.906   2.165   0.252
 9375SOL    HW229025   7.012   2.101   0.146
 9376SOL     OW29026   2.104   3.741   2.124
 9376SOL    HW129027   2.155   3.662   2.092
 9376SOL    HW229028   2.134   3.766   2.216
 9377SOL     OW29029   1.863   4.991   2.096
 9377SOL    HW129030   1.795   4.919   2.111
 9377SOL    HW229031   1.954   4.950   2.096
 9378SOL     OW29032   3.622   0.620   3.839
 9378SOL    HW129033   3.717   0.613   3.871
 9378SOL    HW229034   3.572   0.683   3.899
 9379SOL     OW29035   4.360   6.738   4.637
 9379SOL    HW129036   4.358   6.639   4.624
 9379SOL    HW229037   4.370   6.783   4.549
 9380SOL     OW29038   3.798   5.437   6.062
 9380SOL    HW129039   3.741   5.506   6.017
 9380SOL    HW229040   3.740   5.363   6.096
 9381SOL     OW29041   4.882   1.829   4.401
 9381SOL    HW129042   4.866   1.735   4.433
 9381SOL    HW229043   4.923   1.882   4.475
 9382SOL     OW29044   3.418   0.589   4.145
 9382SOL    HW129045   3.451   0.660   4.083
 9382SOL    HW229046   3.399   0.506   4.094
 9383SOL     OW29047   4.962   4.017   3.427
 9383SOL    HW129048   4.929   3.925   3.405
 9383SOL    HW229049   4.933   4.080   3.355
 9384SOL     OW29050   1.629   6.755   1.949
 9384SOL    HW129051   1.551   6.733   2.008
 9384SOL    HW229052   1.713   6.719   1.991
 9385SOL     OW29053   3.989   1.575   3.853
 9385SOL    HW129054   3.905   1.621   3.827
 9385SOL    HW229055   3.992   1.484   3.811
 9386SOL     OW29056   4.015   5.752   5.195
 9386SOL    HW129057   3.917   5.770   5.189
 9386SOL    HW229058   4.032   5.676   5.257
 9387SOL     OW29059   3.967   1.917   6.901
 9387SOL    HW129060   4.037   1.950   6.964
 9387SOL    HW229061   3.987   1.822   6.875
 9388SOL     OW29062   1.842   6.835   3.766
 9388SOL    HW129063   1.804   6.913   3.815
 9388SOL    HW229064   1.848   6.756   3.827
 9389SOL     OW29065   3.297   4.933   2.462
 9389SOL    HW129066   3.355   4.877   2.402
 9389SOL    HW229067   3.345   5.018   2.485
 9390SOL     OW29068   5.441   4.590   5.527
 9390SOL    HW129069   5.403   4.589   5.620
 9390SOL    HW229070   5.367   4.580   5.461
 9391SOL     OW29071   1.084   6.830   4.704
 9391SOL    HW129072   1.147   6.806   4.778
 9391SOL    HW229073   0.990   6.827   4.736
 9392SOL     OW29074   5.252   4.097   3.361
 9392SOL    HW129075   5.212   4.006   3.370
 9392SOL    HW229076   5.266   4.117   3.264
 9393SOL     OW29077   3.204   5.929   6.188
 9393SOL    HW129078   3.226   5.986   6.108
 9393SOL    HW229079   3.110   5.897   6.181
 9394SOL     OW29080   5.587   0.430   1.031
 9394SOL    HW129081   5.601   0.491   0.953
 9394SOL    HW229082   5.501   0.381   1.019
 9395SOL     OW29083   2.879   1.472   0.988
 9395SOL    HW129084   2.789   1.496   0.952
 9395SOL    HW229085   2.920   1.400   0.932
 9396SOL     OW29086   1.863   5.965   6.466
 9396SOL    HW129087   1.918   5.881   6.471
 9396SOL    HW229088   1.795   5.964   6.540
 9397SOL     OW29089   3.947   0.164   6.169
 9397SOL    HW129090   3.940   0.095   6.241
 9397SOL    HW229091   4.036   0.209   6.175
 9398SOL     OW29092   6.751   1.332   6.394
 9398SOL    HW129093   6.802   1.417   6.379
 9398SOL    HW229094   6.719   1.330   6.489
 9399SOL     OW29095   1.529   2.797   3.978
 9399SOL    HW129096   1.439   2.758   3.957
 9399SOL    HW229097   1.600   2.738   3.942
 9400SOL     OW29098   5.359   1.359   0.903
 9400SOL    HW129099   5.342   1.285   0.837
 9400SOL    HW229100   5.280   1.420   0.905
 9401SOL     OW29101   0.861   2.382   2.816
 9401SOL    HW129102   0.813   2.367   2.903
 9401SOL    HW229103   0.846   2.304   2.756
 9402SOL     OW29104   1.820   5.853   2.959
 9402SOL    HW129105   1.880   5.874   3.036
 9402SOL    HW229106   1.777   5.764   2.974
 9403SOL     OW29107   6.829   1.813   2.052
 9403SOL    HW129108   6.782   1.870   2.119
 9403SOL    HW229109   6.787   1.824   1.963
 9404SOL     OW29110   1.858   3.419   0.944
 9404SOL    HW129111   1.893   3.328   0.966
 9404SOL    HW229112   1.793   3.413   0.869
 9405SOL     OW29113   0.267   4.605   5.091
 9405SOL    HW129114   0.187   4.611   5.150
 9405SOL    HW229115   0.299   4.510   5.088
 9406SOL     OW29116   0.222   3.051   6.390
 9406SOL    HW129117   0.224   2.970   6.331
 9406SOL    HW229118   0.176   3.028   6.476
 9407SOL     OW29119   2.219   5.313   4.834
 9407SOL    HW129120   2.184   5.367   4.910
 9407SOL    HW229121   2.151   5.311   4.761
 9408SOL     OW29122   6.704   3.818   4.999
 9408SOL    HW129123   6.606   3.826   4.984
 9408SOL    HW229124   6.751   3.813   4.911
 9409SOL     OW29125   6.735   5.215   1.926
 9409SOL    HW129126   6.674   5.266   1.987
 9409SOL    HW229127   6.691   5.202   1.837
 9410SOL     OW29128   4.260   0.454   2.193
 9410SOL    HW129129   4.325   0.520   2.230
 9410SOL    HW229130   4.188   0.503   2.142
 9411SOL     OW29131   4.041   3.238   3.610
 9411SOL    HW129132   4.070   3.223   3.515
 9411SOL    HW229133   3.949   3.199   3.623
 9412SOL     OW29134   0.290   0.953   1.364
 9412SOL    HW129135   0.222   0.984   1.298
 9412SOL    HW229136   0.380   0.948   1.320
 9413SOL     OW29137   4.303   4.957   3.880
 9413SOL    HW129138   4.396   4.950   3.918
 9413SOL    HW229139   4.248   4.881   3.913
 9414SOL     OW29140   2.355   2.328   5.423
 9414SOL    HW129141   2.274   2.297   5.472
 9414SOL    HW229142   2.335   2.414   5.376
 9415SOL     OW29143   3.734   0.441   2.555
 9415SOL    HW129144   3.734   0.537   2.581
 9415SOL    HW229145   3.812   0.422   2.495
 9416SOL     OW29146   0.240   6.252   6.211
 9416SOL    HW129147   0.263   6.169   6.262
 9416SOL    HW229148   0.156   6.236   6.158
 9417SOL     OW29149   2.763   6.268   1.105
 9417SOL    HW129150   2.800   6.290   1.195
 9417SOL    HW229151   2.772   6.347   1.045
 9418SOL     OW29152   2.946   1.980   4.367
 9418SOL    HW129153   2.981   2.074   4.370
 9418SOL    HW229154   2.975   1.932   4.450
 9419SOL     OW29155   3.235   2.397   0.148
 9419SOL    HW129156   3.328   2.369   0.174
 9419SOL    HW229157   3.176   2.398   0.229
 9420SOL     OW29158   5.629   3.191   0.215
 9420SOL    HW129159   5.668   3.225   0.301
 9420SOL    HW229160   5.586   3.102   0.231
 9421SOL     OW29161   3.926   6.258   5.572
 9421SOL    HW129162   3.970   6.169   5.585
 9421SOL    HW229163   3.838   6.259   5.619
 9422SOL     OW29164   2.593   5.765   4.292
 9422SOL    HW129165   2.638   5.692   4.343
 9422SOL    HW229166   2.659   5.808   4.230
 9423SOL     OW29167   3.931   5.952   3.409
 9423SOL    HW129168   3.970   5.987   3.323
 9423SOL    HW229169   3.996   5.888   3.450
 9424SOL     OW29170   5.218   0.808   4.605
 9424SOL    HW129171   5.191   0.751   4.682
 9424SOL    HW229172   5.152   0.797   4.530
 9425SOL     OW29173   6.743   4.947   0.393
 9425SOL    HW129174   6.810   4.929   0.465
 9425SOL    HW229175   6.682   5.021   0.421
 9426SOL     OW29176   0.342   1.485   6.170
 9426SOL    HW129177   0.376   1.551   6.103
 9426SOL    HW229178   0.321   1.533   6.256
 9427SOL     OW29179   3.499   5.906   2.965
 9427SOL    HW129180   3.417   5.929   3.017
 9427SOL    HW229181   3.495   5.950   2.875
 9428SOL     OW29182   6.648   0.336   6.816
 9428SOL    HW129183   6.644   0.338   6.716
 9428SOL    HW229184   6.576   0.277   6.851
 9429SOL     OW29185   1.221   2.450   4.166
 9429SOL    HW129186   1.204   2.374   4.104
 9429SOL    HW229187   1.214   2.418   4.261
 9430SOL     OW29188   0.488   2.134   4.170
 9430SOL    HW129189   0.530   2.197   4.105
 9430SOL    HW229190   0.530   2.044   4.162
 9431SOL     OW29191   6.862   4.658   6.852
 9431SOL    HW129192   6.861   4.558   6.856
 9431SOL    HW229193   6.794   4.689   6.786
 9432SOL     OW29194   6.855   1.899   3.538
 9432SOL    HW129195   6.829   1.912   3.634
 9432SOL    HW229196   6.773   1.885   3.483
 9433SOL     OW29197   3.655   6.265   3.058
 9433SOL    HW129198   3.738   6.209   3.050
 9433SOL    HW229199   3.589   6.217   3.116
 9434SOL     OW29200   5.200   5.587   4.024
 9434SOL    HW129201   5.261   5.606   4.101
 9434SOL    HW229202   5.141   5.510   4.046
 9435SOL     OW29203   0.564   2.872   2.060
 9435SOL    HW129204   0.501   2.909   1.991
 9435SOL    HW229205   0.532   2.782   2.089
 9436SOL     OW29206   0.828   0.709   3.035
 9436SOL    HW129207   0.808   0.702   2.937
 9436SOL    HW229208   0.759   0.657   3.087
 9437SOL     OW29209   0.008   5.085   4.367
 9437SOL    HW129210   0.003   5.157   4.298
 9437SOL    HW229211   0.014   4.996   4.322
 9438SOL     OW29212   2.647   6.623   1.906
 9438SOL    HW129213   2.557   6.650   1.940
 9438SOL    HW229214   2.702   6.705   1.888
 9439SOL     OW29215   0.720   2.953   6.924
 9439SOL    HW129216   0.753   3.024   6.987
 9439SOL    HW229217   0.621   2.961   6.916
 9440SOL     OW29218   3.014   4.846   3.484
 9440SOL    HW129219   3.046   4.924   3.537
 9440SOL    HW229220   3.084   4.819   3.418
 9441SOL     OW29221   6.835   6.034   4.322
 9441SOL    HW129222   6.751   5.987   4.348
 9441SOL    HW229223   6.908   5.967   4.307
 9442SOL     OW29224   4.316   3.640   0.568
 9442SOL    HW129225   4.389   3.596   0.516
 9442SOL    HW229226   4.353   3.676   0.653
 9443SOL     OW29227   2.173   4.644   2.693
 9443SOL    HW129228   2.185   4.698   2.609
 9443SOL    HW229229   2.194   4.701   2.772
 9444SOL     OW29230   1.855   4.149   0.328
 9444SOL    HW129231   1.952   4.159   0.310
 9444SOL    HW229232   1.838   4.063   0.377
 9445SOL     OW29233   0.635   1.442   3.787
 9445SOL    HW129234   0.625   1.395   3.875
 9445SOL    HW229235   0.549   1.436   3.737
 9446SOL     OW29236   6.550   5.126   3.404
 9446SOL    HW129237   6.543   5.027   3.409
 9446SOL    HW229238   6.632   5.156   3.454
 9447SOL     OW29239   5.421   5.153   2.584
 9447SOL    HW129240   5.381   5.081   2.527
 9447SOL    HW229241   5.351   5.191   2.645
 9448SOL     OW29242   5.885   0.309   5.810
 9448SOL    HW129243   5.908   0.328   5.714
 9448SOL    HW229244   5.853   0.393   5.854
 9449SOL     OW29245   6.141   6.507   1.516
 9449SOL    HW129246   6.181   6.418   1.539
 9449SOL    HW229247   6.087   6.499   1.432
 9450SOL     OW29248   1.694   6.105   4.074
 9450SOL    HW129249   1.652   6.180   4.126
 9450SOL    HW229250   1.758   6.143   4.007
 9451SOL     OW29251   3.527   5.690   6.772
 9451SOL    HW129252   3.613   5.641   6.790
 9451SOL    HW229253   3.543   5.761   6.704
 9452SOL     OW29254   6.985   4.139   0.999
 9452SOL    HW129255   0.015   4.124   1.084
 9452SOL    HW229256   0.007   4.086   0.925
 9453SOL     OW29257   3.780   5.457   3.350
 9453SOL    HW129258   3.863   5.474   3.403
 9453SOL    HW229259   3.704   5.440   3.411
 9454SOL     OW29260   4.459   4.427   0.809
 9454SOL    HW129261   4.549   4.387   0.825
 9454SOL    HW229262   4.393   4.353   0.791
 9455SOL     OW29263   2.636   2.269   1.979
 9455SOL    HW129264   2.594   2.186   2.016
 9455SOL    HW229265   2.725   2.284   2.022
 9456SOL     OW29266   5.847   2.520   2.416
 9456SOL    HW129267   5.844   2.459   2.336
 9456SOL    HW229268   5.903   2.477   2.487
 9457SOL     OW29269   1.018   4.828   3.861
 9457SOL    HW129270   1.058   4.917   3.841
 9457SOL    HW229271   0.920   4.830   3.840
 9458SOL     OW29272   6.622   4.153   0.284
 9458SOL    HW129273   6.580   4.071   0.324
 9458SOL    HW229274   6.721   4.142   0.285
 9459SOL     OW29275   5.058   4.917   4.956
 9459SOL    HW129276   5.137   4.918   4.895
 9459SOL    HW229277   5.079   4.968   5.039
 9460SOL     OW29278   0.958   2.699   2.917
 9460SOL    HW129279   0.942   2.602   2.934
 9460SOL    HW229280   0.881   2.736   2.865
 9461SOL     OW29281   1.788   2.237   1.657
 9461SOL    HW129282   1.728   2.165   1.692
 9461SOL    HW229283   1.831   2.207   1.572
 9462SOL     OW29284   2.108   1.637   4.458
 9462SOL    HW129285   2.184   1.639   4.524
 9462SOL    HW229286   2.113   1.718   4.400
 9463SOL     OW29287   5.686   6.293   0.707
 9463SOL    HW129288   5.747   6.231   0.658
 9463SOL    HW229289   5.663   6.254   0.796
 9464SOL     OW29290   0.464   0.986   1.990
 9464SOL    HW129291   0.401   1.050   1.947
 9464SOL    HW229292   0.484   0.911   1.927
 9465SOL     OW29293   0.107   4.132   1.225
 9465SOL    HW129294   0.204   4.113   1.216
 9465SOL    HW229295   0.072   4.091   1.309
 9466SOL     OW29296   3.929   5.175   6.950
 9466SOL    HW129297   3.876   5.257   6.968
 9466SOL    HW229298   3.932   5.157   6.852
 9467SOL     OW29299   2.117   3.466   0.827
 9467SOL    HW129300   2.197   3.479   0.885
 9467SOL    HW229301   2.034   3.479   0.882
 9468SOL     OW29302   6.404   3.020   0.559
 9468SOL    HW129303   6.312   2.987   0.539
 9468SOL    HW229304   6.421   3.012   0.658
 9469SOL     OW29305   0.060   6.179   0.783
 9469SOL    HW129306   7.000   6.224   0.820
 9469SOL    HW229307   0.061   6.083   0.811
 9470SOL     OW29308   4.545   3.855   0.547
 9470SOL    HW129309   4.543   3.811   0.637
 9470SOL    HW229310   4.512   3.949   0.556
 9471SOL     OW29311   5.978   2.149   5.040
 9471SOL    HW129312   6.071   2.126   5.070
 9471SOL    HW229313   5.974   2.246   5.018
 9472SOL     OW29314   1.507   3.933   6.416
 9472SOL    HW129315   1.585   3.977   6.461
 9472SOL    HW229316   1.429   3.932   6.479
 9473SOL     OW29317   2.728   4.412   0.355
 9473SOL    HW129318   2.730   4.414   0.455
 9473SOL    HW229319   2.649   4.359   0.324
 9474SOL     OW29320   5.564   3.634   1.531
 9474SOL    HW129321   5.549   3.647   1.629
 9474SOL    HW229322   5.587   3.722   1.489
 9475SOL     OW29323   4.691   3.621   5.939
 9475SOL    HW129324   4.724   3.707   5.900
 9475SOL    HW229325   4.769   3.564   5.964
 9476SOL     OW29326   3.600   4.130   6.059
 9476SOL    HW129327   3.642   4.207   6.107
 9476SOL    HW229328   3.672   4.072   6.022
 9477SOL     OW29329   2.163   4.043   1.606
 9477SOL    HW129330   2.137   3.987   1.527
 9477SOL    HW229331   2.097   4.030   1.680
 9478SOL     OW29332   5.290   2.701   0.519
 9478SOL    HW129333   5.282   2.603   0.535
 9478SOL    HW229334   5.377   2.721   0.473
 9479SOL     OW29335   4.050   0.647   2.097
 9479SOL    HW129336   4.087   0.598   2.018
 9479SOL    HW229337   3.973   0.703   2.069
 9480SOL     OW29338   6.249   6.799   6.958
 9480SOL    HW129339   6.314   6.859   7.004
 9480SOL    HW229340   6.298   6.723   6.916
 9481SOL     OW29341   4.379   1.932   3.134
 9481SOL    HW129342   4.281   1.917   3.146
 9481SOL    HW229343   4.412   1.881   3.055
 9482SOL     OW29344   5.858   0.851   0.993
 9482SOL    HW129345   5.867   0.943   0.954
 9482SOL    HW229346   5.761   0.832   1.010
 9483SOL     OW29347   0.588   0.485   0.623
 9483SOL    HW129348   0.593   0.583   0.604
 9483SOL    HW229349   0.493   0.455   0.618
 9484SOL     OW29350   2.869   5.726   4.428
 9484SOL    HW129351   2.860   5.656   4.498
 9484SOL    HW229352   2.900   5.683   4.343
 9485SOL     OW29353   6.657   1.596   6.979
 9485SOL    HW129354   6.641   1.692   7.000
 9485SOL    HW229355   6.716   1.589   6.899
 9486SOL     OW29356   4.479   5.716   6.892
 9486SOL    HW129357   4.540   5.637   6.880
 9486SOL    HW229358   4.423   5.702   6.974
 9487SOL     OW29359   3.154   3.140   4.284
 9487SOL    HW129360   3.089   3.192   4.228
 9487SOL    HW229361   3.167   3.049   4.243
 9488SOL     OW29362   1.554   1.495   0.856
 9488SOL    HW129363   1.522   1.589   0.866
 9488SOL    HW229364   1.478   1.432   0.874
 9489SOL     OW29365   5.055   4.292   0.350
 9489SOL    HW129366   4.971   4.339   0.325
 9489SOL    HW229367   5.036   4.195   0.364
 9490SOL     OW29368   6.012   4.164   3.500
 9490SOL    HW129369   6.046   4.232   3.436
 9490SOL    HW229370   6.028   4.072   3.464
 9491SOL     OW29371   4.981   6.539   3.395
 9491SOL    HW129372   4.953   6.495   3.481
 9491SOL    HW229373   4.922   6.507   3.321
 9492SOL     OW29374   4.906   3.099   4.593
 9492SOL    HW129375   4.979   3.147   4.546
 9492SOL    HW229376   4.903   3.127   4.689
 9493SOL     OW29377   4.176   6.646   3.727
 9493SOL    HW129378   4.222   6.558   3.745
 9493SOL    HW229379   4.222   6.691   3.650
 9494SOL     OW29380   5.268   2.786   2.155
 9494SOL    HW129381   5.328   2.709   2.176
 9494SOL    HW229382   5.266   2.801   2.056
 9495SOL     OW29383   0.692   0.848   2.541
 9495SOL    HW129384   0.683   0.880   2.447
 9495SOL    HW229385   0.612   0.792   2.565
 9496SOL     OW29386   3.964   2.156   2.352
 9496SOL    HW129387   3.995   2.138   2.259
 9496SOL    HW229388   3.866   2.176   2.352
 9497SOL     OW29389   5.940   5.129   4.671
 9497SOL    HW129390   6.005   5.121   4.746
 9497SOL    HW229391   5.861   5.069   4.689
 9498SOL     OW29392   6.727   5.208   4.513
 9498SOL    HW129393   6.809   5.161   4.480
 9498SOL    HW229394   6.650   5.188   4.452
 9499SOL     OW29395   5.942   5.641   5.667
 9499SOL    HW129396   5.939   5.544   5.644
 9499SOL    HW229397   5.913   5.695   5.588
 9500SOL     OW29398   4.307   0.440   0.899
 9500SOL    HW129399   4.246   0.380   0.848
 9500SOL    HW229400   4.313   0.529   0.853
 9501SOL     OW29401   1.593   1.954   4.760
 9501SOL    HW129402   1.580   1.869   4.710
 9501SOL    HW229403   1.525   1.960   4.834
 9502SOL     OW29404   5.809   4.614   5.678
 9502SOL    HW129405   5.786   4.706   5.646
 9502SOL    HW229406   5.761   4.547   5.622
 9503SOL     OW29407   0.423   2.235   6.849
 9503SOL    HW129408   0.366   2.174   6.905
 9503SOL    HW229409   0.364   2.304   6.805
 9504SOL     OW29410   6.259   4.975   1.718
 9504SOL    HW129411   6.337   4.913   1.726
 9504SOL    HW229412   6.178   4.932   1.759
 9505SOL     OW29413   4.423   4.755   5.186
 9505SOL    HW129414   4.423   4.737   5.285
 9505SOL    HW229415   4.331   4.741   5.149
 9506SOL     OW29416   3.428   2.387   1.431
 9506SOL    HW129417   3.377   2.412   1.349
 9506SOL    HW229418   3.395   2.299   1.466
 9507SOL     OW29419   6.102   0.142   1.975
 9507SOL    HW129420   6.015   0.147   2.024
 9507SOL    HW229421   6.108   0.216   1.908
 9508SOL     OW29422   4.713   1.326   3.124
 9508SOL    HW129423   4.733   1.363   3.215
 9508SOL    HW229424   4.666   1.396   3.069
 9509SOL     OW29425   6.516   0.458   2.861
 9509SOL    HW129426   6.573   0.409   2.927
 9509SOL    HW229427   6.446   0.510   2.909
 9510SOL     OW29428   0.534   2.879   3.734
 9510SOL    HW129429   0.553   2.956   3.673
 9510SOL    HW229430   0.528   2.795   3.680
 9511SOL     OW29431   1.369   1.261   0.374
 9511SOL    HW129432   1.296   1.200   0.344
 9511SOL    HW229433   1.339   1.311   0.455
 9512SOL     OW29434   6.610   2.832   1.170
 9512SOL    HW129435   6.626   2.767   1.095
 9512SOL    HW229436   6.650   2.795   1.255
 9513SOL     OW29437   3.757   4.729   6.722
 9513SOL    HW129438   3.741   4.812   6.776
 9513SOL    HW229439   3.756   4.753   6.625
 9514SOL     OW29440   3.278   3.064   6.522
 9514SOL    HW129441   3.307   3.160   6.523
 9514SOL    HW229442   3.245   3.038   6.612
 9515SOL     OW29443   2.486   4.945   3.852
 9515SOL    HW129444   2.476   5.023   3.912
 9515SOL    HW229445   2.428   4.957   3.771
 9516SOL     OW29446   6.544   3.859   0.369
 9516SOL    HW129447   6.451   3.822   0.360
 9516SOL    HW229448   6.573   3.855   0.464
 9517SOL     OW29449   0.822   4.238   1.201
 9517SOL    HW129450   0.843   4.140   1.201
 9517SOL    HW229451   0.907   4.290   1.204
 9518SOL     OW29452   2.581   1.430   0.304
 9518SOL    HW129453   2.649   1.435   0.231
 9518SOL    HW229454   2.550   1.336   0.315
 9519SOL     OW29455   0.934   2.978   5.219
 9519SOL    HW129456   0.891   2.891   5.193
 9519SOL    HW229457   1.033   2.965   5.225
 9520SOL     OW29458   2.330   0.400   3.129
 9520SOL    HW129459   2.377   0.488   3.139
 9520SOL    HW229460   2.348   0.364   3.038
 9521SOL     OW29461   5.499   5.534   4.012
 9521SOL    HW129462   5.454   5.566   4.096
 9521SOL    HW229463   5.479   5.437   3.998
 9522SOL     OW29464   3.369   6.112   1.207
 9522SOL    HW129465   3.414   6.088   1.120
 9522SOL    HW229466   3.439   6.139   1.273
 9523SOL     OW29467   3.334   4.979   4.837
 9523SOL    HW129468   3.287   4.949   4.754
 9523SOL    HW229469   3.322   4.912   4.909
 9524SOL     OW29470   3.866   3.534   1.084
 9524SOL    HW129471   3.927   3.528   1.005
 9524SOL    HW229472   3.920   3.531   1.168
 9525SOL     OW29473   2.079   0.738   5.945
 9525SOL    HW129474   2.139   0.764   5.869
 9525SOL    HW229475   2.119   0.772   6.031
 9526SOL     OW29476   4.788   6.027   2.988
 9526SOL    HW129477   4.716   5.961   2.964
 9526SOL    HW229478   4.765   6.071   3.075
 9527SOL     OW29479   1.055   1.118   2.150
 9527SOL    HW129480   1.067   1.020   2.133
 9527SOL    HW229481   0.965   1.133   2.192
 9528SOL     OW29482   6.602   0.494   2.211
 9528SOL    HW129483   6.505   0.482   2.188
 9528SOL    HW229484   6.629   0.589   2.196
 9529SOL     OW29485   0.742   2.979   6.271
 9529SOL    HW129486   0.708   3.045   6.204
 9529SOL    HW229487   0.717   2.887   6.243
 9530SOL     OW29488   1.314   2.482   3.287
 9530SOL    HW129489   1.227   2.441   3.259
 9530SOL    HW229490   1.315   2.579   3.261
 9531SOL     OW29491   3.389   6.995   3.269
 9531SOL    HW129492   3.340   6.965   3.350
 9531SOL    HW229493   3.474   6.943   3.260
 9532SOL     OW29494   1.897   7.019   1.486
 9532SOL    HW129495   1.829   0.072   1.483
 9532SOL    HW229496   1.981   0.029   1.441
 9533SOL     OW29497   1.580   0.906   5.831
 9533SOL    HW129498   1.679   0.896   5.845
 9533SOL    HW229499   1.563   0.955   5.745
 9534SOL     OW29500   5.182   1.948   4.878
 9534SOL    HW129501   5.096   1.916   4.837
 9534SOL    HW229502   5.191   2.046   4.864
 9535SOL     OW29503   2.285   1.417   5.414
 9535SOL    HW129504   2.291   1.424   5.514
 9535SOL    HW229505   2.358   1.472   5.373
 9536SOL     OW29506   1.541   5.601   5.295
 9536SOL    HW129507   1.637   5.579   5.279
 9536SOL    HW229508   1.532   5.653   5.380
 9537SOL     OW29509   3.232   0.190   1.846
 9537SOL    HW129510   3.237   0.112   1.907
 9537SOL    HW229511   3.316   0.244   1.853
 9538SOL     OW29512   6.693   2.213   4.650
 9538SOL    HW129513   6.691   2.115   4.672
 9538SOL    HW229514   6.679   2.266   4.733
 9539SOL     OW29515   0.577   5.815   0.193
 9539SOL    HW129516   0.598   5.807   0.095
 9539SOL    HW229517   0.647   5.871   0.238
 9540SOL     OW29518   4.358   5.110   4.486
 9540SOL    HW129519   4.399   5.032   4.438
 9540SOL    HW229520   4.397   5.195   4.452
 9541SOL     OW29521   1.943   2.929   4.094
 9541SOL    HW129522   1.876   2.882   4.153
 9541SOL    HW229523   2.030   2.938   4.143
 9542SOL     OW29524   5.114   3.413   4.726
 9542SOL    HW129525   5.038   3.474   4.750
 9542SOL    HW229526   5.132   3.352   4.803
 9543SOL     OW29527   5.136   1.133   3.317
 9543SOL    HW129528   5.104   1.211   3.371
 9543SOL    HW229529   5.204   1.165   3.250
 9544SOL     OW29530   4.935   1.102   2.752
 9544SOL    HW129531   4.999   1.180   2.746
 9544SOL    HW229532   4.938   1.050   2.667
 9545SOL     OW29533   6.679   0.816   3.637
 9545SOL    HW129534   6.684   0.850   3.731
 9545SOL    HW229535   6.616   0.872   3.584
 9546SOL     OW29536   2.595   5.369   0.162
 9546SOL    HW129537   2.544   5.298   0.114
 9546SOL    HW229538   2.533   5.419   0.223
 9547SOL     OW29539   0.814   6.454   4.485
 9547SOL    HW129540   0.897   6.410   4.451
 9547SOL    HW229541   0.824   6.470   4.584
 9548SOL     OW29542   4.836   6.107   4.022
 9548SOL    HW129543   4.866   6.034   3.961
 9548SOL    HW229544   4.760   6.157   3.981
 9549SOL     OW29545   2.540   6.204   0.706
 9549SOL    HW129546   2.614   6.166   0.761
 9549SOL    HW229547   2.505   6.286   0.750
 9550SOL     OW29548   1.226   2.070   0.617
 9550SOL    HW129549   1.294   2.112   0.558
 9550SOL    HW229550   1.138   2.117   0.605
 9551SOL     OW29551   0.730   6.589   4.734
 9551SOL    HW129552   0.645   6.570   4.782
 9551SOL    HW229553   0.726   6.681   4.695
 9552SOL     OW29554   1.730   6.160   3.160
 9552SOL    HW129555   1.816   6.121   3.129
 9552SOL    HW229556   1.746   6.221   3.238
 9553SOL     OW29557   6.045   4.298   5.738
 9553SOL    HW129558   6.097   4.265   5.817
 9553SOL    HW229559   6.015   4.392   5.754
 9554SOL     OW29560   2.581   1.321   2.033
 9554SOL    HW129561   2.562   1.379   1.954
 9554SOL    HW229562   2.501   1.264   2.053
 9555SOL     OW29563   6.885   2.606   0.697
 9555SOL    HW129564   6.880   2.685   0.635
 9555SOL    HW229565   6.969   2.611   0.750
 9556SOL     OW29566   2.343   1.370   1.389
 9556SOL    HW129567   2.316   1.394   1.483
 9556SOL    HW229568   2.386   1.448   1.345
 9557SOL     OW29569   5.438   7.016   2.362
 9557SOL    HW129570   5.409   0.062   2.293
 9557SOL    HW229571   5.462   0.044   2.446
 9558SOL     OW29572   6.558   4.811   2.838
 9558SOL    HW129573   6.599   4.802   2.747
 9558SOL    HW229574   6.573   4.726   2.889
 9559SOL     OW29575   6.392   3.415   1.712
 9559SOL    HW129576   6.417   3.336   1.656
 9559SOL    HW229577   6.312   3.460   1.672
 9560SOL     OW29578   3.159   1.511   3.665
 9560SOL    HW129579   3.107   1.575   3.722
 9560SOL    HW229580   3.183   1.555   3.579
 9561SOL     OW29581   4.166   6.853   0.686
 9561SOL    HW129582   4.107   6.822   0.762
 9561SOL    HW229583   4.260   6.861   0.719
 9562SOL     OW29584   5.068   4.963   3.048
 9562SOL    HW129585   5.064   5.061   3.031
 9562SOL    HW229586   5.100   4.916   2.966
 9563SOL     OW29587   6.586   5.894   6.815
 9563SOL    HW129588   6.532   5.933   6.889
 9563SOL    HW229589   6.677   5.870   6.849
 9564SOL     OW29590   3.020   6.826   0.054
 9564SOL    HW129591   3.041   6.857   0.147
 9564SOL    HW229592   3.051   6.731   0.043
 9565SOL     OW29593   3.932   5.812   4.565
 9565SOL    HW129594   3.857   5.877   4.579
 9565SOL    HW229595   3.894   5.723   4.541
 9566SOL     OW29596   2.697   4.337   5.364
 9566SOL    HW129597   2.669   4.243   5.383
 9566SOL    HW229598   2.764   4.339   5.290
 9567SOL     OW29599   6.099   5.797   5.825
 9567SOL    HW129600   6.085   5.775   5.921
 9567SOL    HW229601   6.034   5.744   5.769
 9568SOL     OW29602   4.917   3.718   6.670
 9568SOL    HW129603   4.946   3.803   6.628
 9568SOL    HW229604   4.917   3.729   6.770
 9569SOL     OW29605   6.283   0.873   0.337
 9569SOL    HW129606   6.204   0.879   0.276
 9569SOL    HW229607   6.367   0.881   0.284
 9570SOL     OW29608   1.157   1.088   0.334
 9570SOL    HW129609   1.118   1.095   0.426
 9570SOL    HW229610   1.169   0.991   0.311
 9571SOL     OW29611   2.097   3.883   0.158
 9571SOL    HW129612   2.122   3.835   0.242
 9571SOL    HW229613   1.998   3.901   0.157
 9572SOL     OW29614   1.340   4.267   1.939
 9572SOL    HW129615   1.438   4.280   1.921
 9572SOL    HW229616   1.292   4.253   1.853
 9573SOL     OW29617   2.144   1.760   0.413
 9573SOL    HW129618   2.140   1.810   0.327
 9573SOL    HW229619   2.239   1.748   0.441
 9574SOL     OW29620   2.889   2.926   5.777
 9574SOL    HW129621   2.879   2.850   5.841
 9574SOL    HW229622   2.914   2.891   5.687
 9575SOL     OW29623   5.267   0.662   2.677
 9575SOL    HW129624   5.358   0.622   2.685
 9575SOL    HW229625   5.198   0.590   2.678
 9576SOL     OW29626   2.975   1.087   5.050
 9576SOL    HW129627   2.935   1.174   5.023
 9576SOL    HW229628   2.928   1.012   5.003
 9577SOL     OW29629   0.734   6.332   3.041
 9577SOL    HW129630   0.767   6.380   2.960
 9577SOL    HW229631   0.681   6.252   3.013
 9578SOL     OW29632   6.089   2.527   2.181
 9578SOL    HW129633   6.052   2.613   2.215
 9578SOL    HW229634   6.014   2.463   2.163
 9579SOL     OW29635   0.862   6.378   2.457
 9579SOL    HW129636   0.947   6.373   2.509
 9579SOL    HW229637   0.811   6.292   2.467
 9580SOL     OW29638   4.372   3.426   5.577
 9580SOL    HW129639   4.441   3.454   5.644
 9580SOL    HW229640   4.355   3.500   5.513
 9581SOL     OW29641   0.864   4.443   5.993
 9581SOL    HW129642   0.904   4.500   6.064
 9581SOL    HW229643   0.836   4.500   5.916
 9582SOL     OW29644   4.272   4.749   4.467
 9582SOL    HW129645   4.336   4.706   4.403
 9582SOL    HW229646   4.293   4.718   4.560
 9583SOL     OW29647   2.044   4.672   2.307
 9583SOL    HW129648   2.055   4.730   2.227
 9583SOL    HW229649   1.962   4.699   2.357
 9584SOL     OW29650   6.199   5.764   6.236
 9584SOL    HW129651   6.205   5.664   6.226
 9584SOL    HW229652   6.202   5.787   6.334
 9585SOL     OW29653   5.996   0.441   4.524
 9585SOL    HW129654   5.961   0.386   4.449
 9585SOL    HW229655   6.072   0.394   4.568
 9586SOL     OW29656   5.654   3.449   2.923
 9586SOL    HW129657   5.649   3.376   2.855
 9586SOL    HW229658   5.567   3.457   2.971
 9587SOL     OW29659   5.332   0.032   2.693
 9587SOL    HW129660   5.309   6.976   2.633
 9587SOL    HW229661   5.277   0.112   2.667
 9588SOL     OW29662   1.000   0.499   1.841
 9588SOL    HW129663   1.028   0.594   1.855
 9588SOL    HW229664   1.069   0.452   1.785
 9589SOL     OW29665   2.890   1.303   6.555
 9589SOL    HW129666   2.819   1.373   6.552
 9589SOL    HW229667   2.910   1.271   6.463
 9590SOL     OW29668   6.924   4.251   3.826
 9590SOL    HW129669   6.879   4.276   3.912
 9590SOL    HW229670   6.898   4.316   3.755
 9591SOL     OW29671   1.460   5.223   1.349
 9591SOL    HW129672   1.408   5.207   1.264
 9591SOL    HW229673   1.545   5.172   1.346
 9592SOL     OW29674   4.817   5.310   1.643
 9592SOL    HW129675   4.814   5.244   1.719
 9592SOL    HW229676   4.780   5.397   1.674
 9593SOL     OW29677   0.152   2.533   4.628
 9593SOL    HW129678   0.158   2.434   4.639
 9593SOL    HW229679   0.241   2.574   4.645
 9594SOL     OW29680   6.218   0.340   2.632
 9594SOL    HW129681   6.162   0.358   2.713
 9594SOL    HW229682   6.225   0.424   2.578
 9595SOL     OW29683   1.218   5.643   4.077
 9595SOL    HW129684   1.244   5.717   4.139
 9595SOL    HW229685   1.264   5.656   3.989
 9596SOL     OW29686   5.700   5.866   5.018
 9596SOL    HW129687   5.740   5.815   4.942
 9596SOL    HW229688   5.653   5.947   4.982
 9597SOL     OW29689   1.946   3.855   1.263
 9597SOL    HW129690   1.967   3.827   1.170
 9597SOL    HW229691   1.847   3.855   1.277
 9598SOL     OW29692   6.978   5.628   6.098
 9598SOL    HW129693   0.028   5.569   6.138
 9598SOL    HW229694   6.928   5.674   6.172
 9599SOL     OW29695   4.596   1.335   5.395
 9599SOL    HW129696   4.616   1.432   5.380
 9599SOL    HW229697   4.623   1.309   5.487
 9600SOL     OW29698   1.204   0.007   6.564
 9600SOL    HW129699   1.250   0.007   6.652
 9600SOL    HW229700   1.253   0.066   6.500
 9601SOL     OW29701   0.167   5.553   5.478
 9601SOL    HW129702   0.075   5.517   5.492
 9601SOL    HW229703   0.211   5.504   5.402
 9602SOL     OW29704   1.449   5.486   0.474
 9602SOL    HW129705   1.442   5.575   0.518
 9602SOL    HW229706   1.404   5.417   0.531
 9603SOL     OW29707   1.701   6.160   4.436
 9603SOL    HW129708   1.665   6.067   4.434
 9603SOL    HW229709   1.743   6.178   4.525
 9604SOL     OW29710   6.121   1.454   0.121
 9604SOL    HW129711   6.076   1.507   0.049
 9604SOL    HW229712   6.128   1.358   0.092
 9605SOL     OW29713   2.182   6.184   6.589
 9605SOL    HW129714   2.239   6.201   6.669
 9605SOL    HW229715   2.086   6.195   6.613
 9606SOL     OW29716   6.258   6.528   4.207
 9606SOL    HW129717   6.264   6.437   4.165
 9606SOL    HW229718   6.287   6.597   4.140
 9607SOL     OW29719   1.415   1.901   1.981
 9607SOL    HW129720   1.344   1.871   2.044
 9607SOL    HW229721   1.493   1.937   2.033
 9608SOL     OW29722   0.933   6.918   2.312
 9608SOL    HW129723   0.870   6.995   2.306
 9608SOL    HW229724   0.882   6.834   2.333
 9609SOL     OW29725   1.171   3.926   4.994
 9609SOL    HW129726   1.180   4.025   4.999
 9609SOL    HW229727   1.125   3.893   5.077
 9610SOL     OW29728   2.490   1.864   6.371
 9610SOL    HW129729   2.585   1.843   6.395
 9610SOL    HW229730   2.486   1.893   6.275
 9611SOL     OW29731   6.293   0.179   1.025
 9611SOL    HW129732   6.359   0.153   0.955
 9611SOL    HW229733   6.317   0.134   1.111
 9612SOL     OW29734   5.397   2.704   1.637
 9612SOL    HW129735   5.338   2.746   1.567
 9612SOL    HW229736   5.455   2.634   1.595
 9613SOL     OW29737   6.164   6.204   5.224
 9613SOL    HW129738   6.252   6.210   5.179
 9613SOL    HW229739   6.098   6.160   5.164
 9614SOL     OW29740   3.985   3.642   2.466
 9614SOL    HW129741   3.942   3.713   2.523
 9614SOL    HW229742   4.004   3.562   2.522
 9615SOL     OW29743   1.392   5.973   2.963
 9615SOL    HW129744   1.428   5.937   3.048
 9615SOL    HW229745   1.344   5.901   2.913
 9616SOL     OW29746   3.390   3.729   0.594
 9616SOL    HW129747   3.353   3.671   0.666
 9616SOL    HW229748   3.317   3.784   0.554
 9617SOL     OW29749   0.359   3.696   3.974
 9617SOL    HW129750   0.368   3.602   3.943
 9617SOL    HW229751   0.374   3.758   3.896
 9618SOL     OW29752   4.174   6.322   6.665
 9618SOL    HW129753   4.128   6.411   6.659
 9618SOL    HW229754   4.273   6.337   6.669
 9619SOL     OW29755   2.726   6.718   0.214
 9619SOL    HW129756   2.726   6.635   0.270
 9619SOL    HW229757   2.674   6.789   0.261
 9620SOL     OW29758   2.951   1.158   6.266
 9620SOL    HW129759   2.872   1.110   6.304
 9620SOL    HW229760   3.012   1.093   6.220
 9621SOL     OW29761   0.847   0.689   1.233
 9621SOL    HW129762   0.802   0.770   1.270
 9621SOL    HW229763   0.900   0.644   1.305
 9622SOL     OW29764   5.952   0.473   6.226
 9622SOL    HW129765   6.030   0.534   6.215
 9622SOL    HW229766   5.869   0.518   6.193
 9623SOL     OW29767   4.184   6.361   6.373
 9623SOL    HW129768   4.193   6.417   6.455
 9623SOL    HW229769   4.273   6.354   6.328
 9624SOL     OW29770   3.600   5.072   4.788
 9624SOL    HW129771   3.584   5.021   4.704
 9624SOL    HW229772   3.514   5.108   4.823
 9625SOL     OW29773   4.879   4.418   5.880
 9625SOL    HW129774   4.862   4.494   5.944
 9625SOL    HW229775   4.807   4.349   5.891
 9626SOL     OW29776   2.294   3.887   5.979
 9626SOL    HW129777   2.311   3.931   5.890
 9626SOL    HW229778   2.380   3.871   6.026
 9627SOL     OW29779   1.062   5.342   0.329
 9627SOL    HW129780   1.150   5.343   0.283
 9627SOL    HW229781   1.021   5.433   0.323
 9628SOL     OW29782   5.511   2.660   6.659
 9628SOL    HW129783   5.606   2.654   6.629
 9628SOL    HW229784   5.508   2.684   6.756
 9629SOL     OW29785   0.229   5.527   3.689
 9629SOL    HW129786   0.255   5.437   3.655
 9629SOL    HW229787   0.164   5.516   3.765
 9630SOL     OW29788   6.379   5.742   6.681
 9630SOL    HW129789   6.425   5.654   6.694
 9630SOL    HW229790   6.432   5.814   6.725
 9631SOL     OW29791   4.259   0.694   0.521
 9631SOL    HW129792   4.197   0.617   0.537
 9631SOL    HW229793   4.260   0.716   0.423
 9632SOL     OW29794   3.742   6.240   1.851
 9632SOL    HW129795   3.822   6.272   1.901
 9632SOL    HW229796   3.663   6.238   1.912
 9633SOL     OW29797   3.032   3.102   2.746
 9633SOL    HW129798   3.084   3.185   2.767
 9633SOL    HW229799   3.053   3.073   2.653
 9634SOL     OW29800   5.313   4.493   2.584
 9634SOL    HW129801   5.379   4.515   2.512
 9634SOL    HW229802   5.331   4.549   2.665
 9635SOL     OW29803   0.654   4.031   3.847
 9635SOL    HW129804   0.637   4.104   3.914
 9635SOL    HW229805   0.752   4.024   3.829
 9636SOL     OW29806   4.851   2.698   4.747
 9636SOL    HW129807   4.885   2.735   4.660
 9636SOL    HW229808   4.761   2.656   4.732
 9637SOL     OW29809   2.535   3.117   0.532
 9637SOL    HW129810   2.524   3.090   0.436
 9637SOL    HW229811   2.475   3.061   0.589
 9638SOL     OW29812   0.054   4.610   5.444
 9638SOL    HW129813   7.013   4.668   5.497
 9638SOL    HW229814   0.148   4.639   5.459
 9639SOL     OW29815   3.708   1.338   2.658
 9639SOL    HW129816   3.672   1.271   2.724
 9639SOL    HW229817   3.801   1.362   2.683
 9640SOL     OW29818   3.616   0.689   3.131
 9640SOL    HW129819   3.629   0.641   3.044
 9640SOL    HW229820   3.698   0.742   3.152
 9641SOL     OW29821   6.291   4.245   2.854
 9641SOL    HW129822   6.204   4.228   2.808
 9641SOL    HW229823   6.361   4.267   2.786
 9642SOL     OW29824   1.603   0.341   3.825
 9642SOL    HW129825   1.627   0.307   3.916
 9642SOL    HW229826   1.676   0.400   3.791
 9643SOL     OW29827   5.387   4.436   3.993
 9643SOL    HW129828   5.304   4.486   4.018
 9643SOL    HW229829   5.430   4.400   4.075
 9644SOL     OW29830   1.433   5.672   4.434
 9644SOL    HW129831   1.480   5.733   4.369
 9644SOL    HW229832   1.350   5.718   4.468
 9645SOL     OW29833   0.978   5.591   0.230
 9645SOL    HW129834   0.891   5.636   0.247
 9645SOL    HW229835   1.049   5.634   0.286
 9646SOL     OW29836   3.786   6.163   5.926
 9646SOL    HW129837   3.870   6.214   5.907
 9646SOL    HW229838   3.728   6.218   5.987
 9647SOL     OW29839   6.125   6.792   3.299
 9647SOL    HW129840   6.090   6.762   3.211
 9647SOL    HW229841   6.225   6.791   3.298
 9648SOL     OW29842   4.620   2.456   1.046
 9648SOL    HW129843   4.700   2.497   1.002
 9648SOL    HW229844   4.611   2.361   1.017
 9649SOL     OW29845   1.923   4.688   0.116
 9649SOL    HW129846   1.825   4.695   0.134
 9649SOL    HW229847   1.938   4.665   0.020
 9650SOL     OW29848   6.996   4.965   4.721
 9650SOL    HW129849   0.014   4.910   4.795
 9650SOL    HW229850   0.042   4.972   4.647
 9651SOL     OW29851   3.822   1.209   0.527
 9651SOL    HW129852   3.902   1.260   0.494
 9651SOL    HW229853   3.835   1.187   0.624
 9652SOL     OW29854   6.978   3.924   0.376
 9652SOL    HW129855   6.945   3.930   0.470
 9652SOL    HW229856   6.975   4.014   0.333
 9653SOL     OW29857   4.350   3.877   6.028
 9653SOL    HW129858   4.317   3.804   6.089
 9653SOL    HW229859   4.306   3.963   6.052
 9654SOL     OW29860   3.631   3.486   3.534
 9654SOL    HW129861   3.689   3.568   3.531
 9654SOL    HW229862   3.537   3.510   3.511
 9655SOL     OW29863   4.147   1.197   1.992
 9655SOL    HW129864   4.213   1.271   1.977
 9655SOL    HW229865   4.118   1.161   1.903
 9656SOL     OW29866   5.639   3.888   1.173
 9656SOL    HW129867   5.679   3.866   1.085
 9656SOL    HW229868   5.550   3.932   1.160
 9657SOL     OW29869   5.434   3.398   3.411
 9657SOL    HW129870   5.521   3.438   3.382
 9657SOL    HW229871   5.451   3.312   3.460
 9658SOL     OW29872   5.149   2.021   2.450
 9658SOL    HW129873   5.078   1.996   2.384
 9658SOL    HW229874   5.131   1.974   2.537
 9659SOL     OW29875   2.938   3.339   0.509
 9659SOL    HW129876   2.972   3.405   0.576
 9659SOL    HW229877   3.015   3.300   0.458
 9660SOL     OW29878   0.310   6.007   1.435
 9660SOL    HW129879   0.253   6.076   1.478
 9660SOL    HW229880   0.306   5.922   1.488
 9661SOL     OW29881   5.271   4.874   0.724
 9661SOL    HW129882   5.191   4.933   0.730
 9661SOL    HW229883   5.275   4.813   0.803
 9662SOL     OW29884   5.132   4.339   6.155
 9662SOL    HW129885   5.164   4.369   6.245
 9662SOL    HW229886   5.113   4.418   6.097
 9663SOL     OW29887   0.966   5.017   3.557
 9663SOL    HW129888   0.870   4.991   3.545
 9663SOL    HW229889   0.978   5.062   3.645
 9664SOL     OW29890   5.217   3.871   3.166
 9664SOL    HW129891   5.149   3.871   3.093
 9664SOL    HW229892   5.308   3.858   3.127
 9665SOL     OW29893   5.569   5.836   6.217
 9665SOL    HW129894   5.580   5.836   6.317
 9665SOL    HW229895   5.644   5.786   6.175
 9666SOL     OW29896   5.723   3.581   0.506
 9666SOL    HW129897   5.727   3.483   0.484
 9666SOL    HW229898   5.653   3.625   0.449
 9667SOL     OW29899   5.603   5.830   0.191
 9667SOL    HW129900   5.669   5.901   0.213
 9667SOL    HW229901   5.582   5.777   0.273
 9668SOL     OW29902   0.460   0.324   5.644
 9668SOL    HW129903   0.408   0.265   5.582
 9668SOL    HW229904   0.459   0.284   5.736
 9669SOL     OW29905   3.415   0.045   0.404
 9669SOL    HW129906   3.378   0.065   0.313
 9669SOL    HW229907   3.342   0.015   0.464
 9670SOL     OW29908   0.333   0.364   6.340
 9670SOL    HW129909   0.418   0.319   6.314
 9670SOL    HW229910   0.353   0.454   6.379
 9671SOL     OW29911   1.238   5.234   5.940
 9671SOL    HW129912   1.201   5.214   6.030
 9671SOL    HW229913   1.227   5.155   5.881
 9672SOL     OW29914   0.205   3.489   4.768
 9672SOL    HW129915   0.260   3.570   4.749
 9672SOL    HW229916   0.120   3.516   4.813
 9673SOL     OW29917   2.429   4.181   1.173
 9673SOL    HW129918   2.478   4.136   1.247
 9673SOL    HW229919   2.330   4.170   1.187
 9674SOL     OW29920   3.105   6.275   3.771
 9674SOL    HW129921   3.031   6.248   3.710
 9674SOL    HW229922   3.134   6.196   3.825
 9675SOL     OW29923   4.822   3.929   1.439
 9675SOL    HW129924   4.877   3.936   1.355
 9675SOL    HW229925   4.747   3.995   1.434
 9676SOL     OW29926   1.644   2.856   5.862
 9676SOL    HW129927   1.578   2.878   5.791
 9676SOL    HW229928   1.689   2.770   5.841
 9677SOL     OW29929   6.763   5.443   0.769
 9677SOL    HW129930   6.786   5.350   0.800
 9677SOL    HW229931   6.674   5.441   0.723
 9678SOL     OW29932   3.804   3.489   4.959
 9678SOL    HW129933   3.789   3.394   4.987
 9678SOL    HW229934   3.833   3.543   5.038
 9679SOL     OW29935   1.805   1.243   4.984
 9679SOL    HW129936   1.804   1.269   5.080
 9679SOL    HW229937   1.791   1.145   4.975
 9680SOL     OW29938   4.284   5.898   3.190
 9680SOL    HW129939   4.354   5.839   3.229
 9680SOL    HW229940   4.313   5.993   3.196
 9681SOL     OW29941   1.925   1.804   2.407
 9681SOL    HW129942   1.996   1.734   2.396
 9681SOL    HW229943   1.949   1.863   2.484
 9682SOL     OW29944   5.074   5.640   5.261
 9682SOL    HW129945   5.104   5.648   5.166
 9682SOL    HW229946   5.133   5.575   5.309
 9683SOL     OW29947   3.107   6.312   1.598
 9683SOL    HW129948   3.120   6.400   1.552
 9683SOL    HW229949   3.175   6.303   1.671
 9684SOL     OW29950   1.125   4.140   5.653
 9684SOL    HW129951   1.122   4.227   5.604
 9684SOL    HW229952   1.077   4.149   5.740
 9685SOL     OW29953   3.785   4.895   1.526
 9685SOL    HW129954   3.699   4.864   1.486
 9685SOL    HW229955   3.806   4.987   1.492
 9686SOL     OW29956   7.011   1.764   5.690
 9686SOL    HW129957   6.947   1.773   5.614
 9686SOL    HW229958   0.081   1.739   5.655
 9687SOL     OW29959   6.175   0.579   2.468
 9687SOL    HW129960   6.161   0.671   2.431
 9687SOL    HW229961   6.273   0.561   2.476
 9688SOL     OW29962   0.968   4.413   1.476
 9688SOL    HW129963   0.952   4.503   1.517
 9688SOL    HW229964   0.954   4.418   1.377
 9689SOL     OW29965   1.166   6.624   0.790
 9689SOL    HW129966   1.135   6.584   0.877
 9689SOL    HW229967   1.090   6.630   0.727
 9690SOL     OW29968   5.442   5.311   5.184
 9690SOL    HW129969   5.352   5.288   5.146
 9690SOL    HW229970   5.467   5.403   5.154
 9691SOL     OW29971   3.338   3.407   1.772
 9691SOL    HW129972   3.370   3.339   1.837
 9691SOL    HW229973   3.241   3.392   1.752
 9692SOL     OW29974   4.659   5.360   0.519
 9692SOL    HW129975   4.703   5.337   0.432
 9692SOL    HW229976   4.730   5.383   0.586
 9693SOL     OW29977   5.126   3.916   4.050
 9693SOL    HW129978   5.038   3.954   4.021
 9693SOL    HW229979   5.199   3.958   3.998
 9694SOL     OW29980   3.317   6.209   2.220
 9694SOL    HW129981   3.343   6.206   2.316
 9694SOL    HW229982   3.235   6.266   2.209
 9695SOL     OW29983   0.339   2.511   3.616
 9695SOL    HW129984   0.408   2.580   3.595
 9695SOL    HW229985   0.249   2.545   3.592
 9696SOL     OW29986   5.389   1.728   2.537
 9696SOL    HW129987   5.462   1.768   2.482
 9696SOL    HW229988   5.317   1.796   2.553
 9697SOL     OW29989   0.130   6.012   0.157
 9697SOL    HW129990   0.208   5.950   0.169
 9697SOL    HW229991   0.130   6.081   0.230
 9698SOL     OW29992   5.721   3.597   0.126
 9698SOL    HW129993   5.669   3.525   0.172
 9698SOL    HW229994   5.734   3.573   0.030
 9699SOL     OW29995   1.101   4.850   0.625
 9699SOL    HW129996   1.019   4.890   0.584
 9699SOL    HW229997   1.136   4.911   0.696
 9700SOL     OW29998   5.804   6.638   4.981
 9700SOL    HW129999   5.752   6.553   4.978
 9700SOL    HW230000   5.811   6.670   5.075
 9701SOL     OW30001   4.765   3.041   6.184
 9701SOL    HW130002   4.741   3.060   6.089
 9701SOL    HW230003   4.720   3.108   6.244
 9702SOL     OW30004   3.671   3.207   1.145
 9702SOL    HW130005   3.769   3.226   1.139
 9702SOL    HW230006   3.624   3.285   1.186
 9703SOL     OW30007   6.124   3.838   4.994
 9703SOL    HW130008   6.085   3.923   4.959
 9703SOL    HW230009   6.068   3.761   4.965
 9704SOL     OW30010   2.238   4.347   2.884
 9704SOL    HW130011   2.254   4.249   2.883
 9704SOL    HW230012   2.325   4.396   2.886
 9705SOL     OW30013   5.902   3.943   5.644
 9705SOL    HW130014   5.868   3.994   5.724
 9705SOL    HW230015   5.887   3.997   5.561
 9706SOL     OW30016   1.816   1.931   2.042
 9706SOL    HW130017   1.767   1.870   2.104
 9706SOL    HW230018   1.828   2.020   2.086
 9707SOL     OW30019   6.237   4.523   2.621
 9707SOL    HW130020   6.225   4.426   2.643
 9707SOL    HW230021   6.303   4.531   2.545
 9708SOL     OW30022   2.022   0.754   1.499
 9708SOL    HW130023   1.928   0.734   1.525
 9708SOL    HW230024   2.037   0.853   1.503
 9709SOL     OW30025   5.379   2.314   2.190
 9709SOL    HW130026   5.311   2.240   2.182
 9709SOL    HW230027   5.470   2.274   2.194
 9710SOL     OW30028   6.023   5.451   4.749
 9710SOL    HW130029   6.122   5.451   4.735
 9710SOL    HW230030   5.978   5.481   4.665
 9711SOL     OW30031   4.116   6.587   6.924
 9711SOL    HW130032   4.043   6.618   6.985
 9711SOL    HW230033   4.083   6.587   6.829
 9712SOL     OW30034   6.053   2.213   0.331
 9712SOL    HW130035   5.997   2.147   0.382
 9712SOL    HW230036   6.113   2.164   0.268
 9713SOL     OW30037   1.694   6.366   3.741
 9713SOL    HW130038   1.673   6.460   3.714
 9713SOL    HW230039   1.619   6.307   3.714
 9714SOL     OW30040   2.973   4.896   4.954
 9714SOL    HW130041   2.887   4.848   4.938
 9714SOL    HW230042   3.024   4.849   5.026
 9715SOL     OW30043   6.139   3.987   0.455
 9715SOL    HW130044   6.203   3.950   0.522
 9715SOL    HW230045   6.078   3.914   0.425
 9716SOL     OW30046   2.744   5.064   6.954
 9716SOL    HW130047   2.745   4.977   7.004
 9716SOL    HW230048   2.820   5.121   6.984
 9717SOL     OW30049   4.124   0.967   5.821
 9717SOL    HW130050   4.155   1.026   5.896
 9717SOL    HW230051   4.192   0.968   5.747
 9718SOL     OW30052   3.167   1.697   0.255
 9718SOL    HW130053   3.135   1.777   0.306
 9718SOL    HW230054   3.192   1.625   0.319
 9719SOL     OW30055   4.713   6.409   5.136
 9719SOL    HW130056   4.770   6.343   5.185
 9719SOL    HW230057   4.631   6.363   5.102
 9720SOL     OW30058   1.715   4.283   3.029
 9720SOL    HW130059   1.809   4.278   2.997
 9720SOL    HW230060   1.692   4.199   3.078
 9721SOL     OW30061   0.898   2.279   0.795
 9721SOL    HW130062   0.994   2.308   0.799
 9721SOL    HW230063   0.845   2.345   0.741
 9722SOL     OW30064   3.818   2.968   5.081
 9722SOL    HW130065   3.881   2.904   5.038
 9722SOL    HW230066   3.726   2.956   5.043
 9723SOL     OW30067   6.277   5.274   4.362
 9723SOL    HW130068   6.306   5.246   4.454
 9723SOL    HW230069   6.249   5.193   4.310
 9724SOL     OW30070   0.773   5.970   0.364
 9724SOL    HW130071   0.837   5.903   0.400
 9724SOL    HW230072   0.743   6.031   0.437
 9725SOL     OW30073   3.055   5.274   5.326
 9725SOL    HW130074   2.994   5.214   5.274
 9725SOL    HW230075   3.127   5.220   5.370
 9726SOL     OW30076   5.887   0.977   4.420
 9726SOL    HW130077   5.900   0.907   4.351
 9726SOL    HW230078   5.853   1.061   4.376
 9727SOL     OW30079   0.933   1.397   6.915
 9727SOL    HW130080   1.028   1.384   6.888
 9727SOL    HW230081   0.921   1.368   7.010
 9728SOL     OW30082   5.364   0.223   5.862
 9728SOL    HW130083   5.426   0.167   5.808
 9728SOL    HW230084   5.401   0.234   5.954
 9729SOL     OW30085   0.471   4.922   3.305
 9729SOL    HW130086   0.441   4.827   3.318
 9729SOL    HW230087   0.555   4.923   3.252
 9730SOL     OW30088   0.599   4.334   3.155
 9730SOL    HW130089   0.577   4.273   3.232
 9730SOL    HW230090   0.691   4.371   3.168
 9731SOL     OW30091   5.053   3.825   2.627
 9731SOL    HW130092   5.099   3.858   2.544
 9731SOL    HW230093   4.960   3.860   2.630
 9732SOL     OW30094   1.399   3.241   2.257
 9732SOL    HW130095   1.344   3.195   2.326
 9732SOL    HW230096   1.473   3.292   2.302
 9733SOL     OW30097   6.483   5.180   2.631
 9733SOL    HW130098   6.559   5.182   2.566
 9733SOL    HW230099   6.397   5.195   2.583
 9734SOL     OW30100   6.055   6.874   6.613
 9734SOL    HW130101   6.092   6.804   6.552
 9734SOL    HW230102   6.127   6.938   6.639
 9735SOL     OW30103   1.264   1.902   2.245
 9735SOL    HW130104   1.195   1.860   2.185
 9735SOL    HW230105   1.260   2.001   2.235
 9736SOL     OW30106   4.603   2.496   5.240
 9736SOL    HW130107   4.534   2.569   5.243
 9736SOL    HW230108   4.627   2.469   5.334
 9737SOL     OW30109   6.256   2.162   2.512
 9737SOL    HW130110   6.183   2.178   2.578
 9737SOL    HW230111   6.254   2.233   2.441
 9738SOL     OW30112   1.956   5.969   1.332
 9738SOL    HW130113   2.023   6.042   1.344
 9738SOL    HW230114   1.886   5.975   1.402
 9739SOL     OW30115   5.482   0.187   0.237
 9739SOL    HW130116   5.579   0.179   0.212
 9739SOL    HW230117   5.472   0.254   0.310
 9740SOL     OW30118   6.855   0.633   2.867
 9740SOL    HW130119   6.914   0.673   2.938
 9740SOL    HW230120   6.766   0.612   2.906
 9741SOL     OW30121   3.101   1.260   4.664
 9741SOL    HW130122   3.023   1.237   4.723
 9741SOL    HW230123   3.070   1.271   4.570
 9742SOL     OW30124   4.292   1.955   6.047
 9742SOL    HW130125   4.250   2.041   6.018
 9742SOL    HW230126   4.313   1.899   5.967
 9743SOL     OW30127   6.027   3.090   3.436
 9743SOL    HW130128   6.084   3.172   3.446
 9743SOL    HW230129   6.063   3.017   3.495
 9744SOL     OW30130   1.608   6.899   3.502
 9744SOL    HW130131   1.704   6.871   3.493
 9744SOL    HW230132   1.560   6.884   3.416
 9745SOL     OW30133   6.522   0.955   5.774
 9745SOL    HW130134   6.428   0.960   5.740
 9745SOL    HW230135   6.577   0.903   5.709
 9746SOL     OW30136   4.834   5.455   5.961
 9746SOL    HW130137   4.922   5.483   6.001
 9746SOL    HW230138   4.850   5.391   5.887
 9747SOL     OW30139   2.277   2.558   2.127
 9747SOL    HW130140   2.349   2.585   2.192
 9747SOL    HW230141   2.319   2.523   2.043
 9748SOL     OW30142   1.339   0.529   3.098
 9748SOL    HW130143   1.277   0.486   3.032
 9748SOL    HW230144   1.341   0.476   3.182
 9749SOL     OW30145   6.966   1.780   2.510
 9749SOL    HW130146   0.035   1.796   2.550
 9749SOL    HW230147   6.976   1.748   2.416
 9750SOL     OW30148   6.342   4.484   3.811
 9750SOL    HW130149   6.398   4.401   3.817
 9750SOL    HW230150   6.403   4.563   3.801
 9751SOL     OW30151   2.468   1.055   1.760
 9751SOL    HW130152   2.531   0.978   1.755
 9751SOL    HW230153   2.512   1.137   1.723
 9752SOL     OW30154   4.087   3.023   0.567
 9752SOL    HW130155   4.084   3.121   0.548
 9752SOL    HW230156   4.045   3.005   0.656
 9753SOL     OW30157   6.296   6.262   5.475
 9753SOL    HW130158   6.229   6.242   5.404
 9753SOL    HW230159   6.253   6.313   5.549
 9754SOL     OW30160   3.962   0.350   1.606
 9754SOL    HW130161   3.930   0.375   1.515
 9754SOL    HW230162   4.054   0.310   1.599
 9755SOL     OW30163   3.359   3.970   6.028
 9755SOL    HW130164   3.430   4.038   6.048
 9755SOL    HW230165   3.401   3.881   6.017
 9756SOL     OW30166   5.865   1.002   6.690
 9756SOL    HW130167   5.951   1.053   6.686
 9756SOL    HW230168   5.867   0.930   6.621
 9757SOL     OW30169   4.861   3.966   3.941
 9757SOL    HW130170   4.816   4.056   3.947
 9757SOL    HW230171   4.855   3.932   3.847
 9758SOL     OW30172   1.897   0.356   0.641
 9758SOL    HW130173   1.987   0.385   0.675
 9758SOL    HW230174   1.892   0.369   0.542
 9759SOL     OW30175   1.304   1.797   0.562
 9759SOL    HW130176   1.284   1.895   0.562
 9759SOL    HW230177   1.371   1.777   0.491
 9760SOL     OW30178   4.744   2.125   0.591
 9760SOL    HW130179   4.761   2.103   0.687
 9760SOL    HW230180   4.646   2.138   0.576
 9761SOL     OW30181   1.751   1.259   1.498
 9761SOL    HW130182   1.802   1.339   1.464
 9761SOL    HW230183   1.757   1.257   1.597
 9762SOL     OW30184   2.925   1.819   5.647
 9762SOL    HW130185   2.890   1.876   5.573
 9762SOL    HW230186   2.998   1.868   5.695
 9763SOL     OW30187   6.360   1.449   1.662
 9763SOL    HW130188   6.312   1.416   1.581
 9763SOL    HW230189   6.457   1.458   1.641
 9764SOL     OW30190   5.244   1.630   2.334
 9764SOL    HW130191   5.286   1.540   2.328
 9764SOL    HW230192   5.274   1.675   2.418
 9765SOL     OW30193   6.771   1.559   1.913
 9765SOL    HW130194   6.788   1.650   1.951
 9765SOL    HW230195   6.859   1.514   1.895
 9766SOL     OW30196   2.056   0.736   3.930
 9766SOL    HW130197   2.019   0.821   3.968
 9766SOL    HW230198   2.087   0.753   3.836
 9767SOL     OW30199   2.151   2.923   5.855
 9767SOL    HW130200   2.203   2.994   5.903
 9767SOL    HW230201   2.134   2.846   5.917
 9768SOL     OW30202   5.943   2.456   0.768
 9768SOL    HW130203   5.996   2.436   0.851
 9768SOL    HW230204   5.902   2.371   0.734
 9769SOL     OW30205   2.961   1.749   4.957
 9769SOL    HW130206   2.953   1.715   4.863
 9769SOL    HW230207   3.021   1.829   4.958
 9770SOL     OW30208   3.247   2.187   6.464
 9770SOL    HW130209   3.152   2.191   6.432
 9770SOL    HW230210   3.261   2.259   6.533
 9771SOL     OW30211   2.385   6.069   2.404
 9771SOL    HW130212   2.444   6.071   2.485
 9771SOL    HW230213   2.320   6.144   2.410
 9772SOL     OW30214   1.260   6.098   1.696
 9772SOL    HW130215   1.163   6.076   1.689
 9772SOL    HW230216   1.300   6.048   1.773
 9773SOL     OW30217   5.268   5.296   2.033
 9773SOL    HW130218   5.357   5.252   2.021
 9773SOL    HW230219   5.278   5.374   2.095
 9774SOL     OW30220   0.521   5.429   4.307
 9774SOL    HW130221   0.421   5.422   4.305
 9774SOL    HW230222   0.559   5.352   4.358
 9775SOL     OW30223   2.412   0.963   3.736
 9775SOL    HW130224   2.508   0.967   3.710
 9775SOL    HW230225   2.380   1.054   3.760
 9776SOL     OW30226   1.504   5.547   6.526
 9776SOL    HW130227   1.524   5.623   6.465
 9776SOL    HW230228   1.414   5.509   6.505
 9777SOL     OW30229   5.540   0.047   6.391
 9777SOL    HW130230   5.580   6.982   6.425
 9777SOL    HW230231   5.507   0.101   6.469
 9778SOL     OW30232   0.773   1.957   4.347
 9778SOL    HW130233   0.828   2.040   4.336
 9778SOL    HW230234   0.736   1.953   4.440
 9779SOL     OW30235   0.937   1.891   3.632
 9779SOL    HW130236   0.958   1.963   3.698
 9779SOL    HW230237   0.892   1.815   3.678
 9780SOL     OW30238   1.828   1.635   0.924
 9780SOL    HW130239   1.747   1.603   0.874
 9780SOL    HW230240   1.809   1.631   1.022
 9781SOL     OW30241   1.129   3.381   3.458
 9781SOL    HW130242   1.120   3.283   3.441
 9781SOL    HW230243   1.076   3.432   3.391
 9782SOL     OW30244   0.460   2.279   0.762
 9782SOL    HW130245   0.410   2.327   0.834
 9782SOL    HW230246   0.468   2.182   0.785
 9783SOL     OW30247   3.469   1.220   3.541
 9783SOL    HW130248   3.476   1.174   3.630
 9783SOL    HW230249   3.559   1.222   3.498
 9784SOL     OW30250   2.572   1.805   0.273
 9784SOL    HW130251   2.658   1.822   0.321
 9784SOL    HW230252   2.572   1.853   0.186
 9785SOL     OW30253   6.959   2.189   4.641
 9785SOL    HW130254   0.004   2.253   4.681
 9785SOL    HW230255   6.866   2.220   4.662
 9786SOL     OW30256   2.313   4.443   0.830
 9786SOL    HW130257   2.286   4.537   0.810
 9786SOL    HW230258   2.374   4.409   0.758
 9787SOL     OW30259   3.553   2.929   2.703
 9787SOL    HW130260   3.604   2.900   2.621
 9787SOL    HW230261   3.456   2.908   2.691
 9788SOL     OW30262   0.450   6.104   1.811
 9788SOL    HW130263   0.398   6.142   1.887
 9788SOL    HW230264   0.415   6.013   1.790
 9789SOL     OW30265   3.164   6.863   6.636
 9789SOL    HW130266   3.256   6.863   6.598
 9789SOL    HW230267   3.165   6.904   6.727
 9790SOL     OW30268   6.868   3.520   4.479
 9790SOL    HW130269   6.879   3.489   4.384
 9790SOL    HW230270   6.919   3.604   4.493
 9791SOL     OW30271   0.791   6.498   0.805
 9791SOL    HW130272   0.839   6.557   0.870
 9791SOL    HW230273   0.841   6.494   0.719
 9792SOL     OW30274   3.618   5.536   1.041
 9792SOL    HW130275   3.526   5.539   1.001
 9792SOL    HW230276   3.657   5.445   1.026
 9793SOL     OW30277   4.627   1.282   2.506
 9793SOL    HW130278   4.629   1.379   2.529
 9793SOL    HW230279   4.710   1.258   2.456
 9794SOL     OW30280   4.732   4.624   4.645
 9794SOL    HW130281   4.734   4.719   4.678
 9794SOL    HW230282   4.649   4.580   4.679
 9795SOL     OW30283   0.773   2.960   3.417
 9795SOL    HW130284   0.801   2.878   3.467
 9795SOL    HW230285   0.749   3.032   3.481
 9796SOL     OW30286   3.367   4.146   3.483
 9796SOL    HW130287   3.467   4.145   3.478
 9796SOL    HW230288   3.330   4.074   3.424
 9797SOL     OW30289   3.006   6.167   6.396
 9797SOL    HW130290   2.962   6.085   6.433
 9797SOL    HW230291   3.082   6.141   6.337
 9798SOL     OW30292   1.375   2.675   1.385
 9798SOL    HW130293   1.405   2.580   1.390
 9798SOL    HW230294   1.276   2.678   1.369
 9799SOL     OW30295   2.889   5.914   6.566
 9799SOL    HW130296   2.797   5.878   6.579
 9799SOL    HW230297   2.956   5.848   6.601
 9800SOL     OW30298   5.358   2.950   4.086
 9800SOL    HW130299   5.296   2.875   4.063
 9800SOL    HW230300   5.320   3.003   4.162
 9801SOL     OW30301   6.127   4.924   6.019
 9801SOL    HW130302   6.089   4.877   5.940
 9801SOL    HW230303   6.196   4.867   6.062
 9802SOL     OW30304   4.312   5.211   1.434
 9802SOL    HW130305   4.405   5.185   1.407
 9802SOL    HW230306   4.273   5.270   1.363
 9803SOL     OW30307   1.264   3.975   6.536
 9803SOL    HW130308   1.276   4.039   6.460
 9803SOL    HW230309   1.296   4.018   6.621
 9804SOL     OW30310   6.359   5.576   3.003
 9804SOL    HW130311   6.324   5.482   3.009
 9804SOL    HW230312   6.299   5.637   3.054
 9805SOL     OW30313   0.280   6.647   3.693
 9805SOL    HW130314   0.268   6.639   3.594
 9805SOL    HW230315   0.267   6.557   3.736
 9806SOL     OW30316   3.942   2.758   5.969
 9806SOL    HW130317   3.907   2.806   6.050
 9806SOL    HW230318   3.980   2.670   5.998
 9807SOL     OW30319   2.891   3.364   2.384
 9807SOL    HW130320   2.903   3.264   2.379
 9807SOL    HW230321   2.834   3.394   2.308
 9808SOL     OW30322   4.518   6.399   3.870
 9808SOL    HW130323   4.560   6.461   3.803
 9808SOL    HW230324   4.450   6.450   3.923
 9809SOL     OW30325   0.205   2.974   0.709
 9809SOL    HW130326   0.305   2.974   0.699
 9809SOL    HW230327   0.167   3.058   0.670
 9810SOL     OW30328   2.163   1.731   5.813
 9810SOL    HW130329   2.145   1.802   5.744
 9810SOL    HW230330   2.260   1.731   5.836
 9811SOL     OW30331   6.444   3.849   4.252
 9811SOL    HW130332   6.382   3.771   4.243
 9811SOL    HW230333   6.504   3.852   4.172
 9812SOL     OW30334   2.556   6.521   4.411
 9812SOL    HW130335   2.551   6.522   4.511
 9812SOL    HW230336   2.620   6.591   4.380
 9813SOL     OW30337   5.085   2.102   0.778
 9813SOL    HW130338   5.003   2.050   0.752
 9813SOL    HW230339   5.061   2.199   0.788
 9814SOL     OW30340   5.901   1.952   6.998
 9814SOL    HW130341   5.868   2.024   6.938
 9814SOL    HW230342   5.823   1.899   0.012
 9815SOL     OW30343   4.922   2.827   4.500
 9815SOL    HW130344   4.905   2.846   4.404
 9815SOL    HW230345   4.906   2.910   4.554
 9816SOL     OW30346   1.277   0.594   0.587
 9816SOL    HW130347   1.298   0.496   0.586
 9816SOL    HW230348   1.178   0.606   0.579
 9817SOL     OW30349   0.368   0.230   3.279
 9817SOL    HW130350   0.328   0.290   3.348
 9817SOL    HW230351   0.409   0.285   3.207
 9818SOL     OW30352   5.885   1.740   4.911
 9818SOL    HW130353   5.922   1.691   4.989
 9818SOL    HW230354   5.945   1.816   4.887
 9819SOL     OW30355   3.864   1.732   3.596
 9819SOL    HW130356   3.920   1.795   3.541
 9819SOL    HW230357   3.813   1.672   3.534
 9820SOL     OW30358   3.422   4.075   5.411
 9820SOL    HW130359   3.357   4.017   5.459
 9820SOL    HW230360   3.404   4.171   5.434
 9821SOL     OW30361   5.434   5.776   6.968
 9821SOL    HW130362   5.461   5.809   0.038
 9821SOL    HW230363   5.347   5.818   6.942
 9822SOL     OW30364   0.396   6.885   2.989
 9822SOL    HW130365   0.487   6.918   2.964
 9822SOL    HW230366   0.338   6.963   3.014
 9823SOL     OW30367   3.459   0.777   2.660
 9823SOL    HW130368   3.460   0.834   2.742
 9823SOL    HW230369   3.390   0.812   2.597
 9824SOL     OW30370   0.786   3.986   5.424
 9824SOL    HW130371   0.885   4.002   5.431
 9824SOL    HW230372   0.770   3.896   5.383
 9825SOL     OW30373   3.771   4.900   5.599
 9825SOL    HW130374   3.853   4.902   5.542
 9825SOL    HW230375   3.698   4.852   5.552
 9826SOL     OW30376   4.422   5.895   6.006
 9826SOL    HW130377   4.399   5.898   6.103
 9826SOL    HW230378   4.339   5.881   5.952
 9827SOL     OW30379   1.788   4.263   4.685
 9827SOL    HW130380   1.818   4.358   4.697
 9827SOL    HW230381   1.855   4.201   4.725
 9828SOL     OW30382   3.594   2.835   6.360
 9828SOL    HW130383   3.648   2.897   6.416
 9828SOL    HW230384   3.501   2.830   6.396
 9829SOL     OW30385   3.291   6.573   0.602
 9829SOL    HW130386   3.358   6.521   0.550
 9829SOL    HW230387   3.200   6.555   0.566
 9830SOL     OW30388   5.973   1.547   1.239
 9830SOL    HW130389   5.998   1.635   1.279
 9830SOL    HW230390   6.011   1.539   1.147
 9831SOL     OW30391   1.043   6.236   1.052
 9831SOL    HW130392   1.129   6.227   1.001
 9831SOL    HW230393   1.062   6.277   1.141
 9832SOL     OW30394   4.563   5.041   2.876
 9832SOL    HW130395   4.615   5.035   2.790
 9832SOL    HW230396   4.535   4.949   2.903
 9833SOL     OW30397   3.517   3.390   5.042
 9833SOL    HW130398   3.427   3.369   5.080
 9833SOL    HW230399   3.542   3.484   5.067
 9834SOL     OW30400   2.267   3.768   5.582
 9834SOL    HW130401   2.251   3.669   5.586
 9834SOL    HW230402   2.310   3.791   5.495
 9835SOL     OW30403   4.577   1.881   4.044
 9835SOL    HW130404   4.670   1.901   4.077
 9835SOL    HW230405   4.561   1.931   3.959
 9836SOL     OW30406   5.486   3.781   3.053
 9836SOL    HW130407   5.437   3.699   3.082
 9836SOL    HW230408   5.463   3.802   2.958
 9837SOL     OW30409   2.030   0.237   3.666
 9837SOL    HW130410   2.113   0.282   3.633
 9837SOL    HW230411   2.040   0.138   3.657
 9838SOL     OW30412   1.117   6.492   5.811
 9838SOL    HW130413   1.059   6.439   5.749
 9838SOL    HW230414   1.073   6.498   5.900
 9839SOL     OW30415   6.984   1.708   2.259
 9839SOL    HW130416   6.940   1.745   2.178
 9839SOL    HW230417   0.025   1.634   2.233
 9840SOL     OW30418   0.264   0.260   0.569
 9840SOL    HW130419   0.308   0.259   0.479
 9840SOL    HW230420   0.235   0.354   0.591
 9841SOL     OW30421   1.588   4.098   4.627
 9841SOL    HW130422   1.660   4.163   4.651
 9841SOL    HW230423   1.519   4.142   4.571
 9842SOL     OW30424   3.654   2.954   3.526
 9842SOL    HW130425   3.701   3.037   3.497
 9842SOL    HW230426   3.713   2.875   3.509
 9843SOL     OW30427   6.407   2.499   1.159
 9843SOL    HW130428   6.450   2.503   1.249
 9843SOL    HW230429   6.425   2.409   1.118
 9844SOL     OW30430   4.113   6.952   3.078
 9844SOL    HW130431   4.177   0.007   3.092
 9844SOL    HW230432   4.020   6.985   3.092
 9845SOL     OW30433   2.362   1.486   4.951
 9845SOL    HW130434   2.283   1.515   5.004
 9845SOL    HW230435   2.372   1.545   4.871
 9846SOL     OW30436   3.162   3.820   3.581
 9846SOL    HW130437   3.238   3.755   3.578
 9846SOL    HW230438   3.077   3.772   3.559
 9847SOL     OW30439   2.743   3.110   6.389
 9847SOL    HW130440   2.645   3.130   6.381
 9847SOL    HW230441   2.771   3.123   6.484
 9848SOL     OW30442   4.144   2.251   6.691
 9848SOL    HW130443   4.184   2.163   6.716
 9848SOL    HW230444   4.118   2.250   6.594
 9849SOL     OW30445   5.909   0.389   6.527
 9849SOL    HW130446   5.956   0.319   6.473
 9849SOL    HW230447   5.973   0.462   6.550
 9850SOL     OW30448   4.685   6.127   2.397
 9850SOL    HW130449   4.713   6.129   2.493
 9850SOL    HW230450   4.766   6.118   2.339
 9851SOL     OW30451   4.418   1.873   5.050
 9851SOL    HW130452   4.394   1.777   5.035
 9851SOL    HW230453   4.397   1.926   4.968
 9852SOL     OW30454   4.402   1.531   3.193
 9852SOL    HW130455   4.477   1.586   3.230
 9852SOL    HW230456   4.324   1.536   3.254
 9853SOL     OW30457   4.815   3.941   2.668
 9853SOL    HW130458   4.821   4.038   2.646
 9853SOL    HW230459   4.790   3.930   2.764
 9854SOL     OW30460   6.192   5.252   5.314
 9854SOL    HW130461   6.125   5.189   5.274
 9854SOL    HW230462   6.186   5.340   5.268
 9855SOL     OW30463   0.568   4.208   1.330
 9855SOL    HW130464   0.518   4.292   1.351
 9855SOL    HW230465   0.652   4.230   1.281
 9856SOL     OW30466   4.043   4.707   6.968
 9856SOL    HW130467   4.051   4.749   6.878
 9856SOL    HW230468   4.060   4.775   0.018
 9857SOL     OW30469   5.103   1.585   2.781
 9857SOL    HW130470   5.032   1.588   2.850
 9857SOL    HW230471   5.193   1.580   2.825
 9858SOL     OW30472   5.256   0.707   1.759
 9858SOL    HW130473   5.194   0.714   1.681
 9858SOL    HW230474   5.247   0.617   1.802
 9859SOL     OW30475   6.719   6.894   1.365
 9859SOL    HW130476   6.773   6.960   1.313
 9859SOL    HW230477   6.703   6.812   1.310
 9860SOL     OW30478   0.697   1.216   1.671
 9860SOL    HW130479   0.622   1.157   1.703
 9860SOL    HW230480   0.713   1.199   1.573
 9861SOL     OW30481   3.612   6.506   4.779
 9861SOL    HW130482   3.545   6.441   4.744
 9861SOL    HW230483   3.610   6.506   4.879
 9862SOL     OW30484   2.357   3.383   0.486
 9862SOL    HW130485   2.314   3.294   0.497
 9862SOL    HW230486   2.425   3.396   0.558
 9863SOL     OW30487   2.833   6.947   2.829
 9863SOL    HW130488   2.801   6.915   2.740
 9863SOL    HW230489   2.930   6.970   2.823
 9864SOL     OW30490   4.003   6.169   3.716
 9864SOL    HW130491   3.941   6.092   3.704
 9864SOL    HW230492   3.996   6.230   3.637
 9865SOL     OW30493   0.866   0.821   3.534
 9865SOL    HW130494   0.828   0.846   3.623
 9865SOL    HW230495   0.958   0.858   3.525
 9866SOL     OW30496   4.963   4.460   4.627
 9866SOL    HW130497   4.887   4.517   4.660
 9866SOL    HW230498   5.041   4.472   4.688
 9867SOL     OW30499   4.299   0.817   0.924
 9867SOL    HW130500   4.319   0.869   1.007
 9867SOL    HW230501   4.384   0.788   0.881
 9868SOL     OW30502   1.412   4.824   6.088
 9868SOL    HW130503   1.494   4.806   6.143
 9868SOL    HW230504   1.363   4.738   6.073
 9869SOL     OW30505   2.168   3.644   3.289
 9869SOL    HW130506   2.146   3.558   3.243
 9869SOL    HW230507   2.260   3.639   3.328
 9870SOL     OW30508   4.290   5.542   2.384
 9870SOL    HW130509   4.309   5.447   2.411
 9870SOL    HW230510   4.374   5.595   2.388
 9871SOL     OW30511   0.954   6.468   6.025
 9871SOL    HW130512   0.928   6.395   6.089
 9871SOL    HW230513   0.880   6.483   5.959
 9872SOL     OW30514   2.574   5.010   3.028
 9872SOL    HW130515   2.481   5.013   2.992
 9872SOL    HW230516   2.602   4.915   3.040
 9873SOL     OW30517   2.229   2.300   1.345
 9873SOL    HW130518   2.319   2.342   1.346
 9873SOL    HW230519   2.190   2.305   1.252
 9874SOL     OW30520   0.854   2.253   4.369
 9874SOL    HW130521   0.798   2.322   4.323
 9874SOL    HW230522   0.820   2.240   4.463
 9875SOL     OW30523   0.265   0.394   2.083
 9875SOL    HW130524   0.357   0.390   2.123
 9875SOL    HW230525   0.255   0.321   2.016
 9876SOL     OW30526   0.138   0.573   2.498
 9876SOL    HW130527   0.161   0.476   2.499
 9876SOL    HW230528   0.169   0.615   2.584
 9877SOL     OW30529   1.499   5.865   2.554
 9877SOL    HW130530   1.492   5.804   2.475
 9877SOL    HW230531   1.589   5.909   2.554
 9878SOL     OW30532   2.174   5.193   5.252
 9878SOL    HW130533   2.255   5.140   5.225
 9878SOL    HW230534   2.172   5.279   5.200
 9879SOL     OW30535   5.724   5.322   4.572
 9879SOL    HW130536   5.767   5.238   4.605
 9879SOL    HW230537   5.626   5.319   4.592
 9880SOL     OW30538   1.786   2.797   5.392
 9880SOL    HW130539   1.696   2.782   5.434
 9880SOL    HW230540   1.808   2.894   5.394
 9881SOL     OW30541   2.128   2.332   5.049
 9881SOL    HW130542   2.216   2.369   5.019
 9881SOL    HW230543   2.071   2.406   5.084
 9882SOL     OW30544   1.381   2.069   3.658
 9882SOL    HW130545   1.423   2.121   3.582
 9882SOL    HW230546   1.446   1.999   3.689
 9883SOL     OW30547   0.720   6.109   0.886
 9883SOL    HW130548   0.757   6.188   0.935
 9883SOL    HW230549   0.620   6.109   0.894
 9884SOL     OW30550   3.830   1.377   3.017
 9884SOL    HW130551   3.856   1.472   3.034
 9884SOL    HW230552   3.737   1.375   2.978
 9885SOL     OW30553   0.368   3.482   5.355
 9885SOL    HW130554   0.409   3.476   5.264
 9885SOL    HW230555   0.425   3.433   5.420
 9886SOL     OW30556   0.483   4.561   2.068
 9886SOL    HW130557   0.516   4.471   2.097
 9886SOL    HW230558   0.553   4.630   2.085
 9887SOL     OW30559   3.482   1.392   6.033
 9887SOL    HW130560   3.561   1.332   6.040
 9887SOL    HW230561   3.400   1.337   6.013
 9888SOL     OW30562   0.272   4.591   0.886
 9888SOL    HW130563   0.299   4.567   0.793
 9888SOL    HW230564   0.307   4.682   0.909
 9889SOL     OW30565   6.552   5.011   0.782
 9889SOL    HW130566   6.630   5.073   0.795
 9889SOL    HW230567   6.467   5.059   0.805
 9890SOL     OW30568   1.716   2.084   0.079
 9890SOL    HW130569   1.808   2.121   0.094
 9890SOL    HW230570   1.661   2.151   0.029
 9891SOL     OW30571   5.451   2.803   1.025
 9891SOL    HW130572   5.538   2.759   1.047
 9891SOL    HW230573   5.413   2.845   1.107
 9892SOL     OW30574   6.420   5.776   0.442
 9892SOL    HW130575   6.436   5.872   0.464
 9892SOL    HW230576   6.488   5.745   0.375
 9893SOL     OW30577   1.318   0.333   0.567
 9893SOL    HW130578   1.292   0.247   0.611
 9893SOL    HW230579   1.415   0.329   0.541
 9894SOL     OW30580   1.931   1.936   1.281
 9894SOL    HW130581   1.982   1.937   1.194
 9894SOL    HW230582   1.840   1.974   1.266
 9895SOL     OW30583   5.440   3.425   5.622
 9895SOL    HW130584   5.534   3.422   5.588
 9895SOL    HW230585   5.377   3.411   5.546
 9896SOL     OW30586   5.998   7.007   6.083
 9896SOL    HW130587   5.924   0.024   6.139
 9896SOL    HW230588   6.082   7.003   6.136
 9897SOL     OW30589   5.658   5.472   3.180
 9897SOL    HW130590   5.672   5.483   3.081
 9897SOL    HW230591   5.743   5.491   3.228
 9898SOL     OW30592   2.295   5.614   6.067
 9898SOL    HW130593   2.386   5.596   6.030
 9898SOL    HW230594   2.304   5.669   6.150
 9899SOL     OW30595   0.274   5.712   0.699
 9899SOL    HW130596   0.231   5.642   0.642
 9899SOL    HW230597   0.229   5.715   0.788
 9900SOL     OW30598   1.577   3.842   3.488
 9900SOL    HW130599   1.481   3.861   3.466
 9900SOL    HW230600   1.599   3.884   3.577
 9901SOL     OW30601   2.823   1.837   5.921
 9901SOL    HW130602   2.752   1.895   5.882
 9901SOL    HW230603   2.889   1.812   5.850
 9902SOL     OW30604   3.394   4.949   0.135
 9902SOL    HW130605   3.454   4.933   0.057
 9902SOL    HW230606   3.299   4.941   0.106
 9903SOL     OW30607   4.832   1.015   1.972
 9903SOL    HW130608   4.892   0.980   2.044
 9903SOL    HW230609   4.826   0.946   1.899
 9904SOL     OW30610   1.004   2.920   6.737
 9904SOL    HW130611   1.004   2.820   6.740
 9904SOL    HW230612   1.033   2.950   6.646
 9905SOL     OW30613   3.061   0.573   6.888
 9905SOL    HW130614   3.114   0.634   6.829
 9905SOL    HW230615   3.112   0.488   6.902
 9906SOL     OW30616   2.846   3.245   1.799
 9906SOL    HW130617   2.896   3.268   1.883
 9906SOL    HW230618   2.765   3.303   1.792
 9907SOL     OW30619   6.581   1.150   0.336
 9907SOL    HW130620   6.603   1.053   0.323
 9907SOL    HW230621   6.648   1.207   0.289
 9908SOL     OW30622   5.520   1.638   3.775
 9908SOL    HW130623   5.449   1.595   3.830
 9908SOL    HW230624   5.610   1.609   3.808
 9909SOL     OW30625   3.663   0.236   4.079
 9909SOL    HW130626   3.708   0.297   4.145
 9909SOL    HW230627   3.681   0.268   3.986
 9910SOL     OW30628   0.765   3.770   2.689
 9910SOL    HW130629   0.805   3.813   2.770
 9910SOL    HW230630   0.837   3.756   2.620
 9911SOL     OW30631   3.475   6.569   2.444
 9911SOL    HW130632   3.488   6.500   2.373
 9911SOL    HW230633   3.560   6.620   2.457
 9912SOL     OW30634   3.841   1.587   1.801
 9912SOL    HW130635   3.840   1.579   1.701
 9912SOL    HW230636   3.828   1.497   1.842
 9913SOL     OW30637   6.353   4.376   0.342
 9913SOL    HW130638   6.271   4.432   0.331
 9913SOL    HW230639   6.414   4.421   0.408
 9914SOL     OW30640   5.425   2.544   5.045
 9914SOL    HW130641   5.360   2.514   5.115
 9914SOL    HW230642   5.515   2.503   5.064
 9915SOL     OW30643   5.566   0.619   3.568
 9915SOL    HW130644   5.572   0.551   3.495
 9915SOL    HW230645   5.498   0.589   3.636
 9916SOL     OW30646   2.185   3.041   3.151
 9916SOL    HW130647   2.087   3.020   3.142
 9916SOL    HW230648   2.201   3.087   3.238
 9917SOL     OW30649   5.830   3.962   0.090
 9917SOL    HW130650   5.811   4.055   0.119
 9917SOL    HW230651   5.789   3.898   0.155
 9918SOL     OW30652   3.326   1.878   3.155
 9918SOL    HW130653   3.229   1.860   3.143
 9918SOL    HW230654   3.347   1.888   3.252
 9919SOL     OW30655   5.981   5.246   1.103
 9919SOL    HW130656   5.967   5.320   1.169
 9919SOL    HW230657   5.923   5.262   1.023
 9920SOL     OW30658   4.644   1.862   1.741
 9920SOL    HW130659   4.720   1.808   1.775
 9920SOL    HW230660   4.629   1.941   1.801
 9921SOL     OW30661   4.811   6.280   6.583
 9921SOL    HW130662   4.850   6.188   6.578
 9921SOL    HW230663   4.749   6.293   6.507
 9922SOL     OW30664   2.158   4.691   0.773
 9922SOL    HW130665   2.105   4.674   0.690
 9922SOL    HW230666   2.111   4.760   0.829
 9923SOL     OW30667   4.909   4.686   0.061
 9923SOL    HW130668   4.953   4.624   7.016
 9923SOL    HW230669   4.928   4.780   0.036
 9924SOL     OW30670   6.545   2.292   5.054
 9924SOL    HW130671   6.546   2.282   5.153
 9924SOL    HW230672   6.465   2.344   5.026
 9925SOL     OW30673   6.853   3.417   3.826
 9925SOL    HW130674   6.809   3.421   3.736
 9925SOL    HW230675   6.923   3.346   3.826
 9926SOL     OW30676   3.233   3.317   0.456
 9926SOL    HW130677   3.294   3.387   0.417
 9926SOL    HW230678   3.236   3.323   0.556
 9927SOL     OW30679   0.109   0.407   1.330
 9927SOL    HW130680   0.116   0.311   1.356
 9927SOL    HW230681   0.112   0.415   1.230
 9928SOL     OW30682   4.979   6.444   1.903
 9928SOL    HW130683   5.034   6.387   1.964
 9928SOL    HW230684   4.938   6.387   1.832
 9929SOL     OW30685   2.690   5.189   4.927
 9929SOL    HW130686   2.620   5.178   4.856
 9929SOL    HW230687   2.682   5.115   4.994
 9930SOL     OW30688   6.324   0.080   4.787
 9930SOL    HW130689   6.295   0.105   4.879
 9930SOL    HW230690   6.417   0.044   4.789
 9931SOL     OW30691   1.041   4.803   4.761
 9931SOL    HW130692   0.990   4.725   4.796
 9931SOL    HW230693   1.075   4.858   4.837
 9932SOL     OW30694   2.110   4.858   6.579
 9932SOL    HW130695   2.018   4.869   6.617
 9932SOL    HW230696   2.103   4.828   6.483
 9933SOL     OW30697   1.310   5.138   3.299
 9933SOL    HW130698   1.392   5.117   3.354
 9933SOL    HW230699   1.259   5.212   3.343
 9934SOL     OW30700   6.049   1.329   5.432
 9934SOL    HW130701   6.016   1.312   5.339
 9934SOL    HW230702   5.972   1.332   5.495
 9935SOL     OW30703   3.381   0.068   0.118
 9935SOL    HW130704   3.463   0.093   0.067
 9935SOL    HW230705   3.324   0.008   0.061
 9936SOL     OW30706   0.036   5.251   6.067
 9936SOL    HW130707   0.008   5.210   5.980
 9936SOL    HW230708   0.083   5.183   6.122
 9937SOL     OW30709   6.663   1.630   6.594
 9937SOL    HW130710   6.731   1.639   6.666
 9937SOL    HW230711   6.686   1.691   6.518
 9938SOL     OW30712   6.961   5.113   3.007
 9938SOL    HW130713   0.013   5.174   3.038
 9938SOL    HW230714   7.001   5.026   2.978
 9939SOL     OW30715   3.920   2.043   0.218
 9939SOL    HW130716   3.856   1.981   0.263
 9939SOL    HW230717   4.009   1.998   0.209
 9940SOL     OW30718   1.013   0.804   1.055
 9940SOL    HW130719   1.057   0.863   1.123
 9940SOL    HW230720   0.956   0.736   1.101
 9941SOL     OW30721   3.021   3.448   5.041
 9941SOL    HW130722   2.993   3.460   5.137
 9941SOL    HW230723   3.062   3.533   5.008
 9942SOL     OW30724   2.325   5.016   2.820
 9942SOL    HW130725   2.290   5.109   2.825
 9942SOL    HW230726   2.351   4.995   2.726
 9943SOL     OW30727   6.657   5.919   5.454
 9943SOL    HW130728   6.599   5.976   5.512
 9943SOL    HW230729   6.753   5.942   5.471
 9944SOL     OW30730   2.022   5.312   5.907
 9944SOL    HW130731   1.928   5.305   5.939
 9944SOL    HW230732   2.080   5.347   5.981
 9945SOL     OW30733   6.182   5.474   6.979
 9945SOL    HW130734   6.133   5.387   6.988
 9945SOL    HW230735   6.166   5.530   0.040
 9946SOL     OW30736   4.884   0.927   4.733
 9946SOL    HW130737   4.913   0.913   4.639
 9946SOL    HW230738   4.934   1.005   4.772
 9947SOL     OW30739   1.349   3.646   5.595
 9947SOL    HW130740   1.407   3.663   5.515
 9947SOL    HW230741   1.356   3.723   5.658
 9948SOL     OW30742   5.563   4.469   4.236
 9948SOL    HW130743   5.657   4.469   4.272
 9948SOL    HW230744   5.505   4.414   4.296
 9949SOL     OW30745   5.311   5.323   3.614
 9949SOL    HW130746   5.226   5.364   3.647
 9949SOL    HW230747   5.383   5.392   3.612
 9950SOL     OW30748   5.830   5.583   5.335
 9950SOL    HW130749   5.827   5.664   5.394
 9950SOL    HW230750   5.924   5.570   5.301
 9951SOL     OW30751   5.745   1.555   4.764
 9951SOL    HW130752   5.694   1.606   4.695
 9951SOL    HW230753   5.803   1.619   4.815
 9952SOL     OW30754   0.010   3.749   0.749
 9952SOL    HW130755   6.994   3.697   0.826
 9952SOL    HW230756   0.106   3.772   0.767
 9953SOL     OW30757   6.186   2.652   4.126
 9953SOL    HW130758   6.142   2.562   4.119
 9953SOL    HW230759   6.217   2.667   4.220
 9954SOL     OW30760   5.943   6.403   5.875
 9954SOL    HW130761   5.890   6.431   5.795
 9954SOL    HW230762   5.989   6.483   5.914
 9955SOL     OW30763   6.173   3.286   5.380
 9955SOL    HW130764   6.186   3.201   5.330
 9955SOL    HW230765   6.089   3.331   5.348
 9956SOL     OW30766   2.114   0.098   1.387
 9956SOL    HW130767   2.174   0.170   1.420
 9956SOL    HW230768   2.083   0.120   1.294
 9957SOL     OW30769   5.845   5.277   2.720
 9957SOL    HW130770   5.899   5.193   2.728
 9957SOL    HW230771   5.818   5.290   2.625
 9958SOL     OW30772   3.076   5.625   0.432
 9958SOL    HW130773   3.169   5.609   0.465
 9958SOL    HW230774   3.033   5.698   0.485
 9959SOL     OW30775   4.145   3.626   5.500
 9959SOL    HW130776   4.140   3.715   5.545
 9959SOL    HW230777   4.161   3.640   5.402
 9960SOL     OW30778   6.750   0.086   2.166
 9960SOL    HW130779   6.844   0.101   2.197
 9960SOL    HW230780   6.749   0.015   2.096
 9961SOL     OW30781   2.154   6.122   3.831
 9961SOL    HW130782   2.223   6.193   3.818
 9961SOL    HW230783   2.151   6.064   3.750
 9962SOL     OW30784   6.811   6.883   3.003
 9962SOL    HW130785   6.891   6.840   2.962
 9962SOL    HW230786   6.789   6.968   2.955
 9963SOL     OW30787   3.196   2.979   6.761
 9963SOL    HW130788   3.130   2.906   6.779
 9963SOL    HW230789   3.239   3.007   6.847
 9964SOL     OW30790   4.515   5.299   4.679
 9964SOL    HW130791   4.419   5.302   4.708
 9964SOL    HW230792   4.520   5.319   4.581
 9965SOL     OW30793   3.590   0.013   6.957
 9965SOL    HW130794   3.610   6.998   6.866
 9965SOL    HW230795   3.567   6.958   7.018
 9966SOL     OW30796   1.654   4.992   1.474
 9966SOL    HW130797   1.634   4.999   1.572
 9966SOL    HW230798   1.616   4.907   1.438
 9967SOL     OW30799   0.026   5.675   2.277
 9967SOL    HW130800   6.985   5.613   2.325
 9967SOL    HW230801   0.081   5.623   2.211
 9968SOL     OW30802   3.486   3.883   1.675
 9968SOL    HW130803   3.410   3.939   1.642
 9968SOL    HW230804   3.550   3.865   1.601
 9969SOL     OW30805   1.817   3.915   2.215
 9969SOL    HW130806   1.865   3.829   2.234
 9969SOL    HW230807   1.724   3.894   2.185
 9970SOL     OW30808   4.996   4.275   2.573
 9970SOL    HW130809   4.964   4.293   2.480
 9970SOL    HW230810   5.094   4.255   2.571
 9971SOL     OW30811   2.093   4.853   1.142
 9971SOL    HW130812   2.193   4.861   1.136
 9971SOL    HW230813   2.054   4.859   1.050
 9972SOL     OW30814   5.649   4.864   0.969
 9972SOL    HW130815   5.596   4.779   0.972
 9972SOL    HW230816   5.660   4.899   1.062
 9973SOL     OW30817   5.676   1.700   2.875
 9973SOL    HW130818   5.617   1.653   2.941
 9973SOL    HW230819   5.734   1.632   2.829
 9974SOL     OW30820   0.863   2.394   2.352
 9974SOL    HW130821   0.848   2.308   2.400
 9974SOL    HW230822   0.776   2.440   2.336
 9975SOL     OW30823   6.140   2.891   0.589
 9975SOL    HW130824   6.043   2.905   0.569
 9975SOL    HW230825   6.162   2.935   0.676
 9976SOL     OW30826   0.938   5.824   5.107
 9976SOL    HW130827   0.994   5.789   5.181
 9976SOL    HW230828   0.844   5.790   5.117
 9977SOL     OW30829   6.218   5.899   5.358
 9977SOL    HW130830   6.180   5.943   5.439
 9977SOL    HW230831   6.217   5.800   5.371
 9978SOL     OW30832   0.979   2.861   4.855
 9978SOL    HW130833   0.896   2.876   4.909
 9978SOL    HW230834   0.954   2.823   4.765
 9979SOL     OW30835   6.297   4.498   5.173
 9979SOL    HW130836   6.265   4.404   5.177
 9979SOL    HW230837   6.223   4.560   5.199
 9980SOL     OW30838   2.761   6.845   7.015
 9980SOL    HW130839   2.714   6.810   0.076
 9980SOL    HW230840   2.858   6.858   0.015
 9981SOL     OW30841   2.617   1.926   2.990
 9981SOL    HW130842   2.573   1.882   3.069
 9981SOL    HW230843   2.568   2.011   2.968
 9982SOL     OW30844   6.526   5.623   3.909
 9982SOL    HW130845   6.552   5.530   3.880
 9982SOL    HW230846   6.456   5.658   3.846
 9983SOL     OW30847   0.141   1.869   3.179
 9983SOL    HW130848   0.223   1.910   3.219
 9983SOL    HW230849   0.089   1.821   3.249
 9984SOL     OW30850   2.704   1.819   6.812
 9984SOL    HW130851   2.604   1.818   6.810
 9984SOL    HW230852   2.738   1.883   6.744
 9985SOL     OW30853   2.024   0.833   0.572
 9985SOL    HW130854   2.024   0.774   0.491
 9985SOL    HW230855   1.963   0.794   0.642
 9986SOL     OW30856   6.392   3.858   5.564
 9986SOL    HW130857   6.293   3.855   5.581
 9986SOL    HW230858   6.423   3.953   5.567
 9987SOL     OW30859   5.709   3.338   5.554
 9987SOL    HW130860   5.765   3.266   5.595
 9987SOL    HW230861   5.759   3.380   5.479
 9988SOL     OW30862   0.106   5.952   4.666
 9988SOL    HW130863   0.201   5.978   4.650
 9988SOL    HW230864   0.085   5.868   4.617
 9989SOL     OW30865   6.620   3.044   3.610
 9989SOL    HW130866   6.609   2.945   3.602
 9989SOL    HW230867   6.648   3.082   3.522
 9990SOL     OW30868   1.656   5.855   3.585
 9990SOL    HW130869   1.643   5.787   3.513
 9990SOL    HW230870   1.567   5.889   3.616
 9991SOL     OW30871   2.983   2.223   4.742
 9991SOL    HW130872   3.043   2.163   4.689
 9991SOL    HW230873   3.019   2.233   4.835
 9992SOL     OW30874   5.868   5.096   6.789
 9992SOL    HW130875   5.878   5.122   6.885
 9992SOL    HW230876   5.781   5.048   6.777
 9993SOL     OW30877   2.922   1.283   1.196
 9993SOL    HW130878   2.900   1.358   1.134
 9993SOL    HW230879   2.917   1.197   1.147
 9994SOL     OW30880   5.876   4.315   2.920
 9994SOL    HW130881   5.829   4.388   2.969
 9994SOL    HW230882   5.917   4.252   2.987
 9995SOL     OW30883   4.705   1.156   3.657
 9995SOL    HW130884   4.619   1.183   3.614
 9995SOL    HW230885   4.767   1.119   3.588
 9996SOL     OW30886   2.801   3.815   6.681
 9996SOL    HW130887   2.729   3.817   6.612
 9996SOL    HW230888   2.891   3.809   6.636
 9997SOL     OW30889   2.576   1.482   5.983
 9997SOL    HW130890   2.606   1.448   6.072
 9997SOL    HW230891   2.638   1.447   5.912
 9998SOL     OW30892   5.579   5.093   5.072
 9998SOL    HW130893   5.657   5.138   5.028
 9998SOL    HW230894   5.532   5.158   5.131
 9999SOL     OW30895   6.377   2.901   5.943
 9999SOL    HW130896   6.381   2.989   5.989
 9999SOL    HW230897   6.352   2.914   5.846
10000SOL     OW30898   6.641   3.163   0.103
10000SOL    HW130899   6.575   3.115   0.044
10000SOL    HW230900   6.631   3.131   0.197
10001SOL     OW30901   4.674   0.020   2.560
10001SOL    HW130902   4.706   0.082   2.632
10001SOL    HW230903   4.711   6.949   2.577
10002SOL     OW30904   1.503   6.446   1.999
10002SOL    HW130905   1.457   6.391   2.069
10002SOL    HW230906   1.589   6.482   2.037
10003SOL     OW30907   3.230   2.145   3.953
10003SOL    HW130908   3.277   2.066   3.991
10003SOL    HW230909   3.296   2.206   3.909
10004SOL     OW30910   6.715   2.852   4.716
10004SOL    HW130911   6.784   2.786   4.744
10004SOL    HW230912   6.714   2.860   4.616
10005SOL     OW30913   5.785   0.510   3.685
10005SOL    HW130914   5.753   0.489   3.777
10005SOL    HW230915   5.717   0.565   3.637
10006SOL     OW30916   4.511   6.786   4.117
10006SOL    HW130917   4.589   6.731   4.147
10006SOL    HW230918   4.538   6.840   4.036
10007SOL     OW30919   7.012   3.731   5.153
10007SOL    HW130920   6.936   3.785   5.191
10007SOL    HW230921   0.074   3.787   5.149
10008SOL     OW30922   3.702   1.087   4.584
10008SOL    HW130923   3.605   1.080   4.558
10008SOL    HW230924   3.720   1.028   4.662
10009SOL     OW30925   1.801   4.142   1.996
10009SOL    HW130926   1.766   4.049   2.005
10009SOL    HW230927   1.790   4.190   2.083
10010SOL     OW30928   2.096   0.812   6.987
10010SOL    HW130929   2.019   0.856   0.012
10010SOL    HW230930   2.164   0.784   0.035
10011SOL     OW30931   6.450   0.713   5.419
10011SOL    HW130932   6.412   0.707   5.327
10011SOL    HW230933   6.514   0.637   5.433
10012SOL     OW30934   6.630   0.496   3.119
10012SOL    HW130935   6.593   0.405   3.138
10012SOL    HW230936   6.711   0.512   3.175
10013SOL     OW30937   0.158   1.086   2.932
10013SOL    HW130938   0.060   1.093   2.945
10013SOL    HW230939   0.182   1.113   2.838
10014SOL     OW30940   0.649   4.325   6.465
10014SOL    HW130941   0.713   4.343   6.540
10014SOL    HW230942   0.665   4.232   6.431
10015SOL     OW30943   2.222   5.361   0.837
10015SOL    HW130944   2.285   5.421   0.787
10015SOL    HW230945   2.246   5.266   0.822
10016SOL     OW30946   1.927   0.917   6.422
10016SOL    HW130947   1.880   0.829   6.431
10016SOL    HW230948   1.910   0.955   6.331
10017SOL     OW30949   2.869   2.337   4.507
10017SOL    HW130950   2.869   2.430   4.544
10017SOL    HW230951   2.935   2.281   4.558
10018SOL     OW30952   5.484   0.228   6.558
10018SOL    HW130953   5.395   0.270   6.540
10018SOL    HW230954   5.519   0.260   6.646
10019SOL     OW30955   1.190   1.354   3.253
10019SOL    HW130956   1.236   1.270   3.225
10019SOL    HW230957   1.203   1.424   3.183
10020SOL     OW30958   1.149   3.011   1.564
10020SOL    HW130959   1.136   3.018   1.663
10020SOL    HW230960   1.243   3.036   1.541
10021SOL     OW30961   6.877   3.919   0.619
10021SOL    HW130962   6.939   3.852   0.659
10021SOL    HW230963   6.783   3.885   0.622
10022SOL     OW30964   2.093   1.311   6.361
10022SOL    HW130965   2.132   1.389   6.409
10022SOL    HW230966   2.034   1.343   6.287
10023SOL     OW30967   6.351   4.152   0.633
10023SOL    HW130968   6.448   4.177   0.623
10023SOL    HW230969   6.340   4.054   0.615
10024SOL     OW30970   1.078   5.837   3.734
10024SOL    HW130971   1.113   5.887   3.813
10024SOL    HW230972   1.102   5.886   3.650
10025SOL     OW30973   2.062   0.484   1.249
10025SOL    HW130974   2.143   0.430   1.274
10025SOL    HW230975   2.087   0.580   1.244
10026SOL     OW30976   5.697   0.330   3.436
10026SOL    HW130977   5.750   0.336   3.352
10026SOL    HW230978   5.753   0.359   3.514
10027SOL     OW30979   5.577   3.363   4.508
10027SOL    HW130980   5.630   3.420   4.570
10027SOL    HW230981   5.600   3.385   4.413
10028SOL     OW30982   1.669   1.071   0.656
10028SOL    HW130983   1.645   1.126   0.736
10028SOL    HW230984   1.764   1.088   0.632
10029SOL     OW30985   5.253   1.765   3.351
10029SOL    HW130986   5.286   1.721   3.434
10029SOL    HW230987   5.236   1.862   3.369
10030SOL     OW30988   2.077   0.792   3.674
10030SOL    HW130989   2.031   0.711   3.640
10030SOL    HW230990   2.161   0.807   3.621
10031SOL     OW30991   5.064   4.421   3.727
10031SOL    HW130992   5.061   4.367   3.644
10031SOL    HW230993   5.110   4.369   3.800
10032SOL     OW30994   2.388   2.038   5.294
10032SOL    HW130995   2.428   2.071   5.379
10032SOL    HW230996   2.313   2.098   5.267
10033SOL     OW30997   6.072   3.227   4.238
10033SOL    HW130998   6.071   3.220   4.138
10033SOL    HW230999   6.166   3.218   4.271
10034SOL     OW31000   3.677   0.481   4.853
10034SOL    HW131001   3.590   0.524   4.880
10034SOL    HW231002   3.729   0.458   4.935
10035SOL     OW31003   6.667   4.949   1.664
10035SOL    HW131004   6.696   4.960   1.569
10035SOL    HW231005   6.740   4.906   1.717
10036SOL     OW31006   6.618   1.860   6.992
10036SOL    HW131007   6.695   1.899   6.940
10036SOL    HW231008   6.532   1.899   6.958
10037SOL     OW31009   6.949   0.715   6.101
10037SOL    HW131010   6.880   0.646   6.120
10037SOL    HW231011   0.011   0.696   6.154
10038SOL     OW31012   6.545   6.923   1.155
10038SOL    HW131013   6.551   6.829   1.189
10038SOL    HW231014   6.520   6.984   1.230
10039SOL     OW31015   2.748   0.346   3.382
10039SOL    HW131016   2.740   0.273   3.314
10039SOL    HW231017   2.658   0.386   3.399
10040SOL     OW31018   6.336   3.607   0.581
10040SOL    HW131019   6.341   3.670   0.504
10040SOL    HW231020   6.325   3.514   0.547
10041SOL     OW31021   3.324   6.558   0.141
10041SOL    HW131022   3.286   6.633   0.194
10041SOL    HW231023   3.399   6.515   0.192
10042SOL     OW31024   6.638   1.992   3.081
10042SOL    HW131025   6.630   1.945   2.993
10042SOL    HW231026   6.679   2.082   3.067
10043SOL     OW31027   0.060   1.659   5.964
10043SOL    HW131028   0.044   1.708   6.050
10043SOL    HW231029   0.032   1.717   5.887
10044SOL     OW31030   2.707   2.492   6.025
10044SOL    HW131031   2.633   2.492   6.093
10044SOL    HW231032   2.722   2.399   5.992
10045SOL     OW31033   4.206   0.947   0.692
10045SOL    HW131034   4.231   0.916   0.784
10045SOL    HW231035   4.196   0.868   0.632
10046SOL     OW31036   0.574   4.954   1.194
10046SOL    HW131037   0.506   4.965   1.121
10046SOL    HW231038   0.665   4.945   1.154
10047SOL     OW31039   0.477   3.147   6.340
10047SOL    HW131040   0.384   3.116   6.358
10047SOL    HW231041   0.542   3.075   6.363
10048SOL     OW31042   6.071   6.765   2.632
10048SOL    HW131043   6.093   6.859   2.604
10048SOL    HW231044   6.128   6.740   2.710
10049SOL     OW31045   0.124   1.753   5.348
10049SOL    HW131046   0.163   1.763   5.440
10049SOL    HW231047   0.188   1.702   5.291
10050SOL     OW31048   5.534   3.319   5.279
10050SOL    HW131049   5.556   3.237   5.225
10050SOL    HW231050   5.582   3.315   5.366
10051SOL     OW31051   0.572   3.871   4.152
10051SOL    HW131052   0.501   3.940   4.136
10051SOL    HW231053   0.533   3.780   4.136
10052SOL     OW31054   1.118   0.229   3.407
10052SOL    HW131055   1.109   0.135   3.374
10052SOL    HW231056   1.079   0.235   3.499
10053SOL     OW31057   4.891   5.330   4.625
10053SOL    HW131058   4.901   5.235   4.595
10053SOL    HW231059   4.849   5.332   4.716
10054SOL     OW31060   5.135   3.846   4.498
10054SOL    HW131061   5.134   3.945   4.482
10054SOL    HW231062   5.218   3.807   4.458
10055SOL     OW31063   6.873   1.642   6.800
10055SOL    HW131064   6.926   1.596   6.872
10055SOL    HW231065   6.935   1.696   6.743
10056SOL     OW31066   5.132   2.928   2.978
10056SOL    HW131067   5.171   2.856   2.921
10056SOL    HW231068   5.091   2.888   3.060
10057SOL     OW31069   5.451   4.662   6.140
10057SOL    HW131070   5.496   4.592   6.196
10057SOL    HW231071   5.490   4.660   6.048
10058SOL     OW31072   6.090   3.245   4.941
10058SOL    HW131073   6.084   3.148   4.965
10058SOL    HW231074   6.158   3.290   4.998
10059SOL     OW31075   0.110   1.152   6.671
10059SOL    HW131076   0.127   1.162   6.573
10059SOL    HW231077   0.193   1.175   6.722
10060SOL     OW31078   2.397   1.879   2.796
10060SOL    HW131079   2.472   1.832   2.843
10060SOL    HW231080   2.434   1.934   2.721
10061SOL     OW31081   3.592   0.254   3.112
10061SOL    HW131082   3.667   0.311   3.079
10061SOL    HW231083   3.508   0.278   3.064
10062SOL     OW31084   0.074   0.124   4.227
10062SOL    HW131085   7.002   0.129   4.188
10062SOL    HW231086   0.068   0.121   4.326
10063SOL     OW31087   1.870   3.268   5.053
10063SOL    HW131088   1.965   3.267   5.022
10063SOL    HW231089   1.809   3.254   4.975
10064SOL     OW31090   2.914   6.437   0.244
10064SOL    HW131091   2.986   6.498   0.279
10064SOL    HW231092   2.832   6.447   0.301
10065SOL     OW31093   0.681   1.330   2.328
10065SOL    HW131094   0.706   1.420   2.293
10065SOL    HW231095   0.675   1.265   2.253
10066SOL     OW31096   6.574   3.215   4.810
10066SOL    HW131097   6.538   3.129   4.772
10066SOL    HW231098   6.623   3.265   4.739
10067SOL     OW31099   6.571   2.076   4.888
10067SOL    HW131100   6.563   2.158   4.945
10067SOL    HW231101   6.480   2.047   4.858
10068SOL     OW31102   2.363   2.358   2.501
10068SOL    HW131103   2.273   2.400   2.509
10068SOL    HW231104   2.359   2.281   2.437
10069SOL     OW31105   3.192   5.417   1.282
10069SOL    HW131106   3.106   5.407   1.232
10069SOL    HW231107   3.267   5.378   1.229
10070SOL     OW31108   3.624   5.706   5.343
10070SOL    HW131109   3.543   5.715   5.286
10070SOL    HW231110   3.688   5.643   5.300
10071SOL     OW31111   6.435   0.045   3.461
10071SOL    HW131112   6.422   7.014   3.376
10071SOL    HW231113   6.515   0.011   3.509
10072SOL     OW31114   6.928   2.300   2.384
10072SOL    HW131115   0.005   2.287   2.370
10072SOL    HW231116   6.900   2.390   2.351
10073SOL     OW31117   6.241   3.843   4.499
10073SOL    HW131118   6.306   3.898   4.552
10073SOL    HW231119   6.285   3.811   4.416
10074SOL     OW31120   1.298   4.785   0.443
10074SOL    HW131121   1.317   4.873   0.398
10074SOL    HW231122   1.236   4.800   0.520
10075SOL     OW31123   1.776   3.308   1.772
10075SOL    HW131124   1.853   3.351   1.820
10075SOL    HW231125   1.729   3.377   1.717
10076SOL     OW31126   5.275   5.668   3.788
10076SOL    HW131127   5.257   5.645   3.883
10076SOL    HW231128   5.371   5.692   3.777
10077SOL     OW31129   6.365   2.838   6.373
10077SOL    HW131130   6.368   2.762   6.308
10077SOL    HW231131   6.271   2.870   6.382
10078SOL     OW31132   6.826   6.716   5.367
10078SOL    HW131133   6.925   6.702   5.359
10078SOL    HW231134   6.784   6.633   5.405
10079SOL     OW31135   4.471   2.468   2.909
10079SOL    HW131136   4.567   2.442   2.910
10079SOL    HW231137   4.428   2.435   2.824
10080SOL     OW31138   5.543   0.210   6.100
10080SOL    HW131139   5.642   0.219   6.098
10080SOL    HW231140   5.516   0.142   6.168
10081SOL     OW31141   2.319   3.038   0.674
10081SOL    HW131142   2.318   2.943   0.642
10081SOL    HW231143   2.344   3.041   0.771
10082SOL     OW31144   1.227   4.184   1.691
10082SOL    HW131145   1.273   4.118   1.632
10082SOL    HW231146   1.128   4.168   1.689
10083SOL     OW31147   3.368   5.416   3.506
10083SOL    HW131148   3.384   5.504   3.460
10083SOL    HW231149   3.354   5.345   3.437
10084SOL     OW31150   1.425   0.519   4.925
10084SOL    HW131151   1.444   0.466   4.842
10084SOL    HW231152   1.372   0.464   4.988
10085SOL     OW31153   4.893   6.966   0.457
10085SOL    HW131154   4.889   0.045   0.468
10085SOL    HW231155   4.941   6.945   0.372
10086SOL     OW31156   6.941   6.372   2.150
10086SOL    HW131157   6.923   6.311   2.072
10086SOL    HW231158   6.929   6.467   2.122
10087SOL     OW31159   1.462   6.495   4.782
10087SOL    HW131160   1.557   6.499   4.751
10087SOL    HW231161   1.459   6.472   4.879
10088SOL     OW31162   0.328   2.641   0.258
10088SOL    HW131163   0.373   2.728   0.239
10088SOL    HW231164   0.257   2.654   0.327
10089SOL     OW31165   3.805   1.326   2.380
10089SOL    HW131166   3.740   1.359   2.311
10089SOL    HW231167   3.757   1.312   2.467
10090SOL     OW31168   2.251   6.519   1.794
10090SOL    HW131169   2.300   6.559   1.872
10090SOL    HW231170   2.234   6.422   1.812
10091SOL     OW31171   6.149   4.395   5.459
10091SOL    HW131172   6.082   4.360   5.525
10091SOL    HW231173   6.139   4.494   5.449
10092SOL     OW31174   0.613   1.925   4.605
10092SOL    HW131175   0.514   1.915   4.606
10092SOL    HW231176   0.656   1.837   4.586
10093SOL     OW31177   5.554   4.066   5.658
10093SOL    HW131178   5.501   4.054   5.742
10093SOL    HW231179   5.567   3.977   5.614
10094SOL     OW31180   3.436   0.764   0.867
10094SOL    HW131181   3.478   0.839   0.918
10094SOL    HW231182   3.352   0.735   0.914
10095SOL     OW31183   5.117   2.912   5.333
10095SOL    HW131184   5.101   2.821   5.296
10095SOL    HW231185   5.078   2.981   5.272
10096SOL     OW31186   5.280   1.276   3.136
10096SOL    HW131187   5.292   1.232   3.048
10096SOL    HW231188   5.191   1.321   3.140
10097SOL     OW31189   0.964   1.974   0.276
10097SOL    HW131190   0.894   1.998   0.344
10097SOL    HW231191   0.930   1.899   0.219
10098SOL     OW31192   3.644   6.306   3.948
10098SOL    HW131193   3.604   6.297   3.857
10098SOL    HW231194   3.708   6.230   3.963
10099SOL     OW31195   6.950   4.761   1.064
10099SOL    HW131196   6.854   4.749   1.041
10099SOL    HW231197   6.998   4.673   1.056
10100SOL     OW31198   4.424   5.028   4.167
10100SOL    HW131199   4.339   5.077   4.187
10100SOL    HW231200   4.447   5.040   4.071
10101SOL     OW31201   1.130   1.926   1.697
10101SOL    HW131202   1.214   1.874   1.681
10101SOL    HW231203   1.149   2.002   1.759
10102SOL     OW31204   6.308   6.515   1.848
10102SOL    HW131205   6.282   6.425   1.813
10102SOL    HW231206   6.395   6.543   1.808
10103SOL     OW31207   6.511   6.065   6.643
10103SOL    HW131208   6.548   5.999   6.708
10103SOL    HW231209   6.545   6.157   6.664
10104SOL     OW31210   1.914   0.331   4.914
10104SOL    HW131211   1.817   0.326   4.892
10104SOL    HW231212   1.951   0.238   4.924
10105SOL     OW31213   2.752   0.578   6.115
10105SOL    HW131214   2.682   0.640   6.153
10105SOL    HW231215   2.712   0.527   6.038
10106SOL     OW31216   5.208   6.003   1.427
10106SOL    HW131217   5.288   5.976   1.480
10106SOL    HW231218   5.165   5.922   1.388
10107SOL     OW31219   5.219   4.531   6.849
10107SOL    HW131220   5.196   4.456   6.911
10107SOL    HW231221   5.295   4.503   6.790
10108SOL     OW31222   2.134   2.868   0.045
10108SOL    HW131223   2.115   2.832   0.136
10108SOL    HW231224   2.095   2.806   6.997
10109SOL     OW31225   1.414   2.068   1.127
10109SOL    HW131226   1.380   2.162   1.124
10109SOL    HW231227   1.362   2.016   1.195
10110SOL     OW31228   4.864   6.182   2.605
10110SOL    HW131229   4.826   6.273   2.588
10110SOL    HW231230   4.938   6.189   2.673
10111SOL     OW31231   1.849   1.458   1.816
10111SOL    HW131232   1.917   1.385   1.819
10111SOL    HW231233   1.807   1.460   1.725
10112SOL     OW31234   0.006   2.127   3.601
10112SOL    HW131235   6.993   2.215   3.568
10112SOL    HW231236   6.955   2.058   3.592
10113SOL     OW31237   6.548   0.755   6.119
10113SOL    HW131238   6.480   0.821   6.088
10113SOL    HW231239   6.616   0.741   6.048
10114SOL     OW31240   4.922   1.976   2.327
10114SOL    HW131241   4.852   1.968   2.398
10114SOL    HW231242   4.898   2.051   2.265
10115SOL     OW31243   3.685   2.694   5.950
10115SOL    HW131244   3.658   2.785   5.918
10115SOL    HW231245   3.782   2.695   5.974
10116SOL     OW31246   6.392   0.660   4.800
10116SOL    HW131247   6.473   0.610   4.768
10116SOL    HW231248   6.392   0.660   4.900
10117SOL     OW31249   5.884   4.316   3.694
10117SOL    HW131250   5.795   4.304   3.651
10117SOL    HW231251   5.954   4.269   3.640
10118SOL     OW31252   3.967   5.352   4.470
10118SOL    HW131253   3.911   5.426   4.507
10118SOL    HW231254   4.029   5.389   4.400
10119SOL     OW31255   6.941   5.379   5.446
10119SOL    HW131256   6.889   5.461   5.424
10119SOL    HW231257   6.919   5.307   5.379
10120SOL     OW31258   2.067   3.192   2.448
10120SOL    HW131259   2.033   3.118   2.390
10120SOL    HW231260   2.124   3.254   2.394
10121SOL     OW31261   6.499   4.033   0.899
10121SOL    HW131262   6.442   4.110   0.872
10121SOL    HW231263   6.583   4.067   0.942
10122SOL     OW31264   1.066   0.458   3.822
10122SOL    HW131265   1.000   0.531   3.800
10122SOL    HW231266   1.036   0.410   3.904
10123SOL     OW31267   6.359   5.353   6.760
10123SOL    HW131268   6.276   5.333   6.708
10123SOL    HW231269   6.334   5.386   6.851
10124SOL     OW31270   1.081   4.913   3.157
10124SOL    HW131271   1.142   4.967   3.215
10124SOL    HW231272   1.023   4.854   3.215
10125SOL     OW31273   1.547   1.388   5.970
10125SOL    HW131274   1.458   1.371   6.012
10125SOL    HW231275   1.552   1.338   5.883
10126SOL     OW31276   6.192   0.148   6.999
10126SOL    HW131277   6.114   0.171   0.038
10126SOL    HW231278   6.226   0.231   6.956
10127SOL     OW31279   1.923   5.516   5.710
10127SOL    HW131280   1.843   5.547   5.761
10127SOL    HW231281   1.938   5.419   5.728
10128SOL     OW31282   2.727   1.560   6.843
10128SOL    HW131283   2.825   1.550   6.825
10128SOL    HW231284   2.701   1.655   6.829
10129SOL     OW31285   5.840   1.204   4.296
10129SOL    HW131286   5.743   1.209   4.322
10129SOL    HW231287   5.853   1.247   4.206
10130SOL     OW31288   1.139   1.879   2.648
10130SOL    HW131289   1.122   1.957   2.587
10130SOL    HW231290   1.167   1.912   2.738
10131SOL     OW31291   1.555   6.717   4.472
10131SOL    HW131292   1.468   6.670   4.461
10131SOL    HW231293   1.592   6.739   4.382
10132SOL     OW31294   6.715   1.086   1.823
10132SOL    HW131295   6.757   1.068   1.912
10132SOL    HW231296   6.705   1.001   1.773
10133SOL     OW31297   5.940   6.712   0.545
10133SOL    HW131298   5.917   6.767   0.625
10133SOL    HW231299   5.994   6.766   0.481
10134SOL     OW31300   5.840   6.776   1.920
10134SOL    HW131301   5.939   6.764   1.921
10134SOL    HW231302   5.799   6.730   1.999
10135SOL     OW31303   6.403   0.198   2.772
10135SOL    HW131304   6.362   0.197   2.681
10135SOL    HW231305   6.463   0.277   2.780
10136SOL     OW31306   5.533   1.518   2.645
10136SOL    HW131307   5.473   1.597   2.631
10136SOL    HW231308   5.610   1.523   2.582
10137SOL     OW31309   6.461   5.223   5.430
10137SOL    HW131310   6.456   5.273   5.516
10137SOL    HW231311   6.371   5.223   5.386
10138SOL     OW31312   0.369   1.608   0.386
10138SOL    HW131313   0.296   1.618   0.318
10138SOL    HW231314   0.428   1.689   0.383
10139SOL     OW31315   3.811   2.859   6.216
10139SOL    HW131316   3.796   2.927   6.144
10139SOL    HW231317   3.728   2.850   6.271
10140SOL     OW31318   0.326   6.737   5.801
10140SOL    HW131319   0.310   6.793   5.720
10140SOL    HW231320   0.372   6.652   5.774
10141SOL     OW31321   2.021   2.547   4.667
10141SOL    HW131322   1.986   2.453   4.674
10141SOL    HW231323   1.973   2.606   4.731
10142SOL     OW31324   4.468   6.419   4.354
10142SOL    HW131325   4.387   6.476   4.367
10142SOL    HW231326   4.440   6.328   4.324
10143SOL     OW31327   5.375   3.192   6.596
10143SOL    HW131328   5.316   3.112   6.580
10143SOL    HW231329   5.319   3.275   6.595
10144SOL     OW31330   3.554   0.084   6.189
10144SOL    HW131331   3.619   0.009   6.180
10144SOL    HW231332   3.497   0.069   6.270
10145SOL     OW31333   5.546   5.804   6.495
10145SOL    HW131334   5.586   5.716   6.469
10145SOL    HW231335   5.617   5.861   6.536
10146SOL     OW31336   0.089   2.607   4.271
10146SOL    HW131337   0.040   2.590   4.185
10146SOL    HW231338   0.139   2.525   4.298
10147SOL     OW31339   5.106   5.216   6.256
10147SOL    HW131340   5.062   5.266   6.331
10147SOL    HW231341   5.205   5.218   6.269
10148SOL     OW31342   1.111   4.637   0.805
10148SOL    HW131343   1.082   4.717   0.753
10148SOL    HW231344   1.040   4.567   0.801
10149SOL     OW31345   3.400   4.651   0.143
10149SOL    HW131346   3.453   4.733   0.121
10149SOL    HW231347   3.326   4.674   0.205
10150SOL     OW31348   4.119   4.518   0.629
10150SOL    HW131349   4.189   4.560   0.686
10150SOL    HW231350   4.042   4.489   0.687
10151SOL     OW31351   5.487   6.779   5.930
10151SOL    HW131352   5.586   6.776   5.942
10151SOL    HW231353   5.443   6.785   6.020
10152SOL     OW31354   4.247   6.586   2.782
10152SOL    HW131355   4.338   6.545   2.789
10152SOL    HW231356   4.213   6.608   2.873
10153SOL     OW31357   4.828   4.424   3.098
10153SOL    HW131358   4.800   4.450   3.191
10153SOL    HW231359   4.921   4.456   3.082
10154SOL     OW31360   5.003   5.275   5.389
10154SOL    HW131361   4.995   5.175   5.385
10154SOL    HW231362   4.923   5.312   5.437
10155SOL     OW31363   4.045   1.333   4.759
10155SOL    HW131364   4.027   1.262   4.692
10155SOL    HW231365   4.130   1.312   4.808
10156SOL     OW31366   5.109   1.875   6.999
10156SOL    HW131367   5.171   1.954   6.994
10156SOL    HW231368   5.053   1.882   0.060
10157SOL     OW31369   0.795   3.113   0.723
10157SOL    HW131370   0.865   3.052   0.760
10157SOL    HW231371   0.837   3.179   0.660
10158SOL     OW31372   6.077   4.803   0.774
10158SOL    HW131373   6.083   4.820   0.676
10158SOL    HW231374   6.017   4.724   0.790
10159SOL     OW31375   3.243   3.376   2.456
10159SOL    HW131376   3.170   3.314   2.428
10159SOL    HW231377   3.219   3.421   2.542
10160SOL     OW31378   1.034   4.837   2.726
10160SOL    HW131379   1.077   4.818   2.814
10160SOL    HW231380   1.088   4.904   2.676
10161SOL     OW31381   5.441   3.117   5.712
10161SOL    HW131382   5.375   3.185   5.745
10161SOL    HW231383   5.521   3.164   5.675
10162SOL     OW31384   1.464   2.916   2.622
10162SOL    HW131385   1.391   2.887   2.561
10162SOL    HW231386   1.532   2.969   2.570
10163SOL     OW31387   1.466   6.200   5.287
10163SOL    HW131388   1.483   6.131   5.216
10163SOL    HW231389   1.374   6.187   5.324
10164SOL     OW31390   1.299   2.540   2.953
10164SOL    HW131391   1.314   2.631   2.991
10164SOL    HW231392   1.262   2.480   3.023
10165SOL     OW31393   6.837   3.164   4.353
10165SOL    HW131394   6.782   3.211   4.283
10165SOL    HW231395   6.933   3.189   4.341
10166SOL     OW31396   2.395   0.500   1.558
10166SOL    HW131397   2.367   0.419   1.609
10166SOL    HW231398   2.413   0.576   1.621
10167SOL     OW31399   2.254   0.348   6.692
10167SOL    HW131400   2.276   0.250   6.689
10167SOL    HW231401   2.156   0.360   6.710
10168SOL     OW31402   6.993   0.835   6.785
10168SOL    HW131403   6.918   0.895   6.814
10168SOL    HW231404   7.020   0.860   6.692
10169SOL     OW31405   6.076   2.838   3.615
10169SOL    HW131406   6.103   2.810   3.707
10169SOL    HW231407   6.128   2.787   3.547
10170SOL     OW31408   5.633   5.542   6.357
10170SOL    HW131409   5.575   5.543   6.275
10170SOL    HW231410   5.723   5.506   6.334
10171SOL     OW31411   1.912   3.587   5.864
10171SOL    HW131412   1.881   3.648   5.790
10171SOL    HW231413   1.955   3.641   5.936
10172SOL     OW31414   6.342   0.063   3.014
10172SOL    HW131415   6.354   0.108   2.925
10172SOL    HW231416   6.282   7.005   3.003
10173SOL     OW31417   2.875   3.870   5.152
10173SOL    HW131418   2.849   3.966   5.151
10173SOL    HW231419   2.973   3.862   5.173
10174SOL     OW31420   4.078   5.766   3.547
10174SOL    HW131421   4.143   5.785   3.620
10174SOL    HW231422   4.013   5.697   3.577
10175SOL     OW31423   0.119   1.574   3.604
10175SOL    HW131424   0.037   1.539   3.648
10175SOL    HW231425   0.197   1.566   3.667
10176SOL     OW31426   6.708   1.780   6.282
10176SOL    HW131427   6.756   1.864   6.260
10176SOL    HW231428   6.646   1.757   6.206
10177SOL     OW31429   2.329   0.817   3.533
10177SOL    HW131430   2.399   0.760   3.491
10177SOL    HW231431   2.371   0.878   3.600
10178SOL     OW31432   2.150   2.264   0.691
10178SOL    HW131433   2.209   2.236   0.766
10178SOL    HW231434   2.072   2.201   0.685
10179SOL     OW31435   6.943   4.579   1.291
10179SOL    HW131436   6.983   4.555   1.203
10179SOL    HW231437   6.863   4.638   1.275
10180SOL     OW31438   4.144   0.442   5.713
10180SOL    HW131439   4.121   0.536   5.736
10180SOL    HW231440   4.113   0.422   5.620
10181SOL     OW31441   6.523   3.146   1.806
10181SOL    HW131442   6.511   3.185   1.898
10181SOL    HW231443   6.530   3.047   1.812
10182SOL     OW31444   5.741   1.836   0.259
10182SOL    HW131445   5.685   1.796   0.331
10182SOL    HW231446   5.705   1.926   0.235
10183SOL     OW31447   6.005   1.887   6.675
10183SOL    HW131448   5.933   1.825   6.645
10183SOL    HW231449   6.087   1.834   6.699
10184SOL     OW31450   5.618   2.518   6.289
10184SOL    HW131451   5.605   2.615   6.310
10184SOL    HW231452   5.529   2.472   6.283
10185SOL     OW31453   3.861   5.580   1.790
10185SOL    HW131454   3.800   5.629   1.727
10185SOL    HW231455   3.886   5.639   1.866
10186SOL     OW31456   3.775   3.363   5.813
10186SOL    HW131457   3.703   3.388   5.878
10186SOL    HW231458   3.762   3.414   5.728
10187SOL     OW31459   1.997   4.780   5.888
10187SOL    HW131460   1.982   4.752   5.793
10187SOL    HW231461   1.913   4.764   5.941
10188SOL     OW31462   3.398   0.578   6.529
10188SOL    HW131463   3.384   0.489   6.572
10188SOL    HW231464   3.310   0.615   6.501
10189SOL     OW31465   1.123   2.158   6.566
10189SOL    HW131466   1.145   2.062   6.582
10189SOL    HW231467   1.065   2.167   6.485
10190SOL     OW31468   3.855   5.492   2.130
10190SOL    HW131469   3.866   5.584   2.168
10190SOL    HW231470   3.781   5.445   2.178
10191SOL     OW31471   5.903   5.902   6.824
10191SOL    HW131472   5.852   5.899   6.738
10191SOL    HW231473   5.880   5.822   6.879
10192SOL     OW31474   1.695   1.802   4.192
10192SOL    HW131475   1.619   1.744   4.223
10192SOL    HW231476   1.777   1.745   4.179
10193SOL     OW31477   3.448   3.733   3.386
10193SOL    HW131478   3.523   3.768   3.442
10193SOL    HW231479   3.474   3.738   3.289
10194SOL     OW31480   2.952   0.238   2.944
10194SOL    HW131481   2.990   0.268   2.857
10194SOL    HW231482   2.863   0.281   2.957
10195SOL     OW31483   3.973   6.097   2.238
10195SOL    HW131484   3.943   6.005   2.212
10195SOL    HW231485   4.069   6.108   2.214
10196SOL     OW31486   5.980   1.902   3.575
10196SOL    HW131487   5.929   1.873   3.495
10196SOL    HW231488   5.952   1.995   3.601
10197SOL     OW31489   6.002   0.211   1.665
10197SOL    HW131490   5.998   0.301   1.709
10197SOL    HW231491   5.956   0.144   1.723
10198SOL     OW31492   2.675   6.908   0.655
10198SOL    HW131493   2.754   6.963   0.682
10198SOL    HW231494   2.593   6.940   0.702
10199SOL     OW31495   1.337   1.510   0.556
10199SOL    HW131496   1.371   1.591   0.603
10199SOL    HW231497   1.244   1.528   0.523
10200SOL     OW31498   4.912   4.676   4.458
10200SOL    HW131499   4.845   4.670   4.533
10200SOL    HW231500   4.987   4.612   4.475
10201SOL     OW31501   1.557   4.435   2.734
10201SOL    HW131502   1.635   4.382   2.702
10201SOL    HW231503   1.576   4.471   2.826
10202SOL     OW31504   1.397   3.744   2.436
10202SOL    HW131505   1.393   3.812   2.363
10202SOL    HW231506   1.307   3.735   2.479
10203SOL     OW31507   1.898   3.370   2.535
10203SOL    HW131508   1.959   3.294   2.514
10203SOL    HW231509   1.863   3.409   2.449
10204SOL     OW31510   3.088   4.548   5.377
10204SOL    HW131511   3.181   4.537   5.342
10204SOL    HW231512   3.025   4.492   5.324
10205SOL     OW31513   4.692   1.931   3.038
10205SOL    HW131514   4.635   1.977   2.970
10205SOL    HW231515   4.745   1.999   3.088
10206SOL     OW31516   5.278   6.942   6.316
10206SOL    HW131517   5.232   6.995   6.388
10206SOL    HW231518   5.375   6.966   6.315
10207SOL     OW31519   4.069   0.748   3.027
10207SOL    HW131520   4.126   0.731   3.107
10207SOL    HW231521   4.100   0.832   2.982
10208SOL     OW31522   6.199   4.251   5.234
10208SOL    HW131523   6.188   4.287   5.326
10208SOL    HW231524   6.260   4.173   5.235
10209SOL     OW31525   5.787   0.075   6.221
10209SOL    HW131526   5.848   0.127   6.280
10209SOL    HW231527   5.701   0.058   6.268
10210SOL     OW31528   4.913   6.152   2.262
10210SOL    HW131529   4.984   6.137   2.331
10210SOL    HW231530   4.895   6.250   2.254
10211SOL     OW31531   4.119   5.544   5.339
10211SOL    HW131532   4.201   5.600   5.344
10211SOL    HW231533   4.128   5.465   5.400
10212SOL     OW31534   0.039   0.640   5.460
10212SOL    HW131535   0.109   0.570   5.472
10212SOL    HW231536   0.002   0.667   5.549
10213SOL     OW31537   6.197   1.374   2.791
10213SOL    HW131538   6.190   1.297   2.854
10213SOL    HW231539   6.293   1.390   2.768
10214SOL     OW31540   0.057   0.956   1.871
10214SOL    HW131541   0.004   0.873   1.887
10214SOL    HW231542   0.116   0.943   1.791
10215SOL     OW31543   3.580   3.835   6.493
10215SOL    HW131544   3.619   3.875   6.410
10215SOL    HW231545   3.516   3.762   6.468
10216SOL     OW31546   5.040   0.471   1.457
10216SOL    HW131547   4.949   0.511   1.474
10216SOL    HW231548   5.074   0.428   1.540
10217SOL     OW31549   2.195   2.077   4.672
10217SOL    HW131550   2.162   1.987   4.701
10217SOL    HW231551   2.281   2.098   4.718
10218SOL     OW31552   2.450   1.342   0.659
10218SOL    HW131553   2.511   1.417   0.635
10218SOL    HW231554   2.486   1.294   0.739
10219SOL     OW31555   1.064   3.344   0.888
10219SOL    HW131556   1.038   3.256   0.849
10219SOL    HW231557   1.086   3.408   0.814
10220SOL     OW31558   4.602   2.210   0.918
10220SOL    HW131559   4.683   2.151   0.919
10220SOL    HW231560   4.520   2.154   0.905
10221SOL     OW31561   2.788   0.087   5.021
10221SOL    HW131562   2.879   0.119   4.995
10221SOL    HW231563   2.797   0.010   5.086
10222SOL     OW31564   1.979   5.458   5.455
10222SOL    HW131565   1.952   5.487   5.547
10222SOL    HW231566   2.074   5.427   5.456
10223SOL     OW31567   0.828   4.655   0.049
10223SOL    HW131568   0.901   4.687   0.109
10223SOL    HW231569   0.820   4.556   0.056
10224SOL     OW31570   1.633   0.296   4.122
10224SOL    HW131571   1.635   0.217   4.184
10224SOL    HW231572   1.682   0.373   4.165
10225SOL     OW31573   6.466   5.578   4.502
10225SOL    HW131574   6.547   5.528   4.533
10225SOL    HW231575   6.458   5.569   4.402
10226SOL     OW31576   1.865   1.570   0.180
10226SOL    HW131577   1.860   1.522   0.267
10226SOL    HW231578   1.790   1.541   0.121
10227SOL     OW31579   5.561   4.739   0.046
10227SOL    HW131580   5.652   4.762   0.079
10227SOL    HW231581   5.544   4.642   0.059
10228SOL     OW31582   0.791   5.339   2.984
10228SOL    HW131583   0.699   5.348   2.944
10228SOL    HW231584   0.827   5.430   3.004
10229SOL     OW31585   1.746   0.276   2.654
10229SOL    HW131586   1.803   0.277   2.736
10229SOL    HW231587   1.739   0.369   2.617
10230SOL     OW31588   6.350   0.895   3.617
10230SOL    HW131589   6.404   0.966   3.571
10230SOL    HW231590   6.276   0.866   3.557
10231SOL     OW31591   5.684   6.772   4.765
10231SOL    HW131592   5.620   6.716   4.713
10231SOL    HW231593   5.713   6.723   4.847
10232SOL     OW31594   3.339   2.119   5.167
10232SOL    HW131595   3.399   2.128   5.088
10232SOL    HW231596   3.290   2.205   5.183
10233SOL     OW31597   4.983   1.418   5.562
10233SOL    HW131598   5.019   1.506   5.534
10233SOL    HW231599   4.916   1.431   5.636
10234SOL     OW31600   4.983   0.020   1.811
10234SOL    HW131601   4.955   0.037   1.717
10234SOL    HW231602   5.002   6.943   1.823
10235SOL     OW31603   5.755   1.086   6.916
10235SOL    HW131604   5.765   1.021   6.991
10235SOL    HW231605   5.799   1.050   6.833
10236SOL     OW31606   2.498   5.150   2.074
10236SOL    HW131607   2.564   5.095   2.023
10236SOL    HW231608   2.547   5.214   2.134
10237SOL     OW31609   5.795   3.337   2.447
10237SOL    HW131610   5.842   3.304   2.366
10237SOL    HW231611   5.838   3.299   2.529
10238SOL     OW31612   4.655   5.062   4.579
10238SOL    HW131613   4.606   5.143   4.612
10238SOL    HW231614   4.603   5.021   4.504
10239SOL     OW31615   0.432   3.634   4.483
10239SOL    HW131616   0.371   3.597   4.413
10239SOL    HW231617   0.406   3.728   4.505
10240SOL     OW31618   0.297   4.122   4.049
10240SOL    HW131619   0.259   4.083   4.133
10240SOL    HW231620   0.224   4.133   3.981
10241SOL     OW31621   2.099   0.940   1.987
10241SOL    HW131622   2.050   1.011   2.037
10241SOL    HW231623   2.116   0.970   1.893
10242SOL     OW31624   6.701   0.240   6.232
10242SOL    HW131625   6.672   0.165   6.173
10242SOL    HW231626   6.795   0.224   6.261
10243SOL     OW31627   1.405   5.879   1.281
10243SOL    HW131628   1.379   5.974   1.262
10243SOL    HW231629   1.505   5.871   1.282
10244SOL     OW31630   2.114   6.137   6.855
10244SOL    HW131631   2.131   6.039   6.850
10244SOL    HW231632   2.198   6.185   6.879
10245SOL     OW31633   2.777   2.324   6.511
10245SOL    HW131634   2.750   2.393   6.443
10245SOL    HW231635   2.695   2.279   6.547
10246SOL     OW31636   3.073   4.064   4.914
10246SOL    HW131637   3.033   4.094   5.000
10246SOL    HW231638   3.019   4.100   4.838
10247SOL     OW31639   0.321   4.149   5.818
10247SOL    HW131640   0.272   4.078   5.868
10247SOL    HW231641   0.290   4.152   5.723
10248SOL     OW31642   3.734   0.442   1.716
10248SOL    HW131643   3.677   0.363   1.700
10248SOL    HW231644   3.830   0.419   1.697
10249SOL     OW31645   5.345   0.914   5.803
10249SOL    HW131646   5.425   0.974   5.800
10249SOL    HW231647   5.270   0.955   5.752
10250SOL     OW31648   6.589   1.522   0.430
10250SOL    HW131649   6.592   1.501   0.333
10250SOL    HW231650   6.652   1.462   0.479
10251SOL     OW31651   2.554   3.852   6.543
10251SOL    HW131652   2.518   3.770   6.498
10251SOL    HW231653   2.478   3.910   6.572
10252SOL     OW31654   6.240   5.877   1.686
10252SOL    HW131655   6.228   5.785   1.724
10252SOL    HW231656   6.337   5.894   1.668
10253SOL     OW31657   4.360   5.460   6.716
10253SOL    HW131658   4.294   5.448   6.642
10253SOL    HW231659   4.343   5.391   6.787
10254SOL     OW31660   2.146   2.161   5.253
10254SOL    HW131661   2.130   2.202   5.163
10254SOL    HW231662   2.145   2.232   5.323
10255SOL     OW31663   2.797   6.043   2.693
10255SOL    HW131664   2.870   5.981   2.722
10255SOL    HW231665   2.798   6.052   2.593
10256SOL     OW31666   5.922   0.240   6.775
10256SOL    HW131667   5.898   0.311   6.708
10256SOL    HW231668   5.943   0.283   6.863
10257SOL     OW31669   1.126   5.451   5.713
10257SOL    HW131670   1.191   5.469   5.787
10257SOL    HW231671   1.106   5.353   5.709
10258SOL     OW31672   3.626   6.859   3.248
10258SOL    HW131673   3.627   6.826   3.154
10258SOL    HW231674   3.680   6.798   3.306
10259SOL     OW31675   6.931   3.716   3.662
10259SOL    HW131676   0.004   3.682   3.648
10259SOL    HW231677   6.909   3.713   3.760
10260SOL     OW31678   1.073   6.886   2.035
10260SOL    HW131679   0.997   6.947   2.013
10260SOL    HW231680   1.159   6.936   2.035
10261SOL     OW31681   0.921   5.674   1.977
10261SOL    HW131682   0.998   5.711   2.027
10261SOL    HW231683   0.904   5.579   2.005
10262SOL     OW31684   2.567   4.672   4.737
10262SOL    HW131685   2.510   4.590   4.748
10262SOL    HW231686   2.571   4.696   4.640
10263SOL     OW31687   5.987   1.644   5.968
10263SOL    HW131688   6.035   1.700   6.035
10263SOL    HW231689   5.908   1.694   5.933
10264SOL     OW31690   6.561   0.454   6.295
10264SOL    HW131691   6.639   0.517   6.304
10264SOL    HW231692   6.595   0.363   6.271
10265SOL     OW31693   3.473   1.388   2.528
10265SOL    HW131694   3.399   1.405   2.593
10265SOL    HW231695   3.554   1.356   2.577
10266SOL     OW31696   2.981   3.781   6.303
10266SOL    HW131697   2.897   3.780   6.249
10266SOL    HW231698   3.052   3.832   6.254
10267SOL     OW31699   0.289   1.832   6.595
10267SOL    HW131700   0.372   1.886   6.611
10267SOL    HW231701   0.313   1.740   6.567
10268SOL     OW31702   5.110   6.134   1.665
10268SOL    HW131703   5.082   6.073   1.739
10268SOL    HW231704   5.128   6.080   1.582
10269SOL     OW31705   2.768   2.614   6.618
10269SOL    HW131706   2.832   2.576   6.685
10269SOL    HW231707   2.731   2.700   6.654
10270SOL     OW31708   1.881   5.814   0.628
10270SOL    HW131709   1.976   5.841   0.615
10270SOL    HW231710   1.874   5.749   0.704
10271SOL     OW31711   4.398   4.519   1.467
10271SOL    HW131712   4.437   4.452   1.530
10271SOL    HW231713   4.472   4.570   1.423
10272SOL     OW31714   0.658   1.224   5.700
10272SOL    HW131715   0.699   1.255   5.614
10272SOL    HW231716   0.564   1.194   5.682
10273SOL     OW31717   3.746   5.413   4.980
10273SOL    HW131718   3.812   5.442   4.911
10273SOL    HW231719   3.654   5.412   4.940
10274SOL     OW31720   1.006   4.693   5.412
10274SOL    HW131721   0.955   4.730   5.334
10274SOL    HW231722   1.010   4.594   5.404
10275SOL     OW31723   0.770   6.470   2.794
10275SOL    HW131724   0.696   6.535   2.815
10275SOL    HW231725   0.736   6.400   2.732
10276SOL     OW31726   6.276   5.531   5.840
10276SOL    HW131727   6.198   5.475   5.869
10276SOL    HW231728   6.294   5.602   5.908
10277SOL     OW31729   2.990   6.323   4.499
10277SOL    HW131730   2.992   6.235   4.546
10277SOL    HW231731   2.934   6.317   4.417
10278SOL     OW31732   6.136   0.739   6.199
10278SOL    HW131733   6.071   0.764   6.127
10278SOL    HW231734   6.152   0.818   6.258
10279SOL     OW31735   3.305   6.971   4.167
10279SOL    HW131736   3.379   0.009   4.200
10279SOL    HW231737   3.339   6.912   4.094
10280SOL     OW31738   1.531   4.290   0.246
10280SOL    HW131739   1.567   4.281   0.339
10280SOL    HW231740   1.594   4.244   0.182
10281SOL     OW31741   4.505   0.574   3.453
10281SOL    HW131742   4.549   0.656   3.417
10281SOL    HW231743   4.478   0.515   3.377
10282SOL     OW31744   1.147   2.124   4.354
10282SOL    HW131745   1.237   2.082   4.365
10282SOL    HW231746   1.154   2.222   4.373
10283SOL     OW31747   1.184   3.437   0.451
10283SOL    HW131748   1.213   3.526   0.417
10283SOL    HW231749   1.260   3.372   0.444
10284SOL     OW31750   5.778   2.830   5.678
10284SOL    HW131751   5.697   2.870   5.721
10284SOL    HW231752   5.822   2.768   5.742
10285SOL     OW31753   5.803   0.257   0.777
10285SOL    HW131754   5.849   0.190   0.718
10285SOL    HW231755   5.812   0.348   0.739
10286SOL     OW31756   3.890   0.217   3.483
10286SOL    HW131757   3.888   0.174   3.573
10286SOL    HW231758   3.829   0.167   3.420
10287SOL     OW31759   1.960   6.789   1.927
10287SOL    HW131760   1.950   6.718   1.857
10287SOL    HW231761   1.942   6.879   1.886
10288SOL     OW31762   6.332   6.182   3.427
10288SOL    HW131763   6.404   6.208   3.492
10288SOL    HW231764   6.334   6.083   3.413
10289SOL     OW31765   3.222   1.158   1.608
10289SOL    HW131766   3.281   1.173   1.688
10289SOL    HW231767   3.271   1.186   1.525
10290SOL     OW31768   3.947   3.215   2.698
10290SOL    HW131769   3.999   3.186   2.778
10290SOL    HW231770   3.849   3.207   2.716
10291SOL     OW31771   3.173   0.577   4.977
10291SOL    HW131772   3.118   0.546   5.055
10291SOL    HW231773   3.159   0.675   4.963
10292SOL     OW31774   0.883   1.028   4.473
10292SOL    HW131775   0.977   1.059   4.485
10292SOL    HW231776   0.872   0.936   4.510
10293SOL     OW31777   2.690   6.296   3.541
10293SOL    HW131778   2.677   6.257   3.632
10293SOL    HW231779   2.601   6.316   3.500
10294SOL     OW31780   5.357   1.408   3.411
10294SOL    HW131781   5.406   1.349   3.474
10294SOL    HW231782   5.375   1.380   3.317
10295SOL     OW31783   0.552   5.739   6.052
10295SOL    HW131784   0.555   5.779   5.961
10295SOL    HW231785   0.557   5.812   6.121
10296SOL     OW31786   6.896   3.168   0.400
10296SOL    HW131787   6.887   3.093   0.335
10296SOL    HW231788   6.808   3.214   0.411
10297SOL     OW31789   0.989   5.022   4.611
10297SOL    HW131790   0.990   5.005   4.512
10297SOL    HW231791   0.992   4.934   4.659
10298SOL     OW31792   4.718   4.188   3.991
10298SOL    HW131793   4.672   4.227   3.912
10298SOL    HW231794   4.658   4.196   4.071
10299SOL     OW31795   4.794   4.769   3.206
10299SOL    HW131796   4.871   4.797   3.149
10299SOL    HW231797   4.715   4.828   3.187
10300SOL     OW31798   0.885   3.894   2.880
10300SOL    HW131799   0.802   3.947   2.900
10300SOL    HW231800   0.960   3.957   2.857
10301SOL     OW31801   5.851   1.414   1.901
10301SOL    HW131802   5.920   1.352   1.939
10301SOL    HW231803   5.896   1.487   1.851
10302SOL     OW31804   1.336   5.771   2.759
10302SOL    HW131805   1.340   5.676   2.725
10302SOL    HW231806   1.392   5.829   2.699
10303SOL     OW31807   3.967   3.966   1.334
10303SOL    HW131808   3.919   3.981   1.247
10303SOL    HW231809   3.999   4.053   1.370
10304SOL     OW31810   0.046   6.859   2.307
10304SOL    HW131811   0.129   6.844   2.253
10304SOL    HW231812   0.040   6.955   2.333
10305SOL     OW31813   1.043   5.663   0.668
10305SOL    HW131814   1.114   5.664   0.738
10305SOL    HW231815   0.956   5.636   0.709
10306SOL     OW31816   4.334   6.045   0.744
10306SOL    HW131817   4.321   6.126   0.801
10306SOL    HW231818   4.261   5.979   0.762
10307SOL     OW31819   1.657   1.049   6.425
10307SOL    HW131820   1.645   1.021   6.330
10307SOL    HW231821   1.698   0.974   6.477
10308SOL     OW31822   2.856   5.832   3.381
10308SOL    HW131823   2.821   5.869   3.467
10308SOL    HW231824   2.826   5.889   3.305
10309SOL     OW31825   6.894   6.491   2.895
10309SOL    HW131826   6.805   6.536   2.893
10309SOL    HW231827   6.891   6.408   2.838
10310SOL     OW31828   3.997   3.850   3.203
10310SOL    HW131829   3.911   3.898   3.187
10310SOL    HW231830   4.043   3.834   3.116
10311SOL     OW31831   0.081   5.636   0.161
10311SOL    HW131832   0.099   5.540   0.142
10311SOL    HW231833   0.163   5.690   0.142
10312SOL     OW31834   2.427   4.363   0.598
10312SOL    HW131835   2.525   4.371   0.581
10312SOL    HW231836   2.402   4.267   0.607
10313SOL     OW31837   5.570   0.124   2.835
10313SOL    HW131838   5.606   0.074   2.914
10313SOL    HW231839   5.472   0.105   2.825
10314SOL     OW31840   6.483   6.872   0.883
10314SOL    HW131841   6.557   6.807   0.868
10314SOL    HW231842   6.494   6.915   0.972
10315SOL     OW31843   6.345   5.227   4.617
10315SOL    HW131844   6.412   5.259   4.684
10315SOL    HW231845   6.304   5.142   4.649
10316SOL     OW31846   0.536   3.823   3.732
10316SOL    HW131847   0.583   3.895   3.782
10316SOL    HW231848   0.462   3.863   3.676
10317SOL     OW31849   4.146   5.456   7.015
10317SOL    HW131850   4.050   5.442   0.020
10317SOL    HW231851   4.173   5.385   6.950
10318SOL     OW31852   5.865   5.375   2.125
10318SOL    HW131853   5.860   5.473   2.103
10318SOL    HW231854   5.912   5.364   2.213
10319SOL     OW31855   5.705   6.371   3.404
10319SOL    HW131856   5.611   6.391   3.379
10319SOL    HW231857   5.707   6.318   3.489
10320SOL     OW31858   6.843   0.113   1.284
10320SOL    HW131859   6.798   0.151   1.365
10320SOL    HW231860   6.817   0.166   1.203
10321SOL     OW31861   4.273   5.631   4.063
10321SOL    HW131862   4.188   5.592   4.097
10321SOL    HW231863   4.320   5.679   4.138
10322SOL     OW31864   6.298   3.873   0.686
10322SOL    HW131865   6.335   3.781   0.681
10322SOL    HW231866   6.279   3.897   0.781
10323SOL     OW31867   4.911   2.776   5.832
10323SOL    HW131868   4.837   2.828   5.875
10323SOL    HW231869   4.906   2.788   5.732
10324SOL     OW31870   3.442   2.971   3.697
10324SOL    HW131871   3.516   3.006   3.639
10324SOL    HW231872   3.473   2.887   3.742
10325SOL     OW31873   0.639   2.985   2.529
10325SOL    HW131874   0.548   2.954   2.502
10325SOL    HW231875   0.673   3.051   2.462
10326SOL     OW31876   5.566   2.001   0.721
10326SOL    HW131877   5.577   2.057   0.803
10326SOL    HW231878   5.650   1.948   0.706
10327SOL     OW31879   0.279   0.892   3.068
10327SOL    HW131880   0.378   0.895   3.083
10327SOL    HW231881   0.251   0.975   3.019
10328SOL     OW31882   5.898   3.013   2.315
10328SOL    HW131883   5.900   3.111   2.293
10328SOL    HW231884   5.803   2.983   2.321
10329SOL     OW31885   3.191   6.953   2.435
10329SOL    HW131886   3.170   7.017   2.361
10329SOL    HW231887   3.208   6.862   2.396
10330SOL     OW31888   4.204   5.182   2.024
10330SOL    HW131889   4.106   5.198   2.028
10330SOL    HW231890   4.222   5.101   1.967
10331SOL     OW31891   5.944   0.545   3.395
10331SOL    HW131892   5.877   0.530   3.322
10331SOL    HW231893   6.019   0.602   3.361
10332SOL     OW31894   6.888   2.381   6.150
10332SOL    HW131895   6.932   2.338   6.072
10332SOL    HW231896   6.868   2.477   6.129
10333SOL     OW31897   5.291   5.156   4.315
10333SOL    HW131898   5.263   5.183   4.223
10333SOL    HW231899   5.358   5.082   4.310
10334SOL     OW31900   2.285   4.893   4.246
10334SOL    HW131901   2.278   4.852   4.336
10334SOL    HW231902   2.378   4.927   4.232
10335SOL     OW31903   1.808   5.507   1.457
10335SOL    HW131904   1.818   5.410   1.436
10335SOL    HW231905   1.746   5.518   1.536
10336SOL     OW31906   4.160   6.303   2.568
10336SOL    HW131907   4.113   6.353   2.495
10336SOL    HW231908   4.248   6.346   2.587
10337SOL     OW31909   0.366   4.199   4.915
10337SOL    HW131910   0.465   4.186   4.906
10337SOL    HW231911   0.346   4.248   5.000
10338SOL     OW31912   2.844   6.027   3.087
10338SOL    HW131913   2.837   6.109   3.143
10338SOL    HW231914   2.813   6.047   2.994
10339SOL     OW31915   2.563   6.289   1.385
10339SOL    HW131916   2.542   6.339   1.300
10339SOL    HW231917   2.586   6.355   1.457
10340SOL     OW31918   1.794   6.668   0.609
10340SOL    HW131919   1.757   6.761   0.604
10340SOL    HW231920   1.813   6.646   0.705
10341SOL     OW31921   1.881   1.702   2.726
10341SOL    HW131922   1.790   1.716   2.764
10341SOL    HW231923   1.949   1.738   2.790
10342SOL     OW31924   2.520   6.809   4.752
10342SOL    HW131925   2.471   6.896   4.747
10342SOL    HW231926   2.605   6.815   4.701
10343SOL     OW31927   2.061   3.361   5.497
10343SOL    HW131928   1.980   3.323   5.542
10343SOL    HW231929   2.082   3.306   5.416
10344SOL     OW31930   3.692   4.007   4.953
10344SOL    HW131931   3.628   4.010   5.030
10344SOL    HW231932   3.752   3.928   4.963
10345SOL     OW31933   2.173   1.575   6.453
10345SOL    HW131934   2.218   1.618   6.375
10345SOL    HW231935   2.074   1.589   6.447
10346SOL     OW31936   5.075   5.880   0.157
10346SOL    HW131937   5.142   5.928   0.215
10346SOL    HW231938   5.112   5.869   0.065
10347SOL     OW31939   5.616   1.487   1.788
10347SOL    HW131940   5.602   1.464   1.692
10347SOL    HW231941   5.697   1.440   1.822
10348SOL     OW31942   0.261   6.878   5.569
10348SOL    HW131943   0.209   6.961   5.589
10348SOL    HW231944   0.319   6.894   5.489
10349SOL     OW31945   0.009   1.878   1.147
10349SOL    HW131946   6.934   1.854   1.161
10349SOL    HW231947   0.023   1.975   1.168
10350SOL     OW31948   2.760   5.207   4.434
10350SOL    HW131949   2.777   5.141   4.507
10350SOL    HW231950   2.668   5.245   4.444
10351SOL     OW31951   5.203   4.522   4.763
10351SOL    HW131952   5.284   4.477   4.726
10351SOL    HW231953   5.212   4.621   4.754
10352SOL     OW31954   5.668   2.104   0.092
10352SOL    HW131955   5.745   2.164   0.115
10352SOL    HW231956   5.590   2.160   0.062
10353SOL     OW31957   6.160   2.756   3.873
10353SOL    HW131958   6.145   2.760   3.971
10353SOL    HW231959   6.258   2.763   3.854
10354SOL     OW31960   0.340   3.237   0.633
10354SOL    HW131961   0.250   3.239   0.590
10354SOL    HW231962   0.382   3.327   0.627
10355SOL     OW31963   0.899   0.703   0.809
10355SOL    HW131964   0.854   0.774   0.755
10355SOL    HW231965   0.947   0.746   0.886
10356SOL     OW31966   6.541   4.223   6.559
10356SOL    HW131967   6.627   4.173   6.550
10356SOL    HW231968   6.525   4.245   6.655
10357SOL     OW31969   1.331   2.856   6.163
10357SOL    HW131970   1.418   2.813   6.138
10357SOL    HW231971   1.346   2.918   6.240
10358SOL     OW31972   0.836   2.829   2.132
10358SOL    HW131973   0.858   2.757   2.066
10358SOL    HW231974   0.741   2.858   2.118
10359SOL     OW31975   5.842   1.940   2.559
10359SOL    HW131976   5.915   1.887   2.517
10359SOL    HW231977   5.851   1.936   2.659
10360SOL     OW31978   5.847   4.159   2.276
10360SOL    HW131979   5.766   4.101   2.264
10360SOL    HW231980   5.819   4.245   2.319
10361SOL     OW31981   0.676   1.487   1.735
10361SOL    HW131982   0.581   1.476   1.705
10361SOL    HW231983   0.717   1.397   1.749
10362SOL     OW31984   1.169   5.031   2.579
10362SOL    HW131985   1.248   5.016   2.520
10362SOL    HW231986   1.172   5.123   2.617
10363SOL     OW31987   5.132   4.628   0.241
10363SOL    HW131988   5.165   4.551   0.187
10363SOL    HW231989   5.078   4.689   0.183
10364SOL     OW31990   6.019   4.479   2.349
10364SOL    HW131991   5.986   4.544   2.281
10364SOL    HW231992   6.070   4.528   2.420
10365SOL     OW31993   6.378   6.141   0.494
10365SOL    HW131994   6.281   6.121   0.478
10365SOL    HW231995   6.388   6.236   0.524
10366SOL     OW31996   2.732   6.237   3.252
10366SOL    HW131997   2.696   6.326   3.223
10366SOL    HW231998   2.755   6.240   3.349
10367SOL     OW31999   6.188   1.883   0.961
10367SOL    HW132000   6.220   1.804   0.909
10367SOL    HW232001   6.113   1.927   0.912
10368SOL     OW32002   1.501   5.651   1.969
10368SOL    HW132003   1.539   5.713   1.900
10368SOL    HW232004   1.572   5.587   1.998
10369SOL     OW32005   3.514   0.122   5.753
10369SOL    HW132006   3.559   0.211   5.759
10369SOL    HW232007   3.430   0.123   5.807
10370SOL     OW32008   0.312   0.883   4.857
10370SOL    HW132009   0.345   0.859   4.948
10370SOL    HW232010   0.279   0.801   4.810
10371SOL     OW32011   3.429   5.784   3.665
10371SOL    HW132012   3.399   5.737   3.582
10371SOL    HW232013   3.388   5.741   3.745
10372SOL     OW32014   2.805   6.416   1.793
10372SOL    HW132015   2.752   6.490   1.835
10372SOL    HW232016   2.743   6.344   1.763
10373SOL     OW32017   0.788   2.022   5.605
10373SOL    HW132018   0.783   2.120   5.582
10373SOL    HW232019   0.879   2.001   5.640
10374SOL     OW32020   3.203   6.831   4.838
10374SOL    HW132021   3.198   6.843   4.739
10374SOL    HW232022   3.299   6.820   4.865
10375SOL     OW32023   2.848   3.703   0.229
10375SOL    HW132024   2.808   3.790   0.202
10375SOL    HW232025   2.947   3.713   0.238
10376SOL     OW32026   1.720   4.750   2.763
10376SOL    HW132027   1.740   4.655   2.791
10376SOL    HW232028   1.739   4.811   2.840
10377SOL     OW32029   1.255   0.794   3.050
10377SOL    HW132030   1.294   0.704   3.067
10377SOL    HW232031   1.241   0.806   2.952
10378SOL     OW32032   6.914   4.350   5.050
10378SOL    HW132033   6.886   4.405   4.971
10378SOL    HW232034   6.863   4.264   5.051
10379SOL     OW32035   1.798   6.221   4.688
10379SOL    HW132036   1.828   6.297   4.631
10379SOL    HW232037   1.796   6.249   4.784
10380SOL     OW32038   1.860   2.632   4.470
10380SOL    HW132039   1.917   2.597   4.544
10380SOL    HW232040   1.825   2.722   4.496
10381SOL     OW32041   4.335   4.779   1.625
10381SOL    HW132042   4.386   4.695   1.604
10381SOL    HW232043   4.248   4.755   1.667
10382SOL     OW32044   3.449   5.567   1.471
10382SOL    HW132045   3.436   5.598   1.565
10382SOL    HW232046   3.360   5.556   1.427
10383SOL     OW32047   2.256   4.560   0.448
10383SOL    HW132048   2.169   4.585   0.490
10383SOL    HW232049   2.316   4.519   0.518
10384SOL     OW32050   5.442   6.582   1.622
10384SOL    HW132051   5.518   6.648   1.626
10384SOL    HW232052   5.472   6.494   1.658
10385SOL     OW32053   4.060   4.773   6.656
10385SOL    HW132054   3.961   4.779   6.666
10385SOL    HW232055   4.083   4.704   6.589
10386SOL     OW32056   0.096   0.782   0.175
10386SOL    HW132057   0.067   0.694   0.137
10386SOL    HW232058   0.017   0.830   0.213
10387SOL     OW32059   4.856   3.000   2.554
10387SOL    HW132060   4.849   2.980   2.456
10387SOL    HW232061   4.862   3.099   2.567
10388SOL     OW32062   2.987   0.512   5.802
10388SOL    HW132063   3.022   0.466   5.720
10388SOL    HW232064   3.052   0.584   5.829
10389SOL     OW32065   0.989   3.255   0.560
10389SOL    HW132066   1.070   3.290   0.513
10389SOL    HW232067   0.909   3.308   0.532
10390SOL     OW32068   3.246   2.449   1.217
10390SOL    HW132069   3.179   2.398   1.270
10390SOL    HW232070   3.217   2.454   1.121
10391SOL     OW32071   6.588   6.702   4.241
10391SOL    HW132072   6.617   6.607   4.251
10391SOL    HW232073   6.656   6.762   4.283
10392SOL     OW32074   6.543   5.141   4.328
10392SOL    HW132075   6.456   5.190   4.339
10392SOL    HW232076   6.525   5.045   4.307
10393SOL     OW32077   1.841   3.857   4.013
10393SOL    HW132078   1.844   3.856   4.113
10393SOL    HW232079   1.877   3.771   3.978
10394SOL     OW32080   3.124   5.892   4.469
10394SOL    HW132081   3.096   5.907   4.374
10394SOL    HW232082   3.043   5.875   4.525
10395SOL     OW32083   6.964   0.037   0.814
10395SOL    HW132084   6.927   6.982   0.867
10395SOL    HW232085   6.942   0.123   0.860
10396SOL     OW32086   2.788   1.690   4.357
10396SOL    HW132087   2.802   1.787   4.338
10396SOL    HW232088   2.869   1.653   4.403
10397SOL     OW32089   3.167   2.124   2.506
10397SOL    HW132090   3.146   2.059   2.433
10397SOL    HW232091   3.082   2.159   2.545
10398SOL     OW32092   0.121   3.202   1.636
10398SOL    HW132093   0.171   3.156   1.563
10398SOL    HW232094   0.088   3.134   1.702
10399SOL     OW32095   6.509   2.828   1.961
10399SOL    HW132096   6.466   2.863   2.044
10399SOL    HW232097   6.608   2.840   1.966
10400SOL     OW32098   4.365   6.979   0.439
10400SOL    HW132099   4.397   6.910   0.374
10400SOL    HW232100   4.388   6.952   0.532
10401SOL     OW32101   6.599   0.852   4.088
10401SOL    HW132102   6.584   0.930   4.149
10401SOL    HW232103   6.512   0.824   4.047
10402SOL     OW32104   6.112   2.836   4.509
10402SOL    HW132105   6.064   2.892   4.441
10402SOL    HW232106   6.126   2.889   4.593
10403SOL     OW32107   3.021   0.854   3.321
10403SOL    HW132108   3.114   0.868   3.287
10403SOL    HW232109   2.991   0.761   3.298
10404SOL     OW32110   6.379   0.012   5.928
10404SOL    HW132111   6.326   0.095   5.946
10404SOL    HW232112   6.471   0.037   5.899
10405SOL     OW32113   0.741   1.604   5.600
10405SOL    HW132114   0.745   1.519   5.547
10405SOL    HW232115   0.833   1.632   5.625
10406SOL     OW32116   3.322   4.817   1.934
10406SOL    HW132117   3.412   4.773   1.925
10406SOL    HW232118   3.259   4.777   1.868
10407SOL     OW32119   3.369   5.775   6.385
10407SOL    HW132120   3.460   5.770   6.343
10407SOL    HW232121   3.314   5.841   6.335
10408SOL     OW32122   4.996   1.158   0.531
10408SOL    HW132123   5.095   1.159   0.515
10408SOL    HW232124   4.962   1.064   0.524
10409SOL     OW32125   6.630   4.841   0.179
10409SOL    HW132126   6.658   4.879   0.268
10409SOL    HW232127   6.626   4.915   0.111
10410SOL     OW32128   5.562   1.386   0.126
10410SOL    HW132129   5.554   1.340   0.038
10410SOL    HW232130   5.471   1.408   0.161
10411SOL     OW32131   3.053   5.648   2.935
10411SOL    HW132132   3.150   5.650   2.959
10411SOL    HW232133   3.019   5.554   2.938
10412SOL     OW32134   6.001   1.338   0.637
10412SOL    HW132135   6.062   1.386   0.574
10412SOL    HW232136   5.907   1.347   0.606
10413SOL     OW32137   6.864   2.461   1.280
10413SOL    HW132138   6.865   2.426   1.187
10413SOL    HW232139   6.932   2.413   1.335
10414SOL     OW32140   4.605   3.741   5.568
10414SOL    HW132141   4.558   3.805   5.629
10414SOL    HW232142   4.607   3.650   5.610
10415SOL     OW32143   0.592   5.426   5.937
10415SOL    HW132144   0.578   5.522   5.959
10415SOL    HW232145   0.687   5.410   5.913
10416SOL     OW32146   5.621   1.536   3.347
10416SOL    HW132147   5.625   1.633   3.372
10416SOL    HW232148   5.600   1.482   3.429
10417SOL     OW32149   3.184   4.972   4.462
10417SOL    HW132150   3.153   4.986   4.556
10417SOL    HW232151   3.109   4.935   4.407
10418SOL     OW32152   6.941   4.798   5.566
10418SOL    HW132153   6.892   4.867   5.512
10418SOL    HW232154   6.953   4.831   5.660
10419SOL     OW32155   1.430   0.739   6.862
10419SOL    HW132156   1.416   0.645   6.829
10419SOL    HW232157   1.492   0.787   6.799
10420SOL     OW32158   0.037   3.054   2.246
10420SOL    HW132159   0.066   3.092   2.334
10420SOL    HW232160   0.093   2.973   2.225
10421SOL     OW32161   1.138   1.463   3.488
10421SOL    HW132162   1.149   1.561   3.501
10421SOL    HW232163   1.164   1.438   3.395
10422SOL     OW32164   6.583   2.401   5.442
10422SOL    HW132165   6.633   2.327   5.397
10422SOL    HW232166   6.615   2.489   5.407
10423SOL     OW32167   5.172   5.226   4.542
10423SOL    HW132168   5.074   5.235   4.527
10423SOL    HW232169   5.215   5.188   4.460
10424SOL     OW32170   5.673   2.449   0.113
10424SOL    HW132171   5.610   2.419   0.042
10424SOL    HW232172   5.767   2.429   0.084
10425SOL     OW32173   1.859   6.706   2.152
10425SOL    HW132174   1.917   6.753   2.086
10425SOL    HW232175   1.885   6.733   2.245
10426SOL     OW32176   7.008   4.156   0.694
10426SOL    HW132177   6.950   4.082   0.660
10426SOL    HW232178   6.984   4.241   0.647
10427SOL     OW32179   4.687   1.513   0.387
10427SOL    HW132180   4.609   1.507   0.324
10427SOL    HW232181   4.672   1.588   0.452
10428SOL     OW32182   3.347   1.298   4.766
10428SOL    HW132183   3.253   1.273   4.741
10428SOL    HW232184   3.384   1.360   4.697
10429SOL     OW32185   6.838   5.736   1.429
10429SOL    HW132186   6.833   5.777   1.520
10429SOL    HW232187   6.908   5.665   1.428
10430SOL     OW32188   4.503   0.123   3.907
10430SOL    HW132189   4.595   0.092   3.930
10430SOL    HW232190   4.488   0.215   3.945
10431SOL     OW32191   3.398   0.216   5.509
10431SOL    HW132192   3.347   0.151   5.452
10431SOL    HW232193   3.464   0.166   5.566
10432SOL     OW32194   6.232   1.166   4.381
10432SOL    HW132195   6.284   1.251   4.377
10432SOL    HW232196   6.228   1.126   4.289
10433SOL     OW32197   1.601   6.190   1.458
10433SOL    HW132198   1.660   6.255   1.506
10433SOL    HW232199   1.506   6.221   1.462
10434SOL     OW32200   3.315   0.112   3.024
10434SOL    HW132201   3.367   0.069   3.098
10434SOL    HW232202   3.218   0.094   3.037
10435SOL     OW32203   6.264   0.093   5.166
10435SOL    HW132204   6.224   0.036   5.238
10435SOL    HW232205   6.195   0.114   5.097
10436SOL     OW32206   0.551   4.589   4.695
10436SOL    HW132207   0.629   4.600   4.756
10436SOL    HW232208   0.549   4.496   4.659
10437SOL     OW32209   6.337   5.012   5.591
10437SOL    HW132210   6.390   5.050   5.514
10437SOL    HW232211   6.315   5.086   5.655
10438SOL     OW32212   5.371   6.639   0.111
10438SOL    HW132213   5.404   6.721   0.065
10438SOL    HW232214   5.413   6.633   0.202
10439SOL     OW32215   2.937   1.288   5.934
10439SOL    HW132216   2.961   1.192   5.941
10439SOL    HW232217   2.976   1.338   6.011
10440SOL     OW32218   0.275   6.426   1.116
10440SOL    HW132219   0.366   6.391   1.140
10440SOL    HW232220   0.270   6.440   1.017
10441SOL     OW32221   5.318   1.567   6.923
10441SOL    HW132222   5.349   1.532   7.011
10441SOL    HW232223   5.223   1.597   6.931
10442SOL     OW32224   3.288   5.133   5.391
10442SOL    HW132225   3.383   5.110   5.372
10442SOL    HW232226   3.265   5.104   5.484
10443SOL     OW32227   5.466   3.629   4.752
10443SOL    HW132228   5.421   3.627   4.841
10443SOL    HW232229   5.400   3.654   4.682
10444SOL     OW32230   3.892   5.096   4.556
10444SOL    HW132231   3.917   5.186   4.521
10444SOL    HW232232   3.912   5.092   4.654
10445SOL     OW32233   0.780   4.890   4.121
10445SOL    HW132234   0.831   4.805   4.135
10445SOL    HW232235   0.703   4.873   4.060
10446SOL     OW32236   0.986   4.764   6.702
10446SOL    HW132237   0.967   4.839   6.765
10446SOL    HW232238   1.083   4.738   6.709
10447SOL     OW32239   0.267   1.159   1.892
10447SOL    HW132240   0.174   1.131   1.912
10447SOL    HW232241   0.269   1.257   1.870
10448SOL     OW32242   4.335   3.572   1.172
10448SOL    HW132243   4.359   3.483   1.211
10448SOL    HW232244   4.325   3.564   1.073
10449SOL     OW32245   2.503   5.190   3.973
10449SOL    HW132246   2.564   5.208   4.050
10449SOL    HW232247   2.556   5.186   3.888
10450SOL     OW32248   0.277   2.361   6.443
10450SOL    HW132249   0.332   2.444   6.448
10450SOL    HW232250   0.333   2.282   6.472
10451SOL     OW32251   2.375   4.478   2.674
10451SOL    HW132252   2.293   4.535   2.684
10451SOL    HW232253   2.353   4.397   2.620
10452SOL     OW32254   0.119   3.265   3.315
10452SOL    HW132255   0.086   3.190   3.372
10452SOL    HW232256   0.067   3.268   3.230
10453SOL     OW32257   5.689   5.892   1.634
10453SOL    HW132258   5.594   5.904   1.664
10453SOL    HW232259   5.702   5.799   1.600
10454SOL     OW32260   5.507   3.201   1.640
10454SOL    HW132261   5.481   3.270   1.572
10454SOL    HW232262   5.511   3.111   1.596
10455SOL     OW32263   0.350   5.267   3.650
10455SOL    HW132264   0.411   5.289   3.574
10455SOL    HW232265   0.404   5.252   3.733
10456SOL     OW32266   3.105   6.223   1.065
10456SOL    HW132267   3.036   6.191   1.130
10456SOL    HW232268   3.186   6.166   1.071
10457SOL     OW32269   3.679   3.631   3.918
10457SOL    HW132270   3.698   3.539   3.951
10457SOL    HW232271   3.707   3.698   3.987
10458SOL     OW32272   0.211   6.882   6.841
10458SOL    HW132273   0.214   6.906   6.938
10458SOL    HW232274   0.287   6.926   6.794
10459SOL     OW32275   5.963   5.323   2.376
10459SOL    HW132276   6.024   5.368   2.441
10459SOL    HW232277   5.910   5.253   2.423
10460SOL     OW32278   2.751   6.020   1.913
10460SOL    HW132279   2.773   5.955   1.840
10460SOL    HW232280   2.773   5.979   2.001
10461SOL     OW32281   1.793   6.593   6.325
10461SOL    HW132282   1.805   6.640   6.238
10461SOL    HW232283   1.883   6.569   6.362
10462SOL     OW32284   6.205   0.592   1.556
10462SOL    HW132285   6.241   0.546   1.637
10462SOL    HW232286   6.119   0.638   1.580
10463SOL     OW32287   3.072   4.245   6.256
10463SOL    HW132288   3.014   4.163   6.259
10463SOL    HW232289   3.051   4.303   6.334
10464SOL     OW32290   4.344   0.204   1.050
10464SOL    HW132291   4.285   0.194   1.130
10464SOL    HW232292   4.318   0.286   0.999
10465SOL     OW32293   0.723   6.862   6.060
10465SOL    HW132294   0.755   6.834   6.151
10465SOL    HW232295   0.799   6.856   5.995
10466SOL     OW32296   4.790   5.565   5.072
10466SOL    HW132297   4.860   5.626   5.036
10466SOL    HW232298   4.812   5.470   5.047
10467SOL     OW32299   1.734   1.682   5.202
10467SOL    HW132300   1.736   1.772   5.158
10467SOL    HW232301   1.662   1.626   5.159
10468SOL     OW32302   3.625   6.442   4.187
10468SOL    HW132303   3.636   6.396   4.098
10468SOL    HW232304   3.528   6.445   4.212
10469SOL     OW32305   2.342   3.767   0.923
10469SOL    HW132306   2.347   3.822   0.840
10469SOL    HW232307   2.433   3.731   0.945
10470SOL     OW32308   2.374   1.882   4.466
10470SOL    HW132309   2.454   1.883   4.406
10470SOL    HW232310   2.306   1.948   4.434
10471SOL     OW32311   2.400   4.079   1.742
10471SOL    HW132312   2.373   4.098   1.836
10471SOL    HW232313   2.319   4.070   1.684
10472SOL     OW32314   4.051   6.823   2.391
10472SOL    HW132315   3.961   6.857   2.364
10472SOL    HW232316   4.041   6.752   2.460
10473SOL     OW32317   6.035   6.476   0.307
10473SOL    HW132318   5.956   6.532   0.281
10473SOL    HW232319   6.080   6.517   0.386
10474SOL     OW32320   4.121   0.913   4.517
10474SOL    HW132321   4.044   0.850   4.525
10474SOL    HW232322   4.207   0.862   4.520
10475SOL     OW32323   4.235   6.137   1.139
10475SOL    HW132324   4.224   6.221   1.192
10475SOL    HW232325   4.321   6.140   1.089
10476SOL     OW32326   6.515   5.436   6.492
10476SOL    HW132327   6.558   5.351   6.523
10476SOL    HW232328   6.420   5.438   6.521
10477SOL     OW32329   5.411   3.340   4.970
10477SOL    HW132330   5.501   3.332   4.928
10477SOL    HW232331   5.350   3.270   4.931
10478SOL     OW32332   0.819   6.589   0.062
10478SOL    HW132333   0.826   6.547   0.153
10478SOL    HW232334   0.855   6.682   0.066
10479SOL     OW32335   1.615   3.470   2.042
10479SOL    HW132336   1.535   3.514   2.081
10479SOL    HW232337   1.685   3.538   2.022
10480SOL     OW32338   5.325   6.436   1.846
10480SOL    HW132339   5.301   6.532   1.863
10480SOL    HW232340   5.387   6.405   1.917
10481SOL     OW32341   2.648   1.167   5.266
10481SOL    HW132342   2.575   1.098   5.267
10481SOL    HW232343   2.638   1.226   5.346
10482SOL     OW32344   0.697   6.074   4.880
10482SOL    HW132345   0.765   6.006   4.850
10482SOL    HW232346   0.743   6.162   4.895
10483SOL     OW32347   6.454   5.983   0.253
10483SOL    HW132348   6.354   5.985   0.249
10483SOL    HW232349   6.486   6.046   0.323
10484SOL     OW32350   0.156   0.841   1.577
10484SOL    HW132351   0.065   0.875   1.552
10484SOL    HW232352   0.222   0.868   1.507
10485SOL     OW32353   3.149   3.798   3.129
10485SOL    HW132354   3.131   3.856   3.050
10485SOL    HW232355   3.081   3.724   3.132
10486SOL     OW32356   6.998   6.928   5.667
10486SOL    HW132357   0.014   7.009   5.622
10486SOL    HW232358   7.007   6.849   5.605
10487SOL     OW32359   4.510   1.566   1.812
10487SOL    HW132360   4.443   1.636   1.790
10487SOL    HW232361   4.584   1.607   1.866
10488SOL     OW32362   0.537   1.962   5.705
10488SOL    HW132363   0.512   1.885   5.647
10488SOL    HW232364   0.635   1.980   5.697
10489SOL     OW32365   5.921   4.944   3.681
10489SOL    HW132366   5.874   4.987   3.758
10489SOL    HW232367   5.856   4.925   3.608
10490SOL     OW32368   6.181   0.384   0.856
10490SOL    HW132369   6.099   0.420   0.898
10490SOL    HW232370   6.199   0.292   0.890
10491SOL     OW32371   1.487   3.560   6.797
10491SOL    HW132372   1.482   3.660   6.802
10491SOL    HW232373   1.401   3.521   6.828
10492SOL     OW32374   4.992   0.644   0.688
10492SOL    HW132375   4.911   0.592   0.717
10492SOL    HW232376   5.069   0.623   0.748
10493SOL     OW32377   4.585   5.613   1.423
10493SOL    HW132378   4.615   5.698   1.380
10493SOL    HW232379   4.492   5.593   1.395
10494SOL     OW32380   0.401   4.503   6.048
10494SOL    HW132381   0.341   4.463   5.978
10494SOL    HW232382   0.477   4.551   6.004
10495SOL     OW32383   0.776   6.486   5.826
10495SOL    HW132384   0.734   6.567   5.783
10495SOL    HW232385   0.723   6.405   5.802
10496SOL     OW32386   6.566   3.738   5.373
10496SOL    HW132387   6.476   3.767   5.405
10496SOL    HW232388   6.607   3.677   5.441
10497SOL     OW32389   2.569   0.186   1.463
10497SOL    HW132390   2.562   0.171   1.561
10497SOL    HW232391   2.479   0.205   1.425
10498SOL     OW32392   4.770   5.672   0.759
10498SOL    HW132393   4.799   5.577   0.747
10498SOL    HW232394   4.674   5.674   0.787
10499SOL     OW32395   5.630   5.279   2.248
10499SOL    HW132396   5.716   5.316   2.215
10499SOL    HW232397   5.593   5.214   2.180
10500SOL     OW32398   5.903   4.025   5.381
10500SOL    HW132399   5.980   3.970   5.348
10500SOL    HW232400   5.818   3.976   5.363
10501SOL     OW32401   2.503   5.702   2.394
10501SOL    HW132402   2.563   5.650   2.454
10501SOL    HW232403   2.550   5.785   2.364
10502SOL     OW32404   2.925   3.573   2.833
10502SOL    HW132405   2.917   3.602   2.737
10502SOL    HW232406   2.880   3.484   2.844
10503SOL     OW32407   6.657   3.348   6.328
10503SOL    HW132408   6.611   3.421   6.277
10503SOL    HW232409   6.596   3.270   6.339
10504SOL     OW32410   2.133   2.732   6.047
10504SOL    HW132411   2.120   2.633   6.038
10504SOL    HW232412   2.199   2.750   6.120
10505SOL     OW32413   5.692   6.339   1.568
10505SOL    HW132414   5.758   6.265   1.557
10505SOL    HW232415   5.604   6.310   1.532
10506SOL     OW32416   1.341   2.747   6.887
10506SOL    HW132417   1.402   2.823   6.907
10506SOL    HW232418   1.266   2.746   6.953
10507SOL     OW32419   2.310   4.815   0.120
10507SOL    HW132420   2.364   4.744   0.074
10507SOL    HW232421   2.366   4.860   0.189
10508SOL     OW32422   1.011   5.101   5.201
10508SOL    HW132423   1.044   5.039   5.130
10508SOL    HW232424   0.949   5.168   5.161
10509SOL     OW32425   4.957   3.357   3.474
10509SOL    HW132426   5.032   3.410   3.435
10509SOL    HW232427   4.917   3.406   3.551
10510SOL     OW32428   4.622   5.695   4.715
10510SOL    HW132429   4.605   5.603   4.680
10510SOL    HW232430   4.658   5.752   4.642
10511SOL     OW32431   3.111   1.810   1.930
10511SOL    HW132432   3.171   1.888   1.947
10511SOL    HW232433   3.079   1.813   1.835
10512SOL     OW32434   4.358   0.912   5.037
10512SOL    HW132435   4.297   0.894   5.114
10512SOL    HW232436   4.305   0.927   4.954
10513SOL     OW32437   5.258   3.292   1.857
10513SOL    HW132438   5.174   3.254   1.818
10513SOL    HW232439   5.335   3.270   1.798
10514SOL     OW32440   0.865   3.163   1.784
10514SOL    HW132441   0.947   3.114   1.814
10514SOL    HW232442   0.842   3.134   1.692
10515SOL     OW32443   1.956   3.434   4.847
10515SOL    HW132444   1.924   3.506   4.907
10515SOL    HW232445   1.938   3.459   4.752
10516SOL     OW32446   3.768   2.669   0.351
10516SOL    HW132447   3.683   2.628   0.385
10516SOL    HW232448   3.794   2.746   0.410
10517SOL     OW32449   0.859   3.254   3.081
10517SOL    HW132450   0.844   3.342   3.127
10517SOL    HW232451   0.827   3.261   2.986
10518SOL     OW32452   0.801   5.292   2.343
10518SOL    HW132453   0.859   5.212   2.357
10518SOL    HW232454   0.784   5.336   2.431
10519SOL     OW32455   2.296   6.598   1.054
10519SOL    HW132456   2.345   6.512   1.040
10519SOL    HW232457   2.248   6.595   1.142
10520SOL     OW32458   0.132   1.058   5.864
10520SOL    HW132459   0.202   1.125   5.889
10520SOL    HW232460   0.043   1.090   5.894
10521SOL     OW32461   5.957   3.436   1.003
10521SOL    HW132462   5.940   3.384   1.087
10521SOL    HW232463   6.052   3.467   1.003
10522SOL     OW32464   5.364   2.209   3.072
10522SOL    HW132465   5.437   2.266   3.108
10522SOL    HW232466   5.376   2.198   2.973
10523SOL     OW32467   0.197   4.240   3.799
10523SOL    HW132468   0.161   4.184   3.724
10523SOL    HW232469   0.121   4.274   3.855
10524SOL     OW32470   6.392   6.618   3.959
10524SOL    HW132471   6.485   6.585   3.941
10524SOL    HW232472   6.381   6.708   3.918
10525SOL     OW32473   4.709   1.286   5.045
10525SOL    HW132474   4.646   1.363   5.033
10525SOL    HW232475   4.669   1.220   5.109
10526SOL     OW32476   0.906   5.164   0.479
10526SOL    HW132477   0.920   5.206   0.569
10526SOL    HW232478   0.952   5.219   0.409
10527SOL     OW32479   0.815   1.041   5.024
10527SOL    HW132480   0.769   0.971   4.968
10527SOL    HW232481   0.910   1.050   4.994
10528SOL     OW32482   0.845   4.776   6.475
10528SOL    HW132483   0.830   4.875   6.472
10528SOL    HW232484   0.892   4.752   6.560
10529SOL     OW32485   1.585   6.239   6.384
10529SOL    HW132486   1.651   6.266   6.314
10529SOL    HW232487   1.541   6.153   6.356
10530SOL     OW32488   1.199   6.760   6.964
10530SOL    HW132489   1.234   6.705   0.019
10530SOL    HW232490   1.181   6.701   6.885
10531SOL     OW32491   2.904   2.851   5.510
10531SOL    HW132492   2.863   2.908   5.439
10531SOL    HW232493   2.905   2.755   5.479
10532SOL     OW32494   6.111   6.031   6.682
10532SOL    HW132495   6.021   5.996   6.705
10532SOL    HW232496   6.164   6.044   6.766
10533SOL     OW32497   3.389   5.669   3.424
10533SOL    HW132498   3.463   5.719   3.378
10533SOL    HW232499   3.302   5.713   3.405
10534SOL     OW32500   0.946   5.931   2.522
10534SOL    HW132501   0.921   5.959   2.615
10534SOL    HW232502   0.942   5.832   2.514
10535SOL     OW32503   2.807   1.572   3.107
10535SOL    HW132504   2.764   1.609   3.025
10535SOL    HW232505   2.737   1.544   3.172
10536SOL     OW32506   5.136   1.155   4.260
10536SOL    HW132507   5.222   1.164   4.209
10536SOL    HW232508   5.066   1.117   4.200
10537SOL     OW32509   4.901   6.800   2.995
10537SOL    HW132510   4.975   6.867   2.983
10537SOL    HW232511   4.816   6.848   3.018
10538SOL     OW32512   6.176   3.238   2.194
10538SOL    HW132513   6.249   3.272   2.135
10538SOL    HW232514   6.184   3.138   2.203
10539SOL     OW32515   6.259   6.642   2.811
10539SOL    HW132516   6.227   6.548   2.814
10539SOL    HW232517   6.341   6.647   2.755
10540SOL     OW32518   2.541   3.573   6.020
10540SOL    HW132519   2.539   3.595   5.922
10540SOL    HW232520   2.514   3.653   6.073
10541SOL     OW32521   3.147   3.055   4.977
10541SOL    HW132522   3.115   2.976   5.029
10541SOL    HW232523   3.072   3.093   4.923
10542SOL     OW32524   6.097   6.934   4.392
10542SOL    HW132525   6.074   6.840   4.366
10542SOL    HW232526   6.014   6.990   4.390
10543SOL     OW32527   0.146   2.985   5.651
10543SOL    HW132528   0.237   2.946   5.666
10543SOL    HW232529   0.079   2.932   5.703
10544SOL     OW32530   1.299   1.379   3.701
10544SOL    HW132531   1.229   1.395   3.631
10544SOL    HW232532   1.299   1.281   3.725
10545SOL     OW32533   2.635   2.431   2.767
10545SOL    HW132534   2.713   2.387   2.813
10545SOL    HW232535   2.642   2.416   2.668
10546SOL     OW32536   3.173   0.168   1.093
10546SOL    HW132537   3.120   0.136   1.172
10546SOL    HW232538   3.110   0.207   1.025
10547SOL     OW32539   4.455   6.723   5.133
10547SOL    HW132540   4.532   6.745   5.192
10547SOL    HW232541   4.489   6.687   5.046
10548SOL     OW32542   1.270   4.734   4.345
10548SOL    HW132543   1.185   4.721   4.397
10548SOL    HW232544   1.249   4.776   4.257
10549SOL     OW32545   0.429   1.297   1.060
10549SOL    HW132546   0.354   1.348   1.018
10549SOL    HW232547   0.510   1.302   1.000
10550SOL     OW32548   3.539   6.068   3.206
10550SOL    HW132549   3.445   6.065   3.241
10550SOL    HW232550   3.545   6.011   3.124
10551SOL     OW32551   3.483   2.056   6.025
10551SOL    HW132552   3.412   2.094   6.085
10551SOL    HW232553   3.467   2.085   5.931
10552SOL     OW32554   3.362   0.745   4.534
10552SOL    HW132555   3.386   0.756   4.630
10552SOL    HW232556   3.429   0.685   4.489
10553SOL     OW32557   0.415   5.074   0.343
10553SOL    HW132558   0.325   5.060   0.303
10553SOL    HW232559   0.481   5.095   0.271
10554SOL     OW32560   6.292   5.055   2.864
10554SOL    HW132561   6.286   4.975   2.923
10554SOL    HW232562   6.202   5.098   2.857
10555SOL     OW32563   3.533   2.545   0.445
10555SOL    HW132564   3.582   2.515   0.527
10555SOL    HW232565   3.530   2.470   0.379
10556SOL     OW32566   1.959   1.992   3.081
10556SOL    HW132567   2.045   2.042   3.090
10556SOL    HW232568   1.910   2.025   3.000
10557SOL     OW32569   2.048   3.956   3.648
10557SOL    HW132570   2.030   3.870   3.600
10557SOL    HW232571   1.965   4.010   3.652
10558SOL     OW32572   2.742   5.389   5.659
10558SOL    HW132573   2.669   5.457   5.655
10558SOL    HW232574   2.796   5.404   5.742
10559SOL     OW32575   3.998   6.994   6.363
10559SOL    HW132576   4.067   0.005   6.428
10559SOL    HW232577   3.926   6.945   6.412
10560SOL     OW32578   5.229   6.763   1.728
10560SOL    HW132579   5.203   6.722   1.816
10560SOL    HW232580   5.278   6.695   1.673
10561SOL     OW32581   6.030   3.735   0.377
10561SOL    HW132582   5.941   3.750   0.333
10561SOL    HW232583   6.016   3.684   0.462
10562SOL     OW32584   3.303   6.505   1.491
10562SOL    HW132585   3.340   6.431   1.434
10562SOL    HW232586   3.268   6.577   1.431
10563SOL     OW32587   0.381   0.217   0.274
10563SOL    HW132588   0.474   0.208   0.240
10563SOL    HW232589   0.330   0.133   0.253
10564SOL     OW32590   6.170   5.975   3.632
10564SOL    HW132591   6.206   6.068   3.628
10564SOL    HW232592   6.240   5.913   3.667
10565SOL     OW32593   6.725   0.065   5.001
10565SOL    HW132594   6.715   6.997   5.045
10565SOL    HW232595   6.713   0.138   5.068
10566SOL     OW32596   2.968   3.038   0.209
10566SOL    HW132597   3.060   3.070   0.230
10566SOL    HW232598   2.908   3.117   0.195
10567SOL     OW32599   1.172   1.860   6.476
10567SOL    HW132600   1.270   1.869   6.490
10567SOL    HW232601   1.148   1.882   6.382
10568SOL     OW32602   5.286   2.438   6.204
10568SOL    HW132603   5.300   2.525   6.157
10568SOL    HW232604   5.205   2.393   6.167
10569SOL     OW32605   5.555   0.010   1.627
10569SOL    HW132606   5.548   0.109   1.626
10569SOL    HW232607   5.503   6.994   1.704
10570SOL     OW32608   0.609   4.919   4.415
10570SOL    HW132609   0.627   5.010   4.452
10570SOL    HW232610   0.647   4.913   4.322
10571SOL     OW32611   7.014   4.284   5.565
10571SOL    HW132612   0.062   4.355   5.580
10571SOL    HW232613   7.003   4.230   5.648
10572SOL     OW32614   5.853   4.845   1.698
10572SOL    HW132615   5.886   4.859   1.791
10572SOL    HW232616   5.827   4.933   1.658
10573SOL     OW32617   5.879   0.985   3.496
10573SOL    HW132618   5.892   0.971   3.398
10573SOL    HW232619   5.785   0.960   3.521
10574SOL     OW32620   0.401   1.714   3.702
10574SOL    HW132621   0.423   1.617   3.705
10574SOL    HW232622   0.467   1.765   3.759
10575SOL     OW32623   6.226   1.162   1.906
10575SOL    HW132624   6.152   1.199   1.962
10575SOL    HW232625   6.305   1.142   1.964
10576SOL     OW32626   2.307   5.037   3.679
10576SOL    HW132627   2.371   5.034   3.603
10576SOL    HW232628   2.269   5.129   3.688
10577SOL     OW32629   3.970   6.593   1.007
10577SOL    HW132630   4.011   6.522   0.948
10577SOL    HW232631   3.943   6.552   1.094
10578SOL     OW32632   6.268   2.259   4.109
10578SOL    HW132633   6.350   2.294   4.153
10578SOL    HW232634   6.193   2.325   4.120
10579SOL     OW32635   2.381   3.320   1.309
10579SOL    HW132636   2.325   3.281   1.236
10579SOL    HW232637   2.321   3.362   1.378
10580SOL     OW32638   6.468   6.773   6.587
10580SOL    HW132639   6.475   6.724   6.674
10580SOL    HW232640   6.417   6.718   6.521
10581SOL     OW32641   5.416   6.950   3.229
10581SOL    HW132642   5.379   6.871   3.182
10581SOL    HW232643   5.365   6.966   3.314
10582SOL     OW32644   5.856   4.585   6.641
10582SOL    HW132645   5.838   4.564   6.545
10582SOL    HW232646   5.887   4.679   6.650
10583SOL     OW32647   2.668   0.598   4.162
10583SOL    HW132648   2.638   0.506   4.185
10583SOL    HW232649   2.591   0.662   4.169
10584SOL     OW32650   6.875   0.144   5.335
10584SOL    HW132651   6.778   0.132   5.354
10584SOL    HW232652   6.889   0.222   5.275
10585SOL     OW32653   0.869   1.088   6.074
10585SOL    HW132654   0.778   1.056   6.050
10585SOL    HW232655   0.865   1.138   6.160
10586SOL     OW32656   4.665   4.676   5.671
10586SOL    HW132657   4.637   4.583   5.695
10586SOL    HW232658   4.764   4.679   5.659
10587SOL     OW32659   1.093   5.723   5.318
10587SOL    HW132660   1.094   5.785   5.397
10587SOL    HW232661   1.101   5.629   5.349
10588SOL     OW32662   1.161   4.006   4.127
10588SOL    HW132663   1.233   3.997   4.195
10588SOL    HW232664   1.173   3.937   4.056
10589SOL     OW32665   5.418   6.408   3.930
10589SOL    HW132666   5.467   6.391   3.844
10589SOL    HW232667   5.434   6.503   3.958
10590SOL     OW32668   0.404   5.287   2.161
10590SOL    HW132669   0.413   5.384   2.183
10590SOL    HW232670   0.473   5.260   2.095
10591SOL     OW32671   1.331   1.934   1.355
10591SOL    HW132672   1.423   1.920   1.393
10591SOL    HW232673   1.282   1.847   1.355
10592SOL     OW32674   5.629   2.014   5.449
10592SOL    HW132675   5.715   1.969   5.426
10592SOL    HW232676   5.590   2.057   5.368
10593SOL     OW32677   3.025   6.245   1.888
10593SOL    HW132678   3.005   6.148   1.870
10593SOL    HW232679   2.955   6.302   1.845
10594SOL     OW32680   3.300   0.059   3.575
10594SOL    HW132681   3.397   0.047   3.594
10594SOL    HW232682   3.288   0.129   3.504
10595SOL     OW32683   5.940   0.384   0.980
10595SOL    HW132684   5.883   0.342   0.910
10595SOL    HW232685   5.906   0.360   1.071
10596SOL     OW32686   4.532   1.450   6.630
10596SOL    HW132687   4.507   1.376   6.693
10596SOL    HW232688   4.620   1.429   6.589
10597SOL     OW32689   2.323   0.311   6.027
10597SOL    HW132690   2.282   0.282   5.941
10597SOL    HW232691   2.328   0.411   6.029
10598SOL     OW32692   2.314   1.443   5.992
10598SOL    HW132693   2.411   1.467   6.002
10598SOL    HW232694   2.260   1.497   6.055
10599SOL     OW32695   6.790   3.479   5.948
10599SOL    HW132696   6.848   3.430   6.014
10599SOL    HW232697   6.750   3.558   5.993
10600SOL     OW32698   2.604   1.920   1.767
10600SOL    HW132699   2.609   1.999   1.705
10600SOL    HW232700   2.659   1.939   1.848
10601SOL     OW32701   0.317   0.054   6.201
10601SOL    HW132702   0.336   0.001   6.118
10601SOL    HW232703   0.234   0.108   6.187
10602SOL     OW32704   0.318   7.008   0.132
10602SOL    HW132705   0.226   6.967   0.131
10602SOL    HW232706   0.386   6.936   0.147
10603SOL     OW32707   4.617   6.594   1.940
10603SOL    HW132708   4.522   6.613   1.915
10603SOL    HW232709   4.678   6.631   1.869
10604SOL     OW32710   0.218   0.055   4.695
10604SOL    HW132711   0.194   0.117   4.769
10604SOL    HW232712   0.314   0.068   4.670
10605SOL     OW32713   2.664   1.582   0.873
10605SOL    HW132714   2.667   1.669   0.923
10605SOL    HW232715   2.582   1.579   0.816
10606SOL     OW32716   6.663   0.880   1.405
10606SOL    HW132717   6.683   0.836   1.317
10606SOL    HW232718   6.620   0.813   1.466
10607SOL     OW32719   3.784   4.577   5.972
10607SOL    HW132720   3.841   4.568   6.054
10607SOL    HW232721   3.841   4.602   5.894
10608SOL     OW32722   6.149   2.953   2.875
10608SOL    HW132723   6.159   2.853   2.873
10608SOL    HW232724   6.075   2.981   2.814
10609SOL     OW32725   4.094   0.504   0.133
10609SOL    HW132726   4.153   0.439   0.085
10609SOL    HW232727   4.047   0.562   0.067
10610SOL     OW32728   0.418   1.295   4.837
10610SOL    HW132729   0.393   1.390   4.814
10610SOL    HW232730   0.482   1.295   4.913
10611SOL     OW32731   2.604   5.707   5.233
10611SOL    HW132732   2.518   5.730   5.278
10611SOL    HW232733   2.587   5.648   5.155
10612SOL     OW32734   4.973   1.444   3.895
10612SOL    HW132735   4.951   1.352   3.862
10612SOL    HW232736   5.030   1.491   3.828
10613SOL     OW32737   6.058   6.672   4.293
10613SOL    HW132738   6.123   6.596   4.288
10613SOL    HW232739   6.021   6.691   4.202
10614SOL     OW32740   5.239   0.363   6.558
10614SOL    HW132741   5.184   0.395   6.635
10614SOL    HW232742   5.189   0.378   6.472
10615SOL     OW32743   2.497   2.418   6.572
10615SOL    HW132744   2.530   2.469   6.493
10615SOL    HW232745   2.448   2.479   6.634
10616SOL     OW32746   2.305   5.968   6.430
10616SOL    HW132747   2.380   6.013   6.382
10616SOL    HW232748   2.241   6.037   6.463
10617SOL     OW32749   2.631   3.178   1.267
10617SOL    HW132750   2.637   3.096   1.324
10617SOL    HW232751   2.538   3.215   1.273
10618SOL     OW32752   0.681   5.224   5.076
10618SOL    HW132753   0.729   5.151   5.027
10618SOL    HW232754   0.748   5.291   5.109
10619SOL     OW32755   1.130   1.854   3.176
10619SOL    HW132756   1.219   1.862   3.221
10619SOL    HW232757   1.060   1.892   3.236
10620SOL     OW32758   2.596   0.036   6.288
10620SOL    HW132759   2.619   0.090   6.369
10620SOL    HW232760   2.679   7.016   6.251
10621SOL     OW32761   1.081   3.609   3.106
10621SOL    HW132762   1.131   3.689   3.075
10621SOL    HW232763   1.145   3.534   3.122
10622SOL     OW32764   4.070   3.558   0.629
10622SOL    HW132765   4.155   3.603   0.601
10622SOL    HW232766   3.992   3.615   0.603
10623SOL     OW32767   5.644   5.997   6.700
10623SOL    HW132768   5.567   5.953   6.746
10623SOL    HW232769   5.612   6.083   6.658
10624SOL     OW32770   0.523   2.589   5.404
10624SOL    HW132771   0.560   2.679   5.378
10624SOL    HW232772   0.582   2.547   5.473
10625SOL     OW32773   6.807   4.135   6.505
10625SOL    HW132774   6.807   4.198   6.428
10625SOL    HW232775   6.899   4.129   6.544
10626SOL     OW32776   4.397   3.351   1.295
10626SOL    HW132777   4.484   3.334   1.341
10626SOL    HW232778   4.348   3.265   1.283
10627SOL     OW32779   5.731   6.193   5.771
10627SOL    HW132780   5.713   6.291   5.781
10627SOL    HW232781   5.659   6.150   5.717
10628SOL     OW32782   4.441   0.429   0.398
10628SOL    HW132783   4.458   0.415   0.300
10628SOL    HW232784   4.480   0.517   0.425
10629SOL     OW32785   3.818   5.589   4.486
10629SOL    HW132786   3.748   5.535   4.533
10629SOL    HW232787   3.777   5.634   4.406
10630SOL     OW32788   4.316   0.422   3.634
10630SOL    HW132789   4.275   0.342   3.589
10630SOL    HW232790   4.376   0.469   3.570
10631SOL     OW32791   4.588   5.950   6.995
10631SOL    HW132792   4.544   5.880   6.937
10631SOL    HW232793   4.529   5.968   0.053
10632SOL     OW32794   4.482   5.767   3.318
10632SOL    HW132795   4.449   5.674   3.333
10632SOL    HW232796   4.568   5.780   3.368
10633SOL     OW32797   2.007   3.111   2.062
10633SOL    HW132798   1.938   3.045   2.034
10633SOL    HW232799   2.045   3.085   2.151
10634SOL     OW32800   0.752   4.876   6.930
10634SOL    HW132801   0.809   4.804   6.969
10634SOL    HW232802   0.691   4.836   6.861
10635SOL     OW32803   2.424   3.795   0.264
10635SOL    HW132804   2.457   3.734   0.192
10635SOL    HW232805   2.340   3.758   0.303
10636SOL     OW32806   6.691   2.096   6.304
10636SOL    HW132807   6.614   2.059   6.357
10636SOL    HW232808   6.720   2.183   6.344
10637SOL     OW32809   3.186   6.483   6.551
10637SOL    HW132810   3.151   6.505   6.461
10637SOL    HW232811   3.113   6.489   6.618
10638SOL     OW32812   6.767   5.456   1.692
10638SOL    HW132813   6.706   5.390   1.647
10638SOL    HW232814   6.857   5.452   1.649
10639SOL     OW32815   1.847   3.693   1.650
10639SOL    HW132816   1.924   3.658   1.704
10639SOL    HW232817   1.772   3.718   1.711
10640SOL     OW32818   3.951   0.145   3.737
10640SOL    HW132819   3.917   0.052   3.725
10640SOL    HW232820   4.050   0.146   3.725
10641SOL     OW32821   0.735   0.144   3.081
10641SOL    HW132822   0.826   0.152   3.039
10641SOL    HW232823   0.672   0.101   3.016
10642SOL     OW32824   5.924   2.280   0.036
10642SOL    HW132825   6.008   2.242   0.075
10642SOL    HW232826   5.943   2.320   6.967
10643SOL     OW32827   1.710   4.741   5.028
10643SOL    HW132828   1.808   4.746   5.045
10643SOL    HW232829   1.681   4.822   4.977
10644SOL     OW32830   7.008   2.734   2.715
10644SOL    HW132831   0.018   2.800   2.647
10644SOL    HW232832   0.032   2.752   2.803
10645SOL     OW32833   2.114   3.199   2.919
10645SOL    HW132834   2.070   3.114   2.947
10645SOL    HW232835   2.213   3.192   2.934
10646SOL     OW32836   5.275   1.292   4.661
10646SOL    HW132837   5.210   1.220   4.635
10646SOL    HW232838   5.349   1.251   4.714
10647SOL     OW32839   3.825   5.166   4.947
10647SOL    HW132840   3.761   5.134   4.877
10647SOL    HW232841   3.808   5.263   4.966
10648SOL     OW32842   5.547   4.834   5.072
10648SOL    HW132843   5.529   4.931   5.060
10648SOL    HW232844   5.642   4.821   5.101
10649SOL     OW32845   0.311   2.933   3.122
10649SOL    HW132846   0.386   2.917   3.058
10649SOL    HW232847   0.226   2.949   3.070
10650SOL     OW32848   6.842   0.157   4.104
10650SOL    HW132849   6.884   0.097   4.036
10650SOL    HW232850   6.751   0.123   4.127
10651SOL     OW32851   4.813   6.288   5.435
10651SOL    HW132852   4.855   6.253   5.519
10651SOL    HW232853   4.769   6.212   5.387
10652SOL     OW32854   1.397   6.718   5.827
10652SOL    HW132855   1.343   6.679   5.902
10652SOL    HW232856   1.479   6.663   5.813
10653SOL     OW32857   3.760   6.244   4.605
10653SOL    HW132858   3.853   6.253   4.571
10653SOL    HW232859   3.751   6.291   4.693
10654SOL     OW32860   5.053   1.475   4.600
10654SOL    HW132861   5.082   1.562   4.562
10654SOL    HW232862   5.119   1.404   4.576
10655SOL     OW32863   1.309   4.634   1.578
10655SOL    HW132864   1.276   4.548   1.538
10655SOL    HW232865   1.272   4.645   1.670
10656SOL     OW32866   6.980   1.386   1.868
10656SOL    HW132867   6.940   1.350   1.784
10656SOL    HW232868   0.051   1.421   1.849
10657SOL     OW32869   6.168   0.984   4.149
10657SOL    HW132870   6.090   0.922   4.160
10657SOL    HW232871   6.222   0.955   4.070
10658SOL     OW32872   5.717   3.543   4.664
10658SOL    HW132873   5.774   3.495   4.731
10658SOL    HW232874   5.628   3.563   4.705
10659SOL     OW32875   0.896   4.614   1.118
10659SOL    HW132876   0.956   4.691   1.140
10659SOL    HW232877   0.804   4.648   1.097
10660SOL     OW32878   6.448   3.248   5.562
10660SOL    HW132879   6.420   3.222   5.469
10660SOL    HW232880   6.372   3.296   5.607
10661SOL     OW32881   1.127   4.409   0.122
10661SOL    HW132882   1.179   4.479   0.172
10661SOL    HW232883   1.148   4.319   0.158
10662SOL     OW32884   2.919   1.532   3.403
10662SOL    HW132885   3.005   1.575   3.372
10662SOL    HW232886   2.847   1.552   3.337
10663SOL     OW32887   1.382   1.003   3.516
10663SOL    HW132888   1.384   0.904   3.504
10663SOL    HW232889   1.392   1.047   3.427
10664SOL     OW32890   1.119   5.358   4.353
10664SOL    HW132891   1.063   5.427   4.306
10664SOL    HW232892   1.200   5.338   4.298
10665SOL     OW32893   2.185   3.681   6.407
10665SOL    HW132894   2.114   3.745   6.437
10665SOL    HW232895   2.152   3.630   6.328
10666SOL     OW32896   3.883   3.363   2.159
10666SOL    HW132897   3.900   3.283   2.216
10666SOL    HW232898   3.789   3.395   2.174
10667SOL     OW32899   5.631   2.103   2.628
10667SOL    HW132900   5.699   2.037   2.595
10667SOL    HW232901   5.554   2.106   2.565
10668SOL     OW32902   3.114   2.177   5.379
10668SOL    HW132903   3.156   2.231   5.306
10668SOL    HW232904   3.103   2.083   5.349
10669SOL     OW32905   5.818   1.080   0.851
10669SOL    HW132906   5.718   1.076   0.859
10669SOL    HW232907   5.846   1.032   0.768
10670SOL     OW32908   4.794   3.988   4.236
10670SOL    HW132909   4.769   3.963   4.143
10670SOL    HW232910   4.734   4.062   4.269
10671SOL     OW32911   1.367   1.517   4.223
10671SOL    HW132912   1.277   1.481   4.247
10671SOL    HW232913   1.359   1.612   4.195
10672SOL     OW32914   6.052   3.961   1.564
10672SOL    HW132915   5.955   3.940   1.576
10672SOL    HW232916   6.069   4.057   1.588
10673SOL     OW32917   1.931   0.649   0.748
10673SOL    HW132918   1.851   0.602   0.786
10673SOL    HW232919   2.013   0.598   0.773
10674SOL     OW32920   4.065   3.266   4.555
10674SOL    HW132921   3.967   3.248   4.549
10674SOL    HW232922   4.096   3.253   4.649
10675SOL     OW32923   3.667   1.346   6.265
10675SOL    HW132924   3.585   1.400   6.285
10675SOL    HW232925   3.652   1.251   6.290
10676SOL     OW32926   0.661   5.610   4.906
10676SOL    HW132927   0.568   5.579   4.885
10676SOL    HW232928   0.659   5.671   4.985
10677SOL     OW32929   1.035   1.661   0.576
10677SOL    HW132930   1.109   1.727   0.586
10677SOL    HW232931   0.995   1.642   0.666
10678SOL     OW32932   3.999   5.025   3.767
10678SOL    HW132933   3.964   4.964   3.696
10678SOL    HW232934   4.023   4.972   3.848
10679SOL     OW32935   4.012   4.899   0.330
10679SOL    HW132936   4.017   4.936   0.237
10679SOL    HW232937   4.014   4.974   0.396
10680SOL     OW32938   3.377   1.753   4.292
10680SOL    HW132939   3.416   1.663   4.310
10680SOL    HW232940   3.362   1.801   4.379
10681SOL     OW32941   6.662   3.650   6.956
10681SOL    HW132942   6.741   3.643   7.017
10681SOL    HW232943   6.590   3.703   7.000
10682SOL     OW32944   6.117   2.959   4.762
10682SOL    HW132945   6.192   3.024   4.769
10682SOL    HW232946   6.043   2.985   4.824
10683SOL     OW32947   4.402   7.010   3.537
10683SOL    HW132948   4.324   6.965   3.494
10683SOL    HW232949   4.375   0.027   3.625
10684SOL     OW32950   5.382   5.062   1.107
10684SOL    HW132951   5.370   5.124   1.184
10684SOL    HW232952   5.470   5.080   1.063
10685SOL     OW32953   6.561   5.612   1.916
10685SOL    HW132954   6.530   5.593   1.823
10685SOL    HW232955   6.657   5.638   1.915
10686SOL     OW32956   1.740   4.002   6.582
10686SOL    HW132957   1.797   4.080   6.558
10686SOL    HW232958   1.789   3.917   6.562
10687SOL     OW32959   6.536   4.574   2.954
10687SOL    HW132960   6.450   4.524   2.963
10687SOL    HW232961   6.608   4.527   3.004
10688SOL     OW32962   5.477   1.418   2.092
10688SOL    HW132963   5.470   1.391   2.188
10688SOL    HW232964   5.468   1.338   2.033
10689SOL     OW32965   0.517   0.351   1.871
10689SOL    HW132966   0.577   0.429   1.848
10689SOL    HW232967   0.437   0.352   1.811
10690SOL     OW32968   7.013   5.284   3.582
10690SOL    HW132969   6.921   5.250   3.605
10690SOL    HW232970   7.007   5.382   3.562
10691SOL     OW32971   2.636   1.781   2.159
10691SOL    HW132972   2.614   1.691   2.195
10691SOL    HW232973   2.726   1.780   2.115
10692SOL     OW32974   3.146   0.888   4.404
10692SOL    HW132975   3.107   0.923   4.489
10692SOL    HW232976   3.196   0.803   4.423
10693SOL     OW32977   0.780   6.262   1.623
10693SOL    HW132978   0.709   6.232   1.559
10693SOL    HW232979   0.778   6.204   1.704
10694SOL     OW32980   5.100   6.451   5.974
10694SOL    HW132981   5.097   6.357   5.938
10694SOL    HW232982   5.073   6.514   5.901
10695SOL     OW32983   1.339   2.927   1.253
10695SOL    HW132984   1.354   2.996   1.324
10695SOL    HW232985   1.386   2.842   1.278
10696SOL     OW32986   6.060   3.545   5.013
10696SOL    HW132987   5.965   3.532   5.041
10696SOL    HW232988   6.113   3.464   5.038
10697SOL     OW32989   0.408   6.540   5.649
10697SOL    HW132990   0.394   6.574   5.556
10697SOL    HW232991   0.461   6.456   5.646
10698SOL     OW32992   4.856   4.362   0.050
10698SOL    HW132993   4.775   4.362   7.012
10698SOL    HW232994   4.852   4.284   0.112
10699SOL     OW32995   4.115   4.740   1.000
10699SOL    HW132996   4.185   4.688   0.951
10699SOL    HW232997   4.132   4.838   0.988
10700SOL     OW32998   5.940   6.868   0.781
10700SOL    HW132999   5.911   6.915   0.864
10700SOL    HW233000   6.038   6.850   0.785
10701SOL     OW33001   3.057   0.308   6.296
10701SOL    HW133002   2.970   0.337   6.336
10701SOL    HW233003   3.048   0.302   6.197
10702SOL     OW33004   4.887   3.316   2.573
10702SOL    HW133005   4.872   3.262   2.655
10702SOL    HW233006   4.888   3.414   2.596
10703SOL     OW33007   2.269   2.794   5.566
10703SOL    HW133008   2.231   2.886   5.578
10703SOL    HW233009   2.333   2.794   5.489
10704SOL     OW33010   6.884   5.053   2.564
10704SOL    HW133011   6.981   5.047   2.539
10704SOL    HW233012   6.831   5.088   2.486
10705SOL     OW33013   5.855   5.024   0.889
10705SOL    HW133014   5.772   4.971   0.910
10705SOL    HW233015   5.929   4.994   0.948
10706SOL     OW33016   4.791   6.930   1.599
10706SOL    HW133017   4.763   6.840   1.566
10706SOL    HW233018   4.815   6.988   1.521
10707SOL     OW33019   6.952   6.601   4.291
10707SOL    HW133020   7.016   6.640   4.225
10707SOL    HW233021   6.953   6.655   4.375
10708SOL     OW33022   4.741   1.274   2.007
10708SOL    HW133023   4.776   1.186   1.976
10708SOL    HW233024   4.655   1.261   2.057
10709SOL     OW33025   5.815   5.686   4.143
10709SOL    HW133026   5.817   5.658   4.047
10709SOL    HW233027   5.840   5.608   4.201
10710SOL     OW33028   5.569   1.067   3.806
10710SOL    HW133029   5.494   1.022   3.853
10710SOL    HW233030   5.656   1.035   3.845
10711SOL     OW33031   2.305   6.854   3.556
10711SOL    HW133032   2.210   6.865   3.526
10711SOL    HW233033   2.367   6.872   3.479
10712SOL     OW33034   3.862   0.031   3.096
10712SOL    HW133035   3.848   0.106   3.032
10712SOL    HW233036   3.809   0.048   3.180
10713SOL     OW33037   1.489   2.429   0.258
10713SOL    HW133038   1.583   2.459   0.266
10713SOL    HW233039   1.459   2.437   0.163
10714SOL     OW33040   4.607   3.297   5.433
10714SOL    HW133041   4.568   3.230   5.496
10714SOL    HW233042   4.544   3.374   5.423
10715SOL     OW33043   4.138   0.237   2.352
10715SOL    HW133044   4.169   0.146   2.324
10715SOL    HW233045   4.183   0.306   2.296
10716SOL     OW33046   6.135   2.638   2.657
10716SOL    HW133047   6.068   2.565   2.670
10716SOL    HW233048   6.109   2.695   2.579
10717SOL     OW33049   1.802   2.860   0.888
10717SOL    HW133050   1.900   2.856   0.911
10717SOL    HW233051   1.791   2.857   0.789
10718SOL     OW33052   0.933   4.292   6.731
10718SOL    HW133053   0.962   4.263   6.639
10718SOL    HW233054   0.861   4.361   6.723
10719SOL     OW33055   6.181   5.659   3.229
10719SOL    HW133056   6.158   5.584   3.290
10719SOL    HW233057   6.098   5.708   3.203
10720SOL     OW33058   6.008   5.319   4.419
10720SOL    HW133059   6.004   5.278   4.511
10720SOL    HW233060   6.102   5.317   4.386
10721SOL     OW33061   5.081   4.033   5.196
10721SOL    HW133062   5.137   4.108   5.229
10721SOL    HW233063   5.121   3.994   5.113
10722SOL     OW33064   6.350   4.491   0.085
10722SOL    HW133065   6.431   4.551   0.083
10722SOL    HW233066   6.363   4.420   0.154
10723SOL     OW33067   0.259   1.675   6.328
10723SOL    HW133068   0.170   1.686   6.285
10723SOL    HW233069   0.322   1.746   6.294
10724SOL     OW33070   6.300   6.521   6.026
10724SOL    HW133071   6.353   6.460   6.084
10724SOL    HW233072   6.361   6.587   5.983
10725SOL     OW33073   2.078   6.096   5.302
10725SOL    HW133074   2.102   6.067   5.394
10725SOL    HW233075   2.023   6.180   5.307
10726SOL     OW33076   4.933   0.666   4.163
10726SOL    HW133077   4.902   0.576   4.133
10726SOL    HW233078   4.858   0.732   4.156
10727SOL     OW33079   0.417   5.190   5.885
10727SOL    HW133080   0.402   5.236   5.798
10727SOL    HW233081   0.494   5.233   5.933
10728SOL     OW33082   0.925   5.262   6.434
10728SOL    HW133083   0.838   5.212   6.441
10728SOL    HW233084   0.918   5.330   6.362
10729SOL     OW33085   6.260   1.334   2.477
10729SOL    HW133086   6.343   1.376   2.515
10729SOL    HW233087   6.190   1.329   2.548
10730SOL     OW33088   3.187   0.493   0.682
10730SOL    HW133089   3.139   0.576   0.709
10730SOL    HW233090   3.262   0.517   0.619
10731SOL     OW33091   3.352   0.876   0.625
10731SOL    HW133092   3.375   0.820   0.706
10731SOL    HW233093   3.253   0.888   0.620
10732SOL     OW33094   0.526   4.698   5.307
10732SOL    HW133095   0.534   4.599   5.295
10732SOL    HW233096   0.591   4.745   5.247
10733SOL     OW33097   6.246   1.796   6.768
10733SOL    HW133098   6.320   1.821   6.706
10733SOL    HW233099   6.214   1.703   6.747
10734SOL     OW33100   1.564   1.466   0.305
10734SOL    HW133101   1.625   1.461   0.384
10734SOL    HW233102   1.491   1.398   0.315
10735SOL     OW33103   0.872   3.062   2.299
10735SOL    HW133104   0.824   3.144   2.328
10735SOL    HW233105   0.827   3.024   2.218
10736SOL     OW33106   1.337   0.372   3.323
10736SOL    HW133107   1.239   0.353   3.320
10736SOL    HW233108   1.388   0.289   3.301
10737SOL     OW33109   1.616   2.273   0.893
10737SOL    HW133110   1.525   2.242   0.869
10737SOL    HW233111   1.658   2.208   0.957
10738SOL     OW33112   2.902   6.845   2.325
10738SOL    HW133113   2.969   6.782   2.365
10738SOL    HW233114   2.823   6.793   2.293
10739SOL     OW33115   2.105   1.228   1.316
10739SOL    HW133116   2.190   1.280   1.319
10739SOL    HW233117   2.052   1.256   1.235
10740SOL     OW33118   6.769   5.255   5.674
10740SOL    HW133119   6.800   5.279   5.582
10740SOL    HW233120   6.844   5.211   5.724
10741SOL     OW33121   4.491   1.012   1.415
10741SOL    HW133122   4.404   1.001   1.464
10741SOL    HW233123   4.546   1.082   1.462
10742SOL     OW33124   6.187   0.018   1.377
10742SOL    HW133125   6.125   0.075   1.323
10742SOL    HW233126   6.144   7.016   1.464
10743SOL     OW33127   1.354   2.568   5.890
10743SOL    HW133128   1.425   2.514   5.844
10743SOL    HW233129   1.369   2.565   5.989
10744SOL     OW33130   3.548   1.138   0.768
10744SOL    HW133131   3.497   1.092   0.696
10744SOL    HW233132   3.640   1.100   0.773
10745SOL     OW33133   6.562   5.893   5.927
10745SOL    HW133134   6.469   5.860   5.945
10745SOL    HW233135   6.594   5.856   5.839
10746SOL     OW33136   1.884   4.522   1.019
10746SOL    HW133137   1.949   4.562   0.954
10746SOL    HW233138   1.850   4.435   0.983
10747SOL     OW33139   3.611   1.306   4.926
10747SOL    HW133140   3.522   1.289   4.884
10747SOL    HW233141   3.625   1.404   4.937
10748SOL     OW33142   5.660   1.082   1.165
10748SOL    HW133143   5.631   1.001   1.114
10748SOL    HW233144   5.645   1.164   1.110
10749SOL     OW33145   0.066   5.560   3.928
10749SOL    HW133146   6.991   5.575   3.951
10749SOL    HW233147   0.112   5.648   3.913
10750SOL     OW33148   4.250   6.475   4.947
10750SOL    HW133149   4.195   6.483   4.864
10750SOL    HW233150   4.342   6.508   4.930
10751SOL     OW33151   1.554   4.787   4.065
10751SOL    HW133152   1.549   4.791   3.965
10751SOL    HW233153   1.547   4.691   4.094
10752SOL     OW33154   6.083   4.755   4.800
10752SOL    HW133155   6.133   4.670   4.781
10752SOL    HW233156   5.985   4.737   4.798
10753SOL     OW33157   6.254   5.029   4.216
10753SOL    HW133158   6.183   4.985   4.270
10753SOL    HW233159   6.285   4.967   4.144
10754SOL     OW33160   0.459   6.828   3.287
10754SOL    HW133161   0.492   6.922   3.297
10754SOL    HW233162   0.424   6.814   3.194
10755SOL     OW33163   6.670   0.292   0.904
10755SOL    HW133164   6.665   0.371   0.842
10755SOL    HW233165   6.736   0.312   0.977
10756SOL     OW33166   6.785   5.413   6.028
10756SOL    HW133167   6.841   5.495   6.032
10756SOL    HW233168   6.714   5.424   5.958
10757SOL     OW33169   1.705   2.322   6.954
10757SOL    HW133170   1.715   2.368   0.022
10757SOL    HW233171   1.645   2.375   6.895
10758SOL     OW33172   0.940   6.055   4.316
10758SOL    HW133173   0.970   6.150   4.312
10758SOL    HW233174   0.907   6.034   4.408
10759SOL     OW33175   2.118   4.043   0.705
10759SOL    HW133176   2.026   4.015   0.675
10759SOL    HW233177   2.111   4.128   0.757
10760SOL     OW33178   5.774   0.472   3.185
10760SOL    HW133179   5.752   0.563   3.150
10760SOL    HW233180   5.816   0.417   3.113
10761SOL     OW33181   0.477   5.622   5.775
10761SOL    HW133182   0.529   5.541   5.747
10761SOL    HW233183   0.380   5.609   5.755
10762SOL     OW33184   2.868   1.335   4.444
10762SOL    HW133185   2.813   1.301   4.521
10762SOL    HW233186   2.838   1.291   4.359
10763SOL     OW33187   3.733   6.668   2.501
10763SOL    HW133188   3.782   6.587   2.469
10763SOL    HW233189   3.725   6.665   2.601
10764SOL     OW33190   5.168   2.177   5.568
10764SOL    HW133191   5.245   2.114   5.576
10764SOL    HW233192   5.086   2.133   5.606
10765SOL     OW33193   4.731   2.999   0.557
10765SOL    HW133194   4.681   2.953   0.483
10765SOL    HW233195   4.799   2.936   0.594
10766SOL     OW33196   4.441   4.892   0.792
10766SOL    HW133197   4.442   4.971   0.731
10766SOL    HW233198   4.450   4.923   0.887
10767SOL     OW33199   2.567   0.396   1.209
10767SOL    HW133200   2.616   0.437   1.286
10767SOL    HW233201   2.607   0.307   1.188
10768SOL     OW33202   5.082   4.980   1.110
10768SOL    HW133203   5.094   4.895   1.059
10768SOL    HW233204   5.168   5.032   1.111
10769SOL     OW33205   1.929   4.268   5.544
10769SOL    HW133206   1.982   4.250   5.461
10769SOL    HW233207   1.989   4.308   5.614
10770SOL     OW33208   4.984   6.346   3.972
10770SOL    HW133209   4.907   6.292   4.005
10770SOL    HW233210   5.045   6.288   3.919
10771SOL     OW33211   4.132   6.945   4.445
10771SOL    HW133212   4.100   6.959   4.351
10771SOL    HW233213   4.072   6.880   4.491
10772SOL     OW33214   6.084   6.550   4.969
10772SOL    HW133215   5.987   6.568   4.984
10772SOL    HW233216   6.096   6.455   4.938
10773SOL     OW33217   5.545   4.823   6.589
10773SOL    HW133218   5.586   4.870   6.667
10773SOL    HW233219   5.484   4.886   6.541
10774SOL     OW33220   1.770   1.100   5.958
10774SOL    HW133221   1.781   1.121   5.860
10774SOL    HW233222   1.858   1.070   5.995
10775SOL     OW33223   0.533   5.081   2.577
10775SOL    HW133224   0.600   5.009   2.597
10775SOL    HW233225   0.578   5.170   2.580
10776SOL     OW33226   0.599   1.251   6.940
10776SOL    HW133227   0.615   1.338   6.987
10776SOL    HW233228   0.502   1.244   6.916
10777SOL     OW33229   3.991   5.487   1.528
10777SOL    HW133230   3.894   5.489   1.549
10777SOL    HW233231   4.008   5.537   1.443
10778SOL     OW33232   5.101   6.960   3.826
10778SOL    HW133233   5.004   6.970   3.805
10778SOL    HW233234   5.151   0.020   3.794
10779SOL     OW33235   5.472   2.602   3.068
10779SOL    HW133236   5.454   2.657   2.987
10779SOL    HW233237   5.512   2.514   3.041
10780SOL     OW33238   1.405   0.619   4.088
10780SOL    HW133239   1.405   0.522   4.064
10780SOL    HW233240   1.425   0.629   4.185
10781SOL     OW33241   4.073   0.616   3.658
10781SOL    HW133242   3.982   0.611   3.618
10781SOL    HW233243   4.090   0.710   3.689
10782SOL     OW33244   0.002   0.960   3.210
10782SOL    HW133245   0.054   0.976   3.126
10782SOL    HW233246   6.967   1.040   3.231
10783SOL     OW33247   0.451   2.583   2.579
10783SOL    HW133248   0.438   2.680   2.603
10783SOL    HW233249   0.547   2.558   2.592
10784SOL     OW33250   3.725   0.901   4.060
10784SOL    HW133251   3.717   0.986   4.113
10784SOL    HW233252   3.793   0.913   3.988
10785SOL     OW33253   0.998   3.998   0.784
10785SOL    HW133254   0.929   4.069   0.778
10785SOL    HW233255   0.954   3.909   0.794
10786SOL     OW33256   5.895   5.024   3.258
10786SOL    HW133257   5.995   5.026   3.259
10786SOL    HW233258   5.862   5.091   3.191
10787SOL     OW33259   1.400   1.024   6.007
10787SOL    HW133260   1.464   1.074   6.065
10787SOL    HW233261   1.451   0.970   5.940
10788SOL     OW33262   0.840   4.408   0.146
10788SOL    HW133263   0.937   4.430   0.143
10788SOL    HW233264   0.817   4.371   0.236
10789SOL     OW33265   6.457   3.447   6.639
10789SOL    HW133266   6.391   3.390   6.590
10789SOL    HW233267   6.543   3.397   6.647
10790SOL     OW33268   0.882   6.653   2.090
10790SOL    HW133269   0.787   6.676   2.070
10790SOL    HW233270   0.942   6.724   2.052
10791SOL     OW33271   0.270   5.740   1.811
10791SOL    HW133272   0.294   5.790   1.894
10791SOL    HW233273   0.352   5.698   1.772
10792SOL     OW33274   3.364   2.905   4.910
10792SOL    HW133275   3.291   2.958   4.953
10792SOL    HW233276   3.403   2.841   4.976
10793SOL     OW33277   6.271   3.973   5.950
10793SOL    HW133278   6.266   4.001   5.854
10793SOL    HW233279   6.188   3.923   5.975
10794SOL     OW33280   4.035   3.663   4.203
10794SOL    HW133281   4.046   3.595   4.131
10794SOL    HW233282   4.011   3.751   4.163
10795SOL     OW33283   0.298   5.377   2.826
10795SOL    HW133284   0.246   5.452   2.785
10795SOL    HW233285   0.266   5.290   2.789
10796SOL     OW33286   6.572   0.199   5.230
10796SOL    HW133287   6.498   0.132   5.233
10796SOL    HW233288   6.549   0.271   5.165
10797SOL     OW33289   3.312   2.715   1.317
10797SOL    HW133290   3.406   2.699   1.348
10797SOL    HW233291   3.284   2.641   1.256
10798SOL     OW33292   2.854   1.260   0.568
10798SOL    HW133293   2.821   1.321   0.496
10798SOL    HW233294   2.847   1.165   0.538
10799SOL     OW33295   4.251   0.861   2.391
10799SOL    HW133296   4.269   0.959   2.403
10799SOL    HW233297   4.245   0.817   2.481
10800SOL     OW33298   0.895   6.154   5.802
10800SOL    HW133299   0.926   6.229   5.745
10800SOL    HW233300   0.943   6.156   5.890
10801SOL     OW33301   1.306   6.980   6.821
10801SOL    HW133302   1.271   0.011   6.899
10801SOL    HW233303   1.330   6.887   6.850
10802SOL     OW33304   0.499   0.374   3.070
10802SOL    HW133305   0.538   0.297   3.020
10802SOL    HW233306   0.408   0.395   3.033
10803SOL     OW33307   1.546   5.729   5.532
10803SOL    HW133308   1.645   5.745   5.539
10803SOL    HW233309   1.497   5.806   5.573
10804SOL     OW33310   6.555   3.057   3.151
10804SOL    HW133311   6.636   2.999   3.158
10804SOL    HW233312   6.531   3.069   3.054
10805SOL     OW33313   5.320   0.600   4.991
10805SOL    HW133314   5.391   0.665   4.966
10805SOL    HW233315   5.266   0.577   4.910
10806SOL     OW33316   3.813   4.786   6.440
10806SOL    HW133317   3.884   4.763   6.374
10806SOL    HW233318   3.731   4.732   6.421
10807SOL     OW33319   1.388   5.920   3.663
10807SOL    HW133320   1.364   5.955   3.754
10807SOL    HW233321   1.315   5.942   3.599
10808SOL     OW33322   7.012   2.276   5.885
10808SOL    HW133323   6.989   2.179   5.896
10808SOL    HW233324   0.088   2.290   5.901
10809SOL     OW33325   2.349   4.541   4.023
10809SOL    HW133326   2.282   4.608   3.993
10809SOL    HW233327   2.384   4.491   3.943
10810SOL     OW33328   0.189   0.122   3.659
10810SOL    HW133329   0.191   0.098   3.562
10810SOL    HW233330   0.236   0.209   3.673
10811SOL     OW33331   4.184   5.126   5.281
10811SOL    HW133332   4.274   5.084   5.276
10811SOL    HW233333   4.168   5.181   5.199
10812SOL     OW33334   6.787   4.320   6.280
10812SOL    HW133335   6.826   4.272   6.202
10812SOL    HW233336   6.691   4.341   6.262
10813SOL     OW33337   0.682   3.870   6.039
10813SOL    HW133338   0.707   3.960   6.077
10813SOL    HW233339   0.594   3.842   6.078
10814SOL     OW33340   2.063   6.889   6.882
10814SOL    HW133341   2.150   6.882   6.931
10814SOL    HW233342   2.045   6.985   6.861
10815SOL     OW33343   5.202   2.418   2.781
10815SOL    HW133344   5.145   2.455   2.854
10815SOL    HW233345   5.144   2.377   2.711
10816SOL     OW33346   3.723   3.761   2.579
10816SOL    HW133347   3.725   3.662   2.594
10816SOL    HW233348   3.633   3.787   2.545
10817SOL     OW33349   3.165   0.772   3.616
10817SOL    HW133350   3.250   0.825   3.606
10817SOL    HW233351   3.172   0.715   3.698
10818SOL     OW33352   4.592   4.923   5.667
10818SOL    HW133353   4.620   4.828   5.679
10818SOL    HW233354   4.651   4.983   5.721
10819SOL     OW33355   5.896   5.304   6.176
10819SOL    HW133356   5.893   5.403   6.168
10819SOL    HW233357   5.851   5.262   6.097
10820SOL     OW33358   0.104   5.469   4.610
10820SOL    HW133359   0.100   5.563   4.576
10820SOL    HW233360   0.191   5.428   4.584
10821SOL     OW33361   4.556   6.764   2.833
10821SOL    HW133362   4.628   6.703   2.797
10821SOL    HW233363   4.483   6.773   2.765
10822SOL     OW33364   6.538   2.196   1.251
10822SOL    HW133365   6.442   2.167   1.246
10822SOL    HW233366   6.585   2.169   1.167
10823SOL     OW33367   0.238   0.419   3.433
10823SOL    HW133368   0.292   0.488   3.482
10823SOL    HW233369   0.149   0.457   3.409
10824SOL     OW33370   0.781   1.580   2.223
10824SOL    HW133371   0.791   1.637   2.304
10824SOL    HW233372   0.871   1.558   2.186
10825SOL     OW33373   1.581   2.497   0.556
10825SOL    HW133374   1.557   2.400   0.547
10825SOL    HW233375   1.680   2.506   0.566
10826SOL     OW33376   0.546   2.158   2.306
10826SOL    HW133377   0.646   2.158   2.310
10826SOL    HW233378   0.509   2.213   2.381
10827SOL     OW33379   6.292   2.727   5.072
10827SOL    HW133380   6.195   2.723   5.050
10827SOL    HW233381   6.345   2.694   4.995
10828SOL     OW33382   0.441   4.135   0.646
10828SOL    HW133383   0.417   4.127   0.549
10828SOL    HW233384   0.436   4.232   0.673
10829SOL     OW33385   4.425   3.750   6.999
10829SOL    HW133386   4.515   3.769   6.961
10829SOL    HW233387   4.397   3.826   0.037
10830SOL     OW33388   4.591   1.492   3.612
10830SOL    HW133389   4.642   1.476   3.697
10830SOL    HW233390   4.583   1.590   3.597
10831SOL     OW33391   3.154   6.632   2.080
10831SOL    HW133392   3.108   6.716   2.050
10831SOL    HW233393   3.185   6.643   2.174
10832SOL     OW33394   6.224   3.488   6.830
10832SOL    HW133395   6.300   3.429   6.805
10832SOL    HW233396   6.240   3.580   6.794
10833SOL     OW33397   0.587   2.148   0.514
10833SOL    HW133398   0.578   2.189   0.605
10833SOL    HW233399   0.497   2.119   0.482
10834SOL     OW33400   0.117   1.319   0.189
10834SOL    HW133401   0.071   1.238   0.153
10834SOL    HW233402   0.215   1.313   0.169
10835SOL     OW33403   5.460   2.974   0.195
10835SOL    HW133404   5.384   2.947   0.255
10835SOL    HW233405   5.426   3.034   0.123
10836SOL     OW33406   0.684   1.347   2.871
10836SOL    HW133407   0.645   1.360   2.779
10836SOL    HW233408   0.666   1.254   2.901
10837SOL     OW33409   6.616   4.680   2.053
10837SOL    HW133410   6.592   4.722   2.141
10837SOL    HW233411   6.572   4.591   2.045
10838SOL     OW33412   5.710   6.379   4.303
10838SOL    HW133413   5.804   6.386   4.336
10838SOL    HW233414   5.681   6.283   4.309
10839SOL     OW33415   4.650   3.194   0.834
10839SOL    HW133416   4.650   3.237   0.744
10839SOL    HW233417   4.625   3.098   0.826
10840SOL     OW33418   3.792   0.209   2.700
10840SOL    HW133419   3.769   0.275   2.628
10840SOL    HW233420   3.780   0.116   2.665
10841SOL     OW33421   6.056   4.976   4.974
10841SOL    HW133422   6.055   4.906   4.902
10841SOL    HW233423   6.078   5.065   4.934
10842SOL     OW33424   4.741   2.363   1.395
10842SOL    HW133425   4.771   2.451   1.431
10842SOL    HW233426   4.661   2.376   1.336
10843SOL     OW33427   2.265   1.288   1.050
10843SOL    HW133428   2.250   1.384   1.075
10843SOL    HW233429   2.182   1.251   1.009
10844SOL     OW33430   6.969   4.623   3.932
10844SOL    HW133431   6.888   4.580   3.971
10844SOL    HW233432   6.973   4.605   3.834
10845SOL     OW33433   4.356   6.060   5.074
10845SOL    HW133434   4.350   6.071   5.173
10845SOL    HW233435   4.326   5.968   5.048
10846SOL     OW33436   5.660   0.064   6.905
10846SOL    HW133437   5.620   0.146   6.865
10846SOL    HW233438   5.716   0.017   6.837
10847SOL     OW33439   3.366   1.977   0.302
10847SOL    HW133440   3.281   1.925   0.304
10847SOL    HW233441   3.442   1.915   0.284
10848SOL     OW33442   0.655   3.799   0.893
10848SOL    HW133443   0.673   3.800   0.991
10848SOL    HW233444   0.557   3.802   0.877
10849SOL     OW33445   2.625   4.642   4.130
10849SOL    HW133446   2.539   4.591   4.126
10849SOL    HW233447   2.694   4.586   4.176
10850SOL     OW33448   4.258   6.259   0.322
10850SOL    HW133449   4.306   6.322   0.383
10850SOL    HW233450   4.226   6.308   0.242
10851SOL     OW33451   3.032   3.993   0.980
10851SOL    HW133452   3.112   4.052   0.993
10851SOL    HW233453   2.956   4.028   1.035
10852SOL     OW33454   2.105   1.519   6.877
10852SOL    HW133455   2.148   1.545   6.964
10852SOL    HW233456   2.177   1.492   6.812
10853SOL     OW33457   2.609   3.303   6.017
10853SOL    HW133458   2.606   3.397   5.982
10853SOL    HW233459   2.689   3.257   5.980
10854SOL     OW33460   4.646   5.139   5.265
10854SOL    HW133461   4.608   5.147   5.357
10854SOL    HW233462   4.598   5.202   5.203
10855SOL     OW33463   3.910   0.693   0.634
10855SOL    HW133464   3.983   0.715   0.699
10855SOL    HW233465   3.864   0.777   0.606
10856SOL     OW33466   6.870   1.225   6.689
10856SOL    HW133467   6.830   1.225   6.780
10856SOL    HW233468   6.966   1.196   6.695
10857SOL     OW33469   0.340   2.005   2.915
10857SOL    HW133470   0.293   2.011   2.827
10857SOL    HW233471   0.310   1.923   2.964
10858SOL     OW33472   1.432   0.063   0.662
10858SOL    HW133473   1.395   0.096   0.749
10858SOL    HW233474   1.364   0.006   0.616
10859SOL     OW33475   6.617   4.340   4.604
10859SOL    HW133476   6.705   4.365   4.564
10859SOL    HW233477   6.623   4.249   4.644
10860SOL     OW33478   0.144   3.117   4.293
10860SOL    HW133479   0.117   3.182   4.364
10860SOL    HW233480   0.244   3.111   4.289
10861SOL     OW33481   3.267   3.003   2.905
10861SOL    HW133482   3.196   2.948   2.861
10861SOL    HW233483   3.296   3.076   2.843
10862SOL     OW33484   2.252   1.027   5.564
10862SOL    HW133485   2.238   1.012   5.466
10862SOL    HW233486   2.191   1.099   5.596
10863SOL     OW33487   2.043   0.526   4.746
10863SOL    HW133488   2.043   0.601   4.812
10863SOL    HW233489   2.055   0.439   4.793
10864SOL     OW33490   2.837   6.484   0.927
10864SOL    HW133491   2.900   6.552   0.965
10864SOL    HW233492   2.751   6.529   0.902
10865SOL     OW33493   6.882   1.595   0.252
10865SOL    HW133494   6.853   1.685   0.219
10865SOL    HW233495   6.873   1.591   0.351
10866SOL     OW33496   5.847   5.056   0.072
10866SOL    HW133497   5.793   5.109   0.138
10866SOL    HW233498   5.881   4.973   0.116
10867SOL     OW33499   2.932   4.212   0.286
10867SOL    HW133500   2.860   4.249   0.344
10867SOL    HW233501   2.925   4.250   0.194
10868SOL     OW33502   5.071   1.601   3.699
10868SOL    HW133503   5.163   1.581   3.665
10868SOL    HW233504   5.023   1.661   3.634
10869NA      NA33505   6.481   2.685   5.477
10870NA      NA33506   4.534   4.534   5.147
10871NA      NA33507   1.797   3.067   1.699
10872NA      NA33508   4.877   3.938   5.230
10873NA      NA33509   4.000   2.201   5.021
10874NA      NA33510   3.695   4.872   1.763
10875NA      NA33511   6.825   5.239   6.191
10876NA      NA33512   3.434   3.367   4.790
10877NA      NA33513   4.684   6.158   6.945
10878NA      NA33514   3.979   6.395   5.388
10879NA      NA33515   6.531   5.100   2.838
10880NA      NA33516   2.398   0.335   3.558
10881NA      NA33517   4.280   5.373   1.885
10882NA      NA33518   4.051   3.595   2.244
   7.02072   7.02072   7.02072
