Generated by trjconv : CNT in water t= 143.00000
33518
    1C        C    1   2.842   2.769   4.745
    1C        C    2   2.897   2.719   4.864
    1C        C    3   2.842   2.771   4.982
    1C        C    4   2.851   2.778   4.258
    1C        C    5   2.900   2.728   4.380
    1C        C    6   2.839   2.767   4.502
    1C        C    7   3.011   2.640   4.623
    1C        C    8   2.894   2.721   4.623
    1C        C    9   3.073   2.602   4.743
    1C        C   10   3.008   2.632   4.865
    1C        C   11   3.182   2.494   4.978
    1C        C   12   3.058   2.558   4.973
    1C        C   13   2.851   2.772   3.768
    1C        C   14   2.899   2.723   3.892
    1C        C   15   2.852   2.773   4.015
    1C        C   16   3.023   2.650   4.139
    1C        C   17   2.904   2.726   4.138
    1C        C   18   3.087   2.615   4.261
    1C        C   19   3.018   2.649   4.379
    1C        C   20   3.206   2.554   4.505
    1C        C   21   3.076   2.608   4.502
    1C        C   22   3.278   2.535   4.626
    1C        C   23   3.205   2.547   4.746
    1C        C   24   3.411   2.488   4.864
    1C        C   25   3.269   2.501   4.864
    1C        C   26   3.489   2.483   4.980
    1C        C   27   2.852   2.770   3.281
    1C        C   28   2.904   2.723   3.403
    1C        C   29   2.851   2.769   3.526
    1C        C   30   3.022   2.643   3.649
    1C        C   31   2.908   2.726   3.647
    1C        C   32   3.078   2.609   3.774
    1C        C   33   3.015   2.643   3.895
    1C        C   34   3.209   2.552   4.018
    1C        C   35   3.080   2.608   4.016
    1C        C   36   3.280   2.532   4.139
    1C        C   37   3.216   2.558   4.262
    1C        C   38   3.418   2.508   4.380
    1C        C   39   3.279   2.535   4.386
    1C        C   40   3.488   2.503   4.503
    1C        C   41   3.416   2.507   4.624
    1C        C   42   3.631   2.488   4.748
    1C        C   43   3.489   2.488   4.744
    1C        C   44   3.705   2.486   4.868
    1C        C   45   3.628   2.480   4.984
    1C        C   46   2.841   2.756   2.792
    1C        C   47   2.898   2.712   2.914
    1C        C   48   2.844   2.760   3.035
    1C        C   49   3.015   2.637   3.162
    1C        C   50   2.902   2.721   3.158
    1C        C   51   3.079   2.600   3.282
    1C        C   52   3.020   2.642   3.404
    1C        C   53   3.210   2.547   3.527
    1C        C   54   3.083   2.608   3.526
    1C        C   55   3.274   2.526   3.652
    1C        C   56   3.207   2.550   3.774
    1C        C   57   3.415   2.507   3.892
    1C        C   58   3.276   2.531   3.895
    1C        C   59   3.486   2.500   4.014
    1C        C   60   3.418   2.503   4.138
    1C        C   61   3.632   2.496   4.260
    1C        C   62   3.491   2.497   4.260
    1C        C   63   3.702   2.503   4.383
    1C        C   64   3.629   2.497   4.504
    1C        C   65   3.836   2.541   4.626
    1C        C   66   3.699   2.504   4.626
    1C        C   67   3.906   2.560   4.747
    1C        C   68   3.841   2.526   4.868
    1C        C   69   4.055   2.581   4.981
    1C        C   70   3.924   2.531   4.980
    1C        C   71   2.824   2.732   2.307
    1C        C   72   2.884   2.692   2.429
    1C        C   73   2.829   2.739   2.550
    1C        C   74   3.007   2.622   2.673
    1C        C   75   2.890   2.701   2.671
    1C        C   76   3.075   2.597   2.794
    1C        C   77   3.015   2.633   2.917
    1C        C   78   3.205   2.543   3.038
    1C        C   79   3.075   2.598   3.040
    1C        C   80   3.275   2.523   3.160
    1C        C   81   3.210   2.546   3.283
    1C        C   82   3.416   2.501   3.405
    1C        C   83   3.276   2.522   3.405
    1C        C   84   3.486   2.495   3.528
    1C        C   85   3.413   2.501   3.649
    1C        C   86   3.627   2.498   3.771
    1C        C   87   3.485   2.494   3.770
    1C        C   88   3.696   2.510   3.894
    1C        C   89   3.627   2.506   4.017
    1C        C   90   3.836   2.545   4.137
    1C        C   91   3.701   2.505   4.137
    1C        C   92   3.903   2.570   4.259
    1C        C   93   3.838   2.540   4.381
    1C        C   94   4.026   2.634   4.499
    1C        C   95   3.902   2.567   4.504
    1C        C   96   4.088   2.669   4.621
    1C        C   97   4.031   2.628   4.744
    1C        C   98   4.187   2.766   4.864
    1C        C   99   4.101   2.652   4.865
    1C        C  100   4.208   2.844   4.978
    1C        C  101   2.827   2.732   2.067
    1C        C  102   2.988   2.589   2.190
    1C        C  103   2.878   2.680   2.186
    1C        C  104   3.062   2.572   2.311
    1C        C  105   3.005   2.619   2.431
    1C        C  106   3.202   2.534   2.551
    1C        C  107   3.072   2.591   2.552
    1C        C  108   3.271   2.516   2.672
    1C        C  109   3.206   2.544   2.795
    1C        C  110   3.411   2.488   2.916
    1C        C  111   3.273   2.518   2.917
    1C        C  112   3.482   2.486   3.038
    1C        C  113   3.414   2.498   3.161
    1C        C  114   3.626   2.494   3.282
    1C        C  115   3.485   2.490   3.283
    1C        C  116   3.696   2.504   3.405
    1C        C  117   3.627   2.497   3.528
    1C        C  118   3.835   2.542   3.647
    1C        C  119   3.698   2.508   3.650
    1C        C  120   3.901   2.567   3.769
    1C        C  121   3.833   2.547   3.891
    1C        C  122   4.024   2.638   4.013
    1C        C  123   3.899   2.572   4.013
    1C        C  124   4.090   2.673   4.133
    1C        C  125   4.028   2.636   4.255
    1C        C  126   4.193   2.767   4.377
    1C        C  127   4.085   2.676   4.378
    1C        C  128   4.243   2.817   4.499
    1C        C  129   4.190   2.767   4.620
    1C        C  130   4.324   2.932   4.740
    1C        C  131   4.237   2.820   4.742
    1C        C  132   4.353   3.001   4.860
    1C        C  133   4.277   2.965   4.972
    1C        C  134   3.173   2.468   2.081
    1C        C  135   3.037   2.501   2.088
    1C        C  136   3.260   2.478   2.190
    1C        C  137   3.194   2.520   2.308
    1C        C  138   3.404   2.477   2.428
    1C        C  139   3.265   2.501   2.429
    1C        C  140   3.477   2.478   2.548
    1C        C  141   3.410   2.489   2.672
    1C        C  142   3.622   2.492   2.790
    1C        C  143   3.481   2.485   2.794
    1C        C  144   3.692   2.502   2.912
    1C        C  145   3.623   2.490   3.035
    1C        C  146   3.830   2.537   3.158
    1C        C  147   3.693   2.503   3.157
    1C        C  148   3.901   2.558   3.278
    1C        C  149   3.834   2.533   3.400
    1C        C  150   4.025   2.625   3.521
    1C        C  151   3.899   2.560   3.522
    1C        C  152   4.085   2.664   3.643
    1C        C  153   4.027   2.631   3.768
    1C        C  154   4.194   2.761   3.887
    1C        C  155   4.082   2.676   3.890
    1C        C  156   4.244   2.813   4.009
    1C        C  157   4.198   2.764   4.133
    1C        C  158   4.333   2.927   4.254
    1C        C  159   4.247   2.816   4.255
    1C        C  160   4.367   2.989   4.377
    1C        C  161   4.324   2.933   4.499
    1C        C  162   4.440   3.114   4.616
    1C        C  163   4.365   2.994   4.620
    1C        C  164   4.466   3.182   4.737
    1C        C  165   4.426   3.122   4.858
    1C        C  166   4.513   3.318   4.973
    1C        C  167   4.478   3.184   4.972
    1C        C  168   3.475   2.438   2.072
    1C        C  169   3.401   2.461   2.188
    1C        C  170   3.618   2.461   2.308
    1C        C  171   3.476   2.460   2.307
    1C        C  172   3.692   2.485   2.426
    1C        C  173   3.619   2.483   2.546
    1C        C  174   3.827   2.535   2.666
    1C        C  175   3.691   2.496   2.667
    1C        C  176   3.893   2.558   2.788
    1C        C  177   3.829   2.535   2.912
    1C        C  178   4.022   2.622   3.030
    1C        C  179   3.897   2.556   3.035
    1C        C  180   4.085   2.658   3.152
    1C        C  181   4.028   2.620   3.276
    1C        C  182   4.196   2.748   3.396
    1C        C  183   4.085   2.661   3.398
    1C        C  184   4.241   2.804   3.518
    1C        C  185   4.189   2.760   3.642
    1C        C  186   4.331   2.918   3.764
    1C        C  187   4.245   2.806   3.763
    1C        C  188   4.365   2.982   3.885
    1C        C  189   4.330   2.925   4.009
    1C        C  190   4.440   3.108   4.130
    1C        C  191   4.372   2.984   4.131
    1C        C  192   4.468   3.174   4.252
    1C        C  193   4.442   3.108   4.374
    1C        C  194   4.503   3.315   4.493
    1C        C  195   4.468   3.178   4.494
    1C        C  196   4.518   3.388   4.613
    1C        C  197   4.511   3.318   4.735
    1C        C  198   4.559   3.532   4.850
    1C        C  199   4.529   3.392   4.855
    1C        C  200   4.587   3.618   4.961
    1C        C  201   3.615   2.422   2.070
    1C        C  202   3.825   2.507   2.183
    1C        C  203   3.691   2.457   2.186
    1C        C  204   3.899   2.538   2.300
    1C        C  205   3.830   2.517   2.422
    1C        C  206   4.015   2.625   2.543
    1C        C  207   3.894   2.554   2.543
    1C        C  208   4.078   2.663   2.665
    1C        C  209   4.018   2.624   2.787
    1C        C  210   4.193   2.747   2.908
    1C        C  211   4.080   2.662   2.908
    1C        C  212   4.248   2.793   3.030
    1C        C  213   4.195   2.746   3.152
    1C        C  214   4.325   2.915   3.271
    1C        C  215   4.244   2.799   3.273
    1C        C  216   4.363   2.975   3.393
    1C        C  217   4.328   2.916   3.517
    1C        C  218   4.429   3.102   3.640
    1C        C  219   4.366   2.975   3.639
    1C        C  220   4.455   3.170   3.760
    1C        C  221   4.426   3.109   3.885
    1C        C  222   4.504   3.306   4.004
    1C        C  223   4.464   3.171   4.006
    1C        C  224   4.518   3.379   4.125
    1C        C  225   4.505   3.311   4.248
    1C        C  226   4.525   3.522   4.367
    1C        C  227   4.521   3.381   4.369
    1C        C  228   4.523   3.597   4.487
    1C        C  229   4.527   3.529   4.611
    1C        C  230   4.510   3.743   4.726
    1C        C  231   4.543   3.605   4.729
    1C        C  232   4.499   3.819   4.845
    1C        C  233   4.546   3.752   4.959
    1C        C  234   4.012   2.614   2.061
    1C        C  235   3.893   2.542   2.065
    1C        C  236   4.079   2.653   2.177
    1C        C  237   4.022   2.609   2.298
    1C        C  238   4.194   2.736   2.419
    1C        C  239   4.078   2.654   2.420
    1C        C  240   4.248   2.785   2.540
    1C        C  241   4.192   2.745   2.664
    1C        C  242   4.336   2.903   2.783
    1C        C  243   4.246   2.794   2.786
    1C        C  244   4.373   2.962   2.905
    1C        C  245   4.336   2.904   3.028
    1C        C  246   4.428   3.098   3.147
    1C        C  247   4.371   2.969   3.149
    1C        C  248   4.451   3.163   3.270
    1C        C  249   4.425   3.102   3.395
    1C        C  250   4.494   3.302   3.514
    1C        C  251   4.454   3.167   3.517
    1C        C  252   4.505   3.373   3.635
    1C        C  253   4.491   3.307   3.759
    1C        C  254   4.519   3.516   3.879
    1C        C  255   4.510   3.375   3.881
    1C        C  256   4.519   3.591   4.000
    1C        C  257   4.525   3.520   4.122
    1C        C  258   4.501   3.731   4.241
    1C        C  259   4.520   3.591   4.244
    1C        C  260   4.482   3.804   4.360
    1C        C  261   4.494   3.735   4.483
    1C        C  262   4.431   3.939   4.602
    1C        C  263   4.478   3.806   4.604
    1C        C  264   4.402   4.009   4.721
    1C        C  265   4.434   3.944   4.842
    1C        C  266   4.320   4.130   4.959
    1C        C  267   4.395   4.012   4.958
    1C        C  268   4.265   2.773   2.063
    1C        C  269   4.194   2.735   2.178
    1C        C  270   4.344   2.890   2.298
    1C        C  271   4.248   2.785   2.298
    1C        C  272   4.380   2.952   2.420
    1C        C  273   4.340   2.892   2.541
    1C        C  274   4.442   3.085   2.659
    1C        C  275   4.376   2.960   2.660
    1C        C  276   4.467   3.154   2.780
    1C        C  277   4.434   3.090   2.901
    1C        C  278   4.497   3.294   3.023
    1C        C  279   4.459   3.158   3.022
    1C        C  280   4.511   3.364   3.145
    1C        C  281   4.495   3.297   3.268
    1C        C  282   4.521   3.509   3.390
    1C        C  283   4.511   3.368   3.390
    1C        C  284   4.518   3.582   3.510
    1C        C  285   4.515   3.514   3.634
    1C        C  286   4.496   3.725   3.750
    1C        C  287   4.517   3.586   3.756
    1C        C  288   4.481   3.795   3.872
    1C        C  289   4.501   3.731   3.996
    1C        C  290   4.432   3.931   4.115
    1C        C  291   4.482   3.799   4.118
    1C        C  292   4.403   3.998   4.236
    1C        C  293   4.430   3.935   4.360
    1C        C  294   4.335   4.128   4.477
    1C        C  295   4.405   4.006   4.480
    1C        C  296   4.288   4.186   4.598
    1C        C  297   4.332   4.133   4.721
    1C        C  298   4.200   4.310   4.838
    1C        C  299   4.283   4.193   4.840
    1C        C  300   4.176   4.406   4.942
    1C        C  301   4.349   2.884   2.061
    1C        C  302   4.470   3.068   2.178
    1C        C  303   4.397   2.944   2.178
    1C        C  304   4.483   3.142   2.298
    1C        C  305   4.444   3.077   2.417
    1C        C  306   4.510   3.284   2.536
    1C        C  307   4.473   3.148   2.536
    1C        C  308   4.519   3.358   2.656
    1C        C  309   4.506   3.290   2.779
    1C        C  310   4.531   3.502   2.900
    1C        C  311   4.518   3.361   2.901
    1C        C  312   4.521   3.574   3.021
    1C        C  313   4.517   3.505   3.144
    1C        C  314   4.496   3.716   3.263
    1C        C  315   4.515   3.576   3.266
    1C        C  316   4.483   3.789   3.383
    1C        C  317   4.500   3.723   3.507
    1C        C  318   4.435   3.927   3.626
    1C        C  319   4.481   3.794   3.627
    1C        C  320   4.399   3.988   3.748
    1C        C  321   4.431   3.927   3.871
    1C        C  322   4.323   4.112   3.990
    1C        C  323   4.403   3.995   3.992
    1C        C  324   4.279   4.169   4.111
    1C        C  325   4.327   4.117   4.234
    1C        C  326   4.184   4.275   4.354
    1C        C  327   4.288   4.179   4.354
    1C        C  328   4.132   4.329   4.473
    1C        C  329   4.188   4.286   4.595
    1C        C  330   4.026   4.429   4.712
    1C        C  331   4.142   4.346   4.714
    1C        C  332   3.973   4.485   4.830
    1C        C  333   4.053   4.472   4.944
    1C        C  334   4.552   3.265   2.063
    1C        C  335   4.530   3.127   2.062
    1C        C  336   4.544   3.349   2.175
    1C        C  337   4.516   3.280   2.295
    1C        C  338   4.522   3.497   2.411
    1C        C  339   4.521   3.356   2.415
    1C        C  340   4.522   3.569   2.533
    1C        C  341   4.528   3.499   2.655
    1C        C  342   4.499   3.710   2.772
    1C        C  343   4.525   3.571   2.777
    1C        C  344   4.482   3.782   2.893
    1C        C  345   4.497   3.713   3.015
    1C        C  346   4.424   3.911   3.136
    1C        C  347   4.474   3.779   3.138
    1C        C  348   4.392   3.977   3.257
    1C        C  349   4.428   3.919   3.381
    1C        C  350   4.321   4.102   3.501
    1C        C  351   4.404   3.988   3.502
    1C        C  352   4.274   4.158   3.623
    1C        C  353   4.320   4.106   3.746
    1C        C  354   4.173   4.260   3.868
    1C        C  355   4.275   4.162   3.867
    1C        C  356   4.122   4.311   3.990
    1C        C  357   4.178   4.268   4.111
    1C        C  358   4.008   4.396   4.229
    1C        C  359   4.123   4.315   4.232
    1C        C  360   3.949   4.440   4.350
    1C        C  361   4.018   4.414   4.470
    1C        C  362   3.830   4.515   4.592
    1C        C  363   3.959   4.456   4.591
    1C        C  364   3.765   4.543   4.714
    1C        C  365   3.843   4.539   4.832
    1C        C  366   3.631   4.597   4.945
    1C        C  367   3.768   4.575   4.945
    1C        C  368   4.510   3.560   2.050
    1C        C  369   4.527   3.489   2.169
    1C        C  370   4.501   3.705   2.286
    1C        C  371   4.521   3.565   2.288
    1C        C  372   4.485   3.777   2.407
    1C        C  373   4.505   3.709   2.529
    1C        C  374   4.425   3.908   2.648
    1C        C  375   4.481   3.778   2.650
    1C        C  376   4.394   3.973   2.769
    1C        C  377   4.428   3.912   2.892
    1C        C  378   4.321   4.095   3.011
    1C        C  379   4.397   3.976   3.014
    1C        C  380   4.276   4.154   3.132
    1C        C  381   4.316   4.096   3.255
    1C        C  382   4.172   4.250   3.377
    1C        C  383   4.274   4.152   3.378
    1C        C  384   4.119   4.299   3.498
    1C        C  385   4.173   4.256   3.622
    1C        C  386   4.002   4.381   3.741
    1C        C  387   4.121   4.304   3.744
    1C        C  388   3.942   4.421   3.862
    1C        C  389   4.006   4.393   3.985
    1C        C  390   3.816   4.487   4.108
    1C        C  391   3.944   4.427   4.107
    1C        C  392   3.748   4.516   4.229
    1C        C  393   3.819   4.495   4.350
    1C        C  394   3.618   4.554   4.473
    1C        C  395   3.756   4.529   4.472
    1C        C  396   3.548   4.562   4.596
    1C        C  397   3.625   4.561   4.714
    1C        C  398   3.410   4.557   4.837
    1C        C  399   3.550   4.577   4.833
    1C        C  400   3.344   4.519   4.955
    1C        C  401   4.499   3.699   2.049
    1C        C  402   4.460   3.915   2.165
    1C        C  403   4.486   3.776   2.165
    1C        C  404   4.414   3.978   2.283
    1C        C  405   4.435   3.909   2.404
    1C        C  406   4.327   4.094   2.523
    1C        C  407   4.397   3.972   2.525
    1C        C  408   4.271   4.143   2.644
    1C        C  409   4.315   4.090   2.767
    1C        C  410   4.170   4.245   2.889
    1C        C  411   4.274   4.149   2.889
    1C        C  412   4.117   4.292   3.012
    1C        C  413   4.174   4.251   3.134
    1C        C  414   3.996   4.370   3.252
    1C        C  415   4.116   4.294   3.255
    1C        C  416   3.938   4.408   3.375
    1C        C  417   4.001   4.377   3.498
    1C        C  418   3.812   4.476   3.620
    1C        C  419   3.940   4.416   3.619
    1C        C  420   3.743   4.498   3.741
    1C        C  421   3.811   4.473   3.863
    1C        C  422   3.609   4.532   3.986
    1C        C  423   3.748   4.504   3.986
    1C        C  424   3.540   4.542   4.109
    1C        C  425   3.608   4.536   4.232
    1C        C  426   3.399   4.549   4.358
    1C        C  427   3.540   4.552   4.355
    1C        C  428   3.330   4.543   4.481
    1C        C  429   3.407   4.554   4.599
    1C        C  430   3.194   4.520   4.723
    1C        C  431   3.333   4.551   4.719
    1C        C  432   3.124   4.498   4.844
    1C        C  433   3.206   4.499   4.957
    1C        C  434   4.386   4.125   2.054
    1C        C  435   4.450   4.000   2.054
    1C        C  436   4.301   4.164   2.162
    1C        C  437   4.335   4.096   2.282
    1C        C  438   4.180   4.247   2.403
    1C        C  439   4.283   4.151   2.402
    1C        C  440   4.124   4.296   2.523
    1C        C  441   4.174   4.245   2.644
    1C        C  442   4.000   4.367   2.767
    1C        C  443   4.120   4.292   2.766
    1C        C  444   3.940   4.409   2.888
    1C        C  445   4.000   4.371   3.010
    1C        C  446   3.808   4.468   3.132
    1C        C  447   3.936   4.408   3.130
    1C        C  448   3.740   4.487   3.254
    1C        C  449   3.809   4.465   3.375
    1C        C  450   3.606   4.525   3.500
    1C        C  451   3.744   4.495   3.498
    1C        C  452   3.535   4.538   3.622
    1C        C  453   3.606   4.529   3.744
    1C        C  454   3.395   4.545   3.867
    1C        C  455   3.536   4.545   3.866
    1C        C  456   3.327   4.539   3.990
    1C        C  457   3.399   4.546   4.112
    1C        C  458   3.192   4.507   4.239
    1C        C  459   3.329   4.540   4.235
    1C        C  460   3.124   4.491   4.361
    1C        C  461   3.191   4.518   4.483
    1C        C  462   2.996   4.432   4.607
    1C        C  463   3.123   4.493   4.604
    1C        C  464   2.928   4.400   4.727
    1C        C  465   2.991   4.445   4.846
    1C        C  466   2.798   4.341   4.961
    1C        C  467   2.907   4.430   4.961
    1C        C  468   4.125   4.289   2.041
    1C        C  469   4.184   4.246   2.160
    1C        C  470   4.003   4.366   2.278
    1C        C  471   4.123   4.291   2.281
    1C        C  472   3.939   4.401   2.399
    1C        C  473   4.002   4.369   2.521
    1C        C  474   3.813   4.463   2.644
    1C        C  475   3.942   4.404   2.644
    1C        C  476   3.745   4.491   2.764
    1C        C  477   3.814   4.472   2.886
    1C        C  478   3.607   4.522   3.009
    1C        C  479   3.744   4.492   3.008
    1C        C  480   3.535   4.536   3.130
    1C        C  481   3.603   4.522   3.253
    1C        C  482   3.395   4.536   3.377
    1C        C  483   3.537   4.534   3.378
    1C        C  484   3.325   4.531   3.499
    1C        C  485   3.394   4.537   3.623
    1C        C  486   3.186   4.504   3.746
    1C        C  487   3.324   4.534   3.745
    1C        C  488   3.124   4.483   3.872
    1C        C  489   3.190   4.506   3.994
    1C        C  490   2.999   4.419   4.118
    1C        C  491   3.123   4.486   4.117
    1C        C  492   2.940   4.383   4.241
    1C        C  493   2.999   4.425   4.362
    1C        C  494   2.826   4.304   4.485
    1C        C  495   2.939   4.389   4.485
    1C        C  496   2.772   4.254   4.606
    1C        C  497   2.812   4.317   4.726
    1C        C  498   2.660   4.168   4.844
    1C        C  499   2.751   4.276   4.846
    1C        C  500   2.590   4.119   4.955
    1C        C  501   4.006   4.361   2.040
    1C        C  502   3.811   4.459   2.155
    1C        C  503   3.940   4.400   2.157
    1C        C  504   3.741   4.477   2.276
    1C        C  505   3.810   4.458   2.398
    1C        C  506   3.608   4.516   2.521
    1C        C  507   3.745   4.481   2.522
    1C        C  508   3.534   4.519   2.642
    1C        C  509   3.605   4.513   2.764
    1C        C  510   3.395   4.526   2.888
    1C        C  511   3.537   4.528   2.886
    1C        C  512   3.324   4.526   3.009
    1C        C  513   3.394   4.537   3.131
    1C        C  514   3.188   4.498   3.256
    1C        C  515   3.325   4.532   3.254
    1C        C  516   3.123   4.470   3.378
    1C        C  517   3.188   4.499   3.500
    1C        C  518   2.997   4.411   3.627
    1C        C  519   3.120   4.481   3.623
    1C        C  520   2.940   4.377   3.751
    1C        C  521   3.001   4.413   3.874
    1C        C  522   2.836   4.280   3.998
    1C        C  523   2.945   4.371   3.996
    1C        C  524   2.786   4.236   4.123
    1C        C  525   2.835   4.289   4.245
    1C        C  526   2.693   4.132   4.364
    1C        C  527   2.778   4.245   4.366
    1C        C  528   2.648   4.077   4.486
    1C        C  529   2.687   4.141   4.606
    1C        C  530   2.586   3.958   4.730
    1C        C  531   2.641   4.089   4.729
    1C        C  532   2.543   3.901   4.853
    1C        C  533   2.527   3.994   4.960
    1C        C  534   3.617   4.558   2.042
    1C        C  535   3.750   4.513   2.041
    1C        C  536   3.534   4.537   2.156
    1C        C  537   3.604   4.514   2.278
    1C        C  538   3.394   4.523   2.399
    1C        C  539   3.535   4.525   2.401
    1C        C  540   3.324   4.507   2.521
    1C        C  541   3.393   4.512   2.643
    1C        C  542   3.186   4.484   2.766
    1C        C  543   3.324   4.516   2.766
    1C        C  544   3.120   4.464   2.890
    1C        C  545   3.187   4.489   3.012
    1C        C  546   2.996   4.402   3.135
    1C        C  547   3.120   4.470   3.135
    1C        C  548   2.941   4.364   3.259
    1C        C  549   3.000   4.401   3.383
    1C        C  550   2.829   4.279   3.505
    1C        C  551   2.939   4.369   3.506
    1C        C  552   2.781   4.233   3.630
    1C        C  553   2.831   4.287   3.750
    1C        C  554   2.703   4.121   3.877
    1C        C  555   2.790   4.232   3.874
    1C        C  556   2.663   4.064   3.999
    1C        C  557   2.697   4.127   4.121
    1C        C  558   2.595   3.942   4.245
    1C        C  559   2.655   4.070   4.243
    1C        C  560   2.563   3.881   4.368
    1C        C  561   2.589   3.949   4.489
    1C        C  562   2.531   3.747   4.614
    1C        C  563   2.567   3.883   4.612
    1C        C  564   2.520   3.680   4.739
    1C        C  565   2.526   3.759   4.857
    1C        C  566   2.525   3.549   4.978
    1C        C  567   2.529   3.688   4.978
    1C        C  568   3.327   4.478   2.042
    1C        C  569   3.393   4.519   2.158
    1C        C  570   3.183   4.476   2.281
    1C        C  571   3.319   4.517   2.279
    1C        C  572   3.113   4.459   2.403
    1C        C  573   3.185   4.482   2.522
    1C        C  574   2.991   4.398   2.649
    1C        C  575   3.118   4.460   2.645
    1C        C  576   2.932   4.362   2.771
    1C        C  577   2.993   4.403   2.892
    1C        C  578   2.824   4.275   3.015
    1C        C  579   2.933   4.366   3.014
    1C        C  580   2.777   4.224   3.138
    1C        C  581   2.832   4.275   3.258
    1C        C  582   2.703   4.111   3.383
    1C        C  583   2.785   4.226   3.382
    1C        C  584   2.665   4.058   3.509
    1C        C  585   2.698   4.119   3.632
    1C        C  586   2.600   3.934   3.756
    1C        C  587   2.662   4.061   3.755
    1C        C  588   2.572   3.871   3.879
    1C        C  589   2.599   3.937   4.001
    1C        C  590   2.533   3.738   4.129
    1C        C  591   2.566   3.875   4.123
    1C        C  592   2.522   3.670   4.252
    1C        C  593   2.532   3.743   4.372
    1C        C  594   2.508   3.533   4.497
    1C        C  595   2.518   3.673   4.494
    1C        C  596   2.515   3.466   4.621
    1C        C  597   2.513   3.538   4.742
    1C        C  598   2.531   3.327   4.862
    1C        C  599   2.519   3.467   4.864
    1C        C  600   2.529   3.248   4.978
    1C        C  601   3.195   4.437   2.044
    1C        C  602   2.984   4.389   2.158
    1C        C  603   3.117   4.443   2.160
    1C        C  604   2.924   4.358   2.283
    1C        C  605   2.987   4.395   2.404
    1C        C  606   2.820   4.270   2.527
    1C        C  607   2.927   4.362   2.528
    1C        C  608   2.772   4.220   2.650
    1C        C  609   2.822   4.273   2.771
    1C        C  610   2.683   4.115   2.893
    1C        C  611   2.771   4.225   2.894
    1C        C  612   2.651   4.053   3.016
    1C        C  613   2.690   4.113   3.138
    1C        C  614   2.594   3.927   3.266
    1C        C  615   2.658   4.053   3.262
    1C        C  616   2.569   3.865   3.390
    1C        C  617   2.600   3.932   3.511
    1C        C  618   2.534   3.733   3.638
    1C        C  619   2.573   3.868   3.634
    1C        C  620   2.524   3.665   3.762
    1C        C  621   2.535   3.735   3.884
    1C        C  622   2.513   3.526   4.009
    1C        C  623   2.524   3.667   4.007
    1C        C  624   2.517   3.456   4.131
    1C        C  625   2.514   3.529   4.252
    1C        C  626   2.536   3.320   4.379
    1C        C  627   2.516   3.460   4.376
    1C        C  628   2.552   3.252   4.502
    1C        C  629   2.537   3.326   4.621
    1C        C  630   2.592   3.119   4.741
    1C        C  631   2.548   3.254   4.742
    1C        C  632   2.622   3.056   4.865
    1C        C  633   2.565   3.113   4.983
    1C        C  634   2.780   4.306   2.052
    1C        C  635   2.890   4.394   2.051
    1C        C  636   2.749   4.230   2.165
    1C        C  637   2.809   4.274   2.285
    1C        C  638   2.679   4.108   2.410
    1C        C  639   2.763   4.221   2.408
    1C        C  640   2.637   4.049   2.532
    1C        C  641   2.684   4.110   2.651
    1C        C  642   2.588   3.922   2.777
    1C        C  643   2.645   4.051   2.773
    1C        C  644   2.563   3.856   2.900
    1C        C  645   2.589   3.926   3.019
    1C        C  646   2.524   3.728   3.149
    1C        C  647   2.565   3.863   3.143
    1C        C  648   2.514   3.659   3.272
    1C        C  649   2.529   3.730   3.393
    1C        C  650   2.508   3.521   3.518
    1C        C  651   2.517   3.662   3.517
    1C        C  652   2.513   3.453   3.641
    1C        C  653   2.515   3.524   3.764
    1C        C  654   2.534   3.315   3.888
    1C        C  655   2.511   3.454   3.887
    1C        C  656   2.549   3.246   4.011
    1C        C  657   2.536   3.316   4.133
    1C        C  658   2.605   3.120   4.257
    1C        C  659   2.551   3.250   4.257
    1C        C  660   2.637   3.058   4.380
    1C        C  661   2.602   3.119   4.502
    1C        C  662   2.709   2.934   4.625
    1C        C  663   2.632   3.053   4.623
    1C        C  664   2.751   2.879   4.747
    1C        C  665   2.699   2.935   4.868
    1C        C  666   2.743   2.868   4.983
    1C        C  667   2.681   4.024   2.054
    1C        C  668   2.689   4.103   2.169
    1C        C  669   2.589   3.912   2.291
    1C        C  670   2.646   4.043   2.290
    1C        C  671   2.553   3.850   2.412
    1C        C  672   2.579   3.920   2.532
    1C        C  673   2.517   3.721   2.657
    1C        C  674   2.559   3.856   2.656
    1C        C  675   2.511   3.651   2.779
    1C        C  676   2.526   3.720   2.902
    1C        C  677   2.512   3.516   3.028
    1C        C  678   2.513   3.657   3.028
    1C        C  679   2.512   3.446   3.151
    1C        C  680   2.509   3.518   3.273
    1C        C  681   2.538   3.310   3.398
    1C        C  682   2.512   3.449   3.396
    1C        C  683   2.553   3.243   3.522
    1C        C  684   2.533   3.313   3.643
    1C        C  685   2.606   3.115   3.769
    1C        C  686   2.552   3.246   3.766
    1C        C  687   2.640   3.054   3.892
    1C        C  688   2.605   3.116   4.014
    1C        C  689   2.711   2.934   4.136
    1C        C  690   2.632   3.052   4.136
    1C        C  691   2.755   2.881   4.259
    1C        C  692   2.713   2.939   4.381
    1C        C  693   2.750   2.877   4.502
    1C        C  694   2.633   3.892   2.056
    1C        C  695   2.529   3.704   2.176
    1C        C  696   2.576   3.837   2.172
    1C        C  697   2.512   3.635   2.298
    1C        C  698   2.516   3.713   2.416
    1C        C  699   2.489   3.504   2.540
    1C        C  700   2.504   3.645   2.539
    1C        C  701   2.507   3.437   2.663
    1C        C  702   2.510   3.509   2.784
    1C        C  703   2.534   3.302   2.912
    1C        C  704   2.513   3.442   2.908
    1C        C  705   2.546   3.232   3.034
    1C        C  706   2.533   3.307   3.153
    1C        C  707   2.598   3.107   3.277
    1C        C  708   2.552   3.240   3.276
    1C        C  709   2.634   3.049   3.401
    1C        C  710   2.611   3.114   3.524
    1C        C  711   2.714   2.931   3.647
    1C        C  712   2.641   3.052   3.647
    1C        C  713   2.760   2.880   3.770
    1C        C  714   2.719   2.937   3.892
    1C        C  715   2.760   2.881   4.015
    1C        C  716   2.453   3.501   2.063
    1C        C  717   2.493   3.635   2.060
    1C        C  718   2.468   3.420   2.181
    1C        C  719   2.486   3.496   2.300
    1C        C  720   2.519   3.288   2.425
    1C        C  721   2.487   3.426   2.423
    1C        C  722   2.535   3.220   2.547
    1C        C  723   2.526   3.297   2.666
    1C        C  724   2.594   3.100   2.788
    1C        C  725   2.546   3.233   2.790
    1C        C  726   2.627   3.037   2.911
    1C        C  727   2.597   3.100   3.034
    1C        C  728   2.704   2.920   3.159
    1C        C  729   2.625   3.037   3.157
    1C        C  730   2.756   2.874   3.282
    1C        C  731   2.707   2.928   3.404
    1C        C  732   2.755   2.873   3.525
    1C        C  733   2.485   3.194   2.075
    1C        C  734   2.486   3.279   2.187
    1C        C  735   2.593   3.085   2.305
    1C        C  736   2.531   3.214   2.305
    1C        C  737   2.615   3.018   2.427
    1C        C  738   2.587   3.088   2.546
    1C        C  739   2.701   2.912   2.670
    1C        C  740   2.624   3.030   2.669
    1C        C  741   2.743   2.857   2.794
    1C        C  742   2.703   2.918   2.914
    1C        C  743   2.749   2.865   3.037
    1C        C  744   2.540   3.067   2.074
    1C        C  745   2.684   2.896   2.185
    1C        C  746   2.614   3.019   2.183
    1C        C  747   2.727   2.836   2.306
    1C        C  748   2.689   2.897   2.427
    1C        C  749   2.735   2.845   2.550
    1C        C  750   2.740   2.840   2.069
    1C        C  751   3.662   2.316   1.977
    1C        O  752   3.663   2.196   2.014
    1C        O  753   3.667   2.338   1.839
    1C        C  754   4.628   3.063   1.972
    1C        O  755   4.605   3.039   1.850
    1C        O  756   4.751   3.015   2.017
    1C        C  757   4.465   4.229   1.984
    1C        O  758   4.548   4.294   2.053
    1C        O  759   4.523   4.199   1.861
    1C        C  760   3.601   4.671   1.947
    1C        O  761   3.638   4.788   1.977
    1C        O  762   3.560   4.653   1.814
    1C        C  763   2.874   4.512   1.963
    1C        O  764   2.897   4.489   1.841
    1C        O  765   2.788   4.618   1.995
    1C        C  766   2.366   3.481   1.945
    1C        O  767   2.411   3.500   1.829
    1C        O  768   2.230   3.447   1.950
    1C        C  769   4.694   3.587   5.058
    1C        O  770   4.676   3.599   5.182
    1C        O  771   4.812   3.517   5.030
    1C        C  772   4.284   4.495   4.991
    1C        O  773   4.337   4.479   5.104
    1C        O  774   4.341   4.605   4.925
    1C        C  775   4.147   2.545   5.090
    1C        O  776   4.222   2.447   5.063
    1C        O  777   4.117   2.557   5.226
    1C        C  778   2.892   4.544   5.055
    1C        O  779   2.833   4.646   5.012
    1C        O  780   2.966   4.561   5.173
    1C        C  781   2.486   3.037   5.082
    1C        O  782   2.364   3.011   5.064
    1C        O  783   2.523   3.016   5.214
    1C        C  784   2.396   4.012   5.027
    1C        O  785   2.293   4.035   4.958
    1C        O  786   2.408   4.049   5.162
    1C        C  787   2.937   2.410   2.027
    1C        O  788   2.884   2.431   1.915
    1C        O  789   2.890   2.292   2.084
    1C        C  790   3.171   2.373   5.063
    1C        O  791   3.110   2.268   5.030
    1C        O  792   3.202   2.377   5.199
    1C        H  793   4.249   3.046   5.036
    1C        H  794   4.202   2.799   5.075
    1C        H  795   4.515   3.118   5.048
    1C        H  796   4.495   3.374   5.063
    1C        H  797   4.541   3.805   5.051
    1C        H  798   4.440   3.989   5.053
    1C        H  799   4.261   4.157   5.044
    1C        H  800   4.015   4.502   5.040
    1C        H  801   3.812   4.563   5.042
    1C        H  802   3.601   4.682   5.003
    1C        H  803   3.391   4.525   5.051
    1C        H  804   3.168   4.453   5.047
    1C        H  805   3.872   2.525   5.074
    1C        H  806   3.665   2.409   5.055
    1C        H  807   2.980   2.505   5.023
    1C        H  808   3.437   2.469   5.073
    1C        H  809   2.846   2.705   5.066
    1C        H  810   2.671   2.851   5.060
    1C        H  811   2.458   3.280   5.052
    1C        H  812   2.552   3.503   5.071
    1C        H  813   2.567   3.731   5.068
    1C        H  814   2.585   4.171   5.048
    1C        H  815   2.723   4.361   5.034
    1C        H  816   2.732   2.900   1.981
    1C        H  817   2.818   2.676   1.976
    1C        H  818   3.201   2.404   2.000
    1C        H  819   3.425   2.431   1.978
    1C        H  820   3.882   2.472   1.985
    1C        H  821   4.064   2.610   1.968
    1C        H  822   4.284   2.695   1.992
    1C        H  823   4.405   2.899   1.971
    1C        H  824   4.577   3.311   1.970
    1C        H  825   4.470   3.511   1.963
    1C        H  826   4.552   3.747   1.969
    1C        H  827   3.816   4.553   1.967
    1C        H  828   3.971   4.389   1.943
    1C        H  829   4.160   4.248   1.949
    1C        H  830   4.472   3.958   1.958
    1C        H  831   2.676   3.826   1.983
    1C        H  832   2.705   4.060   1.956
    1C        H  833   2.707   4.325   1.976
    1C        H  834   3.355   4.521   1.948
    1C        H  835   3.146   4.432   1.948
    1C        H  836   2.506   2.994   2.003
    1C        H  837   2.413   3.212   1.998
    1C        H  838   2.523   3.675   1.965
    2V3OU   H29  839   2.804   3.543   1.593
    2V3OU   C27  840   2.780   3.499   1.693
    2V3OU   H27  841   2.720   3.565   1.762
    2V3OU   H28  842   2.731   3.398   1.685
    2V3OU   O11  843   2.908   3.477   1.753
    2V3OU   C15  844   2.920   3.407   1.871
    2V3OU   C13  845   3.048   3.377   1.922
    2V3OU   C14  846   3.073   3.271   2.010
    2V3OU   C16  847   2.969   3.187   2.049
    2V3OU    H6  848   2.988   3.104   2.118
    2V3OU   C12  849   3.208   3.229   2.053
    2V3OU    O2  850   3.235   3.121   2.111
    2V3OU   C10  851   3.325   3.309   2.014
    2V3OU    C8  852   3.457   3.275   2.041
    2V3OU   O10  853   3.486   3.153   2.095
    2V3OU   H26  854   3.405   3.114   2.131
    2V3OU    C6  855   3.568   3.354   2.001
    2V3OU    C5  856   3.539   3.466   1.923
    2V3OU    C4  857   3.704   3.292   2.009
    2V3OU    H4  858   3.723   3.227   2.100
    2V3OU    H5  859   3.712   3.228   1.917
    2V3OU    C2  860   3.812   3.399   1.998
    2V3OU    O6  861   3.804   3.472   2.120
    2V3OU   H21  862   3.763   3.558   2.101
    2V3OU    C3  863   3.780   3.494   1.883
    2V3OU    H2  864   3.867   3.565   1.873
    2V3OU    H3  865   3.777   3.438   1.786
    2V3OU   C25  866   3.949   3.330   1.989
    2V3OU    O7  867   3.997   3.306   1.878
    2V3OU   C26  868   4.028   3.293   2.113
    2V3OU   H22  869   4.064   3.386   2.164
    2V3OU   H23  870   4.116   3.230   2.083
    2V3OU    O8  871   3.959   3.210   2.204
    2V3OU   H24  872   3.918   3.259   2.278
    2V3OU    C1  873   3.649   3.566   1.907
    2V3OU    H1  874   3.625   3.622   1.812
    2V3OU    O3  875   3.665   3.656   2.017
    2V3OU   C19  876   3.619   3.790   2.001
    2V3OU    H9  877   3.520   3.800   1.949
    2V3OU    O4  878   3.715   3.844   1.912
    2V3OU   C20  879   3.842   3.873   1.968
    2V3OU   H10  880   3.893   3.773   1.983
    2V3OU   C24  881   3.609   3.856   2.138
    2V3OU   H16  882   3.542   3.793   2.203
    2V3OU   H17  883   3.563   3.956   2.120
    2V3OU   C23  884   3.748   3.873   2.201
    2V3OU   H15  885   3.792   3.769   2.219
    2V3OU    N1  886   3.737   3.953   2.321
    2V3OU   H19  887   3.809   3.924   2.384
    2V3OU   H20  888   3.650   3.929   2.365
    2V3OU   C21  889   3.845   3.946   2.103
    2V3OU   H11  890   3.950   3.926   2.138
    2V3OU    O5  891   3.822   4.086   2.104
    2V3OU   H18  892   3.781   4.106   2.190
    2V3OU   C22  893   3.917   3.948   1.859
    2V3OU   H12  894   3.865   4.045   1.837
    2V3OU   H13  895   3.909   3.892   1.762
    2V3OU   H14  896   4.023   3.964   1.890
    2V3OU   C11  897   3.159   3.473   1.911
    2V3OU    O1  898   3.132   3.589   1.870
    2V3OU    C9  899   3.296   3.427   1.941
    2V3OU    C7  900   3.403   3.499   1.891
    2V3OU    O9  901   3.380   3.618   1.824
    2V3OU   H25  902   3.285   3.635   1.833
    2V3OU   C17  903   2.819   3.318   1.914
    2V3OU    H7  904   2.714   3.347   1.907
    2V3OU   C18  905   2.840   3.214   2.003
    2V3OU    H8  906   2.760   3.139   2.013
    3SOL     OW  907   2.381   4.180   0.875
    3SOL    HW1  908   2.472   4.212   0.849
    3SOL    HW2  909   2.318   4.258   0.880
    4SOL     OW  910   6.591   5.494   1.868
    4SOL    HW1  911   6.681   5.538   1.865
    4SOL    HW2  912   6.602   5.398   1.892
    5SOL     OW  913   3.885   1.486   2.239
    5SOL    HW1  914   3.980   1.502   2.213
    5SOL    HW2  915   3.828   1.482   2.157
    6SOL     OW  916   3.778   2.055   2.356
    6SOL    HW1  917   3.710   2.048   2.430
    6SOL    HW2  918   3.749   2.126   2.291
    7SOL     OW  919   6.368   2.768   1.357
    7SOL    HW1  920   6.423   2.831   1.302
    7SOL    HW2  921   6.294   2.731   1.301
    8SOL     OW  922   2.286   6.624   5.146
    8SOL    HW1  923   2.385   6.622   5.142
    8SOL    HW2  924   2.256   6.681   5.223
    9SOL     OW  925   1.186   5.418   5.720
    9SOL    HW1  926   1.251   5.480   5.677
    9SOL    HW2  927   1.210   5.406   5.817
   10SOL     OW  928   0.782   4.455   5.408
   10SOL    HW1  929   0.765   4.551   5.429
   10SOL    HW2  930   0.824   4.410   5.487
   11SOL     OW  931   2.811   0.470   0.339
   11SOL    HW1  932   2.732   0.530   0.353
   11SOL    HW2  933   2.811   0.437   0.244
   12SOL     OW  934   4.469   6.254   3.790
   12SOL    HW1  935   4.385   6.227   3.838
   12SOL    HW2  936   4.480   6.197   3.708
   13SOL     OW  937   3.711   5.854   4.512
   13SOL    HW1  938   3.720   5.790   4.436
   13SOL    HW2  939   3.779   5.832   4.582
   14SOL     OW  940   4.413   5.767   6.494
   14SOL    HW1  941   4.425   5.856   6.538
   14SOL    HW2  942   4.336   5.771   6.430
   15SOL     OW  943   1.565   5.762   6.939
   15SOL    HW1  944   1.547   5.678   6.889
   15SOL    HW2  945   1.519   5.759   0.005
   16SOL     OW  946   6.064   2.076   5.485
   16SOL    HW1  947   5.987   2.015   5.505
   16SOL    HW2  948   6.093   2.122   5.568
   17SOL     OW  949   5.304   6.270   4.762
   17SOL    HW1  950   5.375   6.255   4.694
   17SOL    HW2  951   5.346   6.282   4.852
   18SOL     OW  952   2.871   1.654   6.723
   18SOL    HW1  953   2.913   1.641   6.633
   18SOL    HW2  954   2.889   1.747   6.755
   19SOL     OW  955   6.866   6.669   3.303
   19SOL    HW1  956   6.767   6.659   3.314
   19SOL    HW2  957   6.896   6.618   3.222
   20SOL     OW  958   3.682   1.250   4.236
   20SOL    HW1  959   3.665   1.196   4.153
   20SOL    HW2  960   3.606   1.314   4.249
   21SOL     OW  961   3.023   2.095   2.797
   21SOL    HW1  962   3.004   2.014   2.742
   21SOL    HW2  963   3.099   2.076   2.860
   22SOL     OW  964   2.064   0.112   6.731
   22SOL    HW1  965   1.975   0.139   6.696
   22SOL    HW2  966   2.054   0.068   6.820
   23SOL     OW  967   4.599   6.380   3.417
   23SOL    HW1  968   4.601   6.320   3.338
   23SOL    HW2  969   4.595   6.475   3.387
   24SOL     OW  970   5.216   0.841   4.107
   24SOL    HW1  971   5.155   0.839   4.186
   24SOL    HW2  972   5.304   0.881   4.133
   25SOL     OW  973   3.222   5.923   6.191
   25SOL    HW1  974   3.183   5.883   6.108
   25SOL    HW2  975   3.188   6.016   6.202
   26SOL     OW  976   5.924   0.991   1.231
   26SOL    HW1  977   6.006   1.025   1.276
   26SOL    HW2  978   5.867   1.069   1.204
   27SOL     OW  979   0.200   0.772   2.059
   27SOL    HW1  980   0.145   0.822   2.126
   27SOL    HW2  981   0.173   0.799   1.967
   28SOL     OW  982   4.216   0.881   0.515
   28SOL    HW1  983   4.253   0.901   0.424
   28SOL    HW2  984   4.172   0.963   0.552
   29SOL     OW  985   5.228   2.507   2.051
   29SOL    HW1  986   5.257   2.509   2.146
   29SOL    HW2  987   5.129   2.497   2.046
   30SOL     OW  988   2.912   6.832   5.306
   30SOL    HW1  989   2.961   6.749   5.333
   30SOL    HW2  990   2.977   6.908   5.300
   31SOL     OW  991   0.977   1.226   5.585
   31SOL    HW1  992   0.902   1.283   5.619
   31SOL    HW2  993   1.061   1.249   5.633
   32SOL     OW  994   0.716   2.130   2.874
   32SOL    HW1  995   0.673   2.191   2.808
   32SOL    HW2  996   0.647   2.068   2.911
   33SOL     OW  997   1.894   2.970   6.841
   33SOL    HW1  998   1.806   3.013   6.821
   33SOL    HW2  999   1.959   3.039   6.871
   34SOL     OW 1000   1.925   0.940   4.357
   34SOL    HW1 1001   1.995   0.954   4.286
   34SOL    HW2 1002   1.874   0.856   4.337
   35SOL     OW 1003   4.369   2.213   6.815
   35SOL    HW1 1004   4.332   2.296   6.856
   35SOL    HW2 1005   4.298   2.167   6.762
   36SOL     OW 1006   1.060   0.995   6.248
   36SOL    HW1 1007   1.125   0.947   6.188
   36SOL    HW2 1008   1.060   1.092   6.225
   37SOL     OW 1009   2.112   0.376   0.855
   37SOL    HW1 1010   2.038   0.437   0.883
   37SOL    HW2 1011   2.147   0.327   0.935
   38SOL     OW 1012   0.443   5.770   3.113
   38SOL    HW1 1013   0.361   5.791   3.060
   38SOL    HW2 1014   0.456   5.671   3.117
   39SOL     OW 1015   6.862   4.114   6.586
   39SOL    HW1 1016   6.791   4.162   6.535
   39SOL    HW2 1017   6.951   4.128   6.542
   40SOL     OW 1018   6.251   2.425   1.732
   40SOL    HW1 1019   6.332   2.479   1.707
   40SOL    HW2 1020   6.170   2.483   1.729
   41SOL     OW 1021   1.721   6.303   4.187
   41SOL    HW1 1022   1.795   6.308   4.254
   41SOL    HW2 1023   1.691   6.396   4.164
   42SOL     OW 1024   3.237   6.826   6.311
   42SOL    HW1 1025   3.176   6.748   6.296
   42SOL    HW2 1026   3.320   6.796   6.358
   43SOL     OW 1027   5.771   6.112   5.960
   43SOL    HW1 1028   5.678   6.105   5.924
   43SOL    HW2 1029   5.813   6.197   5.928
   44SOL     OW 1030   6.317   2.449   6.788
   44SOL    HW1 1031   6.245   2.502   6.833
   44SOL    HW2 1032   6.376   2.408   6.857
   45SOL     OW 1033   3.070   0.660   3.916
   45SOL    HW1 1034   3.111   0.649   3.825
   45SOL    HW2 1035   3.069   0.572   3.964
   46SOL     OW 1036   0.963   3.543   4.223
   46SOL    HW1 1037   0.895   3.537   4.296
   46SOL    HW2 1038   1.014   3.457   4.219
   47SOL     OW 1039   5.567   3.271   3.484
   47SOL    HW1 1040   5.656   3.259   3.528
   47SOL    HW2 1041   5.579   3.319   3.397
   48SOL     OW 1042   0.831   2.750   4.685
   48SOL    HW1 1043   0.796   2.759   4.592
   48SOL    HW2 1044   0.775   2.806   4.747
   49SOL     OW 1045   4.646   3.943   1.764
   49SOL    HW1 1046   4.629   4.039   1.785
   49SOL    HW2 1047   4.729   3.913   1.812
   50SOL     OW 1048   6.331   2.324   5.523
   50SOL    HW1 1049   6.415   2.269   5.525
   50SOL    HW2 1050   6.256   2.273   5.565
   51SOL     OW 1051   3.145   5.829   2.530
   51SOL    HW1 1052   3.057   5.866   2.502
   51SOL    HW2 1053   3.147   5.818   2.629
   52SOL     OW 1054   4.309   1.785   3.540
   52SOL    HW1 1055   4.259   1.729   3.474
   52SOL    HW2 1056   4.380   1.729   3.583
   53SOL     OW 1057   4.635   0.299   4.117
   53SOL    HW1 1058   4.628   0.359   4.037
   53SOL    HW2 1059   4.654   0.354   4.199
   54SOL     OW 1060   3.060   5.041   6.843
   54SOL    HW1 1061   3.122   5.043   6.765
   54SOL    HW2 1062   3.077   5.120   6.902
   55SOL     OW 1063   3.753   1.319   6.309
   55SOL    HW1 1064   3.847   1.353   6.308
   55SOL    HW2 1065   3.691   1.393   6.283
   56SOL     OW 1066   1.647   0.524   1.368
   56SOL    HW1 1067   1.687   0.475   1.290
   56SOL    HW2 1068   1.699   0.607   1.385
   57SOL     OW 1069   4.889   0.131   0.846
   57SOL    HW1 1070   4.801   0.139   0.893
   57SOL    HW2 1071   4.935   0.047   0.875
   58SOL     OW 1072   0.550   6.065   5.910
   58SOL    HW1 1073   0.627   6.058   5.973
   58SOL    HW2 1074   0.490   5.986   5.923
   59SOL     OW 1075   1.595   1.127   6.296
   59SOL    HW1 1076   1.547   1.040   6.290
   59SOL    HW2 1077   1.672   1.127   6.232
   60SOL     OW 1078   5.292   0.643   5.521
   60SOL    HW1 1079   5.256   0.615   5.610
   60SOL    HW2 1080   5.351   0.723   5.533
   61SOL     OW 1081   5.071   1.179   4.234
   61SOL    HW1 1082   4.988   1.138   4.272
   61SOL    HW2 1083   5.073   1.277   4.255
   62SOL     OW 1084   0.612   1.336   3.709
   62SOL    HW1 1085   0.664   1.321   3.793
   62SOL    HW2 1086   0.568   1.251   3.681
   63SOL     OW 1087   6.239   1.615   3.848
   63SOL    HW1 1088   6.305   1.599   3.775
   63SOL    HW2 1089   6.286   1.620   3.936
   64SOL     OW 1090   0.454   4.143   6.797
   64SOL    HW1 1091   0.381   4.161   6.862
   64SOL    HW2 1092   0.448   4.209   6.722
   65SOL     OW 1093   6.558   4.558   4.900
   65SOL    HW1 1094   6.507   4.604   4.973
   65SOL    HW2 1095   6.498   4.493   4.854
   66SOL     OW 1096   3.468   0.711   6.748
   66SOL    HW1 1097   3.512   0.623   6.767
   66SOL    HW2 1098   3.425   0.745   6.832
   67SOL     OW 1099   5.573   5.726   5.199
   67SOL    HW1 1100   5.647   5.662   5.219
   67SOL    HW2 1101   5.490   5.697   5.248
   68SOL     OW 1102   6.983   1.167   6.926
   68SOL    HW1 1103   0.048   1.143   6.967
   68SOL    HW2 1104   6.912   1.108   6.966
   69SOL     OW 1105   1.621   3.902   6.503
   69SOL    HW1 1106   1.669   3.984   6.472
   69SOL    HW2 1107   1.682   3.846   6.558
   70SOL     OW 1108   6.103   5.494   2.768
   70SOL    HW1 1109   6.065   5.423   2.827
   70SOL    HW2 1110   6.070   5.583   2.797
   71SOL     OW 1111   2.828   1.929   3.251
   71SOL    HW1 1112   2.879   1.862   3.198
   71SOL    HW2 1113   2.731   1.926   3.225
   72SOL     OW 1114   2.622   6.227   4.765
   72SOL    HW1 1115   2.704   6.183   4.728
   72SOL    HW2 1116   2.648   6.298   4.830
   73SOL     OW 1117   3.160   1.991   0.311
   73SOL    HW1 1118   3.083   2.055   0.321
   73SOL    HW2 1119   3.125   1.898   0.308
   74SOL     OW 1120   5.428   6.644   6.943
   74SOL    HW1 1121   5.347   6.690   6.979
   74SOL    HW2 1122   5.476   6.706   6.880
   75SOL     OW 1123   3.743   5.582   5.902
   75SOL    HW1 1124   3.793   5.651   5.850
   75SOL    HW2 1125   3.679   5.535   5.841
   76SOL     OW 1126   1.774   2.527   1.247
   76SOL    HW1 1127   1.820   2.615   1.263
   76SOL    HW2 1128   1.698   2.518   1.311
   77SOL     OW 1129   4.782   5.791   4.020
   77SOL    HW1 1130   4.762   5.703   3.977
   77SOL    HW2 1131   4.813   5.776   4.114
   78SOL     OW 1132   6.272   6.593   5.874
   78SOL    HW1 1133   6.277   6.625   5.968
   78SOL    HW2 1134   6.210   6.651   5.822
   79SOL     OW 1135   2.966   7.005   0.431
   79SOL    HW1 1136   2.973   6.920   0.483
   79SOL    HW2 1137   2.872   7.018   0.399
   80SOL     OW 1138   5.995   0.927   4.355
   80SOL    HW1 1139   5.973   0.897   4.262
   80SOL    HW2 1140   5.911   0.951   4.404
   81SOL     OW 1141   2.285   0.258   2.757
   81SOL    HW1 1142   2.241   0.255   2.846
   81SOL    HW2 1143   2.293   0.353   2.727
   82SOL     OW 1144   6.933   5.002   0.477
   82SOL    HW1 1145   6.968   4.942   0.405
   82SOL    HW2 1146   6.970   4.973   0.565
   83SOL     OW 1147   6.348   0.269   0.954
   83SOL    HW1 1148   6.278   0.200   0.935
   83SOL    HW2 1149   6.387   0.253   1.045
   84SOL     OW 1150   4.946   3.554   3.437
   84SOL    HW1 1151   4.921   3.457   3.427
   84SOL    HW2 1152   5.045   3.564   3.430
   85SOL     OW 1153   0.971   1.885   5.142
   85SOL    HW1 1154   1.054   1.939   5.155
   85SOL    HW2 1155   0.907   1.904   5.216
   86SOL     OW 1156   1.173   0.371   5.623
   86SOL    HW1 1157   1.220   0.364   5.712
   86SOL    HW2 1158   1.075   0.382   5.638
   87SOL     OW 1159   4.602   2.723   0.794
   87SOL    HW1 1160   4.651   2.642   0.760
   87SOL    HW2 1161   4.638   2.805   0.750
   88SOL     OW 1162   4.435   1.675   6.979
   88SOL    HW1 1163   4.395   1.735   6.910
   88SOL    HW2 1164   4.425   1.580   6.950
   89SOL     OW 1165   1.722   2.885   6.568
   89SOL    HW1 1166   1.815   2.849   6.563
   89SOL    HW2 1167   1.696   2.923   6.480
   90SOL     OW 1168   4.802   6.896   3.956
   90SOL    HW1 1169   4.746   6.973   3.928
   90SOL    HW2 1170   4.878   6.885   3.891
   91SOL     OW 1171   4.559   4.562   4.193
   91SOL    HW1 1172   4.475   4.604   4.228
   91SOL    HW2 1173   4.636   4.624   4.206
   92SOL     OW 1174   3.022   4.478   0.325
   92SOL    HW1 1175   3.114   4.515   0.314
   92SOL    HW2 1176   3.014   4.392   0.274
   93SOL     OW 1177   2.653   4.513   6.345
   93SOL    HW1 1178   2.599   4.508   6.261
   93SOL    HW2 1179   2.667   4.609   6.370
   94SOL     OW 1180   2.483   6.078   6.137
   94SOL    HW1 1181   2.413   6.148   6.152
   94SOL    HW2 1182   2.440   5.995   6.103
   95SOL     OW 1183   0.699   1.897   3.536
   95SOL    HW1 1184   0.777   1.849   3.496
   95SOL    HW2 1185   0.621   1.834   3.542
   96SOL     OW 1186   2.959   6.751   5.743
   96SOL    HW1 1187   2.914   6.663   5.726
   96SOL    HW2 1188   3.050   6.750   5.701
   97SOL     OW 1189   0.512   3.974   5.743
   97SOL    HW1 1190   0.530   3.880   5.713
   97SOL    HW2 1191   0.598   4.021   5.759
   98SOL     OW 1192   6.239   3.687   0.069
   98SOL    HW1 1193   6.309   3.723   0.008
   98SOL    HW2 1194   6.276   3.610   0.120
   99SOL     OW 1195   4.384   3.973   1.096
   99SOL    HW1 1196   4.393   3.979   1.196
   99SOL    HW2 1197   4.422   4.056   1.054
  100SOL     OW 1198   0.614   6.660   6.083
  100SOL    HW1 1199   0.588   6.584   6.143
  100SOL    HW2 1200   0.620   6.628   5.989
  101SOL     OW 1201   1.115   6.107   2.756
  101SOL    HW1 1202   1.017   6.129   2.761
  101SOL    HW2 1203   1.153   6.145   2.672
  102SOL     OW 1204   5.040   1.054   2.229
  102SOL    HW1 1205   5.029   0.974   2.170
  102SOL    HW2 1206   4.985   1.130   2.193
  103SOL     OW 1207   4.215   0.919   2.226
  103SOL    HW1 1208   4.313   0.912   2.247
  103SOL    HW2 1209   4.163   0.861   2.289
  104SOL     OW 1210   0.086   5.357   2.974
  104SOL    HW1 1211   0.107   5.415   3.053
  104SOL    HW2 1212   0.098   5.410   2.890
  105SOL     OW 1213   6.702   1.669   6.697
  105SOL    HW1 1214   6.665   1.684   6.789
  105SOL    HW2 1215   6.798   1.642   6.704
  106SOL     OW 1216   3.212   6.649   5.655
  106SOL    HW1 1217   3.184   6.565   5.609
  106SOL    HW2 1218   3.249   6.713   5.587
  107SOL     OW 1219   1.705   2.223   1.917
  107SOL    HW1 1220   1.644   2.158   1.963
  107SOL    HW2 1221   1.681   2.228   1.820
  108SOL     OW 1222   4.501   4.811   6.552
  108SOL    HW1 1223   4.444   4.819   6.470
  108SOL    HW2 1224   4.598   4.820   6.527
  109SOL     OW 1225   0.448   0.479   1.382
  109SOL    HW1 1226   0.435   0.577   1.398
  109SOL    HW2 1227   0.488   0.465   1.292
  110SOL     OW 1228   3.960   6.607   5.905
  110SOL    HW1 1229   3.950   6.609   5.806
  110SOL    HW2 1230   3.914   6.526   5.942
  111SOL     OW 1231   3.759   0.612   4.874
  111SOL    HW1 1232   3.767   0.707   4.846
  111SOL    HW2 1233   3.667   0.578   4.850
  112SOL     OW 1234   6.403   6.174   6.171
  112SOL    HW1 1235   6.379   6.245   6.106
  112SOL    HW2 1236   6.482   6.123   6.138
  113SOL     OW 1237   6.894   4.952   3.172
  113SOL    HW1 1238   6.850   4.894   3.241
  113SOL    HW2 1239   6.857   5.044   3.178
  114SOL     OW 1240   0.908   6.833   0.767
  114SOL    HW1 1241   0.991   6.808   0.718
  114SOL    HW2 1242   0.892   6.767   0.840
  115SOL     OW 1243   4.583   1.252   4.394
  115SOL    HW1 1244   4.574   1.164   4.441
  115SOL    HW2 1245   4.553   1.326   4.455
  116SOL     OW 1246   6.108   5.376   2.188
  116SOL    HW1 1247   6.199   5.362   2.227
  116SOL    HW2 1248   6.110   5.355   2.091
  117SOL     OW 1249   0.771   1.501   6.234
  117SOL    HW1 1250   0.687   1.458   6.202
  117SOL    HW2 1251   0.835   1.431   6.265
  118SOL     OW 1252   0.548   1.769   2.297
  118SOL    HW1 1253   0.542   1.855   2.348
  118SOL    HW2 1254   0.594   1.700   2.352
  119SOL     OW 1255   0.931   2.039   6.426
  119SOL    HW1 1256   0.992   2.066   6.352
  119SOL    HW2 1257   0.869   1.966   6.394
  120SOL     OW 1258   6.724   6.659   0.126
  120SOL    HW1 1259   6.692   6.568   0.101
  120SOL    HW2 1260   6.686   6.726   0.062
  121SOL     OW 1261   2.643   3.364   7.009
  121SOL    HW1 1262   2.691   3.412   0.059
  121SOL    HW2 1263   2.576   3.301   0.026
  122SOL     OW 1264   1.842   4.573   6.002
  122SOL    HW1 1265   1.819   4.491   6.053
  122SOL    HW2 1266   1.881   4.641   6.065
  123SOL     OW 1267   0.682   1.747   1.586
  123SOL    HW1 1268   0.686   1.667   1.646
  123SOL    HW2 1269   0.761   1.747   1.524
  124SOL     OW 1270   5.130   3.189   0.056
  124SOL    HW1 1271   5.165   3.245   0.131
  124SOL    HW2 1272   5.101   3.100   0.092
  125SOL     OW 1273   2.369   1.643   1.967
  125SOL    HW1 1274   2.373   1.591   2.052
  125SOL    HW2 1275   2.453   1.695   1.955
  126SOL     OW 1276   2.841   4.766   0.776
  126SOL    HW1 1277   2.801   4.686   0.821
  126SOL    HW2 1278   2.888   4.823   0.843
  127SOL     OW 1279   0.298   5.062   6.293
  127SOL    HW1 1280   0.376   5.089   6.237
  127SOL    HW2 1281   0.329   5.008   6.371
  128SOL     OW 1282   4.112   2.761   1.412
  128SOL    HW1 1283   4.149   2.722   1.328
  128SOL    HW2 1284   4.168   2.838   1.441
  129SOL     OW 1285   4.633   3.758   6.029
  129SOL    HW1 1286   4.692   3.771   5.949
  129SOL    HW2 1287   4.678   3.798   6.109
  130SOL     OW 1288   0.580   1.158   4.196
  130SOL    HW1 1289   0.621   1.210   4.270
  130SOL    HW2 1290   0.484   1.140   4.217
  131SOL     OW 1291   5.603   1.252   2.234
  131SOL    HW1 1292   5.600   1.285   2.140
  131SOL    HW2 1293   5.509   1.236   2.267
  132SOL     OW 1294   2.084   3.166   0.822
  132SOL    HW1 1295   2.085   3.067   0.831
  132SOL    HW2 1296   1.990   3.199   0.824
  133SOL     OW 1297   5.123   6.714   3.427
  133SOL    HW1 1298   5.160   6.661   3.504
  133SOL    HW2 1299   5.112   6.809   3.455
  134SOL     OW 1300   5.871   2.248   2.967
  134SOL    HW1 1301   5.865   2.341   2.929
  134SOL    HW2 1302   5.838   2.250   3.061
  135SOL     OW 1303   5.460   2.563   2.223
  135SOL    HW1 1304   5.476   2.464   2.222
  135SOL    HW2 1305   5.382   2.584   2.282
  136SOL     OW 1306   4.067   3.595   6.559
  136SOL    HW1 1307   3.988   3.655   6.546
  136SOL    HW2 1308   4.136   3.643   6.613
  137SOL     OW 1309   4.695   0.604   5.265
  137SOL    HW1 1310   4.630   0.633   5.335
  137SOL    HW2 1311   4.787   0.599   5.305
  138SOL     OW 1312   0.488   4.415   3.730
  138SOL    HW1 1313   0.519   4.322   3.746
  138SOL    HW2 1314   0.564   4.479   3.744
  139SOL     OW 1315   2.236   6.234   5.159
  139SOL    HW1 1316   2.159   6.245   5.097
  139SOL    HW2 1317   2.230   6.145   5.204
  140SOL     OW 1318   0.234   6.234   3.237
  140SOL    HW1 1319   0.154   6.175   3.224
  140SOL    HW2 1320   0.274   6.256   3.148
  141SOL     OW 1321   6.746   2.835   5.450
  141SOL    HW1 1322   6.684   2.794   5.517
  141SOL    HW2 1323   6.744   2.781   5.366
  142SOL     OW 1324   1.737   5.738   0.561
  142SOL    HW1 1325   1.821   5.707   0.605
  142SOL    HW2 1326   1.696   5.811   0.616
  143SOL     OW 1327   5.696   3.981   1.783
  143SOL    HW1 1328   5.767   4.049   1.800
  143SOL    HW2 1329   5.640   3.970   1.865
  144SOL     OW 1330   1.163   6.966   6.506
  144SOL    HW1 1331   1.252   6.935   6.541
  144SOL    HW2 1332   1.119   6.891   6.457
  145SOL     OW 1333   0.576   4.769   0.505
  145SOL    HW1 1334   0.521   4.751   0.586
  145SOL    HW2 1335   0.663   4.810   0.531
  146SOL     OW 1336   4.974   6.820   5.597
  146SOL    HW1 1337   4.947   6.791   5.505
  146SOL    HW2 1338   5.068   6.791   5.614
  147SOL     OW 1339   6.346   2.643   0.100
  147SOL    HW1 1340   6.321   2.737   0.075
  147SOL    HW2 1341   6.264   2.593   0.129
  148SOL     OW 1342   0.500   5.175   6.160
  148SOL    HW1 1343   0.559   5.094   6.162
  148SOL    HW2 1344   0.521   5.230   6.079
  149SOL     OW 1345   2.478   1.297   4.443
  149SOL    HW1 1346   2.422   1.217   4.464
  149SOL    HW2 1347   2.567   1.288   4.488
  150SOL     OW 1348   5.942   4.734   6.035
  150SOL    HW1 1349   6.035   4.757   6.063
  150SOL    HW2 1350   5.883   4.729   6.116
  151SOL     OW 1351   3.565   1.890   1.437
  151SOL    HW1 1352   3.625   1.954   1.390
  151SOL    HW2 1353   3.484   1.874   1.382
  152SOL     OW 1354   1.774   1.292   4.434
  152SOL    HW1 1355   1.715   1.336   4.366
  152SOL    HW2 1356   1.753   1.195   4.440
  153SOL     OW 1357   2.859   0.289   2.114
  153SOL    HW1 1358   2.910   0.367   2.151
  153SOL    HW2 1359   2.888   0.272   2.020
  154SOL     OW 1360   0.518   3.221   2.760
  154SOL    HW1 1361   0.563   3.288   2.820
  154SOL    HW2 1362   0.438   3.263   2.717
  155SOL     OW 1363   0.380   1.692   3.368
  155SOL    HW1 1364   0.328   1.709   3.284
  155SOL    HW2 1365   0.337   1.739   3.445
  156SOL     OW 1366   0.057   1.603   1.620
  156SOL    HW1 1367   0.025   1.654   1.540
  156SOL    HW2 1368   0.107   1.664   1.680
  157SOL     OW 1369   5.702   3.767   2.077
  157SOL    HW1 1370   5.654   3.838   2.026
  157SOL    HW2 1371   5.788   3.744   2.031
  158SOL     OW 1372   2.942   0.319   2.463
  158SOL    HW1 1373   3.018   0.275   2.415
  158SOL    HW2 1374   2.975   0.403   2.507
  159SOL     OW 1375   4.564   4.190   1.172
  159SOL    HW1 1376   4.524   4.280   1.187
  159SOL    HW2 1377   4.575   4.142   1.259
  160SOL     OW 1378   0.166   4.689   6.421
  160SOL    HW1 1379   0.256   4.694   6.377
  160SOL    HW2 1380   0.152   4.770   6.478
  161SOL     OW 1381   1.283   4.979   4.366
  161SOL    HW1 1382   1.371   4.932   4.374
  161SOL    HW2 1383   1.290   5.053   4.300
  162SOL     OW 1384   4.291   6.239   6.934
  162SOL    HW1 1385   4.316   6.336   6.934
  162SOL    HW2 1386   4.353   6.188   6.993
  163SOL     OW 1387   5.072   5.650   1.379
  163SOL    HW1 1388   4.978   5.678   1.401
  163SOL    HW2 1389   5.094   5.567   1.431
  164SOL     OW 1390   6.693   4.061   1.430
  164SOL    HW1 1391   6.665   3.967   1.450
  164SOL    HW2 1392   6.622   4.107   1.378
  165SOL     OW 1393   5.365   3.110   1.180
  165SOL    HW1 1394   5.403   3.131   1.270
  165SOL    HW2 1395   5.266   3.128   1.181
  166SOL     OW 1396   0.375   4.813   3.758
  166SOL    HW1 1397   0.372   4.880   3.683
  166SOL    HW2 1398   0.282   4.797   3.791
  167SOL     OW 1399   6.023   1.827   0.688
  167SOL    HW1 1400   6.057   1.921   0.677
  167SOL    HW2 1401   5.926   1.830   0.711
  168SOL     OW 1402   2.787   3.398   1.057
  168SOL    HW1 1403   2.878   3.358   1.063
  168SOL    HW2 1404   2.725   3.334   1.012
  169SOL     OW 1405   3.779   0.189   2.382
  169SOL    HW1 1406   3.826   0.270   2.346
  169SOL    HW2 1407   3.711   0.217   2.449
  170SOL     OW 1408   0.145   1.962   3.299
  170SOL    HW1 1409   0.187   1.917   3.221
  170SOL    HW2 1410   0.051   1.929   3.310
  171SOL     OW 1411   3.872   4.516   0.407
  171SOL    HW1 1412   3.827   4.426   0.412
  171SOL    HW2 1413   3.967   4.504   0.380
  172SOL     OW 1414   6.150   1.969   4.457
  172SOL    HW1 1415   6.078   2.016   4.508
  172SOL    HW2 1416   6.183   1.891   4.510
  173SOL     OW 1417   6.298   1.167   4.423
  173SOL    HW1 1418   6.238   1.247   4.419
  173SOL    HW2 1419   6.299   1.122   4.333
  174SOL     OW 1420   2.753   5.548   4.086
  174SOL    HW1 1421   2.732   5.451   4.095
  174SOL    HW2 1422   2.683   5.602   4.133
  175SOL     OW 1423   1.767   6.774   1.967
  175SOL    HW1 1424   1.698   6.787   2.038
  175SOL    HW2 1425   1.763   6.680   1.933
  176SOL     OW 1426   1.369   4.126   0.448
  176SOL    HW1 1427   1.404   4.160   0.535
  176SOL    HW2 1428   1.390   4.029   0.439
  177SOL     OW 1429   5.938   2.885   2.600
  177SOL    HW1 1430   5.955   2.864   2.503
  177SOL    HW2 1431   6.014   2.937   2.637
  178SOL     OW 1432   4.930   3.300   5.919
  178SOL    HW1 1433   5.009   3.272   5.862
  178SOL    HW2 1434   4.953   3.383   5.969
  179SOL     OW 1435   2.999   1.843   6.208
  179SOL    HW1 1436   3.029   1.750   6.184
  179SOL    HW2 1437   2.996   1.851   6.308
  180SOL     OW 1438   1.236   0.354   6.590
  180SOL    HW1 1439   1.201   0.407   6.513
  180SOL    HW2 1440   1.253   0.416   6.667
  181SOL     OW 1441   3.482   1.131   0.041
  181SOL    HW1 1442   3.388   1.116   0.011
  181SOL    HW2 1443   3.539   1.155   6.986
  182SOL     OW 1444   4.117   1.990   4.677
  182SOL    HW1 1445   4.065   2.071   4.705
  182SOL    HW2 1446   4.157   1.947   4.758
  183SOL     OW 1447   3.536   1.348   3.937
  183SOL    HW1 1448   3.571   1.416   4.000
  183SOL    HW2 1449   3.595   1.345   3.856
  184SOL     OW 1450   1.245   5.608   3.745
  184SOL    HW1 1451   1.201   5.696   3.729
  184SOL    HW2 1452   1.279   5.571   3.658
  185SOL     OW 1453   1.169   2.815   6.514
  185SOL    HW1 1454   1.107   2.815   6.436
  185SOL    HW2 1455   1.153   2.897   6.570
  186SOL     OW 1456   6.803   1.408   3.655
  186SOL    HW1 1457   6.726   1.374   3.709
  186SOL    HW2 1458   6.807   1.359   3.568
  187SOL     OW 1459   4.647   0.852   3.219
  187SOL    HW1 1460   4.610   0.846   3.126
  187SOL    HW2 1461   4.634   0.945   3.253
  188SOL     OW 1462   6.191   1.946   3.347
  188SOL    HW1 1463   6.142   1.992   3.421
  188SOL    HW2 1464   6.289   1.947   3.366
  189SOL     OW 1465   1.542   5.434   3.121
  189SOL    HW1 1466   1.559   5.452   3.024
  189SOL    HW2 1467   1.571   5.514   3.174
  190SOL     OW 1468   4.038   1.404   5.160
  190SOL    HW1 1469   3.967   1.472   5.179
  190SOL    HW2 1470   4.007   1.314   5.192
  191SOL     OW 1471   5.393   5.588   6.449
  191SOL    HW1 1472   5.348   5.619   6.366
  191SOL    HW2 1473   5.327   5.541   6.508
  192SOL     OW 1474   0.051   5.702   1.867
  192SOL    HW1 1475   6.992   5.666   1.912
  192SOL    HW2 1476   0.060   5.661   1.777
  193SOL     OW 1477   4.919   2.695   5.376
  193SOL    HW1 1478   4.998   2.736   5.422
  193SOL    HW2 1479   4.835   2.732   5.414
  194SOL     OW 1480   3.635   0.958   2.887
  194SOL    HW1 1481   3.560   0.906   2.927
  194SOL    HW2 1482   3.673   0.908   2.809
  195SOL     OW 1483   2.127   5.921   3.624
  195SOL    HW1 1484   2.156   5.986   3.694
  195SOL    HW2 1485   2.189   5.842   3.625
  196SOL     OW 1486   2.363   2.350   7.016
  196SOL    HW1 1487   2.409   2.360   6.928
  196SOL    HW2 1488   2.264   2.352   7.002
  197SOL     OW 1489   2.379   1.348   0.374
  197SOL    HW1 1490   2.373   1.248   0.374
  197SOL    HW2 1491   2.300   1.386   0.423
  198SOL     OW 1492   4.491   1.711   3.219
  198SOL    HW1 1493   4.569   1.756   3.262
  198SOL    HW2 1494   4.437   1.778   3.168
  199SOL     OW 1495   1.123   2.518   3.777
  199SOL    HW1 1496   1.216   2.517   3.813
  199SOL    HW2 1497   1.125   2.525   3.678
  200SOL     OW 1498   1.085   3.100   0.966
  200SOL    HW1 1499   1.129   3.175   0.917
  200SOL    HW2 1500   1.152   3.029   0.986
  201SOL     OW 1501   0.216   6.975   5.364
  201SOL    HW1 1502   0.126   6.967   5.407
  201SOL    HW2 1503   0.268   0.023   5.411
  202SOL     OW 1504   4.078   1.635   6.857
  202SOL    HW1 1505   4.111   1.622   6.763
  202SOL    HW2 1506   4.075   1.732   6.879
  203SOL     OW 1507   5.758   2.254   5.509
  203SOL    HW1 1508   5.706   2.171   5.487
  203SOL    HW2 1509   5.789   2.249   5.603
  204SOL     OW 1510   0.691   7.015   5.307
  204SOL    HW1 1511   0.766   6.970   5.259
  204SOL    HW2 1512   0.643   0.053   5.244
  205SOL     OW 1513   1.658   2.567   2.695
  205SOL    HW1 1514   1.579   2.508   2.712
  205SOL    HW2 1515   1.733   2.541   2.756
  206SOL     OW 1516   0.803   3.249   1.485
  206SOL    HW1 1517   0.779   3.324   1.547
  206SOL    HW2 1518   0.764   3.267   1.394
  207SOL     OW 1519   5.229   1.082   3.184
  207SOL    HW1 1520   5.323   1.056   3.204
  207SOL    HW2 1521   5.183   1.108   3.269
  208SOL     OW 1522   7.003   4.178   5.540
  208SOL    HW1 1523   6.999   4.078   5.537
  208SOL    HW2 1524   0.045   4.210   5.470
  209SOL     OW 1525   6.601   4.343   3.118
  209SOL    HW1 1526   6.515   4.355   3.068
  209SOL    HW2 1527   6.618   4.245   3.129
  210SOL     OW 1528   4.204   1.778   0.616
  210SOL    HW1 1529   4.277   1.712   0.630
  210SOL    HW2 1530   4.123   1.731   0.581
  211SOL     OW 1531   0.969   6.932   2.571
  211SOL    HW1 1532   0.888   6.947   2.628
  211SOL    HW2 1533   1.007   7.021   2.545
  212SOL     OW 1534   1.511   3.708   2.433
  212SOL    HW1 1535   1.514   3.800   2.472
  212SOL    HW2 1536   1.586   3.653   2.470
  213SOL     OW 1537   1.774   5.942   0.959
  213SOL    HW1 1538   1.873   5.935   0.945
  213SOL    HW2 1539   1.728   5.937   0.870
  214SOL     OW 1540   3.591   5.098   2.561
  214SOL    HW1 1541   3.563   5.113   2.466
  214SOL    HW2 1542   3.533   5.027   2.602
  215SOL     OW 1543   2.508   4.217   1.457
  215SOL    HW1 1544   2.414   4.189   1.439
  215SOL    HW2 1545   2.539   4.176   1.543
  216SOL     OW 1546   0.670   6.496   2.928
  216SOL    HW1 1547   0.646   6.515   3.023
  216SOL    HW2 1548   0.636   6.569   2.869
  217SOL     OW 1549   1.382   2.447   5.117
  217SOL    HW1 1550   1.371   2.393   5.200
  217SOL    HW2 1551   1.312   2.422   5.051
  218SOL     OW 1552   0.707   2.243   4.512
  218SOL    HW1 1553   0.612   2.272   4.503
  218SOL    HW2 1554   0.718   2.188   4.594
  219SOL     OW 1555   4.541   0.409   0.731
  219SOL    HW1 1556   4.576   0.458   0.650
  219SOL    HW2 1557   4.552   0.467   0.812
  220SOL     OW 1558   2.462   6.952   0.962
  220SOL    HW1 1559   2.562   6.958   0.957
  220SOL    HW2 1560   2.423   0.020   0.946
  221SOL     OW 1561   6.073   4.313   1.468
  221SOL    HW1 1562   6.131   4.341   1.391
  221SOL    HW2 1563   5.979   4.306   1.437
  222SOL     OW 1564   1.692   4.417   6.180
  222SOL    HW1 1565   1.595   4.407   6.204
  222SOL    HW2 1566   1.746   4.426   6.264
  223SOL     OW 1567   6.839   2.781   5.094
  223SOL    HW1 1568   6.767   2.711   5.091
  223SOL    HW2 1569   6.927   2.739   5.071
  224SOL     OW 1570   3.366   1.408   6.617
  224SOL    HW1 1571   3.340   1.339   6.685
  224SOL    HW2 1572   3.297   1.412   6.545
  225SOL     OW 1573   4.348   3.921   6.290
  225SOL    HW1 1574   4.249   3.934   6.285
  225SOL    HW2 1575   4.394   3.997   6.243
  226SOL     OW 1576   0.561   1.992   5.995
  226SOL    HW1 1577   0.483   2.055   6.005
  226SOL    HW2 1578   0.555   1.922   6.066
  227SOL     OW 1579   2.394   4.360   2.752
  227SOL    HW1 1580   2.443   4.423   2.691
  227SOL    HW2 1581   2.322   4.314   2.701
  228SOL     OW 1582   1.796   0.777   3.118
  228SOL    HW1 1583   1.855   0.758   3.039
  228SOL    HW2 1584   1.731   0.702   3.130
  229SOL     OW 1585   5.280   5.302   6.100
  229SOL    HW1 1586   5.213   5.374   6.083
  229SOL    HW2 1587   5.274   5.272   6.195
  230SOL     OW 1588   4.481   5.906   4.180
  230SOL    HW1 1589   4.576   5.897   4.210
  230SOL    HW2 1590   4.471   5.870   4.087
  231SOL     OW 1591   6.011   1.048   6.832
  231SOL    HW1 1592   6.041   1.069   6.738
  231SOL    HW2 1593   6.084   1.072   6.896
  232SOL     OW 1594   0.049   3.013   6.547
  232SOL    HW1 1595   0.010   3.011   6.639
  232SOL    HW2 1596   0.149   3.011   6.552
  233SOL     OW 1597   3.618   1.750   3.346
  233SOL    HW1 1598   3.574   1.712   3.265
  233SOL    HW2 1599   3.554   1.749   3.423
  234SOL     OW 1600   6.392   0.915   6.035
  234SOL    HW1 1601   6.292   0.912   6.033
  234SOL    HW2 1602   6.427   0.834   6.083
  235SOL     OW 1603   5.026   3.425   2.339
  235SOL    HW1 1604   5.040   3.387   2.431
  235SOL    HW2 1605   5.091   3.383   2.276
  236SOL     OW 1606   5.019   3.074   6.830
  236SOL    HW1 1607   5.072   2.988   6.831
  236SOL    HW2 1608   5.007   3.107   6.924
  237SOL     OW 1609   0.205   4.284   2.314
  237SOL    HW1 1610   0.267   4.279   2.393
  237SOL    HW2 1611   0.131   4.219   2.327
  238SOL     OW 1612   6.245   1.455   0.729
  238SOL    HW1 1613   6.336   1.415   0.717
  238SOL    HW2 1614   6.222   1.458   0.826
  239SOL     OW 1615   1.188   3.851   6.924
  239SOL    HW1 1616   1.208   3.757   6.896
  239SOL    HW2 1617   1.217   3.865   7.018
  240SOL     OW 1618   0.486   2.750   3.311
  240SOL    HW1 1619   0.557   2.767   3.243
  240SOL    HW2 1620   0.460   2.836   3.354
  241SOL     OW 1621   2.704   2.078   4.666
  241SOL    HW1 1622   2.637   2.129   4.721
  241SOL    HW2 1623   2.715   1.986   4.704
  242SOL     OW 1624   3.711   3.537   3.479
  242SOL    HW1 1625   3.785   3.575   3.534
  242SOL    HW2 1626   3.628   3.590   3.495
  243SOL     OW 1627   4.680   2.014   0.456
  243SOL    HW1 1628   4.617   2.064   0.515
  243SOL    HW2 1629   4.763   1.990   0.508
  244SOL     OW 1630   6.144   3.770   5.712
  244SOL    HW1 1631   6.137   3.869   5.696
  244SOL    HW2 1632   6.167   3.724   5.626
  245SOL     OW 1633   4.627   1.833   3.808
  245SOL    HW1 1634   4.538   1.877   3.822
  245SOL    HW2 1635   4.699   1.902   3.813
  246SOL     OW 1636   5.002   1.741   3.369
  246SOL    HW1 1637   5.059   1.784   3.300
  246SOL    HW2 1638   5.011   1.641   3.362
  247SOL     OW 1639   2.496   1.672   1.069
  247SOL    HW1 1640   2.523   1.600   1.005
  247SOL    HW2 1641   2.574   1.732   1.088
  248SOL     OW 1642   2.296   1.137   2.900
  248SOL    HW1 1643   2.257   1.189   2.824
  248SOL    HW2 1644   2.226   1.077   2.938
  249SOL     OW 1645   5.238   6.775   5.589
  249SOL    HW1 1646   5.283   6.700   5.540
  249SOL    HW2 1647   5.232   6.855   5.531
  250SOL     OW 1648   4.283   4.018   0.518
  250SOL    HW1 1649   4.323   3.930   0.495
  250SOL    HW2 1650   4.286   4.033   0.617
  251SOL     OW 1651   4.589   3.421   5.343
  251SOL    HW1 1652   4.601   3.450   5.438
  251SOL    HW2 1653   4.614   3.496   5.282
  252SOL     OW 1654   6.323   6.782   5.434
  252SOL    HW1 1655   6.254   6.731   5.383
  252SOL    HW2 1656   6.380   6.718   5.486
  253SOL     OW 1657   3.910   4.891   6.335
  253SOL    HW1 1658   3.844   4.886   6.260
  253SOL    HW2 1659   3.960   4.805   6.341
  254SOL     OW 1660   6.928   2.615   3.540
  254SOL    HW1 1661   6.973   2.690   3.493
  254SOL    HW2 1662   6.965   2.605   3.633
  255SOL     OW 1663   2.180   4.207   5.781
  255SOL    HW1 1664   2.258   4.218   5.720
  255SOL    HW2 1665   2.103   4.168   5.730
  256SOL     OW 1666   5.854   3.169   6.312
  256SOL    HW1 1667   5.886   3.180   6.406
  256SOL    HW2 1668   5.833   3.072   6.295
  257SOL     OW 1669   5.170   6.996   2.898
  257SOL    HW1 1670   5.088   0.015   2.937
  257SOL    HW2 1671   5.248   0.034   2.912
  258SOL     OW 1672   2.371   4.020   5.492
  258SOL    HW1 1673   2.420   3.933   5.504
  258SOL    HW2 1674   2.361   4.039   5.395
  259SOL     OW 1675   6.025   1.140   2.128
  259SOL    HW1 1676   6.001   1.227   2.085
  259SOL    HW2 1677   6.122   1.141   2.155
  260SOL     OW 1678   4.203   5.983   3.262
  260SOL    HW1 1679   4.151   5.932   3.330
  260SOL    HW2 1680   4.156   6.069   3.242
  261SOL     OW 1681   5.019   3.970   1.659
  261SOL    HW1 1682   5.076   3.895   1.628
  261SOL    HW2 1683   4.948   3.934   1.720
  262SOL     OW 1684   1.196   3.803   0.242
  262SOL    HW1 1685   1.113   3.781   0.293
  262SOL    HW2 1686   1.226   3.896   0.266
  263SOL     OW 1687   1.597   0.878   4.346
  263SOL    HW1 1688   1.591   0.950   4.415
  263SOL    HW2 1689   1.567   0.915   4.257
  264SOL     OW 1690   6.536   2.443   0.322
  264SOL    HW1 1691   6.539   2.348   0.292
  264SOL    HW2 1692   6.554   2.448   0.420
  265SOL     OW 1693   6.153   6.706   2.405
  265SOL    HW1 1694   6.194   6.689   2.495
  265SOL    HW2 1695   6.145   6.619   2.355
  266SOL     OW 1696   4.508   2.855   5.768
  266SOL    HW1 1697   4.410   2.838   5.756
  266SOL    HW2 1698   4.520   2.932   5.831
  267SOL     OW 1699   0.767   1.901   5.812
  267SOL    HW1 1700   0.795   1.832   5.879
  267SOL    HW2 1701   0.690   1.953   5.848
  268SOL     OW 1702   2.818   1.014   6.192
  268SOL    HW1 1703   2.784   0.999   6.285
  268SOL    HW2 1704   2.742   1.043   6.133
  269SOL     OW 1705   2.065   4.059   0.751
  269SOL    HW1 1706   2.138   4.000   0.787
  269SOL    HW2 1707   2.085   4.080   0.655
  270SOL     OW 1708   0.790   6.171   0.569
  270SOL    HW1 1709   0.704   6.134   0.533
  270SOL    HW2 1710   0.819   6.118   0.649
  271SOL     OW 1711   0.129   1.633   6.159
  271SOL    HW1 1712   0.223   1.651   6.128
  271SOL    HW2 1713   0.074   1.600   6.082
  272SOL     OW 1714   3.548   6.753   3.868
  272SOL    HW1 1715   3.481   6.700   3.815
  272SOL    HW2 1716   3.571   6.836   3.818
  273SOL     OW 1717   2.099   4.640   4.951
  273SOL    HW1 1718   2.015   4.684   4.982
  273SOL    HW2 1719   2.077   4.561   4.894
  274SOL     OW 1720   3.633   1.308   3.414
  274SOL    HW1 1721   3.636   1.212   3.386
  274SOL    HW2 1722   3.542   1.345   3.396
  275SOL     OW 1723   6.203   6.189   2.447
  275SOL    HW1 1724   6.211   6.226   2.539
  275SOL    HW2 1725   6.107   6.184   2.421
  276SOL     OW 1726   0.107   6.757   3.906
  276SOL    HW1 1727   0.062   6.829   3.854
  276SOL    HW2 1728   0.175   6.797   3.968
  277SOL     OW 1729   2.170   4.056   0.274
  277SOL    HW1 1730   2.073   4.080   0.283
  277SOL    HW2 1731   2.212   4.054   0.364
  278SOL     OW 1732   6.996   3.521   2.310
  278SOL    HW1 1733   0.048   3.584   2.331
  278SOL    HW2 1734   0.010   3.431   2.290
  279SOL     OW 1735   5.849   2.964   4.630
  279SOL    HW1 1736   5.909   2.981   4.552
  279SOL    HW2 1737   5.834   2.865   4.638
  280SOL     OW 1738   2.956   5.473   1.743
  280SOL    HW1 1739   2.925   5.546   1.803
  280SOL    HW2 1740   2.887   5.399   1.741
  281SOL     OW 1741   2.291   4.771   1.870
  281SOL    HW1 1742   2.254   4.750   1.961
  281SOL    HW2 1743   2.372   4.716   1.854
  282SOL     OW 1744   2.781   1.399   5.529
  282SOL    HW1 1745   2.825   1.407   5.439
  282SOL    HW2 1746   2.813   1.316   5.575
  283SOL     OW 1747   6.365   2.379   6.549
  283SOL    HW1 1748   6.442   2.315   6.558
  283SOL    HW2 1749   6.334   2.407   6.640
  284SOL     OW 1750   1.341   3.436   4.001
  284SOL    HW1 1751   1.416   3.414   4.064
  284SOL    HW2 1752   1.339   3.535   3.986
  285SOL     OW 1753   5.314   4.832   3.922
  285SOL    HW1 1754   5.344   4.756   3.980
  285SOL    HW2 1755   5.316   4.917   3.974
  286SOL     OW 1756   3.306   4.349   6.820
  286SOL    HW1 1757   3.277   4.257   6.794
  286SOL    HW2 1758   3.323   4.351   6.919
  287SOL     OW 1759   1.022   2.979   1.279
  287SOL    HW1 1760   0.977   2.892   1.299
  287SOL    HW2 1761   0.969   3.029   1.212
  288SOL     OW 1762   3.897   1.361   7.017
  288SOL    HW1 1763   3.812   1.337   6.971
  288SOL    HW2 1764   3.956   1.411   6.953
  289SOL     OW 1765   1.680   4.084   5.328
  289SOL    HW1 1766   1.677   4.094   5.428
  289SOL    HW2 1767   1.680   3.987   5.304
  290SOL     OW 1768   6.161   1.875   4.835
  290SOL    HW1 1769   6.145   1.931   4.754
  290SOL    HW2 1770   6.139   1.928   4.917
  291SOL     OW 1771   0.517   1.741   4.265
  291SOL    HW1 1772   0.437   1.793   4.296
  291SOL    HW2 1773   0.601   1.789   4.290
  292SOL     OW 1774   1.582   1.147   2.992
  292SOL    HW1 1775   1.523   1.195   3.057
  292SOL    HW2 1776   1.552   1.166   2.899
  293SOL     OW 1777   4.448   6.074   3.262
  293SOL    HW1 1778   4.455   6.136   3.184
  293SOL    HW2 1779   4.357   6.033   3.264
  294SOL     OW 1780   5.903   5.730   6.814
  294SOL    HW1 1781   5.806   5.735   6.839
  294SOL    HW2 1782   5.922   5.641   6.773
  295SOL     OW 1783   3.580   0.622   3.068
  295SOL    HW1 1784   3.554   0.533   3.106
  295SOL    HW2 1785   3.631   0.608   2.984
  296SOL     OW 1786   3.421   1.132   2.705
  296SOL    HW1 1787   3.354   1.202   2.680
  296SOL    HW2 1788   3.453   1.148   2.798
  297SOL     OW 1789   2.210   4.902   3.472
  297SOL    HW1 1790   2.277   4.967   3.510
  297SOL    HW2 1791   2.235   4.880   3.378
  298SOL     OW 1792   4.765   6.019   1.440
  298SOL    HW1 1793   4.805   6.079   1.509
  298SOL    HW2 1794   4.835   5.993   1.373
  299SOL     OW 1795   5.822   3.146   5.398
  299SOL    HW1 1796   5.864   3.144   5.307
  299SOL    HW2 1797   5.884   3.191   5.462
  300SOL     OW 1798   6.483   0.807   3.015
  300SOL    HW1 1799   6.509   0.777   3.106
  300SOL    HW2 1800   6.383   0.812   3.009
  301SOL     OW 1801   5.558   3.711   0.113
  301SOL    HW1 1802   5.646   3.757   0.120
  301SOL    HW2 1803   5.487   3.771   0.151
  302SOL     OW 1804   1.303   0.263   3.586
  302SOL    HW1 1805   1.388   0.265   3.638
  302SOL    HW2 1806   1.272   0.356   3.569
  303SOL     OW 1807   5.353   0.948   1.994
  303SOL    HW1 1808   5.422   0.968   2.064
  303SOL    HW2 1809   5.278   0.896   2.035
  304SOL     OW 1810   1.930   0.417   2.934
  304SOL    HW1 1811   1.861   0.483   2.967
  304SOL    HW2 1812   1.888   0.358   2.865
  305SOL     OW 1813   0.689   3.791   0.006
  305SOL    HW1 1814   0.598   3.754   7.012
  305SOL    HW2 1815   0.712   3.858   6.957
  306SOL     OW 1816   1.606   1.356   4.223
  306SOL    HW1 1817   1.608   1.291   4.147
  306SOL    HW2 1818   1.670   1.431   4.204
  307SOL     OW 1819   4.928   0.050   1.169
  307SOL    HW1 1820   4.971   0.139   1.154
  307SOL    HW2 1821   4.992   7.012   1.216
  308SOL     OW 1822   0.178   5.515   3.747
  308SOL    HW1 1823   0.178   5.457   3.829
  308SOL    HW2 1824   0.220   5.603   3.769
  309SOL     OW 1825   3.608   4.299   5.318
  309SOL    HW1 1826   3.529   4.361   5.315
  309SOL    HW2 1827   3.668   4.318   5.240
  310SOL     OW 1828   6.565   6.661   6.005
  310SOL    HW1 1829   6.489   6.711   5.963
  310SOL    HW2 1830   6.640   6.725   6.024
  311SOL     OW 1831   6.660   5.226   1.910
  311SOL    HW1 1832   6.715   5.226   1.993
  311SOL    HW2 1833   6.618   5.136   1.897
  312SOL     OW 1834   4.763   1.608   4.736
  312SOL    HW1 1835   4.702   1.687   4.746
  312SOL    HW2 1836   4.848   1.637   4.692
  313SOL     OW 1837   2.520   4.057   1.692
  313SOL    HW1 1838   2.445   4.005   1.733
  313SOL    HW2 1839   2.587   3.993   1.654
  314SOL     OW 1840   3.689   5.493   0.472
  314SOL    HW1 1841   3.766   5.530   0.421
  314SOL    HW2 1842   3.709   5.496   0.570
  315SOL     OW 1843   0.615   2.498   3.281
  315SOL    HW1 1844   0.581   2.487   3.188
  315SOL    HW2 1845   0.560   2.568   3.328
  316SOL     OW 1846   2.285   2.920   4.101
  316SOL    HW1 1847   2.257   2.935   4.195
  316SOL    HW2 1848   2.371   2.868   4.100
  317SOL     OW 1849   0.588   1.393   6.971
  317SOL    HW1 1850   0.594   1.366   6.875
  317SOL    HW2 1851   0.496   1.427   6.991
  318SOL     OW 1852   1.503   4.870   1.080
  318SOL    HW1 1853   1.528   4.955   1.034
  318SOL    HW2 1854   1.490   4.888   1.178
  319SOL     OW 1855   0.873   6.733   1.917
  319SOL    HW1 1856   0.930   6.815   1.911
  319SOL    HW2 1857   0.800   6.747   1.983
  320SOL     OW 1858   6.102   2.551   0.145
  320SOL    HW1 1859   6.053   2.616   0.087
  320SOL    HW2 1860   6.054   2.463   0.145
  321SOL     OW 1861   1.849   1.877   2.038
  321SOL    HW1 1862   1.908   1.861   2.117
  321SOL    HW2 1863   1.904   1.884   1.955
  322SOL     OW 1864   3.645   2.859   4.186
  322SOL    HW1 1865   3.630   2.932   4.118
  322SOL    HW2 1866   3.573   2.863   4.255
  323SOL     OW 1867   0.490   4.037   0.854
  323SOL    HW1 1868   0.483   4.101   0.931
  323SOL    HW2 1869   0.566   4.063   0.795
  324SOL     OW 1870   0.911   2.665   4.369
  324SOL    HW1 1871   0.947   2.754   4.396
  324SOL    HW2 1872   0.921   2.654   4.270
  325SOL     OW 1873   1.934   3.284   1.120
  325SOL    HW1 1874   1.938   3.382   1.100
  325SOL    HW2 1875   2.007   3.260   1.183
  326SOL     OW 1876   1.657   6.423   6.729
  326SOL    HW1 1877   1.624   6.367   6.653
  326SOL    HW2 1878   1.723   6.371   6.783
  327SOL     OW 1879   0.263   4.728   4.827
  327SOL    HW1 1880   0.178   4.735   4.775
  327SOL    HW2 1881   0.341   4.727   4.764
  328SOL     OW 1882   3.808   5.250   2.712
  328SOL    HW1 1883   3.712   5.228   2.697
  328SOL    HW2 1884   3.860   5.234   2.628
  329SOL     OW 1885   2.935   3.735   3.485
  329SOL    HW1 1886   2.893   3.652   3.448
  329SOL    HW2 1887   2.932   3.807   3.416
  330SOL     OW 1888   3.020   6.988   1.845
  330SOL    HW1 1889   3.120   6.999   1.850
  330SOL    HW2 1890   2.997   6.938   1.762
  331SOL     OW 1891   4.277   5.409   6.224
  331SOL    HW1 1892   4.373   5.381   6.230
  331SOL    HW2 1893   4.240   5.423   6.316
  332SOL     OW 1894   3.203   1.725   3.439
  332SOL    HW1 1895   3.105   1.744   3.449
  332SOL    HW2 1896   3.215   1.630   3.410
  333SOL     OW 1897   4.228   0.010   5.787
  333SOL    HW1 1898   4.205   6.965   5.717
  333SOL    HW2 1899   4.254   6.986   5.871
  334SOL     OW 1900   3.478   6.887   2.206
  334SOL    HW1 1901   3.435   6.797   2.207
  334SOL    HW2 1902   3.437   6.944   2.277
  335SOL     OW 1903   3.914   6.012   3.751
  335SOL    HW1 1904   3.901   5.915   3.768
  335SOL    HW2 1905   3.849   6.042   3.680
  336SOL     OW 1906   1.940   1.200   2.936
  336SOL    HW1 1907   1.841   1.206   2.943
  336SOL    HW2 1908   1.971   1.113   2.973
  337SOL     OW 1909   0.124   3.253   1.485
  337SOL    HW1 1910   0.190   3.288   1.552
  337SOL    HW2 1911   0.165   3.257   1.394
  338SOL     OW 1912   3.030   2.922   1.825
  338SOL    HW1 1913   3.104   2.886   1.883
  338SOL    HW2 1914   3.066   2.995   1.768
  339SOL     OW 1915   3.653   0.302   3.072
  339SOL    HW1 1916   3.740   0.270   3.034
  339SOL    HW2 1917   3.602   0.224   3.107
  340SOL     OW 1918   5.693   4.508   4.840
  340SOL    HW1 1919   5.698   4.608   4.847
  340SOL    HW2 1920   5.723   4.479   4.749
  341SOL     OW 1921   5.349   6.375   4.236
  341SOL    HW1 1922   5.311   6.425   4.159
  341SOL    HW2 1923   5.431   6.326   4.207
  342SOL     OW 1924   5.482   4.510   6.862
  342SOL    HW1 1925   5.580   4.500   6.842
  342SOL    HW2 1926   5.430   4.448   6.804
  343SOL     OW 1927   3.203   6.522   2.023
  343SOL    HW1 1928   3.223   6.425   2.035
  343SOL    HW2 1929   3.232   6.551   1.932
  344SOL     OW 1930   1.993   5.113   0.591
  344SOL    HW1 1931   1.996   5.170   0.672
  344SOL    HW2 1932   1.959   5.022   0.615
  345SOL     OW 1933   0.688   0.578   5.360
  345SOL    HW1 1934   0.690   0.499   5.421
  345SOL    HW2 1935   0.599   0.582   5.314
  346SOL     OW 1936   1.645   0.248   2.972
  346SOL    HW1 1937   1.608   0.204   3.053
  346SOL    HW2 1938   1.570   0.279   2.914
  347SOL     OW 1939   5.739   6.790   6.445
  347SOL    HW1 1940   5.806   6.735   6.494
  347SOL    HW2 1941   5.647   6.758   6.467
  348SOL     OW 1942   4.190   5.386   1.153
  348SOL    HW1 1943   4.138   5.355   1.073
  348SOL    HW2 1944   4.226   5.307   1.202
  349SOL     OW 1945   0.512   4.352   2.674
  349SOL    HW1 1946   0.585   4.314   2.617
  349SOL    HW2 1947   0.455   4.412   2.619
  350SOL     OW 1948   3.937   3.637   1.586
  350SOL    HW1 1949   3.859   3.700   1.588
  350SOL    HW2 1950   4.011   3.674   1.642
  351SOL     OW 1951   2.757   1.902   0.481
  351SOL    HW1 1952   2.815   1.821   0.492
  351SOL    HW2 1953   2.691   1.906   0.556
  352SOL     OW 1954   3.666   0.509   5.341
  352SOL    HW1 1955   3.632   0.419   5.368
  352SOL    HW2 1956   3.616   0.540   5.261
  353SOL     OW 1957   2.133   6.512   0.722
  353SOL    HW1 1958   2.122   6.504   0.623
  353SOL    HW2 1959   2.072   6.583   0.757
  354SOL     OW 1960   4.102   2.272   0.486
  354SOL    HW1 1961   4.096   2.269   0.585
  354SOL    HW2 1962   4.143   2.187   0.452
  355SOL     OW 1963   0.053   2.961   2.856
  355SOL    HW1 1964   0.121   2.893   2.880
  355SOL    HW2 1965   0.024   2.947   2.761
  356SOL     OW 1966   4.852   5.200   4.987
  356SOL    HW1 1967   4.808   5.265   5.049
  356SOL    HW2 1968   4.942   5.175   5.022
  357SOL     OW 1969   0.413   5.927   5.304
  357SOL    HW1 1970   0.496   5.888   5.344
  357SOL    HW2 1971   0.437   5.988   5.229
  358SOL     OW 1972   6.699   0.353   1.450
  358SOL    HW1 1973   6.695   0.255   1.472
  358SOL    HW2 1974   6.630   0.402   1.503
  359SOL     OW 1975   1.218   2.502   2.520
  359SOL    HW1 1976   1.198   2.542   2.430
  359SOL    HW2 1977   1.253   2.573   2.581
  360SOL     OW 1978   4.264   6.862   6.540
  360SOL    HW1 1979   4.350   6.825   6.575
  360SOL    HW2 1980   4.191   6.845   6.606
  361SOL     OW 1981   5.167   5.793   3.149
  361SOL    HW1 1982   5.112   5.860   3.199
  361SOL    HW2 1983   5.212   5.839   3.072
  362SOL     OW 1984   2.667   4.407   0.235
  362SOL    HW1 1985   2.725   4.488   0.233
  362SOL    HW2 1986   2.585   4.422   0.179
  363SOL     OW 1987   3.714   4.947   4.457
  363SOL    HW1 1988   3.809   4.941   4.427
  363SOL    HW2 1989   3.711   4.947   4.557
  364SOL     OW 1990   1.056   5.706   5.665
  364SOL    HW1 1991   1.150   5.739   5.657
  364SOL    HW2 1992   1.056   5.609   5.689
  365SOL     OW 1993   5.299   5.547   2.428
  365SOL    HW1 1994   5.355   5.481   2.378
  365SOL    HW2 1995   5.211   5.506   2.450
  366SOL     OW 1996   6.534   1.281   0.171
  366SOL    HW1 1997   6.534   1.198   0.115
  366SOL    HW2 1998   6.463   1.343   0.137
  367SOL     OW 1999   5.115   3.189   1.156
  367SOL    HW1 2000   5.107   3.166   1.059
  367SOL    HW2 2001   5.074   3.278   1.173
  368SOL     OW 2002   1.501   4.278   5.175
  368SOL    HW1 2003   1.529   4.340   5.102
  368SOL    HW2 2004   1.563   4.199   5.178
  369SOL     OW 2005   6.394   4.178   1.759
  369SOL    HW1 2006   6.455   4.254   1.734
  369SOL    HW2 2007   6.448   4.106   1.803
  370SOL     OW 2008   2.484   0.556   5.860
  370SOL    HW1 2009   2.470   0.640   5.912
  370SOL    HW2 2010   2.576   0.557   5.821
  371SOL     OW 2011   2.702   3.223   0.356
  371SOL    HW1 2012   2.657   3.202   0.269
  371SOL    HW2 2013   2.798   3.196   0.350
  372SOL     OW 2014   0.038   0.214   5.090
  372SOL    HW1 2015   0.077   0.282   5.151
  372SOL    HW2 2016   0.101   0.136   5.083
  373SOL     OW 2017   0.212   5.875   0.060
  373SOL    HW1 2018   0.261   5.791   0.084
  373SOL    HW2 2019   0.247   5.950   0.115
  374SOL     OW 2020   3.456   0.409   2.848
  374SOL    HW1 2021   3.406   0.467   2.783
  374SOL    HW2 2022   3.442   0.313   2.825
  375SOL     OW 2023   6.226   4.840   3.335
  375SOL    HW1 2024   6.182   4.919   3.378
  375SOL    HW2 2025   6.310   4.869   3.290
  376SOL     OW 2026   1.578   2.354   3.950
  376SOL    HW1 2027   1.518   2.397   3.883
  376SOL    HW2 2028   1.670   2.392   3.942
  377SOL     OW 2029   4.855   2.170   2.664
  377SOL    HW1 2030   4.783   2.104   2.687
  377SOL    HW2 2031   4.933   2.122   2.625
  378SOL     OW 2032   4.119   3.645   5.797
  378SOL    HW1 2033   4.074   3.646   5.708
  378SOL    HW2 2034   4.217   3.662   5.785
  379SOL     OW 2035   5.987   3.421   1.650
  379SOL    HW1 2036   6.033   3.500   1.610
  379SOL    HW2 2037   5.969   3.354   1.578
  380SOL     OW 2038   1.079   1.104   1.013
  380SOL    HW1 2039   1.025   1.053   0.946
  380SOL    HW2 2040   1.155   1.047   1.044
  381SOL     OW 2041   3.281   4.961   1.342
  381SOL    HW1 2042   3.255   5.025   1.269
  381SOL    HW2 2043   3.347   4.895   1.307
  382SOL     OW 2044   3.288   5.997   0.362
  382SOL    HW1 2045   3.284   6.043   0.450
  382SOL    HW2 2046   3.383   5.984   0.334
  383SOL     OW 2047   6.607   2.696   6.947
  383SOL    HW1 2048   6.556   2.728   6.868
  383SOL    HW2 2049   6.543   2.669   7.020
  384SOL     OW 2050   0.643   5.576   5.513
  384SOL    HW1 2051   0.544   5.566   5.502
  384SOL    HW2 2052   0.670   5.544   5.604
  385SOL     OW 2053   4.505   6.052   0.529
  385SOL    HW1 2054   4.525   6.136   0.479
  385SOL    HW2 2055   4.533   6.062   0.624
  386SOL     OW 2056   4.025   6.412   5.140
  386SOL    HW1 2057   3.952   6.348   5.117
  386SOL    HW2 2058   4.044   6.471   5.062
  387SOL     OW 2059   6.966   0.993   4.675
  387SOL    HW1 2060   6.967   1.088   4.645
  387SOL    HW2 2061   7.020   0.937   4.612
  388SOL     OW 2062   6.928   2.910   5.668
  388SOL    HW1 2063   7.003   2.847   5.686
  388SOL    HW2 2064   6.891   2.892   5.577
  389SOL     OW 2065   4.557   4.068   1.406
  389SOL    HW1 2066   4.557   4.107   1.498
  389SOL    HW2 2067   4.550   3.969   1.413
  390SOL     OW 2068   3.817   1.267   0.449
  390SOL    HW1 2069   3.770   1.224   0.373
  390SOL    HW2 2070   3.799   1.215   0.533
  391SOL     OW 2071   3.387   3.393   6.397
  391SOL    HW1 2072   3.442   3.377   6.479
  391SOL    HW2 2073   3.294   3.358   6.411
  392SOL     OW 2074   1.460   4.224   2.116
  392SOL    HW1 2075   1.458   4.126   2.133
  392SOL    HW2 2076   1.393   4.270   2.174
  393SOL     OW 2077   0.773   4.631   0.801
  393SOL    HW1 2078   0.817   4.689   0.733
  393SOL    HW2 2079   0.842   4.578   0.850
  394SOL     OW 2080   6.683   2.024   6.685
  394SOL    HW1 2081   6.650   2.115   6.710
  394SOL    HW2 2082   6.783   2.025   6.682
  395SOL     OW 2083   4.769   4.292   1.884
  395SOL    HW1 2084   4.677   4.255   1.875
  395SOL    HW2 2085   4.782   4.327   1.977
  396SOL     OW 2086   2.815   1.748   2.839
  396SOL    HW1 2087   2.727   1.787   2.869
  396SOL    HW2 2088   2.846   1.796   2.757
  397SOL     OW 2089   4.628   1.370   5.323
  397SOL    HW1 2090   4.704   1.418   5.368
  397SOL    HW2 2091   4.616   1.407   5.231
  398SOL     OW 2092   1.744   0.204   4.704
  398SOL    HW1 2093   1.662   0.248   4.666
  398SOL    HW2 2094   1.807   0.180   4.630
  399SOL     OW 2095   5.099   5.773   3.954
  399SOL    HW1 2096   5.097   5.846   3.887
  399SOL    HW2 2097   5.010   5.726   3.956
  400SOL     OW 2098   6.203   0.563   4.689
  400SOL    HW1 2099   6.211   0.640   4.625
  400SOL    HW2 2100   6.106   0.547   4.709
  401SOL     OW 2101   6.612   6.295   5.796
  401SOL    HW1 2102   6.652   6.252   5.876
  401SOL    HW2 2103   6.678   6.359   5.756
  402SOL     OW 2104   6.708   0.334   2.738
  402SOL    HW1 2105   6.614   0.369   2.744
  402SOL    HW2 2106   6.710   0.256   2.677
  403SOL     OW 2107   2.729   0.475   6.488
  403SOL    HW1 2108   2.637   0.446   6.466
  403SOL    HW2 2109   2.794   0.402   6.467
  404SOL     OW 2110   3.627   5.258   5.172
  404SOL    HW1 2111   3.696   5.257   5.244
  404SOL    HW2 2112   3.670   5.280   5.085
  405SOL     OW 2113   2.423   4.315   3.479
  405SOL    HW1 2114   2.439   4.257   3.559
  405SOL    HW2 2115   2.345   4.280   3.427
  406SOL     OW 2116   0.403   5.064   5.857
  406SOL    HW1 2117   0.430   5.124   5.782
  406SOL    HW2 2118   0.439   4.972   5.842
  407SOL     OW 2119   1.606   2.993   4.123
  407SOL    HW1 2120   1.606   3.093   4.120
  407SOL    HW2 2121   1.565   2.961   4.209
  408SOL     OW 2122   2.700   1.504   3.673
  408SOL    HW1 2123   2.667   1.593   3.643
  408SOL    HW2 2124   2.637   1.467   3.742
  409SOL     OW 2125   1.446   3.973   2.508
  409SOL    HW1 2126   1.448   4.069   2.535
  409SOL    HW2 2127   1.389   3.922   2.571
  410SOL     OW 2128   1.278   2.176   1.444
  410SOL    HW1 2129   1.245   2.228   1.523
  410SOL    HW2 2130   1.329   2.237   1.384
  411SOL     OW 2131   0.552   2.392   1.290
  411SOL    HW1 2132   0.478   2.380   1.356
  411SOL    HW2 2133   0.574   2.489   1.282
  412SOL     OW 2134   1.874   4.879   2.648
  412SOL    HW1 2135   1.829   4.792   2.632
  412SOL    HW2 2136   1.933   4.901   2.570
  413SOL     OW 2137   4.184   4.831   2.760
  413SOL    HW1 2138   4.173   4.854   2.664
  413SOL    HW2 2139   4.110   4.872   2.813
  414SOL     OW 2140   3.031   6.492   3.609
  414SOL    HW1 2141   3.015   6.417   3.672
  414SOL    HW2 2142   2.969   6.484   3.531
  415SOL     OW 2143   6.729   0.930   0.453
  415SOL    HW1 2144   6.680   1.017   0.455
  415SOL    HW2 2145   6.750   0.901   0.546
  416SOL     OW 2146   5.013   3.198   4.592
  416SOL    HW1 2147   5.089   3.149   4.634
  416SOL    HW2 2148   4.965   3.252   4.662
  417SOL     OW 2149   3.551   2.137   6.587
  417SOL    HW1 2150   3.471   2.196   6.593
  417SOL    HW2 2151   3.525   2.044   6.612
  418SOL     OW 2152   3.778   6.382   4.097
  418SOL    HW1 2153   3.788   6.452   4.168
  418SOL    HW2 2154   3.761   6.427   4.009
  419SOL     OW 2155   0.915   0.072   1.739
  419SOL    HW1 2156   0.949   0.137   1.807
  419SOL    HW2 2157   0.985   0.002   1.722
  420SOL     OW 2158   6.446   0.400   6.039
  420SOL    HW1 2159   6.507   0.459   5.985
  420SOL    HW2 2160   6.406   0.454   6.113
  421SOL     OW 2161   5.188   3.900   3.489
  421SOL    HW1 2162   5.107   3.873   3.438
  421SOL    HW2 2163   5.186   3.999   3.504
  422SOL     OW 2164   5.375   2.712   1.950
  422SOL    HW1 2165   5.456   2.703   2.008
  422SOL    HW2 2166   5.308   2.642   1.974
  423SOL     OW 2167   3.558   1.563   6.507
  423SOL    HW1 2168   3.505   1.502   6.566
  423SOL    HW2 2169   3.620   1.618   6.563
  424SOL     OW 2170   1.312   4.422   3.011
  424SOL    HW1 2171   1.281   4.411   3.105
  424SOL    HW2 2172   1.315   4.332   2.967
  425SOL     OW 2173   2.926   6.987   5.588
  425SOL    HW1 2174   2.930   6.912   5.655
  425SOL    HW2 2175   2.839   6.983   5.539
  426SOL     OW 2176   2.495   2.578   4.294
  426SOL    HW1 2177   2.403   2.540   4.290
  426SOL    HW2 2178   2.497   2.656   4.357
  427SOL     OW 2179   3.867   1.937   3.488
  427SOL    HW1 2180   3.793   1.955   3.553
  427SOL    HW2 2181   3.831   1.944   3.394
  428SOL     OW 2182   2.607   1.502   5.232
  428SOL    HW1 2183   2.534   1.531   5.171
  428SOL    HW2 2184   2.640   1.411   5.205
  429SOL     OW 2185   1.120   5.887   3.953
  429SOL    HW1 2186   1.023   5.889   3.978
  429SOL    HW2 2187   1.134   5.826   3.876
  430SOL     OW 2188   1.303   6.860   3.385
  430SOL    HW1 2189   1.277   6.828   3.476
  430SOL    HW2 2190   1.352   6.947   3.393
  431SOL     OW 2191   2.638   1.790   2.252
  431SOL    HW1 2192   2.553   1.789   2.200
  431SOL    HW2 2193   2.677   1.698   2.255
  432SOL     OW 2194   4.007   2.274   1.233
  432SOL    HW1 2195   4.075   2.322   1.288
  432SOL    HW2 2196   3.928   2.334   1.218
  433SOL     OW 2197   2.319   6.541   0.076
  433SOL    HW1 2198   2.403   6.488   0.089
  433SOL    HW2 2199   2.337   6.637   0.098
  434SOL     OW 2200   3.986   6.394   3.724
  434SOL    HW1 2201   4.015   6.479   3.769
  434SOL    HW2 2202   3.914   6.351   3.778
  435SOL     OW 2203   2.620   1.665   5.941
  435SOL    HW1 2204   2.530   1.694   5.907
  435SOL    HW2 2205   2.685   1.662   5.865
  436SOL     OW 2206   4.707   0.133   3.108
  436SOL    HW1 2207   4.801   0.165   3.125
  436SOL    HW2 2208   4.650   0.154   3.187
  437SOL     OW 2209   6.372   6.866   4.347
  437SOL    HW1 2210   6.302   6.887   4.278
  437SOL    HW2 2211   6.346   6.908   4.434
  438SOL     OW 2212   0.644   4.570   2.900
  438SOL    HW1 2213   0.570   4.531   2.955
  438SOL    HW2 2214   0.606   4.641   2.841
  439SOL     OW 2215   5.534   0.449   3.009
  439SOL    HW1 2216   5.576   0.360   3.024
  439SOL    HW2 2217   5.555   0.509   3.086
  440SOL     OW 2218   4.538   0.961   0.602
  440SOL    HW1 2219   4.630   0.922   0.604
  440SOL    HW2 2220   4.540   1.049   0.555
  441SOL     OW 2221   0.291   4.594   2.896
  441SOL    HW1 2222   0.295   4.571   2.799
  441SOL    HW2 2223   0.310   4.691   2.909
  442SOL     OW 2224   5.943   3.312   5.617
  442SOL    HW1 2225   6.008   3.325   5.692
  442SOL    HW2 2226   5.899   3.399   5.596
  443SOL     OW 2227   5.096   3.216   2.824
  443SOL    HW1 2228   5.113   3.208   2.726
  443SOL    HW2 2229   5.182   3.236   2.871
  444SOL     OW 2230   4.521   1.067   1.218
  444SOL    HW1 2231   4.465   1.138   1.175
  444SOL    HW2 2232   4.513   1.075   1.318
  445SOL     OW 2233   1.443   5.454   2.539
  445SOL    HW1 2234   1.384   5.391   2.488
  445SOL    HW2 2235   1.431   5.546   2.503
  446SOL     OW 2236   5.681   6.968   1.913
  446SOL    HW1 2237   5.775   6.994   1.931
  446SOL    HW2 2238   5.630   0.025   1.881
  447SOL     OW 2239   6.163   4.250   0.419
  447SOL    HW1 2240   6.100   4.215   0.487
  447SOL    HW2 2241   6.153   4.198   0.334
  448SOL     OW 2242   2.517   6.657   3.276
  448SOL    HW1 2243   2.476   6.668   3.186
  448SOL    HW2 2244   2.579   6.733   3.294
  449SOL     OW 2245   2.256   2.976   4.628
  449SOL    HW1 2246   2.173   2.922   4.639
  449SOL    HW2 2247   2.331   2.932   4.679
  450SOL     OW 2248   0.700   4.477   3.282
  450SOL    HW1 2249   0.764   4.428   3.340
  450SOL    HW2 2250   0.716   4.575   3.290
  451SOL     OW 2251   0.745   2.077   2.584
  451SOL    HW1 2252   0.757   2.125   2.671
  451SOL    HW2 2253   0.785   2.131   2.510
  452SOL     OW 2254   4.896   6.071   2.922
  452SOL    HW1 2255   4.870   5.976   2.940
  452SOL    HW2 2256   4.821   6.117   2.874
  453SOL     OW 2257   3.744   0.497   0.266
  453SOL    HW1 2258   3.670   0.513   0.331
  453SOL    HW2 2259   3.716   0.527   0.175
  454SOL     OW 2260   0.050   3.996   6.804
  454SOL    HW1 2261   0.063   3.926   6.733
  454SOL    HW2 2262   0.124   4.063   6.799
  455SOL     OW 2263   6.562   4.486   6.392
  455SOL    HW1 2264   6.639   4.467   6.452
  455SOL    HW2 2265   6.595   4.499   6.298
  456SOL     OW 2266   2.760   1.025   2.631
  456SOL    HW1 2267   2.806   0.936   2.639
  456SOL    HW2 2268   2.768   1.075   2.717
  457SOL     OW 2269   2.549   0.076   6.351
  457SOL    HW1 2270   2.526   0.130   6.432
  457SOL    HW2 2271   2.493   7.016   6.349
  458SOL     OW 2272   1.930   1.430   3.457
  458SOL    HW1 2273   1.840   1.472   3.443
  458SOL    HW2 2274   1.922   1.353   3.520
  459SOL     OW 2275   2.530   0.460   4.431
  459SOL    HW1 2276   2.529   0.505   4.342
  459SOL    HW2 2277   2.438   0.458   4.469
  460SOL     OW 2278   1.224   2.019   5.175
  460SOL    HW1 2279   1.301   2.010   5.112
  460SOL    HW2 2280   1.233   2.103   5.229
  461SOL     OW 2281   0.934   5.349   5.763
  461SOL    HW1 2282   1.026   5.373   5.735
  461SOL    HW2 2283   0.936   5.312   5.856
  462SOL     OW 2284   3.041   3.913   4.359
  462SOL    HW1 2285   3.088   3.908   4.447
  462SOL    HW2 2286   2.987   3.829   4.345
  463SOL     OW 2287   5.738   7.016   2.432
  463SOL    HW1 2288   5.646   0.007   2.469
  463SOL    HW2 2289   5.763   6.919   2.440
  464SOL     OW 2290   4.142   6.045   6.618
  464SOL    HW1 2291   4.221   6.105   6.633
  464SOL    HW2 2292   4.155   5.959   6.668
  465SOL     OW 2293   1.528   3.068   0.201
  465SOL    HW1 2294   1.500   3.104   0.290
  465SOL    HW2 2295   1.553   3.143   0.140
  466SOL     OW 2296   4.079   5.563   4.821
  466SOL    HW1 2297   4.089   5.655   4.859
  466SOL    HW2 2298   4.060   5.499   4.895
  467SOL     OW 2299   6.219   0.610   1.779
  467SOL    HW1 2300   6.195   0.589   1.684
  467SOL    HW2 2301   6.315   0.586   1.795
  468SOL     OW 2302   3.895   0.215   6.862
  468SOL    HW1 2303   3.824   0.182   6.799
  468SOL    HW2 2304   3.976   0.156   6.855
  469SOL     OW 2305   2.751   5.226   5.733
  469SOL    HW1 2306   2.658   5.191   5.737
  469SOL    HW2 2307   2.811   5.157   5.692
  470SOL     OW 2308   1.947   5.246   2.880
  470SOL    HW1 2309   1.937   5.330   2.826
  470SOL    HW2 2310   2.021   5.190   2.841
  471SOL     OW 2311   2.609   2.460   4.602
  471SOL    HW1 2312   2.547   2.538   4.610
  471SOL    HW2 2313   2.690   2.476   4.659
  472SOL     OW 2314   6.108   4.171   6.023
  472SOL    HW1 2315   6.021   4.123   6.033
  472SOL    HW2 2316   6.098   4.266   6.053
  473SOL     OW 2317   0.261   3.328   2.769
  473SOL    HW1 2318   0.253   3.323   2.869
  473SOL    HW2 2319   0.238   3.420   2.738
  474SOL     OW 2320   5.104   6.090   4.209
  474SOL    HW1 2321   5.125   6.126   4.300
  474SOL    HW2 2322   5.005   6.079   4.200
  475SOL     OW 2323   6.087   1.427   1.279
  475SOL    HW1 2324   6.153   1.468   1.342
  475SOL    HW2 2325   6.027   1.499   1.242
  476SOL     OW 2326   0.747   5.074   1.240
  476SOL    HW1 2327   0.683   5.012   1.286
  476SOL    HW2 2328   0.724   5.168   1.261
  477SOL     OW 2329   1.216   4.540   3.820
  477SOL    HW1 2330   1.150   4.563   3.748
  477SOL    HW2 2331   1.240   4.443   3.813
  478SOL     OW 2332   4.671   5.710   1.692
  478SOL    HW1 2333   4.754   5.701   1.747
  478SOL    HW2 2334   4.631   5.800   1.707
  479SOL     OW 2335   4.065   3.859   4.042
  479SOL    HW1 2336   3.979   3.883   4.087
  479SOL    HW2 2337   4.126   3.938   4.045
  480SOL     OW 2338   1.819   6.874   3.049
  480SOL    HW1 2339   1.721   6.873   3.069
  480SOL    HW2 2340   1.868   6.822   3.119
  481SOL     OW 2341   0.404   6.751   0.914
  481SOL    HW1 2342   0.327   6.777   0.855
  481SOL    HW2 2343   0.460   6.683   0.868
  482SOL     OW 2344   4.451   5.257   1.587
  482SOL    HW1 2345   4.383   5.191   1.553
  482SOL    HW2 2346   4.542   5.216   1.585
  483SOL     OW 2347   5.279   2.238   3.317
  483SOL    HW1 2348   5.374   2.237   3.287
  483SOL    HW2 2349   5.267   2.173   3.393
  484SOL     OW 2350   2.118   4.196   4.359
  484SOL    HW1 2351   2.178   4.131   4.312
  484SOL    HW2 2352   2.167   4.282   4.373
  485SOL     OW 2353   5.222   2.911   1.822
  485SOL    HW1 2354   5.126   2.885   1.839
  485SOL    HW2 2355   5.282   2.851   1.874
  486SOL     OW 2356   5.990   6.588   5.993
  486SOL    HW1 2357   5.957   6.539   6.074
  486SOL    HW2 2358   6.085   6.563   5.976
  487SOL     OW 2359   6.870   6.708   4.924
  487SOL    HW1 2360   6.848   6.779   4.858
  487SOL    HW2 2361   6.966   6.714   4.949
  488SOL     OW 2362   1.527   5.756   3.483
  488SOL    HW1 2363   1.457   5.693   3.518
  488SOL    HW2 2364   1.578   5.712   3.409
  489SOL     OW 2365   0.837   5.747   5.822
  489SOL    HW1 2366   0.777   5.675   5.788
  489SOL    HW2 2367   0.903   5.771   5.750
  490SOL     OW 2368   1.385   4.503   5.692
  490SOL    HW1 2369   1.427   4.500   5.602
  490SOL    HW2 2370   1.386   4.596   5.727
  491SOL     OW 2371   0.386   2.364   1.036
  491SOL    HW1 2372   0.330   2.435   0.993
  491SOL    HW2 2373   0.451   2.407   1.099
  492SOL     OW 2374   1.175   1.989   5.794
  492SOL    HW1 2375   1.116   2.026   5.866
  492SOL    HW2 2376   1.119   1.966   5.714
  493SOL     OW 2377   2.247   5.890   4.592
  493SOL    HW1 2378   2.291   5.842   4.516
  493SOL    HW2 2379   2.311   5.954   4.633
  494SOL     OW 2380   2.495   6.316   5.101
  494SOL    HW1 2381   2.402   6.281   5.116
  494SOL    HW2 2382   2.506   6.402   5.150
  495SOL     OW 2383   3.773   5.024   5.775
  495SOL    HW1 2384   3.757   5.058   5.868
  495SOL    HW2 2385   3.685   5.005   5.731
  496SOL     OW 2386   4.982   1.533   2.912
  496SOL    HW1 2387   4.968   1.536   2.813
  496SOL    HW2 2388   5.062   1.587   2.936
  497SOL     OW 2389   3.219   1.042   0.032
  497SOL    HW1 2390   3.130   1.015   7.017
  497SOL    HW2 2391   3.217   1.036   0.131
  498SOL     OW 2392   0.494   6.036   1.666
  498SOL    HW1 2393   0.576   6.078   1.627
  498SOL    HW2 2394   0.425   6.023   1.595
  499SOL     OW 2395   3.041   6.427   6.716
  499SOL    HW1 2396   3.061   6.374   6.799
  499SOL    HW2 2397   2.966   6.383   6.666
  500SOL     OW 2398   6.148   2.009   0.176
  500SOL    HW1 2399   6.210   1.942   0.135
  500SOL    HW2 2400   6.122   2.076   0.107
  501SOL     OW 2401   0.963   0.368   3.278
  501SOL    HW1 2402   0.948   0.465   3.262
  501SOL    HW2 2403   0.881   0.316   3.255
  502SOL     OW 2404   2.114   5.011   6.579
  502SOL    HW1 2405   2.102   4.982   6.674
  502SOL    HW2 2406   2.029   4.996   6.528
  503SOL     OW 2407   3.495   4.670   6.650
  503SOL    HW1 2408   3.587   4.683   6.612
  503SOL    HW2 2409   3.503   4.639   6.745
  504SOL     OW 2410   6.435   6.741   1.740
  504SOL    HW1 2411   6.340   6.774   1.737
  504SOL    HW2 2412   6.460   6.705   1.650
  505SOL     OW 2413   5.201   6.703   5.014
  505SOL    HW1 2414   5.151   6.754   4.944
  505SOL    HW2 2415   5.176   6.737   5.105
  506SOL     OW 2416   4.011   5.248   2.949
  506SOL    HW1 2417   3.933   5.303   2.920
  506SOL    HW2 2418   4.096   5.292   2.921
  507SOL     OW 2419   3.522   0.556   0.401
  507SOL    HW1 2420   3.449   0.583   0.339
  507SOL    HW2 2421   3.486   0.491   0.469
  508SOL     OW 2422   6.954   4.996   3.786
  508SOL    HW1 2423   6.974   5.093   3.774
  508SOL    HW2 2424   6.866   4.985   3.832
  509SOL     OW 2425   4.493   6.737   5.570
  509SOL    HW1 2426   4.488   6.681   5.652
  509SOL    HW2 2427   4.543   6.821   5.590
  510SOL     OW 2428   7.006   3.903   0.030
  510SOL    HW1 2429   0.024   3.954   6.978
  510SOL    HW2 2430   7.012   3.805   0.012
  511SOL     OW 2431   0.946   1.687   0.712
  511SOL    HW1 2432   0.875   1.698   0.782
  511SOL    HW2 2433   0.962   1.775   0.668
  512SOL     OW 2434   6.567   2.558   6.454
  512SOL    HW1 2435   6.640   2.502   6.416
  512SOL    HW2 2436   6.485   2.503   6.467
  513SOL     OW 2437   5.369   0.929   2.438
  513SOL    HW1 2438   5.444   0.924   2.504
  513SOL    HW2 2439   5.403   0.967   2.352
  514SOL     OW 2440   6.441   6.481   4.122
  514SOL    HW1 2441   6.467   6.437   4.036
  514SOL    HW2 2442   6.361   6.540   4.107
  515SOL     OW 2443   3.927   0.117   6.558
  515SOL    HW1 2444   3.935   0.119   6.459
  515SOL    HW2 2445   3.923   0.022   6.590
  516SOL     OW 2446   2.071   5.738   1.541
  516SOL    HW1 2447   1.979   5.753   1.504
  516SOL    HW2 2448   2.116   5.826   1.556
  517SOL     OW 2449   3.393   5.508   1.952
  517SOL    HW1 2450   3.435   5.592   1.985
  517SOL    HW2 2451   3.458   5.432   1.963
  518SOL     OW 2452   2.056   3.247   3.469
  518SOL    HW1 2453   2.112   3.175   3.427
  518SOL    HW2 2454   2.080   3.255   3.566
  519SOL     OW 2455   0.451   0.014   3.461
  519SOL    HW1 2456   0.492   6.961   3.409
  519SOL    HW2 2457   0.515   0.045   3.531
  520SOL     OW 2458   1.344   3.249   0.400
  520SOL    HW1 2459   1.262   3.193   0.414
  520SOL    HW2 2460   1.327   3.313   0.325
  521SOL     OW 2461   5.444   5.508   5.294
  521SOL    HW1 2462   5.428   5.428   5.236
  521SOL    HW2 2463   5.522   5.492   5.353
  522SOL     OW 2464   3.920   4.000   1.470
  522SOL    HW1 2465   4.003   3.970   1.422
  522SOL    HW2 2466   3.884   3.925   1.525
  523SOL     OW 2467   0.317   6.429   1.979
  523SOL    HW1 2468   0.399   6.466   1.935
  523SOL    HW2 2469   0.265   6.374   1.913
  524SOL     OW 2470   0.048   2.158   1.967
  524SOL    HW1 2471   6.991   2.207   1.931
  524SOL    HW2 2472   0.095   2.112   1.891
  525SOL     OW 2473   1.916   3.697   6.142
  525SOL    HW1 2474   1.863   3.623   6.101
  525SOL    HW2 2475   2.004   3.661   6.174
  526SOL     OW 2476   3.108   0.023   4.619
  526SOL    HW1 2477   3.134   0.090   4.550
  526SOL    HW2 2478   3.088   6.958   4.575
  527SOL     OW 2479   0.974   1.661   0.243
  527SOL    HW1 2480   0.910   1.603   0.293
  527SOL    HW2 2481   1.047   1.691   0.304
  528SOL     OW 2482   6.809   3.328   4.214
  528SOL    HW1 2483   6.791   3.426   4.206
  528SOL    HW2 2484   6.889   3.304   4.160
  529SOL     OW 2485   2.133   7.015   6.212
  529SOL    HW1 2486   2.175   0.065   6.266
  529SOL    HW2 2487   2.073   0.032   6.143
  530SOL     OW 2488   3.768   3.555   0.922
  530SOL    HW1 2489   3.853   3.601   0.949
  530SOL    HW2 2490   3.770   3.460   0.953
  531SOL     OW 2491   1.978   0.339   1.629
  531SOL    HW1 2492   1.926   0.276   1.572
  531SOL    HW2 2493   1.917   0.411   1.664
  532SOL     OW 2494   2.992   2.441   0.839
  532SOL    HW1 2495   2.969   2.353   0.879
  532SOL    HW2 2496   2.944   2.452   0.752
  533SOL     OW 2497   3.818   0.382   4.296
  533SOL    HW1 2498   3.776   0.394   4.386
  533SOL    HW2 2499   3.803   0.464   4.241
  534SOL     OW 2500   1.210   5.114   1.466
  534SOL    HW1 2501   1.138   5.116   1.397
  534SOL    HW2 2502   1.232   5.208   1.494
  535SOL     OW 2503   5.198   3.560   3.831
  535SOL    HW1 2504   5.259   3.516   3.765
  535SOL    HW2 2505   5.127   3.611   3.782
  536SOL     OW 2506   6.207   6.072   2.890
  536SOL    HW1 2507   6.292   6.033   2.853
  536SOL    HW2 2508   6.176   6.145   2.830
  537SOL     OW 2509   3.427   1.151   4.582
  537SOL    HW1 2510   3.524   1.150   4.560
  537SOL    HW2 2511   3.384   1.066   4.550
  538SOL     OW 2512   2.712   4.557   5.558
  538SOL    HW1 2513   2.652   4.609   5.620
  538SOL    HW2 2514   2.657   4.506   5.493
  539SOL     OW 2515   1.054   6.455   0.115
  539SOL    HW1 2516   1.028   6.541   0.160
  539SOL    HW2 2517   1.058   6.469   0.016
  540SOL     OW 2518   0.941   0.636   4.093
  540SOL    HW1 2519   0.878   0.565   4.062
  540SOL    HW2 2520   0.896   0.725   4.088
  541SOL     OW 2521   4.462   6.425   4.302
  541SOL    HW1 2522   4.443   6.327   4.294
  541SOL    HW2 2523   4.540   6.449   4.244
  542SOL     OW 2524   3.389   0.007   6.836
  542SOL    HW1 2525   3.352   6.992   6.921
  542SOL    HW2 2526   3.386   0.106   6.840
  543SOL     OW 2527   5.448   2.179   4.295
  543SOL    HW1 2528   5.512   2.184   4.372
  543SOL    HW2 2529   5.500   2.164   4.210
  544SOL     OW 2530   1.105   4.172   0.981
  544SOL    HW1 2531   1.008   4.198   0.973
  544SOL    HW2 2532   1.127   4.154   1.077
  545SOL     OW 2533   5.827   1.350   1.837
  545SOL    HW1 2534   5.822   1.449   1.827
  545SOL    HW2 2535   5.751   1.319   1.894
  546SOL     OW 2536   0.920   4.063   2.672
  546SOL    HW1 2537   0.846   4.106   2.724
  546SOL    HW2 2538   0.929   3.968   2.699
  547SOL     OW 2539   4.589   1.616   6.555
  547SOL    HW1 2540   4.618   1.590   6.647
  547SOL    HW2 2541   4.558   1.711   6.555
  548SOL     OW 2542   3.281   3.079   0.132
  548SOL    HW1 2543   3.372   3.043   0.150
  548SOL    HW2 2544   3.272   3.102   0.035
  549SOL     OW 2545   5.962   2.448   1.057
  549SOL    HW1 2546   6.055   2.456   1.095
  549SOL    HW2 2547   5.916   2.369   1.097
  550SOL     OW 2548   0.108   5.195   3.310
  550SOL    HW1 2549   0.070   5.159   3.395
  550SOL    HW2 2550   0.037   5.199   3.240
  551SOL     OW 2551   6.986   1.018   0.391
  551SOL    HW1 2552   7.007   1.074   0.471
  551SOL    HW2 2553   6.906   0.961   0.410
  552SOL     OW 2554   5.684   5.411   5.699
  552SOL    HW1 2555   5.697   5.508   5.678
  552SOL    HW2 2556   5.664   5.401   5.796
  553SOL     OW 2557   3.075   1.041   5.509
  553SOL    HW1 2558   3.139   0.989   5.567
  553SOL    HW2 2559   3.099   1.027   5.413
  554SOL     OW 2560   5.773   5.405   0.887
  554SOL    HW1 2561   5.760   5.443   0.978
  554SOL    HW2 2562   5.849   5.453   0.841
  555SOL     OW 2563   2.403   5.163   5.528
  555SOL    HW1 2564   2.459   5.152   5.610
  555SOL    HW2 2565   2.307   5.168   5.554
  556SOL     OW 2566   4.829   1.434   3.431
  556SOL    HW1 2567   4.917   1.389   3.447
  556SOL    HW2 2568   4.755   1.368   3.441
  557SOL     OW 2569   6.461   4.722   6.000
  557SOL    HW1 2570   6.508   4.807   5.973
  557SOL    HW2 2571   6.422   4.679   5.919
  558SOL     OW 2572   3.459   4.033   2.572
  558SOL    HW1 2573   3.552   4.067   2.590
  558SOL    HW2 2574   3.460   3.977   2.488
  559SOL     OW 2575   6.450   6.131   5.603
  559SOL    HW1 2576   6.522   6.186   5.645
  559SOL    HW2 2577   6.362   6.179   5.612
  560SOL     OW 2578   6.591   3.284   3.082
  560SOL    HW1 2579   6.589   3.271   2.982
  560SOL    HW2 2580   6.500   3.267   3.120
  561SOL     OW 2581   0.620   3.012   6.498
  561SOL    HW1 2582   0.606   2.961   6.413
  561SOL    HW2 2583   0.663   3.100   6.477
  562SOL     OW 2584   3.976   0.582   5.810
  562SOL    HW1 2585   3.934   0.618   5.726
  562SOL    HW2 2586   3.976   0.482   5.807
  563SOL     OW 2587   1.644   1.973   4.206
  563SOL    HW1 2588   1.620   1.965   4.109
  563SOL    HW2 2589   1.605   1.896   4.256
  564SOL     OW 2590   0.322   2.193   5.152
  564SOL    HW1 2591   0.264   2.217   5.230
  564SOL    HW2 2592   0.278   2.222   5.067
  565SOL     OW 2593   3.669   3.220   3.485
  565SOL    HW1 2594   3.592   3.228   3.548
  565SOL    HW2 2595   3.673   3.302   3.427
  566SOL     OW 2596   3.531   5.873   2.998
  566SOL    HW1 2597   3.513   5.971   3.001
  566SOL    HW2 2598   3.534   5.843   2.902
  567SOL     OW 2599   2.095   3.069   6.565
  567SOL    HW1 2600   2.097   3.067   6.665
  567SOL    HW2 2601   2.079   3.163   6.534
  568SOL     OW 2602   6.851   0.534   0.741
  568SOL    HW1 2603   6.929   0.563   0.796
  568SOL    HW2 2604   6.772   0.593   0.761
  569SOL     OW 2605   0.123   1.732   0.482
  569SOL    HW1 2606   0.109   1.633   0.480
  569SOL    HW2 2607   0.221   1.751   0.471
  570SOL     OW 2608   2.912   0.130   6.039
  570SOL    HW1 2609   2.821   0.090   6.036
  570SOL    HW2 2610   2.935   0.168   5.949
  571SOL     OW 2611   2.499   4.883   3.073
  571SOL    HW1 2612   2.576   4.842   3.024
  571SOL    HW2 2613   2.525   4.901   3.168
  572SOL     OW 2614   2.402   6.598   4.001
  572SOL    HW1 2615   2.493   6.589   3.961
  572SOL    HW2 2616   2.407   6.659   4.080
  573SOL     OW 2617   6.631   2.352   5.670
  573SOL    HW1 2618   6.597   2.273   5.620
  573SOL    HW2 2619   6.675   2.321   5.754
  574SOL     OW 2620   2.816   1.864   5.414
  574SOL    HW1 2621   2.763   1.899   5.491
  574SOL    HW2 2622   2.755   1.848   5.336
  575SOL     OW 2623   3.109   3.534   0.193
  575SOL    HW1 2624   3.148   3.450   0.231
  575SOL    HW2 2625   3.035   3.511   0.129
  576SOL     OW 2626   1.998   2.940   2.872
  576SOL    HW1 2627   1.995   2.938   2.972
  576SOL    HW2 2628   2.091   2.957   2.842
  577SOL     OW 2629   1.001   1.699   1.906
  577SOL    HW1 2630   0.963   1.714   1.815
  577SOL    HW2 2631   1.091   1.656   1.897
  578SOL     OW 2632   1.942   5.536   6.718
  578SOL    HW1 2633   1.965   5.460   6.658
  578SOL    HW2 2634   2.014   5.605   6.713
  579SOL     OW 2635   2.503   4.537   2.347
  579SOL    HW1 2636   2.549   4.612   2.301
  579SOL    HW2 2637   2.535   4.530   2.442
  580SOL     OW 2638   4.290   5.465   5.135
  580SOL    HW1 2639   4.375   5.431   5.175
  580SOL    HW2 2640   4.308   5.549   5.085
  581SOL     OW 2641   1.008   3.086   3.666
  581SOL    HW1 2642   0.922   3.036   3.659
  581SOL    HW2 2643   1.084   3.026   3.641
  582SOL     OW 2644   5.527   5.369   3.298
  582SOL    HW1 2645   5.455   5.339   3.236
  582SOL    HW2 2646   5.493   5.371   3.392
  583SOL     OW 2647   3.316   4.902   5.955
  583SOL    HW1 2648   3.220   4.876   5.963
  583SOL    HW2 2649   3.365   4.833   5.901
  584SOL     OW 2650   3.926   0.781   6.853
  584SOL    HW1 2651   3.938   0.683   6.838
  584SOL    HW2 2652   3.896   0.825   6.767
  585SOL     OW 2653   2.841   6.799   1.999
  585SOL    HW1 2654   2.886   6.710   1.996
  585SOL    HW2 2655   2.899   6.867   1.955
  586SOL     OW 2656   4.304   0.245   0.960
  586SOL    HW1 2657   4.373   0.224   0.891
  586SOL    HW2 2658   4.324   0.193   1.043
  587SOL     OW 2659   5.123   1.924   1.724
  587SOL    HW1 2660   5.200   1.969   1.679
  587SOL    HW2 2661   5.052   1.903   1.657
  588SOL     OW 2662   0.471   5.453   1.988
  588SOL    HW1 2663   0.487   5.491   1.897
  588SOL    HW2 2664   0.411   5.373   1.980
  589SOL     OW 2665   3.400   5.770   1.358
  589SOL    HW1 2666   3.304   5.745   1.372
  589SOL    HW2 2667   3.459   5.699   1.396
  590SOL     OW 2668   5.371   1.299   0.701
  590SOL    HW1 2669   5.425   1.334   0.778
  590SOL    HW2 2670   5.287   1.352   0.692
  591SOL     OW 2671   4.126   5.513   4.258
  591SOL    HW1 2672   4.192   5.535   4.186
  591SOL    HW2 2673   4.113   5.593   4.316
  592SOL     OW 2674   4.308   1.951   4.485
  592SOL    HW1 2675   4.338   1.861   4.517
  592SOL    HW2 2676   4.213   1.966   4.514
  593SOL     OW 2677   3.717   1.775   5.495
  593SOL    HW1 2678   3.705   1.680   5.525
  593SOL    HW2 2679   3.672   1.788   5.406
  594SOL     OW 2680   6.064   1.305   1.620
  594SOL    HW1 2681   6.092   1.242   1.692
  594SOL    HW2 2682   5.974   1.342   1.642
  595SOL     OW 2683   5.157   6.177   2.556
  595SOL    HW1 2684   5.163   6.153   2.653
  595SOL    HW2 2685   5.094   6.254   2.544
  596SOL     OW 2686   6.642   4.089   3.915
  596SOL    HW1 2687   6.711   4.080   3.843
  596SOL    HW2 2688   6.613   3.998   3.944
  597SOL     OW 2689   3.054   6.977   6.680
  597SOL    HW1 2690   3.032   6.995   6.776
  597SOL    HW2 2691   3.046   6.879   6.662
  598SOL     OW 2692   2.878   3.543   5.079
  598SOL    HW1 2693   2.879   3.466   5.015
  598SOL    HW2 2694   2.812   3.525   5.151
  599SOL     OW 2695   1.031   5.886   2.288
  599SOL    HW1 2696   1.017   5.796   2.247
  599SOL    HW2 2697   0.992   5.887   2.380
  600SOL     OW 2698   0.055   4.179   4.743
  600SOL    HW1 2699   6.982   4.200   4.721
  600SOL    HW2 2700   0.083   4.229   4.824
  601SOL     OW 2701   1.541   0.916   5.298
  601SOL    HW1 2702   1.452   0.915   5.345
  601SOL    HW2 2703   1.568   0.822   5.276
  602SOL     OW 2704   3.154   6.548   4.670
  602SOL    HW1 2705   3.153   6.453   4.702
  602SOL    HW2 2706   3.074   6.563   4.611
  603SOL     OW 2707   1.652   1.138   5.390
  603SOL    HW1 2708   1.618   1.204   5.323
  603SOL    HW2 2709   1.609   1.049   5.374
  604SOL     OW 2710   6.619   2.180   1.921
  604SOL    HW1 2711   6.619   2.093   1.971
  604SOL    HW2 2712   6.705   2.188   1.870
  605SOL     OW 2713   0.313   4.527   2.182
  605SOL    HW1 2714   0.251   4.605   2.190
  605SOL    HW2 2715   0.267   4.445   2.217
  606SOL     OW 2716   3.533   0.017   5.093
  606SOL    HW1 2717   3.549   0.076   5.014
  606SOL    HW2 2718   3.592   6.959   5.087
  607SOL     OW 2719   1.229   4.773   5.782
  607SOL    HW1 2720   1.202   4.677   5.790
  607SOL    HW2 2721   1.287   4.799   5.859
  608SOL     OW 2722   3.270   0.259   5.608
  608SOL    HW1 2723   3.322   0.185   5.650
  608SOL    HW2 2724   3.291   0.345   5.655
  609SOL     OW 2725   3.834   2.575   1.439
  609SOL    HW1 2726   3.837   2.675   1.447
  609SOL    HW2 2727   3.886   2.535   1.515
  610SOL     OW 2728   4.537   2.841   0.469
  610SOL    HW1 2729   4.440   2.817   0.468
  610SOL    HW2 2730   4.588   2.776   0.414
  611SOL     OW 2731   3.857   0.402   2.252
  611SOL    HW1 2732   3.836   0.382   2.156
  611SOL    HW2 2733   3.937   0.462   2.257
  612SOL     OW 2734   3.721   4.746   5.859
  612SOL    HW1 2735   3.703   4.662   5.909
  612SOL    HW2 2736   3.746   4.724   5.764
  613SOL     OW 2737   4.859   5.488   5.679
  613SOL    HW1 2738   4.779   5.459   5.628
  613SOL    HW2 2739   4.942   5.470   5.626
  614SOL     OW 2740   4.925   5.691   5.870
  614SOL    HW1 2741   4.829   5.718   5.878
  614SOL    HW2 2742   4.937   5.634   5.788
  615SOL     OW 2743   0.310   4.776   1.250
  615SOL    HW1 2744   0.247   4.732   1.314
  615SOL    HW2 2745   0.273   4.771   1.157
  616SOL     OW 2746   6.082   2.887   3.142
  616SOL    HW1 2747   6.111   2.889   3.238
  616SOL    HW2 2748   6.118   2.804   3.098
  617SOL     OW 2749   2.471   5.130   6.035
  617SOL    HW1 2750   2.503   5.056   6.094
  617SOL    HW2 2751   2.521   5.214   6.057
  618SOL     OW 2752   1.253   1.087   1.767
  618SOL    HW1 2753   1.242   1.005   1.711
  618SOL    HW2 2754   1.320   1.071   1.839
  619SOL     OW 2755   1.549   1.682   6.369
  619SOL    HW1 2756   1.523   1.613   6.302
  619SOL    HW2 2757   1.615   1.745   6.328
  620SOL     OW 2758   4.739   2.838   0.031
  620SOL    HW1 2759   4.680   2.897   6.999
  620SOL    HW2 2760   4.769   2.760   6.998
  621SOL     OW 2761   0.512   4.833   0.237
  621SOL    HW1 2762   0.521   4.788   0.326
  621SOL    HW2 2763   0.499   4.931   0.250
  622SOL     OW 2764   1.834   1.493   0.465
  622SOL    HW1 2765   1.904   1.536   0.520
  622SOL    HW2 2766   1.796   1.559   0.401
  623SOL     OW 2767   1.116   4.692   6.370
  623SOL    HW1 2768   1.048   4.707   6.298
  623SOL    HW2 2769   1.109   4.765   6.438
  624SOL     OW 2770   0.872   2.876   2.473
  624SOL    HW1 2771   0.828   2.849   2.559
  624SOL    HW2 2772   0.877   2.796   2.412
  625SOL     OW 2773   2.593   1.443   2.695
  625SOL    HW1 2774   2.693   1.435   2.700
  625SOL    HW2 2775   2.552   1.394   2.771
  626SOL     OW 2776   2.193   6.581   3.810
  626SOL    HW1 2777   2.275   6.584   3.868
  626SOL    HW2 2778   2.219   6.601   3.716
  627SOL     OW 2779   5.557   0.968   6.960
  627SOL    HW1 2780   5.529   1.063   6.946
  627SOL    HW2 2781   5.656   0.964   6.973
  628SOL     OW 2782   4.993   4.529   4.314
  628SOL    HW1 2783   4.921   4.568   4.256
  628SOL    HW2 2784   4.969   4.435   4.338
  629SOL     OW 2785   0.465   7.014   1.062
  629SOL    HW1 2786   0.559   0.002   1.030
  629SOL    HW2 2787   0.433   6.921   1.043
  630SOL     OW 2788   4.324   1.289   1.201
  630SOL    HW1 2789   4.366   1.359   1.258
  630SOL    HW2 2790   4.284   1.332   1.120
  631SOL     OW 2791   2.161   7.005   5.632
  631SOL    HW1 2792   2.223   0.017   5.701
  631SOL    HW2 2793   2.173   0.034   5.547
  632SOL     OW 2794   2.358   0.923   0.695
  632SOL    HW1 2795   2.345   1.020   0.713
  632SOL    HW2 2796   2.328   0.901   0.602
  633SOL     OW 2797   3.366   6.578   0.090
  633SOL    HW1 2798   3.421   6.547   0.013
  633SOL    HW2 2799   3.334   6.499   0.143
  634SOL     OW 2800   3.992   5.943   0.989
  634SOL    HW1 2801   4.037   5.930   1.078
  634SOL    HW2 2802   4.053   5.914   0.916
  635SOL     OW 2803   2.801   6.992   3.094
  635SOL    HW1 2804   2.852   0.027   3.157
  635SOL    HW2 2805   2.861   6.921   3.058
  636SOL     OW 2806   5.257   5.203   6.374
  636SOL    HW1 2807   5.325   5.159   6.432
  636SOL    HW2 2808   5.216   5.136   6.312
  637SOL     OW 2809   4.729   4.654   1.541
  637SOL    HW1 2810   4.815   4.619   1.577
  637SOL    HW2 2811   4.711   4.611   1.452
  638SOL     OW 2812   4.854   1.281   1.779
  638SOL    HW1 2813   4.761   1.307   1.756
  638SOL    HW2 2814   4.911   1.283   1.697
  639SOL     OW 2815   4.361   4.666   1.824
  639SOL    HW1 2816   4.445   4.618   1.848
  639SOL    HW2 2817   4.311   4.614   1.754
  640SOL     OW 2818   2.944   3.991   5.622
  640SOL    HW1 2819   3.015   4.040   5.672
  640SOL    HW2 2820   2.985   3.920   5.565
  641SOL     OW 2821   0.010   5.782   4.857
  641SOL    HW1 2822   7.006   5.690   4.831
  641SOL    HW2 2823   0.110   5.789   4.856
  642SOL     OW 2824   0.331   4.952   4.977
  642SOL    HW1 2825   0.319   4.853   4.968
  642SOL    HW2 2826   0.250   4.999   4.942
  643SOL     OW 2827   5.967   5.289   6.142
  643SOL    HW1 2828   6.058   5.329   6.154
  643SOL    HW2 2829   5.969   5.226   6.065
  644SOL     OW 2830   1.117   6.295   3.105
  644SOL    HW1 2831   1.164   6.331   3.186
  644SOL    HW2 2832   1.157   6.207   3.080
  645SOL     OW 2833   4.817   2.357   3.754
  645SOL    HW1 2834   4.876   2.351   3.835
  645SOL    HW2 2835   4.748   2.286   3.757
  646SOL     OW 2836   1.005   0.943   4.473
  646SOL    HW1 2837   0.929   0.890   4.436
  646SOL    HW2 2838   1.027   0.910   4.565
  647SOL     OW 2839   6.040   2.217   0.394
  647SOL    HW1 2840   6.102   2.292   0.414
  647SOL    HW2 2841   5.949   2.239   0.430
  648SOL     OW 2842   5.761   4.133   2.133
  648SOL    HW1 2843   5.677   4.101   2.091
  648SOL    HW2 2844   5.816   4.181   2.066
  649SOL     OW 2845   3.904   4.783   1.353
  649SOL    HW1 2846   3.850   4.706   1.320
  649SOL    HW2 2847   4.000   4.757   1.361
  650SOL     OW 2848   4.555   3.956   0.637
  650SOL    HW1 2849   4.610   3.885   0.680
  650SOL    HW2 2850   4.563   4.041   0.690
  651SOL     OW 2851   0.758   6.346   1.122
  651SOL    HW1 2852   0.723   6.272   1.180
  651SOL    HW2 2853   0.737   6.327   1.027
  652SOL     OW 2854   4.599   0.839   2.658
  652SOL    HW1 2855   4.606   0.847   2.758
  652SOL    HW2 2856   4.618   0.928   2.616
  653SOL     OW 2857   3.341   5.172   4.058
  653SOL    HW1 2858   3.364   5.088   4.009
  653SOL    HW2 2859   3.245   5.169   4.086
  654SOL     OW 2860   0.069   4.737   6.844
  654SOL    HW1 2861   0.058   4.802   6.770
  654SOL    HW2 2862   0.009   4.762   6.920
  655SOL     OW 2863   0.661   0.197   1.225
  655SOL    HW1 2864   0.685   0.104   1.196
  655SOL    HW2 2865   0.721   0.225   1.300
  656SOL     OW 2866   2.384   6.206   2.063
  656SOL    HW1 2867   2.347   6.287   2.110
  656SOL    HW2 2868   2.427   6.145   2.130
  657SOL     OW 2869   3.171   1.250   0.457
  657SOL    HW1 2870   3.262   1.280   0.486
  657SOL    HW2 2871   3.101   1.307   0.501
  658SOL     OW 2872   3.112   3.796   0.033
  658SOL    HW1 2873   3.145   3.702   0.045
  658SOL    HW2 2874   3.189   3.859   0.037
  659SOL     OW 2875   3.002   7.003   6.947
  659SOL    HW1 2876   3.048   6.940   7.009
  659SOL    HW2 2877   2.949   0.047   7.000
  660SOL     OW 2878   3.545   6.043   2.601
  660SOL    HW1 2879   3.571   6.014   2.509
  660SOL    HW2 2880   3.529   5.962   2.658
  661SOL     OW 2881   4.393   6.191   2.986
  661SOL    HW1 2882   4.337   6.241   2.921
  661SOL    HW2 2883   4.377   6.093   2.976
  662SOL     OW 2884   3.653   1.678   6.032
  662SOL    HW1 2885   3.637   1.615   6.108
  662SOL    HW2 2886   3.566   1.717   6.003
  663SOL     OW 2887   2.115   5.331   4.853
  663SOL    HW1 2888   2.025   5.326   4.808
  663SOL    HW2 2889   2.102   5.356   4.949
  664SOL     OW 2890   0.088   0.151   6.602
  664SOL    HW1 2891   0.050   0.095   6.675
  664SOL    HW2 2892   0.170   0.198   6.636
  665SOL     OW 2893   3.001   5.212   3.592
  665SOL    HW1 2894   2.954   5.297   3.616
  665SOL    HW2 2895   2.940   5.134   3.607
  666SOL     OW 2896   3.820   0.577   1.973
  666SOL    HW1 2897   3.913   0.563   2.007
  666SOL    HW2 2898   3.798   0.674   1.977
  667SOL     OW 2899   0.602   5.844   2.023
  667SOL    HW1 2900   0.628   5.933   1.985
  667SOL    HW2 2901   0.684   5.798   2.057
  668SOL     OW 2902   5.730   4.365   6.192
  668SOL    HW1 2903   5.783   4.315   6.123
  668SOL    HW2 2904   5.667   4.428   6.147
  669SOL     OW 2905   5.828   1.385   2.835
  669SOL    HW1 2906   5.766   1.372   2.912
  669SOL    HW2 2907   5.829   1.482   2.808
  670SOL     OW 2908   1.589   2.017   3.935
  670SOL    HW1 2909   1.621   2.107   3.905
  670SOL    HW2 2910   1.548   1.968   3.858
  671SOL     OW 2911   2.215   6.319   1.852
  671SOL    HW1 2912   2.194   6.301   1.948
  671SOL    HW2 2913   2.193   6.239   1.796
  672SOL     OW 2914   0.243   6.209   1.821
  672SOL    HW1 2915   0.220   6.113   1.839
  672SOL    HW2 2916   0.326   6.214   1.766
  673SOL     OW 2917   5.643   6.564   0.710
  673SOL    HW1 2918   5.562   6.514   0.740
  673SOL    HW2 2919   5.634   6.660   0.736
  674SOL     OW 2920   6.647   1.495   5.154
  674SOL    HW1 2921   6.613   1.449   5.072
  674SOL    HW2 2922   6.584   1.480   5.230
  675SOL     OW 2923   5.603   2.329   2.186
  675SOL    HW1 2924   5.653   2.260   2.238
  675SOL    HW2 2925   5.652   2.416   2.189
  676SOL     OW 2926   2.400   4.711   5.440
  676SOL    HW1 2927   2.315   4.681   5.484
  676SOL    HW2 2928   2.434   4.639   5.380
  677SOL     OW 2929   4.746   1.021   1.074
  677SOL    HW1 2930   4.715   1.083   1.002
  677SOL    HW2 2931   4.674   1.010   1.142
  678SOL     OW 2932   2.446   4.237   5.614
  678SOL    HW1 2933   2.500   4.300   5.558
  678SOL    HW2 2934   2.431   4.152   5.563
  679SOL     OW 2935   5.393   1.277   5.658
  679SOL    HW1 2936   5.406   1.181   5.685
  679SOL    HW2 2937   5.297   1.291   5.631
  680SOL     OW 2938   5.336   0.225   4.337
  680SOL    HW1 2939   5.432   0.214   4.311
  680SOL    HW2 2940   5.327   0.225   4.436
  681SOL     OW 2941   5.350   6.254   1.992
  681SOL    HW1 2942   5.353   6.204   2.078
  681SOL    HW2 2943   5.274   6.220   1.936
  682SOL     OW 2944   1.041   0.617   2.411
  682SOL    HW1 2945   1.126   0.577   2.376
  682SOL    HW2 2946   1.013   0.569   2.494
  683SOL     OW 2947   4.240   3.617   1.030
  683SOL    HW1 2948   4.284   3.679   0.966
  683SOL    HW2 2949   4.221   3.530   0.985
  684SOL     OW 2950   6.329   0.523   6.253
  684SOL    HW1 2951   6.233   0.515   6.277
  684SOL    HW2 2952   6.385   0.495   6.331
  685SOL     OW 2953   3.370   1.348   3.639
  685SOL    HW1 2954   3.415   1.265   3.605
  685SOL    HW2 2955   3.298   1.323   3.704
  686SOL     OW 2956   4.215   1.210   4.307
  686SOL    HW1 2957   4.287   1.201   4.238
  686SOL    HW2 2958   4.137   1.259   4.268
  687SOL     OW 2959   0.746   1.878   4.275
  687SOL    HW1 2960   0.793   1.963   4.301
  687SOL    HW2 2961   0.759   1.862   4.177
  688SOL     OW 2962   6.975   1.596   6.702
  688SOL    HW1 2963   0.004   1.614   6.618
  688SOL    HW2 2964   7.020   1.641   6.779
  689SOL     OW 2965   1.026   4.938   5.646
  689SOL    HW1 2966   0.943   4.897   5.682
  689SOL    HW2 2967   1.105   4.886   5.677
  690SOL     OW 2968   6.045   3.524   2.733
  690SOL    HW1 2969   6.108   3.509   2.657
  690SOL    HW2 2970   6.084   3.486   2.817
  691SOL     OW 2971   4.050   1.914   6.858
  691SOL    HW1 2972   4.036   1.968   6.775
  691SOL    HW2 2973   3.961   1.887   6.895
  692SOL     OW 2974   3.278   1.578   5.117
  692SOL    HW1 2975   3.205   1.622   5.066
  692SOL    HW2 2976   3.289   1.624   5.206
  693SOL     OW 2977   5.038   6.033   3.232
  693SOL    HW1 2978   5.031   6.115   3.288
  693SOL    HW2 2979   4.961   6.029   3.168
  694SOL     OW 2980   4.196   5.959   4.677
  694SOL    HW1 2981   4.260   5.959   4.599
  694SOL    HW2 2982   4.152   6.049   4.683
  695SOL     OW 2983   3.244   5.974   3.909
  695SOL    HW1 2984   3.242   6.023   3.995
  695SOL    HW2 2985   3.337   5.943   3.889
  696SOL     OW 2986   4.925   3.691   3.135
  696SOL    HW1 2987   4.907   3.661   3.229
  696SOL    HW2 2988   4.932   3.611   3.075
  697SOL     OW 2989   0.863   4.311   1.778
  697SOL    HW1 2990   0.881   4.313   1.877
  697SOL    HW2 2991   0.802   4.386   1.754
  698SOL     OW 2992   4.717   0.120   1.392
  698SOL    HW1 2993   4.658   0.189   1.350
  698SOL    HW2 2994   4.722   0.040   1.332
  699SOL     OW 2995   2.800   2.577   0.661
  699SOL    HW1 2996   2.789   2.538   0.569
  699SOL    HW2 2997   2.816   2.676   0.653
  700SOL     OW 2998   3.177   0.110   2.995
  700SOL    HW1 2999   3.270   0.133   3.024
  700SOL    HW2 3000   3.139   0.187   2.942
  701SOL     OW 3001   6.436   4.526   1.196
  701SOL    HW1 3002   6.437   4.516   1.096
  701SOL    HW2 3003   6.342   4.532   1.228
  702SOL     OW 3004   2.890   1.155   4.327
  702SOL    HW1 3005   2.946   1.218   4.272
  702SOL    HW2 3006   2.943   1.074   4.349
  703SOL     OW 3007   2.641   3.076   5.906
  703SOL    HW1 3008   2.629   3.156   5.847
  703SOL    HW2 3009   2.671   2.999   5.851
  704SOL     OW 3010   1.320   2.846   6.112
  704SOL    HW1 3011   1.233   2.892   6.098
  704SOL    HW2 3012   1.366   2.885   6.192
  705SOL     OW 3013   6.734   6.045   3.946
  705SOL    HW1 3014   6.664   6.035   4.017
  705SOL    HW2 3015   6.723   5.972   3.878
  706SOL     OW 3016   4.195   0.831   5.582
  706SOL    HW1 3017   4.151   0.885   5.510
  706SOL    HW2 3018   4.293   0.851   5.583
  707SOL     OW 3019   3.662   5.045   3.687
  707SOL    HW1 3020   3.726   5.028   3.762
  707SOL    HW2 3021   3.701   5.010   3.601
  708SOL     OW 3022   2.744   0.648   3.431
  708SOL    HW1 3023   2.750   0.624   3.334
  708SOL    HW2 3024   2.820   0.605   3.480
  709SOL     OW 3025   2.208   0.010   1.555
  709SOL    HW1 3026   2.282   6.972   1.526
  709SOL    HW2 3027   2.148   6.985   1.618
  710SOL     OW 3028   4.898   2.970   1.536
  710SOL    HW1 3029   4.948   3.039   1.589
  710SOL    HW2 3030   4.919   2.980   1.439
  711SOL     OW 3031   0.332   2.766   5.439
  711SOL    HW1 3032   0.233   2.748   5.434
  711SOL    HW2 3033   0.354   2.808   5.527
  712SOL     OW 3034   4.148   2.806   0.935
  712SOL    HW1 3035   4.234   2.811   0.884
  712SOL    HW2 3036   4.113   2.898   0.951
  713SOL     OW 3037   4.017   2.801   5.252
  713SOL    HW1 3038   4.096   2.860   5.270
  713SOL    HW2 3039   4.048   2.706   5.243
  714SOL     OW 3040   6.244   4.269   3.414
  714SOL    HW1 3041   6.309   4.193   3.419
  714SOL    HW2 3042   6.294   4.356   3.419
  715SOL     OW 3043   6.369   5.165   5.478
  715SOL    HW1 3044   6.308   5.228   5.526
  715SOL    HW2 3045   6.451   5.148   5.534
  716SOL     OW 3046   1.966   0.863   2.577
  716SOL    HW1 3047   1.987   0.820   2.490
  716SOL    HW2 3048   2.048   0.911   2.611
  717SOL     OW 3049   5.697   4.958   3.581
  717SOL    HW1 3050   5.631   5.026   3.551
  717SOL    HW2 3051   5.674   4.928   3.674
  718SOL     OW 3052   5.285   1.966   4.269
  718SOL    HW1 3053   5.193   1.983   4.233
  718SOL    HW2 3054   5.346   2.039   4.240
  719SOL     OW 3055   6.678   0.651   2.857
  719SOL    HW1 3056   6.589   0.684   2.889
  719SOL    HW2 3057   6.702   0.698   2.772
  720SOL     OW 3058   1.897   1.046   6.567
  720SOL    HW1 3059   1.864   0.954   6.545
  720SOL    HW2 3060   1.833   1.114   6.530
  721SOL     OW 3061   0.273   2.745   2.502
  721SOL    HW1 3062   0.316   2.835   2.505
  721SOL    HW2 3063   0.175   2.755   2.483
  722SOL     OW 3064   4.167   0.082   6.785
  722SOL    HW1 3065   4.267   0.089   6.780
  722SOL    HW2 3066   4.139   7.013   6.757
  723SOL     OW 3067   2.111   6.221   3.507
  723SOL    HW1 3068   2.134   6.196   3.601
  723SOL    HW2 3069   2.019   6.189   3.485
  724SOL     OW 3070   1.116   1.065   3.578
  724SOL    HW1 3071   1.090   1.132   3.509
  724SOL    HW2 3072   1.046   1.061   3.650
  725SOL     OW 3073   2.238   4.621   2.305
  725SOL    HW1 3074   2.336   4.603   2.299
  725SOL    HW2 3075   2.204   4.586   2.392
  726SOL     OW 3076   2.215   5.109   0.426
  726SOL    HW1 3077   2.126   5.102   0.472
  726SOL    HW2 3078   2.283   5.145   0.489
  727SOL     OW 3079   4.416   5.178   6.048
  727SOL    HW1 3080   4.465   5.195   6.134
  727SOL    HW2 3081   4.335   5.121   6.067
  728SOL     OW 3082   0.153   3.409   4.714
  728SOL    HW1 3083   0.140   3.413   4.813
  728SOL    HW2 3084   0.064   3.400   4.669
  729SOL     OW 3085   0.107   3.276   1.063
  729SOL    HW1 3086   0.027   3.331   1.089
  729SOL    HW2 3087   0.163   3.259   1.144
  730SOL     OW 3088   4.697   0.763   2.904
  730SOL    HW1 3089   4.683   0.688   2.969
  730SOL    HW2 3090   4.794   0.783   2.896
  731SOL     OW 3091   4.593   4.484   6.703
  731SOL    HW1 3092   4.611   4.386   6.692
  731SOL    HW2 3093   4.675   4.536   6.677
  732SOL     OW 3094   5.110   1.744   2.634
  732SOL    HW1 3095   5.134   1.806   2.709
  732SOL    HW2 3096   5.033   1.782   2.582
  733SOL     OW 3097   5.580   6.424   3.345
  733SOL    HW1 3098   5.654   6.415   3.412
  733SOL    HW2 3099   5.604   6.495   3.279
  734SOL     OW 3100   6.252   4.974   2.635
  734SOL    HW1 3101   6.314   4.975   2.713
  734SOL    HW2 3102   6.216   5.066   2.619
  735SOL     OW 3103   5.937   0.691   1.864
  735SOL    HW1 3104   6.020   0.642   1.889
  735SOL    HW2 3105   5.931   0.776   1.916
  736SOL     OW 3106   1.463   1.154   4.350
  736SOL    HW1 3107   1.544   1.206   4.323
  736SOL    HW2 3108   1.429   1.189   4.437
  737SOL     OW 3109   5.999   1.389   6.322
  737SOL    HW1 3110   6.021   1.477   6.280
  737SOL    HW2 3111   6.030   1.314   6.264
  738SOL     OW 3112   2.759   4.206   1.295
  738SOL    HW1 3113   2.684   4.142   1.282
  738SOL    HW2 3114   2.733   4.273   1.364
  739SOL     OW 3115   2.801   6.950   5.034
  739SOL    HW1 3116   2.826   6.946   5.130
  739SOL    HW2 3117   2.823   0.017   4.997
  740SOL     OW 3118   5.715   2.128   2.781
  740SOL    HW1 3119   5.769   2.195   2.831
  740SOL    HW2 3120   5.646   2.175   2.726
  741SOL     OW 3121   2.492   0.583   4.179
  741SOL    HW1 3122   2.549   0.662   4.155
  741SOL    HW2 3123   2.395   0.610   4.178
  742SOL     OW 3124   1.515   6.324   0.586
  742SOL    HW1 3125   1.468   6.253   0.533
  742SOL    HW2 3126   1.512   6.300   0.683
  743SOL     OW 3127   1.045   6.587   3.760
  743SOL    HW1 3128   1.032   6.496   3.720
  743SOL    HW2 3129   0.956   6.625   3.786
  744SOL     OW 3130   5.970   1.168   0.610
  744SOL    HW1 3131   5.965   1.207   0.702
  744SOL    HW2 3132   5.877   1.149   0.577
  745SOL     OW 3133   2.428   5.734   4.819
  745SOL    HW1 3134   2.332   5.706   4.815
  745SOL    HW2 3135   2.485   5.664   4.776
  746SOL     OW 3136   5.655   4.409   5.083
  746SOL    HW1 3137   5.623   4.315   5.089
  746SOL    HW2 3138   5.652   4.439   4.987
  747SOL     OW 3139   5.342   5.306   3.127
  747SOL    HW1 3140   5.296   5.377   3.074
  747SOL    HW2 3141   5.368   5.230   3.066
  748SOL     OW 3142   5.470   5.709   2.532
  748SOL    HW1 3143   5.559   5.697   2.488
  748SOL    HW2 3144   5.401   5.653   2.485
  749SOL     OW 3145   4.811   4.168   3.598
  749SOL    HW1 3146   4.890   4.225   3.621
  749SOL    HW2 3147   4.734   4.225   3.571
  750SOL     OW 3148   2.458   1.786   1.628
  750SOL    HW1 3149   2.496   1.860   1.572
  750SOL    HW2 3150   2.364   1.767   1.599
  751SOL     OW 3151   4.685   1.627   0.476
  751SOL    HW1 3152   4.673   1.575   0.392
  751SOL    HW2 3153   4.609   1.691   0.487
  752SOL     OW 3154   3.307   2.341   5.443
  752SOL    HW1 3155   3.374   2.415   5.446
  752SOL    HW2 3156   3.262   2.339   5.354
  753SOL     OW 3157   3.787   3.774   5.227
  753SOL    HW1 3158   3.858   3.818   5.282
  753SOL    HW2 3159   3.830   3.712   5.161
  754SOL     OW 3160   5.437   0.733   6.688
  754SOL    HW1 3161   5.476   0.691   6.606
  754SOL    HW2 3162   5.349   0.690   6.709
  755SOL     OW 3163   3.020   4.309   5.266
  755SOL    HW1 3164   3.107   4.258   5.268
  755SOL    HW2 3165   3.037   4.402   5.232
  756SOL     OW 3166   2.580   5.456   6.830
  756SOL    HW1 3167   2.657   5.494   6.882
  756SOL    HW2 3168   2.577   5.498   6.739
  757SOL     OW 3169   1.932   6.729   2.423
  757SOL    HW1 3170   1.986   6.743   2.340
  757SOL    HW2 3171   1.854   6.670   2.402
  758SOL     OW 3172   3.943   1.327   4.334
  758SOL    HW1 3173   3.952   1.404   4.397
  758SOL    HW2 3174   3.848   1.296   4.333
  759SOL     OW 3175   0.412   3.457   3.806
  759SOL    HW1 3176   0.396   3.361   3.831
  759SOL    HW2 3177   0.488   3.493   3.861
  760SOL     OW 3178   0.300   0.028   3.836
  760SOL    HW1 3179   0.215   0.004   3.884
  760SOL    HW2 3180   0.285   0.025   3.738
  761SOL     OW 3181   5.226   3.833   5.545
  761SOL    HW1 3182   5.187   3.792   5.627
  761SOL    HW2 3183   5.200   3.930   5.541
  762SOL     OW 3184   2.918   5.847   5.603
  762SOL    HW1 3185   2.872   5.902   5.673
  762SOL    HW2 3186   2.946   5.760   5.643
  763SOL     OW 3187   5.917   0.653   7.008
  763SOL    HW1 3188   5.979   0.639   0.062
  763SOL    HW2 3189   5.823   0.651   0.017
  764SOL     OW 3190   5.629   0.411   5.438
  764SOL    HW1 3191   5.589   0.482   5.379
  764SOL    HW2 3192   5.667   0.339   5.381
  765SOL     OW 3193   0.655   6.595   1.103
  765SOL    HW1 3194   0.607   6.621   1.186
  765SOL    HW2 3195   0.687   6.500   1.111
  766SOL     OW 3196   1.795   2.100   4.732
  766SOL    HW1 3197   1.739   2.127   4.810
  766SOL    HW2 3198   1.771   2.156   4.653
  767SOL     OW 3199   7.010   6.894   4.198
  767SOL    HW1 3200   6.940   6.902   4.127
  767SOL    HW2 3201   0.073   6.865   4.158
  768SOL     OW 3202   2.198   6.045   2.402
  768SOL    HW1 3203   2.278   6.010   2.354
  768SOL    HW2 3204   2.145   6.103   2.340
  769SOL     OW 3205   3.336   1.652   4.794
  769SOL    HW1 3206   3.257   1.647   4.855
  769SOL    HW2 3207   3.309   1.629   4.701
  770SOL     OW 3208   2.397   4.760   4.418
  770SOL    HW1 3209   2.319   4.803   4.463
  770SOL    HW2 3210   2.366   4.709   4.337
  771SOL     OW 3211   1.267   5.279   2.421
  771SOL    HW1 3212   1.305   5.190   2.396
  771SOL    HW2 3213   1.182   5.295   2.371
  772SOL     OW 3214   4.957   5.067   6.631
  772SOL    HW1 3215   4.985   5.157   6.597
  772SOL    HW2 3216   4.986   5.057   6.727
  773SOL     OW 3217   0.862   3.562   3.784
  773SOL    HW1 3218   0.927   3.636   3.800
  773SOL    HW2 3219   0.910   3.474   3.788
  774SOL     OW 3220   1.875   1.839   3.509
  774SOL    HW1 3221   1.923   1.861   3.594
  774SOL    HW2 3222   1.814   1.762   3.523
  775SOL     OW 3223   2.191   4.101   3.970
  775SOL    HW1 3224   2.159   4.092   3.875
  775SOL    HW2 3225   2.161   4.022   4.023
  776SOL     OW 3226   1.233   6.807   6.193
  776SOL    HW1 3227   1.215   6.886   6.134
  776SOL    HW2 3228   1.178   6.730   6.163
  777SOL     OW 3229   1.870   3.606   6.859
  777SOL    HW1 3230   1.967   3.628   6.873
  777SOL    HW2 3231   1.824   3.602   6.948
  778SOL     OW 3232   3.609   6.644   1.814
  778SOL    HW1 3233   3.653   6.570   1.764
  778SOL    HW2 3234   3.633   6.637   1.911
  779SOL     OW 3235   0.209   2.653   2.118
  779SOL    HW1 3236   0.139   2.610   2.174
  779SOL    HW2 3237   0.294   2.659   2.171
  780SOL     OW 3238   1.490   1.989   5.082
  780SOL    HW1 3239   1.519   2.082   5.059
  780SOL    HW2 3240   1.558   1.924   5.048
  781SOL     OW 3241   0.626   4.234   0.685
  781SOL    HW1 3242   0.590   4.211   0.595
  781SOL    HW2 3243   0.555   4.278   0.740
  782SOL     OW 3244   1.818   3.951   6.163
  782SOL    HW1 3245   1.856   3.860   6.180
  782SOL    HW2 3246   1.868   3.995   6.088
  783SOL     OW 3247   5.325   4.340   6.643
  783SOL    HW1 3248   5.265   4.420   6.650
  783SOL    HW2 3249   5.365   4.337   6.551
  784SOL     OW 3250   3.451   6.146   1.509
  784SOL    HW1 3251   3.458   6.103   1.419
  784SOL    HW2 3252   3.429   6.243   1.499
  785SOL     OW 3253   0.716   0.126   4.324
  785SOL    HW1 3254   0.693   0.147   4.229
  785SOL    HW2 3255   0.785   0.054   4.327
  786SOL     OW 3256   6.559   1.299   3.552
  786SOL    HW1 3257   6.553   1.210   3.507
  786SOL    HW2 3258   6.563   1.371   3.484
  787SOL     OW 3259   2.507   6.979   0.002
  787SOL    HW1 3260   2.449   0.036   0.015
  787SOL    HW2 3261   2.471   6.903   0.056
  788SOL     OW 3262   3.796   3.319   1.085
  788SOL    HW1 3263   3.811   3.226   1.117
  788SOL    HW2 3264   3.804   3.383   1.162
  789SOL     OW 3265   4.378   5.643   1.332
  789SOL    HW1 3266   4.368   5.580   1.409
  789SOL    HW2 3267   4.435   5.721   1.360
  790SOL     OW 3268   0.378   3.054   1.961
  790SOL    HW1 3269   0.429   2.972   1.986
  790SOL    HW2 3270   0.430   3.106   1.893
  791SOL     OW 3271   3.181   5.045   5.447
  791SOL    HW1 3272   3.225   4.964   5.409
  791SOL    HW2 3273   3.184   5.119   5.380
  792SOL     OW 3274   0.880   0.953   0.894
  792SOL    HW1 3275   0.811   1.014   0.856
  792SOL    HW2 3276   0.878   0.866   0.845
  793SOL     OW 3277   3.710   5.653   3.599
  793SOL    HW1 3278   3.743   5.559   3.611
  793SOL    HW2 3279   3.617   5.651   3.561
  794SOL     OW 3280   3.075   3.226   3.872
  794SOL    HW1 3281   3.139   3.153   3.845
  794SOL    HW2 3282   3.038   3.269   3.791
  795SOL     OW 3283   3.768   1.270   6.621
  795SOL    HW1 3284   3.826   1.189   6.623
  795SOL    HW2 3285   3.736   1.286   6.527
  796SOL     OW 3286   1.812   3.366   6.633
  796SOL    HW1 3287   1.800   3.463   6.612
  796SOL    HW2 3288   1.899   3.334   6.597
  797SOL     OW 3289   4.905   7.020   0.382
  797SOL    HW1 3290   4.922   6.967   0.299
  797SOL    HW2 3291   4.982   7.010   0.445
  798SOL     OW 3292   3.699   6.306   1.227
  798SOL    HW1 3293   3.634   6.235   1.202
  798SOL    HW2 3294   3.687   6.385   1.168
  799SOL     OW 3295   1.336   1.781   6.543
  799SOL    HW1 3296   1.290   1.703   6.500
  799SOL    HW2 3297   1.434   1.762   6.550
  800SOL     OW 3298   6.298   2.004   2.052
  800SOL    HW1 3299   6.390   1.972   2.076
  800SOL    HW2 3300   6.297   2.033   1.956
  801SOL     OW 3301   2.108   5.165   5.554
  801SOL    HW1 3302   2.053   5.162   5.637
  801SOL    HW2 3303   2.072   5.235   5.492
  802SOL     OW 3304   5.274   2.440   0.297
  802SOL    HW1 3305   5.291   2.343   0.275
  802SOL    HW2 3306   5.284   2.495   0.214
  803SOL     OW 3307   2.819   1.114   5.562
  803SOL    HW1 3308   2.756   1.067   5.500
  803SOL    HW2 3309   2.912   1.086   5.541
  804SOL     OW 3310   6.466   0.485   1.560
  804SOL    HW1 3311   6.480   0.509   1.656
  804SOL    HW2 3312   6.478   0.566   1.503
  805SOL     OW 3313   3.096   1.211   4.001
  805SOL    HW1 3314   3.038   1.130   3.999
  805SOL    HW2 3315   3.106   1.243   4.095
  806SOL     OW 3316   1.380   6.590   5.325
  806SOL    HW1 3317   1.438   6.649   5.381
  806SOL    HW2 3318   1.397   6.610   5.228
  807SOL     OW 3319   0.275   6.423   5.147
  807SOL    HW1 3320   0.322   6.495   5.197
  807SOL    HW2 3321   0.285   6.439   5.048
  808SOL     OW 3322   5.761   3.064   0.459
  808SOL    HW1 3323   5.738   2.972   0.489
  808SOL    HW2 3324   5.680   3.107   0.419
  809SOL     OW 3325   0.882   5.254   0.266
  809SOL    HW1 3326   0.822   5.224   0.191
  809SOL    HW2 3327   0.933   5.335   0.237
  810SOL     OW 3328   2.742   3.480   0.203
  810SOL    HW1 3329   2.752   3.574   0.237
  810SOL    HW2 3330   2.714   3.420   0.278
  811SOL     OW 3331   5.432   4.914   4.621
  811SOL    HW1 3332   5.333   4.904   4.628
  811SOL    HW2 3333   5.457   4.925   4.525
  812SOL     OW 3334   0.545   2.206   2.303
  812SOL    HW1 3335   0.471   2.259   2.263
  812SOL    HW2 3336   0.510   2.120   2.341
  813SOL     OW 3337   1.560   1.524   4.727
  813SOL    HW1 3338   1.473   1.474   4.725
  813SOL    HW2 3339   1.540   1.622   4.732
  814SOL     OW 3340   0.606   6.004   3.232
  814SOL    HW1 3341   0.513   5.976   3.210
  814SOL    HW2 3342   0.669   5.968   3.163
  815SOL     OW 3343   5.118   2.263   3.961
  815SOL    HW1 3344   5.054   2.238   4.033
  815SOL    HW2 3345   5.189   2.323   3.997
  816SOL     OW 3346   5.175   3.219   0.555
  816SOL    HW1 3347   5.242   3.147   0.535
  816SOL    HW2 3348   5.196   3.261   0.643
  817SOL     OW 3349   1.445   5.491   0.806
  817SOL    HW1 3350   1.419   5.402   0.767
  817SOL    HW2 3351   1.527   5.480   0.861
  818SOL     OW 3352   5.799   2.815   3.698
  818SOL    HW1 3353   5.702   2.812   3.677
  818SOL    HW2 3354   5.838   2.723   3.694
  819SOL     OW 3355   5.241   2.366   1.605
  819SOL    HW1 3356   5.324   2.402   1.647
  819SOL    HW2 3357   5.161   2.405   1.650
  820SOL     OW 3358   2.185   1.816   4.603
  820SOL    HW1 3359   2.182   1.909   4.567
  820SOL    HW2 3360   2.279   1.783   4.603
  821SOL     OW 3361   5.546   3.920   5.282
  821SOL    HW1 3362   5.612   3.940   5.355
  821SOL    HW2 3363   5.494   3.838   5.306
  822SOL     OW 3364   0.908   4.328   3.739
  822SOL    HW1 3365   0.823   4.278   3.754
  822SOL    HW2 3366   0.920   4.396   3.812
  823SOL     OW 3367   0.876   3.613   6.115
  823SOL    HW1 3368   0.882   3.522   6.075
  823SOL    HW2 3369   0.903   3.609   6.211
  824SOL     OW 3370   5.670   0.944   5.133
  824SOL    HW1 3371   5.666   0.879   5.057
  824SOL    HW2 3372   5.749   0.923   5.190
  825SOL     OW 3373   6.499   5.914   1.069
  825SOL    HW1 3374   6.534   5.952   1.155
  825SOL    HW2 3375   6.555   5.948   0.994
  826SOL     OW 3376   3.764   1.321   5.816
  826SOL    HW1 3377   3.844   1.262   5.810
  826SOL    HW2 3378   3.681   1.265   5.826
  827SOL     OW 3379   3.356   3.823   4.348
  827SOL    HW1 3380   3.392   3.765   4.420
  827SOL    HW2 3381   3.272   3.868   4.380
  828SOL     OW 3382   6.093   5.858   4.625
  828SOL    HW1 3383   6.035   5.777   4.621
  828SOL    HW2 3384   6.110   5.891   4.533
  829SOL     OW 3385   3.367   2.865   3.022
  829SOL    HW1 3386   3.382   2.808   2.941
  829SOL    HW2 3387   3.298   2.935   3.001
  830SOL     OW 3388   6.829   4.507   0.019
  830SOL    HW1 3389   6.804   4.421   0.062
  830SOL    HW2 3390   6.775   4.581   0.059
  831SOL     OW 3391   5.559   6.405   1.116
  831SOL    HW1 3392   5.474   6.384   1.164
  831SOL    HW2 3393   5.632   6.345   1.149
  832SOL     OW 3394   3.414   1.873   4.944
  832SOL    HW1 3395   3.371   1.850   5.031
  832SOL    HW2 3396   3.411   1.794   4.883
  833SOL     OW 3397   1.668   3.419   6.129
  833SOL    HW1 3398   1.595   3.390   6.068
  833SOL    HW2 3399   1.746   3.451   6.075
  834SOL     OW 3400   4.675   3.989   6.894
  834SOL    HW1 3401   4.751   4.048   6.920
  834SOL    HW2 3402   4.687   3.961   6.798
  835SOL     OW 3403   1.249   0.303   3.972
  835SOL    HW1 3404   1.252   0.352   4.059
  835SOL    HW2 3405   1.154   0.288   3.946
  836SOL     OW 3406   3.329   1.342   5.452
  836SOL    HW1 3407   3.338   1.297   5.541
  836SOL    HW2 3408   3.258   1.295   5.399
  837SOL     OW 3409   1.449   0.299   0.828
  837SOL    HW1 3410   1.531   0.346   0.859
  837SOL    HW2 3411   1.443   0.210   0.873
  838SOL     OW 3412   2.108   5.590   3.849
  838SOL    HW1 3413   2.094   5.491   3.852
  838SOL    HW2 3414   2.152   5.614   3.762
  839SOL     OW 3415   1.670   1.316   1.300
  839SOL    HW1 3416   1.735   1.241   1.306
  839SOL    HW2 3417   1.577   1.282   1.315
  840SOL     OW 3418   5.790   5.282   0.187
  840SOL    HW1 3419   5.857   5.259   0.257
  840SOL    HW2 3420   5.831   5.341   0.119
  841SOL     OW 3421   3.934   4.822   5.405
  841SOL    HW1 3422   3.911   4.819   5.307
  841SOL    HW2 3423   3.941   4.917   5.434
  842SOL     OW 3424   3.025   0.312   0.198
  842SOL    HW1 3425   3.011   0.371   0.277
  842SOL    HW2 3426   3.109   0.259   0.210
  843SOL     OW 3427   1.432   1.676   1.675
  843SOL    HW1 3428   1.468   1.588   1.707
  843SOL    HW2 3429   1.505   1.743   1.672
  844SOL     OW 3430   6.841   0.085   1.055
  844SOL    HW1 3431   6.807   0.166   1.007
  844SOL    HW2 3432   6.845   0.104   1.153
  845SOL     OW 3433   3.355   1.634   2.641
  845SOL    HW1 3434   3.378   1.643   2.545
  845SOL    HW2 3435   3.317   1.720   2.674
  846SOL     OW 3436   2.376   1.718   0.109
  846SOL    HW1 3437   2.388   1.660   0.189
  846SOL    HW2 3438   2.422   1.805   0.124
  847SOL     OW 3439   2.538   3.641   1.568
  847SOL    HW1 3440   2.469   3.685   1.625
  847SOL    HW2 3441   2.525   3.542   1.569
  848SOL     OW 3442   6.522   6.478   6.214
  848SOL    HW1 3443   6.558   6.523   6.132
  848SOL    HW2 3444   6.434   6.436   6.192
  849SOL     OW 3445   5.780   3.864   0.124
  849SOL    HW1 3446   5.870   3.860   0.167
  849SOL    HW2 3447   5.789   3.902   0.032
  850SOL     OW 3448   6.945   0.667   5.389
  850SOL    HW1 3449   6.900   0.624   5.311
  850SOL    HW2 3450   6.892   0.747   5.418
  851SOL     OW 3451   6.544   2.950   6.518
  851SOL    HW1 3452   6.620   2.936   6.455
  851SOL    HW2 3453   6.462   2.977   6.467
  852SOL     OW 3454   0.014   3.724   1.720
  852SOL    HW1 3455   6.955   3.777   1.698
  852SOL    HW2 3456   7.023   3.629   1.693
  853SOL     OW 3457   1.883   4.127   0.243
  853SOL    HW1 3458   1.784   4.127   0.253
  853SOL    HW2 3459   1.918   4.220   0.256
  854SOL     OW 3460   6.237   6.239   6.829
  854SOL    HW1 3461   6.204   6.220   6.921
  854SOL    HW2 3462   6.336   6.251   6.831
  855SOL     OW 3463   0.130   0.895   0.185
  855SOL    HW1 3464   0.085   0.818   0.140
  855SOL    HW2 3465   0.063   0.943   0.242
  856SOL     OW 3466   2.058   6.595   6.506
  856SOL    HW1 3467   2.077   6.539   6.586
  856SOL    HW2 3468   2.087   6.689   6.523
  857SOL     OW 3469   0.110   4.821   3.907
  857SOL    HW1 3470   0.056   4.738   3.921
  857SOL    HW2 3471   0.052   4.893   3.871
  858SOL     OW 3472   4.009   4.075   0.498
  858SOL    HW1 3473   4.102   4.047   0.476
  858SOL    HW2 3474   3.977   4.025   0.579
  859SOL     OW 3475   4.028   7.022   5.142
  859SOL    HW1 3476   4.004   0.096   5.151
  859SOL    HW2 3477   4.128   7.013   5.137
  860SOL     OW 3478   5.113   2.510   5.270
  860SOL    HW1 3479   5.180   2.516   5.344
  860SOL    HW2 3480   5.022   2.533   5.305
  861SOL     OW 3481   2.064   5.627   3.045
  861SOL    HW1 3482   2.073   5.573   3.129
  861SOL    HW2 3483   2.028   5.570   2.972
  862SOL     OW 3484   1.707   4.392   3.863
  862SOL    HW1 3485   1.801   4.373   3.892
  862SOL    HW2 3486   1.665   4.455   3.929
  863SOL     OW 3487   6.921   0.314   5.822
  863SOL    HW1 3488   7.000   0.287   5.876
  863SOL    HW2 3489   6.856   0.238   5.817
  864SOL     OW 3490   4.892   6.976   5.153
  864SOL    HW1 3491   4.944   6.956   5.070
  864SOL    HW2 3492   4.857   0.046   5.149
  865SOL     OW 3493   1.982   5.977   4.641
  865SOL    HW1 3494   2.067   5.978   4.590
  865SOL    HW2 3495   1.907   6.011   4.583
  866SOL     OW 3496   2.410   6.860   1.720
  866SOL    HW1 3497   2.461   6.906   1.793
  866SOL    HW2 3498   2.463   6.863   1.635
  867SOL     OW 3499   5.561   1.861   0.656
  867SOL    HW1 3500   5.570   1.762   0.654
  867SOL    HW2 3501   5.638   1.900   0.709
  868SOL     OW 3502   6.826   2.754   2.140
  868SOL    HW1 3503   6.809   2.766   2.042
  868SOL    HW2 3504   6.744   2.780   2.192
  869SOL     OW 3505   0.053   3.812   4.119
  869SOL    HW1 3506   7.013   3.890   4.123
  869SOL    HW2 3507   0.107   3.809   4.204
  870SOL     OW 3508   3.396   5.177   1.478
  870SOL    HW1 3509   3.415   5.169   1.576
  870SOL    HW2 3510   3.386   5.086   1.439
  871SOL     OW 3511   4.911   1.677   3.782
  871SOL    HW1 3512   4.883   1.758   3.833
  871SOL    HW2 3513   4.857   1.670   3.698
  872SOL     OW 3514   6.782   2.454   4.479
  872SOL    HW1 3515   6.854   2.488   4.419
  872SOL    HW2 3516   6.693   2.488   4.447
  873SOL     OW 3517   4.265   6.475   5.322
  873SOL    HW1 3518   4.202   6.445   5.250
  873SOL    HW2 3519   4.262   6.575   5.329
  874SOL     OW 3520   5.429   3.905   0.363
  874SOL    HW1 3521   5.470   3.911   0.454
  874SOL    HW2 3522   5.466   3.977   0.304
  875SOL     OW 3523   5.137   5.189   1.008
  875SOL    HW1 3524   5.207   5.261   1.018
  875SOL    HW2 3525   5.153   5.118   1.077
  876SOL     OW 3526   0.194   5.393   1.987
  876SOL    HW1 3527   0.131   5.466   1.960
  876SOL    HW2 3528   0.209   5.397   2.086
  877SOL     OW 3529   2.791   4.616   6.964
  877SOL    HW1 3530   2.803   4.613   0.040
  877SOL    HW2 3531   2.861   4.674   6.923
  878SOL     OW 3532   4.093   6.879   3.914
  878SOL    HW1 3533   4.175   6.835   3.949
  878SOL    HW2 3534   4.115   6.930   3.831
  879SOL     OW 3535   4.545   0.560   0.966
  879SOL    HW1 3536   4.595   0.643   0.942
  879SOL    HW2 3537   4.610   0.487   0.988
  880SOL     OW 3538   2.963   3.623   3.726
  880SOL    HW1 3539   2.952   3.660   3.634
  880SOL    HW2 3540   2.958   3.697   3.793
  881SOL     OW 3541   4.449   2.490   5.186
  881SOL    HW1 3542   4.479   2.584   5.172
  881SOL    HW2 3543   4.367   2.472   5.131
  882SOL     OW 3544   0.867   3.366   4.720
  882SOL    HW1 3545   0.936   3.420   4.768
  882SOL    HW2 3546   0.780   3.414   4.719
  883SOL     OW 3547   3.077   0.331   2.868
  883SOL    HW1 3548   3.040   0.273   2.795
  883SOL    HW2 3549   3.073   0.427   2.839
  884SOL     OW 3550   4.807   3.094   5.111
  884SOL    HW1 3551   4.827   3.188   5.138
  884SOL    HW2 3552   4.748   3.051   5.180
  885SOL     OW 3553   2.729   1.606   5.682
  885SOL    HW1 3554   2.751   1.535   5.615
  885SOL    HW2 3555   2.651   1.660   5.649
  886SOL     OW 3556   3.384   0.565   0.038
  886SOL    HW1 3557   3.413   0.659   0.025
  886SOL    HW2 3558   3.284   0.560   0.035
  887SOL     OW 3559   3.654   7.003   3.842
  887SOL    HW1 3560   3.748   6.999   3.877
  887SOL    HW2 3561   3.594   0.016   3.913
  888SOL     OW 3562   0.596   0.701   3.179
  888SOL    HW1 3563   0.537   0.621   3.173
  888SOL    HW2 3564   0.597   0.749   3.091
  889SOL     OW 3565   0.623   3.646   0.235
  889SOL    HW1 3566   0.594   3.553   0.210
  889SOL    HW2 3567   0.652   3.695   0.154
  890SOL     OW 3568   1.658   5.538   3.910
  890SOL    HW1 3569   1.701   5.563   3.823
  890SOL    HW2 3570   1.595   5.610   3.939
  891SOL     OW 3571   5.128   5.646   1.120
  891SOL    HW1 3572   5.195   5.715   1.093
  891SOL    HW2 3573   5.110   5.654   1.218
  892SOL     OW 3574   2.577   3.959   5.700
  892SOL    HW1 3575   2.484   3.956   5.737
  892SOL    HW2 3576   2.642   3.976   5.774
  893SOL     OW 3577   2.456   6.274   2.492
  893SOL    HW1 3578   2.428   6.367   2.468
  893SOL    HW2 3579   2.405   6.245   2.573
  894SOL     OW 3580   0.945   3.458   1.735
  894SOL    HW1 3581   0.904   3.537   1.688
  894SOL    HW2 3582   1.007   3.491   1.806
  895SOL     OW 3583   0.368   5.082   3.316
  895SOL    HW1 3584   0.335   5.049   3.404
  895SOL    HW2 3585   0.290   5.099   3.255
  896SOL     OW 3586   5.888   5.208   0.459
  896SOL    HW1 3587   5.883   5.205   0.559
  896SOL    HW2 3588   5.877   5.116   0.422
  897SOL     OW 3589   5.071   1.038   0.633
  897SOL    HW1 3590   5.037   1.119   0.680
  897SOL    HW2 3591   5.089   1.060   0.537
  898SOL     OW 3592   3.584   6.312   2.551
  898SOL    HW1 3593   3.676   6.335   2.519
  898SOL    HW2 3594   3.577   6.213   2.563
  899SOL     OW 3595   0.280   5.498   6.236
  899SOL    HW1 3596   0.291   5.579   6.179
  899SOL    HW2 3597   0.370   5.468   6.267
  900SOL     OW 3598   6.065   6.865   0.055
  900SOL    HW1 3599   6.132   6.810   0.104
  900SOL    HW2 3600   6.101   6.958   0.043
  901SOL     OW 3601   2.187   0.503   2.566
  901SOL    HW1 3602   2.114   0.481   2.502
  901SOL    HW2 3603   2.276   0.485   2.523
  902SOL     OW 3604   6.969   3.461   0.388
  902SOL    HW1 3605   6.873   3.435   0.394
  902SOL    HW2 3606   7.023   3.407   0.452
  903SOL     OW 3607   6.912   2.326   6.399
  903SOL    HW1 3608   6.903   2.226   6.394
  903SOL    HW2 3609   6.826   2.368   6.370
  904SOL     OW 3610   2.873   2.290   3.650
  904SOL    HW1 3611   2.862   2.295   3.551
  904SOL    HW2 3612   2.806   2.349   3.694
  905SOL     OW 3613   5.366   2.173   0.286
  905SOL    HW1 3614   5.443   2.130   0.332
  905SOL    HW2 3615   5.303   2.102   0.254
  906SOL     OW 3616   0.413   2.406   5.810
  906SOL    HW1 3617   0.496   2.438   5.855
  906SOL    HW2 3618   0.424   2.310   5.783
  907SOL     OW 3619   4.936   3.114   0.439
  907SOL    HW1 3620   4.879   3.188   0.476
  907SOL    HW2 3621   5.032   3.134   0.455
  908SOL     OW 3622   2.684   5.031   2.367
  908SOL    HW1 3623   2.690   5.026   2.267
  908SOL    HW2 3624   2.705   4.941   2.406
  909SOL     OW 3625   4.178   5.442   6.487
  909SOL    HW1 3626   4.098   5.388   6.513
  909SOL    HW2 3627   4.201   5.506   6.561
  910SOL     OW 3628   2.744   3.008   1.472
  910SOL    HW1 3629   2.689   2.988   1.391
  910SOL    HW2 3630   2.829   3.053   1.444
  911SOL     OW 3631   1.907   5.704   6.010
  911SOL    HW1 3632   1.884   5.761   5.931
  911SOL    HW2 3633   1.862   5.739   6.091
  912SOL     OW 3634   5.550   2.566   3.526
  912SOL    HW1 3635   5.512   2.488   3.575
  912SOL    HW2 3636   5.553   2.546   3.428
  913SOL     OW 3637   5.223   6.203   3.066
  913SOL    HW1 3638   5.171   6.140   3.125
  913SOL    HW2 3639   5.184   6.201   2.974
  914SOL     OW 3640   2.510   0.184   6.602
  914SOL    HW1 3641   2.469   0.274   6.619
  914SOL    HW2 3642   2.596   0.176   6.652
  915SOL     OW 3643   5.968   4.507   0.004
  915SOL    HW1 3644   5.966   4.408   0.016
  915SOL    HW2 3645   6.058   4.542   0.026
  916SOL     OW 3646   1.304   2.353   2.110
  916SOL    HW1 3647   1.355   2.409   2.044
  916SOL    HW2 3648   1.360   2.341   2.192
  917SOL     OW 3649   6.991   6.574   0.738
  917SOL    HW1 3650   0.012   6.616   0.658
  917SOL    HW2 3651   6.893   6.567   0.722
  918SOL     OW 3652   2.367   6.781   1.159
  918SOL    HW1 3653   2.432   6.831   1.101
  918SOL    HW2 3654   2.386   6.683   1.153
  919SOL     OW 3655   5.940   1.071   3.752
  919SOL    HW1 3656   5.841   1.073   3.766
  919SOL    HW2 3657   5.977   1.164   3.760
  920SOL     OW 3658   2.289   4.526   1.521
  920SOL    HW1 3659   2.261   4.433   1.496
  920SOL    HW2 3660   2.381   4.523   1.560
  921SOL     OW 3661   4.947   5.620   4.491
  921SOL    HW1 3662   4.885   5.545   4.515
  921SOL    HW2 3663   5.002   5.645   4.570
  922SOL     OW 3664   3.783   3.558   4.149
  922SOL    HW1 3665   3.740   3.501   4.079
  922SOL    HW2 3666   3.881   3.562   4.133
  923SOL     OW 3667   2.259   3.070   5.950
  923SOL    HW1 3668   2.338   3.076   6.011
  923SOL    HW2 3669   2.281   3.009   5.874
  924SOL     OW 3670   6.484   3.713   2.620
  924SOL    HW1 3671   6.526   3.649   2.555
  924SOL    HW2 3672   6.453   3.795   2.571
  925SOL     OW 3673   6.954   1.909   0.222
  925SOL    HW1 3674   6.927   1.914   0.318
  925SOL    HW2 3675   0.031   1.912   0.216
  926SOL     OW 3676   6.957   1.349   1.534
  926SOL    HW1 3677   0.019   1.298   1.546
  926SOL    HW2 3678   6.970   1.443   1.567
  927SOL     OW 3679   5.863   3.810   4.153
  927SOL    HW1 3680   5.961   3.822   4.133
  927SOL    HW2 3681   5.849   3.808   4.252
  928SOL     OW 3682   3.121   6.306   6.938
  928SOL    HW1 3683   3.195   6.299   7.005
  928SOL    HW2 3684   3.107   6.218   6.894
  929SOL     OW 3685   6.580   1.303   6.663
  929SOL    HW1 3686   6.669   1.326   6.701
  929SOL    HW2 3687   6.539   1.230   6.718
  930SOL     OW 3688   4.045   4.976   5.827
  930SOL    HW1 3689   3.965   4.916   5.816
  930SOL    HW2 3690   4.016   5.072   5.818
  931SOL     OW 3691   6.289   2.509   3.566
  931SOL    HW1 3692   6.205   2.561   3.583
  931SOL    HW2 3693   6.360   2.541   3.627
  932SOL     OW 3694   3.696   0.614   3.568
  932SOL    HW1 3695   3.746   0.689   3.612
  932SOL    HW2 3696   3.749   0.579   3.491
  933SOL     OW 3697   1.144   5.121   2.766
  933SOL    HW1 3698   1.120   5.174   2.847
  933SOL    HW2 3699   1.239   5.141   2.740
  934SOL     OW 3700   2.439   5.482   6.140
  934SOL    HW1 3701   2.353   5.474   6.091
  934SOL    HW2 3702   2.426   5.455   6.235
  935SOL     OW 3703   5.184   4.167   3.478
  935SOL    HW1 3704   5.267   4.199   3.432
  935SOL    HW2 3705   5.131   4.246   3.509
  936SOL     OW 3706   1.256   0.693   5.841
  936SOL    HW1 3707   1.201   0.617   5.876
  936SOL    HW2 3708   1.197   0.753   5.785
  937SOL     OW 3709   4.176   1.156   5.494
  937SOL    HW1 3710   4.097   1.217   5.493
  937SOL    HW2 3711   4.260   1.210   5.495
  938SOL     OW 3712   6.770   5.562   3.863
  938SOL    HW1 3713   6.806   5.645   3.906
  938SOL    HW2 3714   6.832   5.531   3.791
  939SOL     OW 3715   6.714   6.558   4.709
  939SOL    HW1 3716   6.747   6.610   4.630
  939SOL    HW2 3717   6.791   6.534   4.767
  940SOL     OW 3718   1.326   4.993   0.829
  940SOL    HW1 3719   1.288   4.906   0.860
  940SOL    HW2 3720   1.266   5.068   0.857
  941SOL     OW 3721   4.223   0.429   6.326
  941SOL    HW1 3722   4.154   0.434   6.253
  941SOL    HW2 3723   4.180   0.446   6.414
  942SOL     OW 3724   6.763   5.993   0.867
  942SOL    HW1 3725   6.721   5.918   0.816
  942SOL    HW2 3726   6.792   6.064   0.803
  943SOL     OW 3727   3.017   4.896   2.672
  943SOL    HW1 3728   2.936   4.953   2.686
  943SOL    HW2 3729   3.053   4.912   2.580
  944SOL     OW 3730   0.238   6.236   4.363
  944SOL    HW1 3731   0.163   6.180   4.329
  944SOL    HW2 3732   0.264   6.205   4.455
  945SOL     OW 3733   0.415   5.686   5.798
  945SOL    HW1 3734   0.490   5.661   5.737
  945SOL    HW2 3735   0.341   5.620   5.789
  946SOL     OW 3736   5.077   4.972   4.134
  946SOL    HW1 3737   5.100   4.893   4.191
  946SOL    HW2 3738   4.993   4.953   4.083
  947SOL     OW 3739   3.905   3.597   3.690
  947SOL    HW1 3740   3.888   3.680   3.744
  947SOL    HW2 3741   3.857   3.520   3.734
  948SOL     OW 3742   4.680   1.077   2.525
  948SOL    HW1 3743   4.696   1.168   2.562
  948SOL    HW2 3744   4.655   1.084   2.429
  949SOL     OW 3745   3.088   6.643   0.201
  949SOL    HW1 3746   3.168   6.591   0.169
  949SOL    HW2 3747   3.055   6.603   0.286
  950SOL     OW 3748   6.571   5.879   1.845
  950SOL    HW1 3749   6.599   5.832   1.761
  950SOL    HW2 3750   6.489   5.836   1.881
  951SOL     OW 3751   1.479   0.037   3.405
  951SOL    HW1 3752   1.566   0.042   3.356
  951SOL    HW2 3753   1.495   0.045   3.503
  952SOL     OW 3754   4.180   2.090   2.381
  952SOL    HW1 3755   4.113   2.016   2.370
  952SOL    HW2 3756   4.184   2.143   2.296
  953SOL     OW 3757   6.921   5.547   4.845
  953SOL    HW1 3758   6.833   5.593   4.838
  953SOL    HW2 3759   6.920   5.463   4.790
  954SOL     OW 3760   5.090   5.411   2.090
  954SOL    HW1 3761   5.112   5.329   2.144
  954SOL    HW2 3762   5.087   5.491   2.150
  955SOL     OW 3763   1.544   4.609   6.833
  955SOL    HW1 3764   1.622   4.637   6.889
  955SOL    HW2 3765   1.556   4.514   6.805
  956SOL     OW 3766   0.595   0.470   0.823
  956SOL    HW1 3767   0.646   0.547   0.862
  956SOL    HW2 3768   0.606   0.390   0.883
  957SOL     OW 3769   6.272   2.216   3.257
  957SOL    HW1 3770   6.339   2.145   3.281
  957SOL    HW2 3771   6.198   2.174   3.203
  958SOL     OW 3772   5.175   6.896   2.248
  958SOL    HW1 3773   5.258   6.863   2.293
  958SOL    HW2 3774   5.103   6.910   2.316
  959SOL     OW 3775   3.372   0.026   3.918
  959SOL    HW1 3776   3.273   0.039   3.915
  959SOL    HW2 3777   3.394   6.963   3.962
  960SOL     OW 3778   0.832   0.193   6.957
  960SOL    HW1 3779   0.784   0.112   6.923
  960SOL    HW2 3780   0.929   0.188   6.931
  961SOL     OW 3781   3.215   6.219   3.127
  961SOL    HW1 3782   3.146   6.220   3.054
  961SOL    HW2 3783   3.305   6.203   3.087
  962SOL     OW 3784   6.491   0.026   4.629
  962SOL    HW1 3785   6.501   0.090   4.705
  962SOL    HW2 3786   6.403   7.002   4.635
  963SOL     OW 3787   4.598   2.147   1.359
  963SOL    HW1 3788   4.552   2.169   1.445
  963SOL    HW2 3789   4.533   2.103   1.298
  964SOL     OW 3790   5.044   4.472   4.903
  964SOL    HW1 3791   5.027   4.417   4.985
  964SOL    HW2 3792   5.011   4.565   4.917
  965SOL     OW 3793   5.519   2.231   2.640
  965SOL    HW1 3794   5.455   2.274   2.704
  965SOL    HW2 3795   5.497   2.258   2.547
  966SOL     OW 3796   5.295   2.023   3.542
  966SOL    HW1 3797   5.281   2.094   3.612
  966SOL    HW2 3798   5.249   1.939   3.570
  967SOL     OW 3799   4.826   4.252   6.329
  967SOL    HW1 3800   4.882   4.280   6.251
  967SOL    HW2 3801   4.874   4.274   6.414
  968SOL     OW 3802   3.894   0.058   1.975
  968SOL    HW1 3803   3.933   0.150   1.972
  968SOL    HW2 3804   3.906   0.020   2.067
  969SOL     OW 3805   3.486   4.766   5.489
  969SOL    HW1 3806   3.568   4.822   5.499
  969SOL    HW2 3807   3.434   4.796   5.409
  970SOL     OW 3808   6.424   0.258   5.346
  970SOL    HW1 3809   6.353   0.295   5.406
  970SOL    HW2 3810   6.424   0.158   5.353
  971SOL     OW 3811   6.979   4.389   3.387
  971SOL    HW1 3812   7.022   4.310   3.432
  971SOL    HW2 3813   6.888   4.404   3.426
  972SOL     OW 3814   0.039   2.281   1.126
  972SOL    HW1 3815   6.998   2.287   1.203
  972SOL    HW2 3816   0.091   2.196   1.133
  973SOL     OW 3817   0.442   4.156   6.154
  973SOL    HW1 3818   0.369   4.206   6.107
  973SOL    HW2 3819   0.431   4.058   6.137
  974SOL     OW 3820   0.270   4.814   4.526
  974SOL    HW1 3821   0.178   4.785   4.501
  974SOL    HW2 3822   0.309   4.871   4.454
  975SOL     OW 3823   2.108   6.633   2.048
  975SOL    HW1 3824   2.009   6.640   2.049
  975SOL    HW2 3825   2.144   6.667   1.961
  976SOL     OW 3826   6.350   4.166   2.209
  976SOL    HW1 3827   6.290   4.229   2.159
  976SOL    HW2 3828   6.410   4.218   2.270
  977SOL     OW 3829   0.651   1.348   2.425
  977SOL    HW1 3830   0.750   1.336   2.417
  977SOL    HW2 3831   0.631   1.441   2.454
  978SOL     OW 3832   5.372   2.184   2.132
  978SOL    HW1 3833   5.462   2.223   2.152
  978SOL    HW2 3834   5.303   2.223   2.192
  979SOL     OW 3835   0.028   3.647   6.987
  979SOL    HW1 3836   6.952   3.631   6.983
  979SOL    HW2 3837   0.073   3.593   6.917
  980SOL     OW 3838   3.872   1.623   5.185
  980SOL    HW1 3839   3.793   1.632   5.123
  980SOL    HW2 3840   3.940   1.693   5.162
  981SOL     OW 3841   0.194   0.495   4.899
  981SOL    HW1 3842   0.277   0.443   4.921
  981SOL    HW2 3843   0.126   0.434   4.860
  982SOL     OW 3844   0.720   2.039   5.000
  982SOL    HW1 3845   0.768   1.965   4.952
  982SOL    HW2 3846   0.731   2.027   5.099
  983SOL     OW 3847   0.569   3.843   3.651
  983SOL    HW1 3848   0.525   3.898   3.721
  983SOL    HW2 3849   0.506   3.830   3.574
  984SOL     OW 3850   1.435   2.343   3.239
  984SOL    HW1 3851   1.491   2.268   3.273
  984SOL    HW2 3852   1.483   2.430   3.254
  985SOL     OW 3853   6.520   3.634   4.386
  985SOL    HW1 3854   6.486   3.691   4.461
  985SOL    HW2 3855   6.501   3.538   4.406
  986SOL     OW 3856   5.237   4.130   1.064
  986SOL    HW1 3857   5.260   4.035   1.084
  986SOL    HW2 3858   5.193   4.171   1.144
  987SOL     OW 3859   5.995   5.428   3.460
  987SOL    HW1 3860   5.956   5.342   3.495
  987SOL    HW2 3861   6.095   5.422   3.461
  988SOL     OW 3862   3.562   4.018   1.701
  988SOL    HW1 3863   3.513   3.999   1.786
  988SOL    HW2 3864   3.587   4.115   1.698
  989SOL     OW 3865   0.201   2.144   0.807
  989SOL    HW1 3866   0.291   2.104   0.828
  989SOL    HW2 3867   0.214   2.236   0.771
  990SOL     OW 3868   3.402   0.791   2.975
  990SOL    HW1 3869   3.467   0.725   3.012
  990SOL    HW2 3870   3.310   0.769   3.007
  991SOL     OW 3871   6.766   3.853   4.070
  991SOL    HW1 3872   6.768   3.827   4.166
  991SOL    HW2 3873   6.832   3.927   4.054
  992SOL     OW 3874   0.665   2.641   1.288
  992SOL    HW1 3875   0.729   2.672   1.359
  992SOL    HW2 3876   0.588   2.705   1.284
  993SOL     OW 3877   1.676   4.665   1.043
  993SOL    HW1 3878   1.711   4.626   1.128
  993SOL    HW2 3879   1.614   4.741   1.064
  994SOL     OW 3880   3.344   6.616   1.770
  994SOL    HW1 3881   3.436   6.643   1.799
  994SOL    HW2 3882   3.284   6.696   1.769
  995SOL     OW 3883   5.138   3.517   5.768
  995SOL    HW1 3884   5.119   3.518   5.866
  995SOL    HW2 3885   5.117   3.607   5.729
  996SOL     OW 3886   3.882   6.082   5.426
  996SOL    HW1 3887   3.975   6.059   5.455
  996SOL    HW2 3888   3.822   6.003   5.439
  997SOL     OW 3889   1.353   6.357   4.097
  997SOL    HW1 3890   1.321   6.335   4.189
  997SOL    HW2 3891   1.435   6.415   4.102
  998SOL     OW 3892   5.924   0.295   6.147
  998SOL    HW1 3893   5.960   0.217   6.095
  998SOL    HW2 3894   5.841   0.328   6.102
  999SOL     OW 3895   4.714   3.278   1.508
  999SOL    HW1 3896   4.768   3.239   1.583
  999SOL    HW2 3897   4.648   3.343   1.544
 1000SOL     OW 3898   3.823   1.538   1.666
 1000SOL    HW1 3899   3.915   1.544   1.705
 1000SOL    HW2 3900   3.802   1.622   1.616
 1001SOL     OW 3901   2.915   0.027   2.238
 1001SOL    HW1 3902   2.831   6.995   2.244
 1001SOL    HW2 3903   2.896   0.109   2.184
 1002SOL     OW 3904   5.122   2.643   1.393
 1002SOL    HW1 3905   5.198   2.704   1.416
 1002SOL    HW2 3906   5.047   2.697   1.354
 1003SOL     OW 3907   1.334   6.161   2.363
 1003SOL    HW1 3908   1.254   6.209   2.327
 1003SOL    HW2 3909   1.331   6.065   2.333
 1004SOL     OW 3910   6.048   1.310   3.835
 1004SOL    HW1 3911   6.063   1.311   3.934
 1004SOL    HW2 3912   6.117   1.366   3.790
 1005SOL     OW 3913   1.564   4.650   4.474
 1005SOL    HW1 3914   1.645   4.709   4.478
 1005SOL    HW2 3915   1.534   4.640   4.379
 1006SOL     OW 3916   2.289   4.156   0.516
 1006SOL    HW1 3917   2.315   4.102   0.596
 1006SOL    HW2 3918   2.345   4.129   0.438
 1007SOL     OW 3919   4.828   2.067   6.694
 1007SOL    HW1 3920   4.861   2.117   6.774
 1007SOL    HW2 3921   4.844   1.969   6.706
 1008SOL     OW 3922   0.540   4.692   5.159
 1008SOL    HW1 3923   0.598   4.769   5.187
 1008SOL    HW2 3924   0.565   4.664   5.066
 1009SOL     OW 3925   5.679   4.990   4.980
 1009SOL    HW1 3926   5.727   4.904   4.998
 1009SOL    HW2 3927   5.684   5.012   4.883
 1010SOL     OW 3928   1.984   3.287   1.548
 1010SOL    HW1 3929   2.008   3.343   1.628
 1010SOL    HW2 3930   1.987   3.190   1.574
 1011SOL     OW 3931   0.875   5.189   2.671
 1011SOL    HW1 3932   0.960   5.153   2.709
 1011SOL    HW2 3933   0.856   5.144   2.584
 1012SOL     OW 3934   5.909   0.449   2.303
 1012SOL    HW1 3935   5.847   0.469   2.380
 1012SOL    HW2 3936   5.890   0.357   2.268
 1013SOL     OW 3937   6.990   0.762   5.675
 1013SOL    HW1 3938   6.954   0.810   5.595
 1013SOL    HW2 3939   6.948   0.672   5.681
 1014SOL     OW 3940   1.710   5.040   4.021
 1014SOL    HW1 3941   1.721   5.128   4.066
 1014SOL    HW2 3942   1.781   4.977   4.052
 1015SOL     OW 3943   3.476   0.106   6.148
 1015SOL    HW1 3944   3.387   0.143   6.174
 1015SOL    HW2 3945   3.522   0.071   6.230
 1016SOL     OW 3946   5.322   4.022   1.514
 1016SOL    HW1 3947   5.252   3.957   1.545
 1016SOL    HW2 3948   5.290   4.116   1.529
 1017SOL     OW 3949   1.872   1.490   1.778
 1017SOL    HW1 3950   1.846   1.504   1.873
 1017SOL    HW2 3951   1.899   1.578   1.737
 1018SOL     OW 3952   0.291   5.143   3.790
 1018SOL    HW1 3953   0.220   5.136   3.861
 1018SOL    HW2 3954   0.379   5.163   3.834
 1019SOL     OW 3955   6.855   4.761   0.672
 1019SOL    HW1 3956   6.784   4.751   0.742
 1019SOL    HW2 3957   6.815   4.801   0.590
 1020SOL     OW 3958   0.076   0.115   1.529
 1020SOL    HW1 3959   0.122   0.029   1.504
 1020SOL    HW2 3960   0.136   0.192   1.507
 1021SOL     OW 3961   6.242   6.061   1.723
 1021SOL    HW1 3962   6.214   6.020   1.809
 1021SOL    HW2 3963   6.263   5.989   1.657
 1022SOL     OW 3964   2.438   6.312   6.383
 1022SOL    HW1 3965   2.346   6.272   6.382
 1022SOL    HW2 3966   2.458   6.346   6.474
 1023SOL     OW 3967   0.177   1.627   2.838
 1023SOL    HW1 3968   0.124   1.578   2.769
 1023SOL    HW2 3969   0.241   1.564   2.882
 1024SOL     OW 3970   1.122   1.889   4.661
 1024SOL    HW1 3971   1.117   1.960   4.590
 1024SOL    HW2 3972   1.197   1.826   4.640
 1025SOL     OW 3973   5.058   3.913   6.661
 1025SOL    HW1 3974   5.083   3.821   6.630
 1025SOL    HW2 3975   5.072   3.919   6.760
 1026SOL     OW 3976   2.924   2.321   1.501
 1026SOL    HW1 3977   2.904   2.414   1.533
 1026SOL    HW2 3978   3.017   2.296   1.529
 1027SOL     OW 3979   1.149   6.161   1.657
 1027SOL    HW1 3980   1.162   6.201   1.748
 1027SOL    HW2 3981   1.119   6.232   1.594
 1028SOL     OW 3982   0.840   6.380   3.200
 1028SOL    HW1 3983   0.872   6.439   3.127
 1028SOL    HW2 3984   0.882   6.290   3.191
 1029SOL     OW 3985   1.243   2.237   5.752
 1029SOL    HW1 3986   1.196   2.284   5.827
 1029SOL    HW2 3987   1.235   2.138   5.764
 1030SOL     OW 3988   3.187   3.378   1.565
 1030SOL    HW1 3989   3.090   3.397   1.583
 1030SOL    HW2 3990   3.238   3.463   1.560
 1031SOL     OW 3991   3.516   3.537   1.184
 1031SOL    HW1 3992   3.544   3.619   1.134
 1031SOL    HW2 3993   3.585   3.515   1.253
 1032SOL     OW 3994   2.185   1.401   6.134
 1032SOL    HW1 3995   2.236   1.373   6.215
 1032SOL    HW2 3996   2.239   1.384   6.052
 1033SOL     OW 3997   0.824   6.198   2.483
 1033SOL    HW1 3998   0.786   6.134   2.416
 1033SOL    HW2 3999   0.776   6.285   2.478
 1034SOL     OW 4000   3.628   6.944   4.555
 1034SOL    HW1 4001   3.647   0.007   4.507
 1034SOL    HW2 4002   3.593   6.876   4.491
 1035SOL     OW 4003   0.947   1.550   5.471
 1035SOL    HW1 4004   0.869   1.584   5.419
 1035SOL    HW2 4005   0.963   1.609   5.551
 1036SOL     OW 4006   5.198   1.171   1.194
 1036SOL    HW1 4007   5.234   1.110   1.124
 1036SOL    HW2 4008   5.098   1.171   1.191
 1037SOL     OW 4009   2.027   2.387   2.537
 1037SOL    HW1 4010   2.061   2.433   2.619
 1037SOL    HW2 4011   1.991   2.297   2.562
 1038SOL     OW 4012   2.627   0.232   6.935
 1038SOL    HW1 4013   2.671   0.228   6.845
 1038SOL    HW2 4014   2.656   0.153   6.989
 1039SOL     OW 4015   3.289   3.298   3.590
 1039SOL    HW1 4016   3.209   3.241   3.611
 1039SOL    HW2 4017   3.274   3.345   3.503
 1040SOL     OW 4018   4.405   1.269   2.554
 1040SOL    HW1 4019   4.397   1.184   2.606
 1040SOL    HW2 4020   4.329   1.330   2.577
 1041SOL     OW 4021   6.747   6.073   4.839
 1041SOL    HW1 4022   6.828   6.132   4.841
 1041SOL    HW2 4023   6.677   6.110   4.900
 1042SOL     OW 4024   4.672   4.873   2.194
 1042SOL    HW1 4025   4.619   4.816   2.131
 1042SOL    HW2 4026   4.733   4.815   2.248
 1043SOL     OW 4027   3.371   1.035   3.590
 1043SOL    HW1 4028   3.458   1.026   3.543
 1043SOL    HW2 4029   3.372   0.980   3.674
 1044SOL     OW 4030   5.847   4.183   0.952
 1044SOL    HW1 4031   5.771   4.242   0.980
 1044SOL    HW2 4032   5.842   4.096   1.001
 1045SOL     OW 4033   2.041   0.578   3.642
 1045SOL    HW1 4034   2.084   0.665   3.618
 1045SOL    HW2 4035   1.975   0.593   3.716
 1046SOL     OW 4036   2.976   1.325   1.149
 1046SOL    HW1 4037   3.033   1.283   1.219
 1046SOL    HW2 4038   2.983   1.424   1.154
 1047SOL     OW 4039   3.040   7.013   3.648
 1047SOL    HW1 4040   3.071   6.974   3.735
 1047SOL    HW2 4041   3.052   6.946   3.575
 1048SOL     OW 4042   1.806   5.943   2.166
 1048SOL    HW1 4043   1.730   5.989   2.212
 1048SOL    HW2 4044   1.787   5.845   2.160
 1049SOL     OW 4045   3.831   7.001   4.788
 1049SOL    HW1 4046   3.882   6.935   4.843
 1049SOL    HW2 4047   3.790   6.956   4.709
 1050SOL     OW 4048   4.055   4.926   3.705
 1050SOL    HW1 4049   4.135   4.970   3.748
 1050SOL    HW2 4050   3.979   4.925   3.770
 1051SOL     OW 4051   6.949   6.830   0.191
 1051SOL    HW1 4052   6.923   6.881   0.273
 1051SOL    HW2 4053   6.873   6.772   0.163
 1052SOL     OW 4054   4.162   0.792   6.251
 1052SOL    HW1 4055   4.113   0.867   6.294
 1052SOL    HW2 4056   4.099   0.736   6.198
 1053SOL     OW 4057   5.720   3.517   2.250
 1053SOL    HW1 4058   5.699   3.614   2.234
 1053SOL    HW2 4059   5.727   3.501   2.349
 1054SOL     OW 4060   3.408   4.381   0.490
 1054SOL    HW1 4061   3.382   4.477   0.493
 1054SOL    HW2 4062   3.503   4.371   0.518
 1055SOL     OW 4063   4.664   5.687   0.076
 1055SOL    HW1 4064   4.610   5.721   7.022
 1055SOL    HW2 4065   4.751   5.738   0.080
 1056SOL     OW 4066   1.989   4.370   0.276
 1056SOL    HW1 4067   2.083   4.393   0.301
 1056SOL    HW2 4068   1.926   4.434   0.320
 1057SOL     OW 4069   3.457   1.960   1.694
 1057SOL    HW1 4070   3.450   1.948   1.595
 1057SOL    HW2 4071   3.416   2.047   1.721
 1058SOL     OW 4072   3.757   1.918   2.907
 1058SOL    HW1 4073   3.693   1.982   2.865
 1058SOL    HW2 4074   3.717   1.826   2.907
 1059SOL     OW 4075   1.923   6.136   1.977
 1059SOL    HW1 4076   1.875   6.067   2.032
 1059SOL    HW2 4077   1.916   6.112   1.881
 1060SOL     OW 4078   0.090   5.471   4.562
 1060SOL    HW1 4079   0.088   5.372   4.579
 1060SOL    HW2 4080   0.185   5.499   4.547
 1061SOL     OW 4081   6.489   3.987   0.177
 1061SOL    HW1 4082   6.580   4.018   0.147
 1061SOL    HW2 4083   6.469   3.899   0.134
 1062SOL     OW 4084   4.110   6.243   4.683
 1062SOL    HW1 4085   4.105   6.283   4.592
 1062SOL    HW2 4086   4.196   6.269   4.727
 1063SOL     OW 4087   1.226   6.930   5.522
 1063SOL    HW1 4088   1.284   6.939   5.441
 1063SOL    HW2 4089   1.241   7.007   5.584
 1064SOL     OW 4090   0.773   4.528   1.244
 1064SOL    HW1 4091   0.838   4.591   1.287
 1064SOL    HW2 4092   0.703   4.580   1.196
 1065SOL     OW 4093   4.012   0.733   4.342
 1065SOL    HW1 4094   4.099   0.775   4.317
 1065SOL    HW2 4095   4.029   0.657   4.405
 1066SOL     OW 4096   4.647   0.871   2.197
 1066SOL    HW1 4097   4.561   0.899   2.155
 1066SOL    HW2 4098   4.640   0.777   2.230
 1067SOL     OW 4099   2.858   1.066   0.407
 1067SOL    HW1 4100   2.895   1.128   0.338
 1067SOL    HW2 4101   2.933   1.035   0.467
 1068SOL     OW 4102   6.303   3.184   0.991
 1068SOL    HW1 4103   6.326   3.093   0.956
 1068SOL    HW2 4104   6.225   3.221   0.941
 1069SOL     OW 4105   5.824   4.194   0.683
 1069SOL    HW1 4106   5.894   4.135   0.644
 1069SOL    HW2 4107   5.843   4.208   0.780
 1070SOL     OW 4108   2.276   0.763   2.500
 1070SOL    HW1 4109   2.265   0.750   2.401
 1070SOL    HW2 4110   2.230   0.689   2.549
 1071SOL     OW 4111   6.963   2.533   4.773
 1071SOL    HW1 4112   6.864   2.521   4.774
 1071SOL    HW2 4113   6.989   2.589   4.694
 1072SOL     OW 4114   3.001   0.964   1.771
 1072SOL    HW1 4115   2.961   0.932   1.857
 1072SOL    HW2 4116   3.005   0.889   1.706
 1073SOL     OW 4117   5.485   1.830   3.203
 1073SOL    HW1 4118   5.386   1.833   3.192
 1073SOL    HW2 4119   5.528   1.878   3.127
 1074SOL     OW 4120   3.376   5.082   1.815
 1074SOL    HW1 4121   3.325   5.098   1.900
 1074SOL    HW2 4122   3.414   4.989   1.816
 1075SOL     OW 4123   5.710   1.841   5.340
 1075SOL    HW1 4124   5.788   1.834   5.278
 1075SOL    HW2 4125   5.651   1.761   5.329
 1076SOL     OW 4126   2.151   3.988   5.229
 1076SOL    HW1 4127   2.248   4.004   5.212
 1076SOL    HW2 4128   2.101   3.989   5.142
 1077SOL     OW 4129   0.031   0.553   6.867
 1077SOL    HW1 4130   6.980   0.522   6.808
 1077SOL    HW2 4131   0.087   0.620   6.818
 1078SOL     OW 4132   6.631   6.732   3.955
 1078SOL    HW1 4133   6.632   6.703   4.051
 1078SOL    HW2 4134   6.714   6.700   3.910
 1079SOL     OW 4135   1.444   5.705   2.002
 1079SOL    HW1 4136   1.374   5.685   2.071
 1079SOL    HW2 4137   1.481   5.620   1.967
 1080SOL     OW 4138   2.032   5.539   5.182
 1080SOL    HW1 4139   2.070   5.631   5.168
 1080SOL    HW2 4140   1.973   5.516   5.104
 1081SOL     OW 4141   6.462   5.420   4.350
 1081SOL    HW1 4142   6.500   5.490   4.290
 1081SOL    HW2 4143   6.402   5.464   4.417
 1082SOL     OW 4144   5.718   6.962   5.730
 1082SOL    HW1 4145   5.723   6.925   5.637
 1082SOL    HW2 4146   5.622   6.974   5.755
 1083SOL     OW 4147   5.048   3.867   0.986
 1083SOL    HW1 4148   5.112   3.848   1.060
 1083SOL    HW2 4149   5.010   3.959   0.998
 1084SOL     OW 4150   6.924   6.650   6.623
 1084SOL    HW1 4151   6.920   6.559   6.664
 1084SOL    HW2 4152   6.914   6.719   6.695
 1085SOL     OW 4153   1.863   3.948   4.156
 1085SOL    HW1 4154   1.896   3.908   4.241
 1085SOL    HW2 4155   1.772   3.987   4.170
 1086SOL     OW 4156   6.648   4.537   6.118
 1086SOL    HW1 4157   6.744   4.532   6.093
 1086SOL    HW2 4158   6.605   4.616   6.074
 1087SOL     OW 4159   1.704   0.516   5.710
 1087SOL    HW1 4160   1.760   0.544   5.632
 1087SOL    HW2 4161   1.685   0.595   5.768
 1088SOL     OW 4162   0.026   4.864   3.553
 1088SOL    HW1 4163   7.012   4.901   3.638
 1088SOL    HW2 4164   6.994   4.896   3.476
 1089SOL     OW 4165   0.012   4.996   4.503
 1089SOL    HW1 4166   7.005   4.964   4.593
 1089SOL    HW2 4167   0.053   5.087   4.512
 1090SOL     OW 4168   5.783   1.673   4.612
 1090SOL    HW1 4169   5.790   1.582   4.654
 1090SOL    HW2 4170   5.768   1.663   4.514
 1091SOL     OW 4171   2.113   3.281   3.729
 1091SOL    HW1 4172   2.140   3.193   3.766
 1091SOL    HW2 4173   2.101   3.347   3.804
 1092SOL     OW 4174   1.167   5.154   0.970
 1092SOL    HW1 4175   1.168   5.252   0.993
 1092SOL    HW2 4176   1.097   5.108   1.024
 1093SOL     OW 4177   2.491   6.607   1.584
 1093SOL    HW1 4178   2.444   6.519   1.593
 1093SOL    HW2 4179   2.425   6.678   1.559
 1094SOL     OW 4180   0.632   6.912   2.499
 1094SOL    HW1 4181   0.684   6.894   2.583
 1094SOL    HW2 4182   0.536   6.927   2.521
 1095SOL     OW 4183   0.049   2.734   6.834
 1095SOL    HW1 4184   0.121   2.800   6.853
 1095SOL    HW2 4185   7.003   2.777   6.775
 1096SOL     OW 4186   2.915   6.088   0.929
 1096SOL    HW1 4187   2.901   6.054   0.836
 1096SOL    HW2 4188   2.894   6.185   0.933
 1097SOL     OW 4189   2.293   5.274   3.935
 1097SOL    HW1 4190   2.348   5.191   3.928
 1097SOL    HW2 4191   2.198   5.250   3.951
 1098SOL     OW 4192   5.917   4.224   0.076
 1098SOL    HW1 4193   5.895   4.137   0.033
 1098SOL    HW2 4194   6.016   4.232   0.087
 1099SOL     OW 4195   4.555   1.611   6.268
 1099SOL    HW1 4196   4.582   1.624   6.363
 1099SOL    HW2 4197   4.526   1.517   6.254
 1100SOL     OW 4198   4.313   1.055   3.810
 1100SOL    HW1 4199   4.266   1.141   3.828
 1100SOL    HW2 4200   4.330   1.007   3.896
 1101SOL     OW 4201   5.695   3.138   5.675
 1101SOL    HW1 4202   5.638   3.117   5.596
 1101SOL    HW2 4203   5.760   3.210   5.652
 1102SOL     OW 4204   2.314   0.873   4.278
 1102SOL    HW1 4205   2.386   0.833   4.336
 1102SOL    HW2 4206   2.257   0.800   4.241
 1103SOL     OW 4207   2.795   0.746   6.333
 1103SOL    HW1 4208   2.735   0.820   6.364
 1103SOL    HW2 4209   2.745   0.660   6.334
 1104SOL     OW 4210   0.728   4.747   3.235
 1104SOL    HW1 4211   0.666   4.821   3.257
 1104SOL    HW2 4212   0.739   4.740   3.136
 1105SOL     OW 4213   5.549   1.505   5.173
 1105SOL    HW1 4214   5.598   1.514   5.260
 1105SOL    HW2 4215   5.487   1.583   5.162
 1106SOL     OW 4216   0.578   1.093   0.228
 1106SOL    HW1 4217   0.537   1.112   0.139
 1106SOL    HW2 4218   0.547   1.162   0.294
 1107SOL     OW 4219   1.317   1.130   6.309
 1107SOL    HW1 4220   1.313   1.030   6.318
 1107SOL    HW2 4221   1.408   1.162   6.333
 1108SOL     OW 4222   3.254   6.317   4.393
 1108SOL    HW1 4223   3.353   6.308   4.406
 1108SOL    HW2 4224   3.225   6.257   4.318
 1109SOL     OW 4225   5.487   1.401   3.890
 1109SOL    HW1 4226   5.407   1.367   3.841
 1109SOL    HW2 4227   5.499   1.498   3.871
 1110SOL     OW 4228   3.296   0.852   2.704
 1110SOL    HW1 4229   3.349   0.933   2.677
 1110SOL    HW2 4230   3.280   0.855   2.803
 1111SOL     OW 4231   4.832   3.887   6.181
 1111SOL    HW1 4232   4.902   3.952   6.153
 1111SOL    HW2 4233   4.874   3.797   6.193
 1112SOL     OW 4234   6.454   0.425   2.750
 1112SOL    HW1 4235   6.426   0.521   2.746
 1112SOL    HW2 4236   6.373   0.367   2.764
 1113SOL     OW 4237   6.335   4.019   3.048
 1113SOL    HW1 4238   6.358   3.931   3.006
 1113SOL    HW2 4239   6.413   4.053   3.101
 1114SOL     OW 4240   4.020   2.568   6.157
 1114SOL    HW1 4241   4.072   2.586   6.074
 1114SOL    HW2 4242   4.049   2.480   6.196
 1115SOL     OW 4243   3.502   3.890   5.730
 1115SOL    HW1 4244   3.409   3.854   5.722
 1115SOL    HW2 4245   3.564   3.833   5.676
 1116SOL     OW 4246   5.023   1.179   0.176
 1116SOL    HW1 4247   4.929   1.212   0.164
 1116SOL    HW2 4248   5.082   1.222   0.108
 1117SOL     OW 4249   0.891   2.546   1.618
 1117SOL    HW1 4250   0.808   2.491   1.607
 1117SOL    HW2 4251   0.969   2.486   1.637
 1118SOL     OW 4252   2.900   5.519   6.930
 1118SOL    HW1 4253   2.983   5.551   6.975
 1118SOL    HW2 4254   2.921   5.495   6.835
 1119SOL     OW 4255   4.232   4.815   3.411
 1119SOL    HW1 4256   4.143   4.804   3.456
 1119SOL    HW2 4257   4.292   4.739   3.437
 1120SOL     OW 4258   6.415   5.309   1.083
 1120SOL    HW1 4259   6.493   5.332   1.024
 1120SOL    HW2 4260   6.445   5.247   1.155
 1121SOL     OW 4261   0.844   5.388   4.469
 1121SOL    HW1 4262   0.812   5.320   4.535
 1121SOL    HW2 4263   0.912   5.346   4.409
 1122SOL     OW 4264   5.515   2.858   2.208
 1122SOL    HW1 4265   5.587   2.873   2.140
 1122SOL    HW2 4266   5.522   2.765   2.243
 1123SOL     OW 4267   4.121   1.856   3.181
 1123SOL    HW1 4268   4.033   1.902   3.188
 1123SOL    HW2 4269   4.189   1.920   3.143
 1124SOL     OW 4270   2.012   2.778   4.955
 1124SOL    HW1 4271   1.987   2.687   4.989
 1124SOL    HW2 4272   1.974   2.848   5.016
 1125SOL     OW 4273   1.658   3.633   4.414
 1125SOL    HW1 4274   1.698   3.597   4.330
 1125SOL    HW2 4275   1.723   3.697   4.457
 1126SOL     OW 4276   4.172   5.904   5.616
 1126SOL    HW1 4277   4.158   5.904   5.517
 1126SOL    HW2 4278   4.263   5.869   5.637
 1127SOL     OW 4279   5.548   6.050   3.950
 1127SOL    HW1 4280   5.509   5.996   3.875
 1127SOL    HW2 4281   5.556   5.991   4.031
 1128SOL     OW 4282   6.258   1.252   3.378
 1128SOL    HW1 4283   6.332   1.301   3.334
 1128SOL    HW2 4284   6.179   1.247   3.317
 1129SOL     OW 4285   1.621   6.837   1.359
 1129SOL    HW1 4286   1.682   6.832   1.280
 1129SOL    HW2 4287   1.674   6.830   1.443
 1130SOL     OW 4288   1.673   5.259   3.295
 1130SOL    HW1 4289   1.767   5.244   3.263
 1130SOL    HW2 4290   1.622   5.309   3.225
 1131SOL     OW 4291   1.011   6.968   3.949
 1131SOL    HW1 4292   0.963   0.021   3.994
 1131SOL    HW2 4293   1.072   7.004   3.879
 1132SOL     OW 4294   4.336   1.025   2.685
 1132SOL    HW1 4295   4.306   0.966   2.610
 1132SOL    HW2 4296   4.315   0.981   2.773
 1133SOL     OW 4297   1.215   6.880   5.176
 1133SOL    HW1 4298   1.189   6.790   5.211
 1133SOL    HW2 4299   1.293   6.914   5.229
 1134SOL     OW 4300   4.928   0.138   1.892
 1134SOL    HW1 4301   4.994   0.166   1.823
 1134SOL    HW2 4302   4.954   0.175   1.981
 1135SOL     OW 4303   2.520   6.227   3.505
 1135SOL    HW1 4304   2.488   6.322   3.513
 1135SOL    HW2 4305   2.619   6.225   3.515
 1136SOL     OW 4306   2.840   6.178   2.735
 1136SOL    HW1 4307   2.794   6.248   2.681
 1136SOL    HW2 4308   2.782   6.096   2.739
 1137SOL     OW 4309   0.375   6.108   6.460
 1137SOL    HW1 4310   0.292   6.156   6.432
 1137SOL    HW2 4311   0.357   6.054   6.542
 1138SOL     OW 4312   2.319   2.965   5.467
 1138SOL    HW1 4313   2.353   3.049   5.425
 1138SOL    HW2 4314   2.299   2.898   5.395
 1139SOL     OW 4315   2.540   4.665   4.074
 1139SOL    HW1 4316   2.521   4.604   4.151
 1139SOL    HW2 4317   2.628   4.711   4.088
 1140SOL     OW 4318   2.319   1.401   1.542
 1140SOL    HW1 4319   2.329   1.484   1.488
 1140SOL    HW2 4320   2.365   1.412   1.630
 1141SOL     OW 4321   5.625   5.108   6.192
 1141SOL    HW1 4322   5.605   5.070   6.102
 1141SOL    HW2 4323   5.643   5.206   6.184
 1142SOL     OW 4324   2.461   6.954   3.509
 1142SOL    HW1 4325   2.528   6.901   3.457
 1142SOL    HW2 4326   2.436   0.013   3.458
 1143SOL     OW 4327   1.203   3.591   1.737
 1143SOL    HW1 4328   1.210   3.591   1.637
 1143SOL    HW2 4329   1.197   3.686   1.770
 1144SOL     OW 4330   5.415   4.221   2.498
 1144SOL    HW1 4331   5.461   4.305   2.471
 1144SOL    HW2 4332   5.409   4.216   2.598
 1145SOL     OW 4333   1.183   2.128   0.602
 1145SOL    HW1 4334   1.252   2.175   0.547
 1145SOL    HW2 4335   1.226   2.055   0.655
 1146SOL     OW 4336   0.646   1.227   1.526
 1146SOL    HW1 4337   0.699   1.264   1.449
 1146SOL    HW2 4338   0.691   1.253   1.611
 1147SOL     OW 4339   3.048   6.188   1.415
 1147SOL    HW1 4340   2.995   6.105   1.433
 1147SOL    HW2 4341   3.087   6.221   1.501
 1148SOL     OW 4342   4.002   6.427   2.138
 1148SOL    HW1 4343   3.921   6.471   2.177
 1148SOL    HW2 4344   3.980   6.332   2.115
 1149SOL     OW 4345   5.990   2.545   1.789
 1149SOL    HW1 4346   5.935   2.517   1.710
 1149SOL    HW2 4347   6.011   2.643   1.782
 1150SOL     OW 4348   1.551   4.350   6.733
 1150SOL    HW1 4349   1.634   4.310   6.694
 1150SOL    HW2 4350   1.472   4.323   6.678
 1151SOL     OW 4351   6.550   4.991   3.435
 1151SOL    HW1 4352   6.553   4.903   3.482
 1151SOL    HW2 4353   6.533   4.975   3.337
 1152SOL     OW 4354   4.574   0.843   0.154
 1152SOL    HW1 4355   4.656   0.809   0.200
 1152SOL    HW2 4356   4.588   0.938   0.128
 1153SOL     OW 4357   6.752   6.934   1.412
 1153SOL    HW1 4358   6.782   6.855   1.466
 1153SOL    HW2 4359   6.833   6.984   1.380
 1154SOL     OW 4360   1.234   3.576   2.665
 1154SOL    HW1 4361   1.205   3.524   2.585
 1154SOL    HW2 4362   1.294   3.519   2.722
 1155SOL     OW 4363   2.152   6.919   5.009
 1155SOL    HW1 4364   2.140   6.858   5.087
 1155SOL    HW2 4365   2.244   6.958   5.012
 1156SOL     OW 4366   4.091   1.418   4.600
 1156SOL    HW1 4367   4.096   1.318   4.598
 1156SOL    HW2 4368   3.996   1.447   4.587
 1157SOL     OW 4369   4.144   0.432   5.521
 1157SOL    HW1 4370   4.167   0.340   5.553
 1157SOL    HW2 4371   4.049   0.434   5.490
 1158SOL     OW 4372   5.480   5.915   3.688
 1158SOL    HW1 4373   5.445   5.988   3.629
 1158SOL    HW2 4374   5.412   5.842   3.696
 1159SOL     OW 4375   6.513   6.064   3.097
 1159SOL    HW1 4376   6.472   5.998   3.033
 1159SOL    HW2 4377   6.608   6.080   3.070
 1160SOL     OW 4378   4.263   6.912   0.972
 1160SOL    HW1 4379   4.289   6.973   1.046
 1160SOL    HW2 4380   4.186   6.855   1.000
 1161SOL     OW 4381   6.808   5.111   6.772
 1161SOL    HW1 4382   6.882   5.173   6.749
 1161SOL    HW2 4383   6.743   5.106   6.696
 1162SOL     OW 4384   2.108   2.948   5.630
 1162SOL    HW1 4385   2.135   2.915   5.721
 1162SOL    HW2 4386   2.187   2.945   5.569
 1163SOL     OW 4387   5.872   4.168   1.854
 1163SOL    HW1 4388   5.969   4.148   1.862
 1163SOL    HW2 4389   5.858   4.248   1.796
 1164SOL     OW 4390   5.646   2.219   4.488
 1164SOL    HW1 4391   5.614   2.221   4.583
 1164SOL    HW2 4392   5.656   2.313   4.455
 1165SOL     OW 4393   4.505   6.082   3.573
 1165SOL    HW1 4394   4.542   6.109   3.484
 1165SOL    HW2 4395   4.491   5.983   3.575
 1166SOL     OW 4396   2.200   6.486   6.317
 1166SOL    HW1 4397   2.171   6.549   6.389
 1166SOL    HW2 4398   2.284   6.520   6.275
 1167SOL     OW 4399   4.920   4.016   2.129
 1167SOL    HW1 4400   4.978   4.042   2.206
 1167SOL    HW2 4401   4.830   4.059   2.139
 1168SOL     OW 4402   6.056   2.433   2.608
 1168SOL    HW1 4403   6.133   2.493   2.591
 1168SOL    HW2 4404   5.985   2.448   2.539
 1169SOL     OW 4405   5.757   1.086   5.698
 1169SOL    HW1 4406   5.716   1.038   5.776
 1169SOL    HW2 4407   5.688   1.142   5.653
 1170SOL     OW 4408   5.032   0.053   3.157
 1170SOL    HW1 4409   5.102   7.007   3.138
 1170SOL    HW2 4410   5.066   0.119   3.223
 1171SOL     OW 4411   1.481   6.896   0.432
 1171SOL    HW1 4412   1.552   6.843   0.478
 1171SOL    HW2 4413   1.398   6.840   0.423
 1172SOL     OW 4414   6.026   3.470   0.537
 1172SOL    HW1 4415   5.930   3.476   0.566
 1172SOL    HW2 4416   6.083   3.443   0.614
 1173SOL     OW 4417   3.144   0.850   0.931
 1173SOL    HW1 4418   3.103   0.759   0.935
 1173SOL    HW2 4419   3.204   0.864   1.010
 1174SOL     OW 4420   3.740   3.825   1.599
 1174SOL    HW1 4421   3.711   3.852   1.691
 1174SOL    HW2 4422   3.684   3.871   1.531
 1175SOL     OW 4423   4.270   3.195   5.559
 1175SOL    HW1 4424   4.298   3.197   5.655
 1175SOL    HW2 4425   4.170   3.189   5.553
 1176SOL     OW 4426   5.038   3.544   6.025
 1176SOL    HW1 4427   5.122   3.562   6.076
 1176SOL    HW2 4428   4.961   3.586   6.072
 1177SOL     OW 4429   6.420   2.583   5.082
 1177SOL    HW1 4430   6.367   2.501   5.103
 1177SOL    HW2 4431   6.360   2.663   5.083
 1178SOL     OW 4432   3.193   4.070   0.809
 1178SOL    HW1 4433   3.175   4.027   0.721
 1178SOL    HW2 4434   3.203   3.999   0.879
 1179SOL     OW 4435   2.263   6.155   0.609
 1179SOL    HW1 4436   2.218   6.212   0.677
 1179SOL    HW2 4437   2.249   6.058   0.631
 1180SOL     OW 4438   3.220   5.576   1.692
 1180SOL    HW1 4439   3.128   5.537   1.703
 1180SOL    HW2 4440   3.272   5.562   1.776
 1181SOL     OW 4441   0.342   5.263   6.794
 1181SOL    HW1 4442   0.344   5.305   6.703
 1181SOL    HW2 4443   0.383   5.172   6.790
 1182SOL     OW 4444   3.473   5.355   3.049
 1182SOL    HW1 4445   3.465   5.451   3.078
 1182SOL    HW2 4446   3.405   5.300   3.097
 1183SOL     OW 4447   1.794   4.853   0.247
 1183SOL    HW1 4448   1.892   4.863   0.231
 1183SOL    HW2 4449   1.759   4.936   0.291
 1184SOL     OW 4450   0.609   0.545   4.250
 1184SOL    HW1 4451   0.540   0.604   4.207
 1184SOL    HW2 4452   0.563   0.472   4.301
 1185SOL     OW 4453   0.082   1.293   6.213
 1185SOL    HW1 4454   0.057   1.199   6.238
 1185SOL    HW2 4455   0.096   1.347   6.296
 1186SOL     OW 4456   4.790   5.380   4.524
 1186SOL    HW1 4457   4.775   5.334   4.437
 1186SOL    HW2 4458   4.774   5.317   4.599
 1187SOL     OW 4459   6.915   6.818   6.843
 1187SOL    HW1 4460   6.996   6.877   6.847
 1187SOL    HW2 4461   6.833   6.875   6.839
 1188SOL     OW 4462   2.877   6.308   5.043
 1188SOL    HW1 4463   2.945   6.379   5.062
 1188SOL    HW2 4464   2.801   6.348   4.992
 1189SOL     OW 4465   6.600   3.261   2.790
 1189SOL    HW1 4466   6.554   3.349   2.803
 1189SOL    HW2 4467   6.656   3.265   2.707
 1190SOL     OW 4468   2.410   6.000   3.377
 1190SOL    HW1 4469   2.318   5.959   3.374
 1190SOL    HW2 4470   2.402   6.099   3.379
 1191SOL     OW 4471   4.251   5.178   3.134
 1191SOL    HW1 4472   4.219   5.226   3.053
 1191SOL    HW2 4473   4.278   5.085   3.110
 1192SOL     OW 4474   3.715   5.977   3.314
 1192SOL    HW1 4475   3.626   5.938   3.337
 1192SOL    HW2 4476   3.767   5.912   3.260
 1193SOL     OW 4477   5.774   4.386   4.336
 1193SOL    HW1 4478   5.824   4.402   4.251
 1193SOL    HW2 4479   5.681   4.423   4.328
 1194SOL     OW 4480   5.460   0.094   1.809
 1194SOL    HW1 4481   5.425   0.001   1.796
 1194SOL    HW2 4482   5.401   0.143   1.874
 1195SOL     OW 4483   6.179   4.682   1.767
 1195SOL    HW1 4484   6.200   4.772   1.804
 1195SOL    HW2 4485   6.092   4.685   1.718
 1196SOL     OW 4486   6.979   5.973   2.977
 1196SOL    HW1 4487   0.026   6.023   2.926
 1196SOL    HW2 4488   6.996   5.875   2.972
 1197SOL     OW 4489   3.702   0.832   6.640
 1197SOL    HW1 4490   3.617   0.784   6.662
 1197SOL    HW2 4491   3.697   0.926   6.674
 1198SOL     OW 4492   1.326   3.101   1.879
 1198SOL    HW1 4493   1.318   3.188   1.831
 1198SOL    HW2 4494   1.319   3.116   1.978
 1199SOL     OW 4495   4.726   5.133   1.663
 1199SOL    HW1 4496   4.736   5.041   1.703
 1199SOL    HW2 4497   4.762   5.132   1.570
 1200SOL     OW 4498   3.737   3.258   2.765
 1200SOL    HW1 4499   3.836   3.259   2.779
 1200SOL    HW2 4500   3.692   3.292   2.848
 1201SOL     OW 4501   0.984   0.970   4.756
 1201SOL    HW1 4502   1.012   0.897   4.817
 1201SOL    HW2 4503   0.998   1.058   4.801
 1202SOL     OW 4504   0.557   6.175   6.277
 1202SOL    HW1 4505   0.485   6.150   6.341
 1202SOL    HW2 4506   0.635   6.112   6.288
 1203SOL     OW 4507   5.443   6.101   6.640
 1203SOL    HW1 4508   5.373   6.080   6.573
 1203SOL    HW2 4509   5.462   6.020   6.696
 1204SOL     OW 4510   2.778   0.481   1.298
 1204SOL    HW1 4511   2.682   0.453   1.302
 1204SOL    HW2 4512   2.784   0.573   1.260
 1205SOL     OW 4513   4.977   4.256   1.726
 1205SOL    HW1 4514   4.902   4.287   1.784
 1205SOL    HW2 4515   4.967   4.158   1.707
 1206SOL     OW 4516   3.304   2.838   5.150
 1206SOL    HW1 4517   3.286   2.758   5.094
 1206SOL    HW2 4518   3.357   2.905   5.097
 1207SOL     OW 4519   2.452   0.265   1.231
 1207SOL    HW1 4520   2.367   0.215   1.243
 1207SOL    HW2 4521   2.499   0.274   1.319
 1208SOL     OW 4522   3.351   4.120   0.430
 1208SOL    HW1 4523   3.373   4.215   0.455
 1208SOL    HW2 4524   3.432   4.076   0.394
 1209SOL     OW 4525   3.833   0.661   5.535
 1209SOL    HW1 4526   3.787   0.739   5.577
 1209SOL    HW2 4527   3.772   0.618   5.468
 1210SOL     OW 4528   2.392   0.144   3.331
 1210SOL    HW1 4529   2.418   0.138   3.235
 1210SOL    HW2 4530   2.295   0.164   3.338
 1211SOL     OW 4531   1.484   3.480   1.121
 1211SOL    HW1 4532   1.547   3.417   1.166
 1211SOL    HW2 4533   1.473   3.454   1.025
 1212SOL     OW 4534   0.504   0.710   5.840
 1212SOL    HW1 4535   0.447   0.789   5.863
 1212SOL    HW2 4536   0.452   0.626   5.858
 1213SOL     OW 4537   5.596   2.501   0.247
 1213SOL    HW1 4538   5.612   2.458   0.336
 1213SOL    HW2 4539   5.498   2.501   0.227
 1214SOL     OW 4540   6.965   2.109   0.930
 1214SOL    HW1 4541   0.018   2.103   0.865
 1214SOL    HW2 4542   6.986   2.177   1.000
 1215SOL     OW 4543   1.957   4.508   4.329
 1215SOL    HW1 4544   1.997   4.465   4.247
 1215SOL    HW2 4545   1.903   4.440   4.378
 1216SOL     OW 4546   4.031   0.476   0.152
 1216SOL    HW1 4547   3.939   0.478   0.192
 1216SOL    HW2 4548   4.073   0.566   0.161
 1217SOL     OW 4549   1.381   5.274   0.675
 1217SOL    HW1 4550   1.454   5.210   0.653
 1217SOL    HW2 4551   1.302   5.256   0.616
 1218SOL     OW 4552   1.544   4.876   4.227
 1218SOL    HW1 4553   1.629   4.824   4.226
 1218SOL    HW2 4554   1.468   4.818   4.197
 1219SOL     OW 4555   5.367   5.799   1.841
 1219SOL    HW1 4556   5.313   5.734   1.788
 1219SOL    HW2 4557   5.446   5.828   1.787
 1220SOL     OW 4558   1.094   5.226   3.030
 1220SOL    HW1 4559   1.154   5.230   3.110
 1220SOL    HW2 4560   1.003   5.194   3.058
 1221SOL     OW 4561   5.105   2.795   5.548
 1221SOL    HW1 4562   5.146   2.886   5.553
 1221SOL    HW2 4563   5.089   2.761   5.641
 1222SOL     OW 4564   5.665   7.015   6.771
 1222SOL    HW1 4565   5.575   0.028   6.795
 1222SOL    HW2 4566   5.720   0.064   6.729
 1223SOL     OW 4567   3.881   0.422   0.639
 1223SOL    HW1 4568   3.814   0.487   0.603
 1223SOL    HW2 4569   3.947   0.470   0.696
 1224SOL     OW 4570   2.188   6.687   1.547
 1224SOL    HW1 4571   2.105   6.719   1.502
 1224SOL    HW2 4572   2.178   6.699   1.646
 1225SOL     OW 4573   3.250   4.149   6.114
 1225SOL    HW1 4574   3.283   4.212   6.044
 1225SOL    HW2 4575   3.157   4.175   6.140
 1226SOL     OW 4576   2.544   4.523   1.595
 1226SOL    HW1 4577   2.626   4.467   1.579
 1226SOL    HW2 4578   2.546   4.560   1.688
 1227SOL     OW 4579   6.653   2.981   6.782
 1227SOL    HW1 4580   6.604   3.008   6.699
 1227SOL    HW2 4581   6.618   3.034   6.860
 1228SOL     OW 4582   3.950   3.304   6.643
 1228SOL    HW1 4583   4.000   3.225   6.607
 1228SOL    HW2 4584   3.992   3.388   6.609
 1229SOL     OW 4585   4.613   4.516   6.115
 1229SOL    HW1 4586   4.631   4.601   6.166
 1229SOL    HW2 4587   4.517   4.492   6.124
 1230SOL     OW 4588   4.471   0.322   4.347
 1230SOL    HW1 4589   4.499   0.302   4.253
 1230SOL    HW2 4590   4.372   0.311   4.354
 1231SOL     OW 4591   1.866   3.739   5.180
 1231SOL    HW1 4592   1.780   3.742   5.230
 1231SOL    HW2 4593   1.939   3.706   5.240
 1232SOL     OW 4594   1.068   2.483   5.204
 1232SOL    HW1 4595   1.166   2.472   5.192
 1232SOL    HW2 4596   1.021   2.466   5.117
 1233SOL     OW 4597   1.740   3.040   5.384
 1233SOL    HW1 4598   1.830   3.038   5.427
 1233SOL    HW2 4599   1.680   3.101   5.435
 1234SOL     OW 4600   6.696   4.256   4.143
 1234SOL    HW1 4601   6.682   4.218   4.051
 1234SOL    HW2 4602   6.643   4.203   4.209
 1235SOL     OW 4603   6.960   5.976   2.524
 1235SOL    HW1 4604   6.927   6.045   2.588
 1235SOL    HW2 4605   6.939   6.005   2.430
 1236SOL     OW 4606   5.320   0.831   6.309
 1236SOL    HW1 4607   5.234   0.786   6.336
 1236SOL    HW2 4608   5.349   0.892   6.383
 1237SOL     OW 4609   2.735   4.838   5.947
 1237SOL    HW1 4610   2.707   4.804   5.857
 1237SOL    HW2 4611   2.769   4.763   6.003
 1238SOL     OW 4612   1.960   1.036   1.082
 1238SOL    HW1 4613   1.995   0.983   1.006
 1238SOL    HW2 4614   1.863   1.014   1.096
 1239SOL     OW 4615   6.777   6.123   6.613
 1239SOL    HW1 4616   6.708   6.064   6.655
 1239SOL    HW2 4617   6.763   6.218   6.641
 1240SOL     OW 4618   5.488   6.329   1.493
 1240SOL    HW1 4619   5.446   6.326   1.583
 1240SOL    HW2 4620   5.562   6.262   1.488
 1241SOL     OW 4621   6.714   3.583   4.027
 1241SOL    HW1 4622   6.813   3.566   4.019
 1241SOL    HW2 4623   6.699   3.677   4.058
 1242SOL     OW 4624   1.774   3.651   6.599
 1242SOL    HW1 4625   1.787   3.636   6.697
 1242SOL    HW2 4626   1.863   3.662   6.554
 1243SOL     OW 4627   1.741   5.147   5.412
 1243SOL    HW1 4628   1.655   5.140   5.463
 1243SOL    HW2 4629   1.800   5.069   5.434
 1244SOL     OW 4630   0.163   0.323   2.820
 1244SOL    HW1 4631   0.077   0.373   2.806
 1244SOL    HW2 4632   0.172   0.299   2.916
 1245SOL     OW 4633   3.145   3.430   6.761
 1245SOL    HW1 4634   3.207   3.494   6.806
 1245SOL    HW2 4635   3.149   3.444   6.662
 1246SOL     OW 4636   2.273   6.440   2.161
 1246SOL    HW1 4637   2.307   6.473   2.249
 1246SOL    HW2 4638   2.221   6.513   2.117
 1247SOL     OW 4639   2.833   0.018   6.538
 1247SOL    HW1 4640   2.916   6.997   6.570
 1247SOL    HW2 4641   2.818   7.021   6.441
 1248SOL     OW 4642   1.450   6.569   3.863
 1248SOL    HW1 4643   1.509   6.531   3.790
 1248SOL    HW2 4644   1.473   6.665   3.878
 1249SOL     OW 4645   5.514   3.050   2.618
 1249SOL    HW1 4646   5.473   3.099   2.695
 1249SOL    HW2 4647   5.581   2.984   2.652
 1250SOL     OW 4648   1.152   4.632   4.481
 1250SOL    HW1 4649   1.124   4.553   4.536
 1250SOL    HW2 4650   1.177   4.707   4.541
 1251SOL     OW 4651   4.060   0.502   4.497
 1251SOL    HW1 4652   4.112   0.431   4.450
 1251SOL    HW2 4653   3.994   0.459   4.559
 1252SOL     OW 4654   3.519   4.073   5.964
 1252SOL    HW1 4655   3.514   4.001   5.895
 1252SOL    HW2 4656   3.447   4.058   6.032
 1253SOL     OW 4657   3.692   5.374   2.416
 1253SOL    HW1 4658   3.654   5.298   2.364
 1253SOL    HW2 4659   3.620   5.419   2.468
 1254SOL     OW 4660   6.058   2.527   3.133
 1254SOL    HW1 4661   6.133   2.496   3.192
 1254SOL    HW2 4662   6.086   2.521   3.037
 1255SOL     OW 4663   0.224   0.334   5.250
 1255SOL    HW1 4664   0.282   0.286   5.317
 1255SOL    HW2 4665   0.240   0.433   5.258
 1256SOL     OW 4666   6.707   0.056   2.678
 1256SOL    HW1 4667   6.740   6.989   2.705
 1256SOL    HW2 4668   6.607   0.057   2.681
 1257SOL     OW 4669   7.004   0.878   3.145
 1257SOL    HW1 4670   6.939   0.919   3.082
 1257SOL    HW2 4671   0.001   0.784   3.116
 1258SOL     OW 4672   1.051   5.632   3.197
 1258SOL    HW1 4673   0.955   5.645   3.175
 1258SOL    HW2 4674   1.107   5.691   3.139
 1259SOL     OW 4675   4.022   1.729   4.924
 1259SOL    HW1 4676   4.080   1.749   5.003
 1259SOL    HW2 4677   4.050   1.642   4.884
 1260SOL     OW 4678   0.753   1.269   6.755
 1260SOL    HW1 4679   0.768   1.172   6.738
 1260SOL    HW2 4680   0.771   1.290   6.851
 1261SOL     OW 4681   0.129   5.000   0.233
 1261SOL    HW1 4682   0.074   5.073   0.191
 1261SOL    HW2 4683   0.080   4.913   0.226
 1262SOL     OW 4684   5.657   5.529   1.866
 1262SOL    HW1 4685   5.645   5.450   1.927
 1262SOL    HW2 4686   5.754   5.550   1.858
 1263SOL     OW 4687   0.928   1.993   2.266
 1263SOL    HW1 4688   0.908   1.896   2.283
 1263SOL    HW2 4689   0.858   2.030   2.204
 1264SOL     OW 4690   1.075   3.896   5.390
 1264SOL    HW1 4691   1.148   3.914   5.324
 1264SOL    HW2 4692   1.002   3.843   5.346
 1265SOL     OW 4693   6.305   5.548   5.425
 1265SOL    HW1 4694   6.354   5.550   5.512
 1265SOL    HW2 4695   6.247   5.629   5.417
 1266SOL     OW 4696   1.336   1.151   5.019
 1266SOL    HW1 4697   1.353   1.054   5.037
 1266SOL    HW2 4698   1.245   1.176   5.050
 1267SOL     OW 4699   5.328   0.759   1.781
 1267SOL    HW1 4700   5.418   0.715   1.779
 1267SOL    HW2 4701   5.325   0.824   1.858
 1268SOL     OW 4702   4.239   2.335   5.369
 1268SOL    HW1 4703   4.317   2.282   5.337
 1268SOL    HW2 4704   4.215   2.404   5.300
 1269SOL     OW 4705   5.418   2.496   3.905
 1269SOL    HW1 4706   5.336   2.532   3.861
 1269SOL    HW2 4707   5.458   2.425   3.848
 1270SOL     OW 4708   1.617   4.458   2.477
 1270SOL    HW1 4709   1.641   4.365   2.503
 1270SOL    HW2 4710   1.670   4.523   2.532
 1271SOL     OW 4711   1.935   1.194   1.336
 1271SOL    HW1 4712   1.933   1.144   1.250
 1271SOL    HW2 4713   1.965   1.133   1.410
 1272SOL     OW 4714   6.463   3.796   6.982
 1272SOL    HW1 4715   6.539   3.860   6.971
 1272SOL    HW2 4716   6.458   3.736   6.902
 1273SOL     OW 4717   1.459   4.477   4.955
 1273SOL    HW1 4718   1.415   4.533   5.026
 1273SOL    HW2 4719   1.468   4.531   4.872
 1274SOL     OW 4720   0.499   4.838   2.014
 1274SOL    HW1 4721   0.530   4.744   2.002
 1274SOL    HW2 4722   0.404   4.839   2.045
 1275SOL     OW 4723   3.050   1.399   3.444
 1275SOL    HW1 4724   2.954   1.379   3.422
 1275SOL    HW2 4725   3.065   1.386   3.542
 1276SOL     OW 4726   5.612   4.785   4.422
 1276SOL    HW1 4727   5.691   4.733   4.455
 1276SOL    HW2 4728   5.644   4.870   4.380
 1277SOL     OW 4729   0.610   5.690   6.825
 1277SOL    HW1 4730   0.549   5.689   6.746
 1277SOL    HW2 4731   0.583   5.619   6.889
 1278SOL     OW 4732   1.366   6.707   3.187
 1278SOL    HW1 4733   1.339   6.761   3.266
 1278SOL    HW2 4734   1.304   6.725   3.111
 1279SOL     OW 4735   2.890   2.874   6.410
 1279SOL    HW1 4736   2.806   2.851   6.360
 1279SOL    HW2 4737   2.875   2.957   6.464
 1280SOL     OW 4738   3.098   1.510   3.206
 1280SOL    HW1 4739   3.084   1.461   3.292
 1280SOL    HW2 4740   3.094   1.445   3.130
 1281SOL     OW 4741   3.276   6.348   3.856
 1281SOL    HW1 4742   3.373   6.337   3.831
 1281SOL    HW2 4743   3.219   6.297   3.792
 1282SOL     OW 4744   6.908   3.433   0.741
 1282SOL    HW1 4745   6.835   3.500   0.747
 1282SOL    HW2 4746   6.950   3.421   0.832
 1283SOL     OW 4747   6.095   3.855   5.116
 1283SOL    HW1 4748   6.001   3.883   5.098
 1283SOL    HW2 4749   6.141   3.834   5.029
 1284SOL     OW 4750   3.561   1.454   1.142
 1284SOL    HW1 4751   3.582   1.388   1.214
 1284SOL    HW2 4752   3.489   1.418   1.083
 1285SOL     OW 4753   3.593   1.535   4.516
 1285SOL    HW1 4754   3.559   1.483   4.438
 1285SOL    HW2 4755   3.534   1.614   4.532
 1286SOL     OW 4756   4.750   2.528   1.518
 1286SOL    HW1 4757   4.817   2.573   1.459
 1286SOL    HW2 4758   4.793   2.450   1.563
 1287SOL     OW 4759   6.791   5.021   4.818
 1287SOL    HW1 4760   6.861   4.955   4.788
 1287SOL    HW2 4761   6.825   5.114   4.806
 1288SOL     OW 4762   4.386   4.198   6.232
 1288SOL    HW1 4763   4.452   4.255   6.279
 1288SOL    HW2 4764   4.298   4.203   6.278
 1289SOL     OW 4765   6.095   0.588   1.096
 1289SOL    HW1 4766   6.162   0.529   1.050
 1289SOL    HW2 4767   6.068   0.661   1.034
 1290SOL     OW 4768   1.569   0.400   6.992
 1290SOL    HW1 4769   1.482   0.448   6.984
 1290SOL    HW2 4770   1.590   0.386   0.066
 1291SOL     OW 4771   6.650   4.756   3.065
 1291SOL    HW1 4772   6.737   4.805   3.077
 1291SOL    HW2 4773   6.644   4.682   3.132
 1292SOL     OW 4774   0.311   5.885   2.499
 1292SOL    HW1 4775   0.399   5.919   2.534
 1292SOL    HW2 4776   0.285   5.938   2.418
 1293SOL     OW 4777   2.294   1.443   0.041
 1293SOL    HW1 4778   2.319   1.528   7.017
 1293SOL    HW2 4779   2.198   1.446   0.069
 1294SOL     OW 4780   1.798   4.104   6.396
 1294SOL    HW1 4781   1.873   4.050   6.358
 1294SOL    HW2 4782   1.756   4.158   6.324
 1295SOL     OW 4783   0.195   3.648   1.355
 1295SOL    HW1 4784   0.177   3.742   1.325
 1295SOL    HW2 4785   0.238   3.597   1.281
 1296SOL     OW 4786   5.141   6.742   5.890
 1296SOL    HW1 4787   5.165   6.776   5.799
 1296SOL    HW2 4788   5.223   6.706   5.934
 1297SOL     OW 4789   0.938   0.599   2.768
 1297SOL    HW1 4790   0.950   0.694   2.797
 1297SOL    HW2 4791   0.872   0.554   2.828
 1298SOL     OW 4792   5.702   5.342   2.640
 1298SOL    HW1 4793   5.704   5.392   2.553
 1298SOL    HW2 4794   5.698   5.244   2.622
 1299SOL     OW 4795   2.208   3.244   4.207
 1299SOL    HW1 4796   2.265   3.241   4.124
 1299SOL    HW2 4797   2.217   3.158   4.256
 1300SOL     OW 4798   2.540   4.088   1.093
 1300SOL    HW1 4799   2.496   4.013   1.142
 1300SOL    HW2 4800   2.472   4.137   1.039
 1301SOL     OW 4801   1.065   0.765   1.582
 1301SOL    HW1 4802   1.110   0.679   1.557
 1301SOL    HW2 4803   0.984   0.746   1.636
 1302SOL     OW 4804   5.449   6.636   6.425
 1302SOL    HW1 4805   5.521   6.585   6.378
 1302SOL    HW2 4806   5.371   6.576   6.441
 1303SOL     OW 4807   4.202   6.902   1.984
 1303SOL    HW1 4808   4.110   6.878   2.014
 1303SOL    HW2 4809   4.246   6.960   2.053
 1304SOL     OW 4810   0.995   1.045   1.424
 1304SOL    HW1 4811   1.026   0.951   1.435
 1304SOL    HW2 4812   1.052   1.105   1.481
 1305SOL     OW 4813   5.178   4.852   6.571
 1305SOL    HW1 4814   5.154   4.949   6.578
 1305SOL    HW2 4815   5.234   4.825   6.649
 1306SOL     OW 4816   1.370   5.568   5.073
 1306SOL    HW1 4817   1.413   5.552   5.161
 1306SOL    HW2 4818   1.439   5.566   5.001
 1307SOL     OW 4819   1.886   3.134   3.871
 1307SOL    HW1 4820   1.880   3.182   3.783
 1307SOL    HW2 4821   1.877   3.036   3.856
 1308SOL     OW 4822   6.422   5.159   0.007
 1308SOL    HW1 4823   6.446   5.135   6.936
 1308SOL    HW2 4824   6.448   5.084   0.068
 1309SOL     OW 4825   5.268   4.341   6.184
 1309SOL    HW1 4826   5.266   4.336   6.085
 1309SOL    HW2 4827   5.198   4.405   6.216
 1310SOL     OW 4828   1.338   3.735   4.019
 1310SOL    HW1 4829   1.334   3.767   4.113
 1310SOL    HW2 4830   1.400   3.793   3.966
 1311SOL     OW 4831   6.589   5.481   0.383
 1311SOL    HW1 4832   6.656   5.477   0.308
 1311SOL    HW2 4833   6.545   5.392   0.393
 1312SOL     OW 4834   1.323   0.906   5.461
 1312SOL    HW1 4835   1.235   0.946   5.437
 1312SOL    HW2 4836   1.311   0.809   5.480
 1313SOL     OW 4837   6.395   5.229   3.009
 1313SOL    HW1 4838   6.329   5.290   3.053
 1313SOL    HW2 4839   6.384   5.235   2.909
 1314SOL     OW 4840   2.304   1.816   4.908
 1314SOL    HW1 4841   2.337   1.903   4.944
 1314SOL    HW2 4842   2.236   1.834   4.837
 1315SOL     OW 4843   6.268   0.592   3.936
 1315SOL    HW1 4844   6.301   0.605   4.030
 1315SOL    HW2 4845   6.168   0.589   3.936
 1316SOL     OW 4846   4.030   0.517   5.127
 1316SOL    HW1 4847   4.065   0.573   5.052
 1316SOL    HW2 4848   4.042   0.566   5.213
 1317SOL     OW 4849   2.937   3.580   6.152
 1317SOL    HW1 4850   2.883   3.594   6.235
 1317SOL    HW2 4851   2.937   3.663   6.097
 1318SOL     OW 4852   2.078   2.391   0.026
 1318SOL    HW1 4853   2.095   2.484   0.058
 1318SOL    HW2 4854   2.038   2.394   6.958
 1319SOL     OW 4855   6.958   6.159   6.975
 1319SOL    HW1 4856   6.923   6.207   0.032
 1319SOL    HW2 4857   6.899   6.081   6.954
 1320SOL     OW 4858   3.648   2.964   6.460
 1320SOL    HW1 4859   3.707   2.983   6.381
 1320SOL    HW2 4860   3.567   2.913   6.430
 1321SOL     OW 4861   5.682   1.940   6.694
 1321SOL    HW1 4862   5.654   1.858   6.643
 1321SOL    HW2 4863   5.700   1.915   6.789
 1322SOL     OW 4864   3.019   1.189   6.275
 1322SOL    HW1 4865   2.952   1.115   6.280
 1322SOL    HW2 4866   3.008   1.237   6.188
 1323SOL     OW 4867   3.338   0.110   0.665
 1323SOL    HW1 4868   3.348   0.046   0.589
 1323SOL    HW2 4869   3.417   0.103   0.726
 1324SOL     OW 4870   1.447   3.646   0.209
 1324SOL    HW1 4871   1.447   3.630   0.110
 1324SOL    HW2 4872   1.381   3.718   0.231
 1325SOL     OW 4873   2.069   5.816   5.680
 1325SOL    HW1 4874   1.997   5.831   5.747
 1325SOL    HW2 4875   2.083   5.900   5.628
 1326SOL     OW 4876   4.833   4.022   4.522
 1326SOL    HW1 4877   4.781   4.049   4.603
 1326SOL    HW2 4878   4.884   3.938   4.542
 1327SOL     OW 4879   0.297   6.585   1.164
 1327SOL    HW1 4880   0.324   6.635   1.082
 1327SOL    HW2 4881   0.349   6.618   1.242
 1328SOL     OW 4882   0.975   3.411   5.681
 1328SOL    HW1 4883   0.966   3.410   5.780
 1328SOL    HW2 4884   0.936   3.327   5.643
 1329SOL     OW 4885   0.541   2.552   2.831
 1329SOL    HW1 4886   0.511   2.631   2.779
 1329SOL    HW2 4887   0.465   2.518   2.887
 1330SOL     OW 4888   6.619   2.164   1.196
 1330SOL    HW1 4889   6.603   2.178   1.294
 1330SOL    HW2 4890   6.548   2.104   1.158
 1331SOL     OW 4891   4.333   2.322   2.430
 1331SOL    HW1 4892   4.274   2.252   2.389
 1331SOL    HW2 4893   4.301   2.342   2.523
 1332SOL     OW 4894   1.656   0.565   0.902
 1332SOL    HW1 4895   1.565   0.606   0.915
 1332SOL    HW2 4896   1.724   0.638   0.895
 1333SOL     OW 4897   3.915   3.922   3.242
 1333SOL    HW1 4898   3.818   3.931   3.219
 1333SOL    HW2 4899   3.926   3.921   3.341
 1334SOL     OW 4900   6.821   1.663   2.580
 1334SOL    HW1 4901   6.916   1.641   2.601
 1334SOL    HW2 4902   6.787   1.601   2.509
 1335SOL     OW 4903   1.954   4.176   1.578
 1335SOL    HW1 4904   2.003   4.099   1.619
 1335SOL    HW2 4905   1.864   4.147   1.548
 1336SOL     OW 4906   3.694   0.860   5.832
 1336SOL    HW1 4907   3.752   0.900   5.762
 1336SOL    HW2 4908   3.664   0.769   5.803
 1337SOL     OW 4909   6.299   1.501   3.545
 1337SOL    HW1 4910   6.242   1.555   3.483
 1337SOL    HW2 4911   6.329   1.418   3.499
 1338SOL     OW 4912   6.255   3.782   4.414
 1338SOL    HW1 4913   6.242   3.876   4.443
 1338SOL    HW2 4914   6.216   3.769   4.323
 1339SOL     OW 4915   0.282   0.437   0.008
 1339SOL    HW1 4916   0.255   0.357   0.062
 1339SOL    HW2 4917   0.202   0.495   7.015
 1340SOL     OW 4918   5.312   1.309   1.878
 1340SOL    HW1 4919   5.237   1.315   1.944
 1340SOL    HW2 4920   5.285   1.351   1.792
 1341SOL     OW 4921   4.570   6.903   6.839
 1341SOL    HW1 4922   4.551   6.998   6.864
 1341SOL    HW2 4923   4.656   6.874   6.880
 1342SOL     OW 4924   3.044   5.650   0.783
 1342SOL    HW1 4925   3.089   5.672   0.696
 1342SOL    HW2 4926   3.077   5.712   0.854
 1343SOL     OW 4927   5.001   4.847   3.030
 1343SOL    HW1 4928   4.994   4.925   2.968
 1343SOL    HW2 4929   5.096   4.838   3.061
 1344SOL     OW 4930   6.903   6.996   4.444
 1344SOL    HW1 4931   6.945   6.933   4.379
 1344SOL    HW2 4932   6.806   7.009   4.421
 1345SOL     OW 4933   0.276   5.332   1.723
 1345SOL    HW1 4934   0.195   5.283   1.690
 1345SOL    HW2 4935   0.268   5.346   1.822
 1346SOL     OW 4936   2.458   5.424   5.824
 1346SOL    HW1 4937   2.549   5.436   5.862
 1346SOL    HW2 4938   2.441   5.495   5.755
 1347SOL     OW 4939   1.463   0.224   6.239
 1347SOL    HW1 4940   1.540   0.166   6.267
 1347SOL    HW2 4941   1.383   0.204   6.296
 1348SOL     OW 4942   6.839   5.871   5.249
 1348SOL    HW1 4943   6.815   5.867   5.152
 1348SOL    HW2 4944   6.844   5.778   5.286
 1349SOL     OW 4945   5.601   3.052   3.981
 1349SOL    HW1 4946   5.646   2.964   3.969
 1349SOL    HW2 4947   5.525   3.060   3.916
 1350SOL     OW 4948   3.616   3.918   0.400
 1350SOL    HW1 4949   3.674   3.949   0.325
 1350SOL    HW2 4950   3.612   3.818   0.400
 1351SOL     OW 4951   6.173   2.035   4.036
 1351SOL    HW1 4952   6.103   1.966   4.055
 1351SOL    HW2 4953   6.247   1.994   3.984
 1352SOL     OW 4954   6.518   0.100   2.282
 1352SOL    HW1 4955   6.472   0.098   2.193
 1352SOL    HW2 4956   6.583   0.175   2.284
 1353SOL     OW 4957   6.975   1.644   0.948
 1353SOL    HW1 4958   6.970   1.736   0.985
 1353SOL    HW2 4959   0.029   1.638   0.885
 1354SOL     OW 4960   6.486   4.302   2.403
 1354SOL    HW1 4961   6.515   4.264   2.491
 1354SOL    HW2 4962   6.565   4.346   2.359
 1355SOL     OW 4963   5.870   3.524   4.394
 1355SOL    HW1 4964   5.850   3.440   4.445
 1355SOL    HW2 4965   5.785   3.575   4.379
 1356SOL     OW 4966   3.498   2.984   2.373
 1356SOL    HW1 4967   3.579   2.950   2.326
 1356SOL    HW2 4968   3.523   3.060   2.433
 1357SOL     OW 4969   6.373   3.646   5.853
 1357SOL    HW1 4970   6.449   3.612   5.798
 1357SOL    HW2 4971   6.359   3.743   5.833
 1358SOL     OW 4972   0.616   6.655   6.583
 1358SOL    HW1 4973   0.546   6.707   6.534
 1358SOL    HW2 4974   0.703   6.660   6.533
 1359SOL     OW 4975   6.231   4.100   1.543
 1359SOL    HW1 4976   6.291   4.107   1.623
 1359SOL    HW2 4977   6.157   4.168   1.550
 1360SOL     OW 4978   3.415   2.851   6.393
 1360SOL    HW1 4979   3.386   2.895   6.478
 1360SOL    HW2 4980   3.360   2.886   6.317
 1361SOL     OW 4981   0.415   4.107   4.702
 1361SOL    HW1 4982   0.348   4.134   4.633
 1361SOL    HW2 4983   0.436   4.010   4.692
 1362SOL     OW 4984   3.754   2.923   2.648
 1362SOL    HW1 4985   3.797   3.000   2.602
 1362SOL    HW2 4986   3.822   2.873   2.702
 1363SOL     OW 4987   6.690   5.482   5.240
 1363SOL    HW1 4988   6.775   5.464   5.190
 1363SOL    HW2 4989   6.638   5.553   5.193
 1364SOL     OW 4990   4.648   4.262   0.168
 1364SOL    HW1 4991   4.714   4.258   0.243
 1364SOL    HW2 4992   4.574   4.197   0.186
 1365SOL     OW 4993   0.593   3.609   6.666
 1365SOL    HW1 4994   0.579   3.520   6.709
 1365SOL    HW2 4995   0.689   3.635   6.673
 1366SOL     OW 4996   1.186   0.428   4.837
 1366SOL    HW1 4997   1.181   0.397   4.742
 1366SOL    HW2 4998   1.096   0.417   4.880
 1367SOL     OW 4999   1.753   1.292   2.444
 1367SOL    HW1 5000   1.819   1.366   2.456
 1367SOL    HW2 5001   1.763   1.226   2.517
 1368SOL     OW 5002   5.861   0.109   4.120
 1368SOL    HW1 5003   5.795   0.035   4.133
 1368SOL    HW2 5004   5.926   0.110   4.197
 1369SOL     OW 5005   0.546   0.385   3.098
 1369SOL    HW1 5006   0.612   0.335   3.155
 1369SOL    HW2 5007   0.501   0.322   3.035
 1370SOL     OW 5008   3.329   0.646   1.771
 1370SOL    HW1 5009   3.247   0.589   1.781
 1370SOL    HW2 5010   3.319   0.728   1.827
 1371SOL     OW 5011   3.722   0.356   5.707
 1371SOL    HW1 5012   3.751   0.294   5.634
 1371SOL    HW2 5013   3.652   0.312   5.763
 1372SOL     OW 5014   2.454   2.249   2.197
 1372SOL    HW1 5015   2.399   2.185   2.144
 1372SOL    HW2 5016   2.550   2.239   2.171
 1373SOL     OW 5017   0.701   5.341   1.263
 1373SOL    HW1 5018   0.743   5.420   1.308
 1373SOL    HW2 5019   0.602   5.351   1.264
 1374SOL     OW 5020   4.290   2.229   1.161
 1374SOL    HW1 5021   4.206   2.255   1.113
 1374SOL    HW2 5022   4.344   2.311   1.181
 1375SOL     OW 5023   0.184   5.055   6.035
 1375SOL    HW1 5024   0.256   5.045   5.966
 1375SOL    HW2 5025   0.219   5.027   6.124
 1376SOL     OW 5026   4.864   2.978   3.420
 1376SOL    HW1 5027   4.799   2.947   3.490
 1376SOL    HW2 5028   4.885   2.903   3.358
 1377SOL     OW 5029   6.696   4.975   5.426
 1377SOL    HW1 5030   6.781   5.004   5.382
 1377SOL    HW2 5031   6.686   5.020   5.514
 1378SOL     OW 5032   1.412   2.351   0.086
 1378SOL    HW1 5033   1.352   2.298   0.027
 1378SOL    HW2 5034   1.438   2.437   0.041
 1379SOL     OW 5035   3.944   6.868   2.596
 1379SOL    HW1 5036   3.999   6.844   2.517
 1379SOL    HW2 5037   3.983   6.949   2.640
 1380SOL     OW 5038   6.451   0.144   2.603
 1380SOL    HW1 5039   6.466   0.195   2.518
 1380SOL    HW2 5040   6.358   0.109   2.605
 1381SOL     OW 5041   6.532   2.167   0.267
 1381SOL    HW1 5042   6.533   2.095   0.337
 1381SOL    HW2 5043   6.438   2.185   0.238
 1382SOL     OW 5044   5.434   4.783   6.216
 1382SOL    HW1 5045   5.505   4.831   6.267
 1382SOL    HW2 5046   5.373   4.737   6.280
 1383SOL     OW 5047   1.847   0.263   0.776
 1383SOL    HW1 5048   1.784   0.186   0.773
 1383SOL    HW2 5049   1.930   0.242   0.724
 1384SOL     OW 5050   3.250   1.858   2.766
 1384SOL    HW1 5051   3.241   1.920   2.688
 1384SOL    HW2 5052   3.217   1.904   2.849
 1385SOL     OW 5053   7.022   3.331   3.088
 1385SOL    HW1 5054   6.976   3.242   3.086
 1385SOL    HW2 5055   0.035   3.347   3.181
 1386SOL     OW 5056   2.236   2.994   4.350
 1386SOL    HW1 5057   2.143   2.958   4.360
 1386SOL    HW2 5058   2.285   2.981   4.436
 1387SOL     OW 5059   2.781   0.182   4.906
 1387SOL    HW1 5060   2.880   0.183   4.889
 1387SOL    HW2 5061   2.746   0.276   4.904
 1388SOL     OW 5062   6.484   1.190   4.057
 1388SOL    HW1 5063   6.531   1.227   4.137
 1388SOL    HW2 5064   6.398   1.148   4.085
 1389SOL     OW 5065   5.952   6.935   4.653
 1389SOL    HW1 5066   5.911   6.888   4.731
 1389SOL    HW2 5067   5.932   6.884   4.569
 1390SOL     OW 5068   4.632   2.559   1.944
 1390SOL    HW1 5069   4.649   2.587   2.038
 1390SOL    HW2 5070   4.629   2.459   1.939
 1391SOL     OW 5071   5.525   0.637   4.343
 1391SOL    HW1 5072   5.478   0.572   4.403
 1391SOL    HW2 5073   5.622   0.616   4.340
 1392SOL     OW 5074   5.274   5.540   6.731
 1392SOL    HW1 5075   5.300   5.635   6.721
 1392SOL    HW2 5076   5.282   5.512   6.826
 1393SOL     OW 5077   6.676   0.976   6.402
 1393SOL    HW1 5078   6.612   1.012   6.334
 1393SOL    HW2 5079   6.674   0.876   6.399
 1394SOL     OW 5080   4.436   6.744   3.702
 1394SOL    HW1 5081   4.431   6.645   3.710
 1394SOL    HW2 5082   4.446   6.785   3.792
 1395SOL     OW 5083   1.539   4.827   2.467
 1395SOL    HW1 5084   1.494   4.776   2.394
 1395SOL    HW2 5085   1.637   4.829   2.451
 1396SOL     OW 5086   1.857   1.002   3.951
 1396SOL    HW1 5087   1.918   1.014   4.029
 1396SOL    HW2 5088   1.897   1.043   3.870
 1397SOL     OW 5089   0.312   5.444   4.379
 1397SOL    HW1 5090   0.333   5.488   4.292
 1397SOL    HW2 5091   0.387   5.384   4.405
 1398SOL     OW 5092   0.754   0.622   0.998
 1398SOL    HW1 5093   0.853   0.612   1.010
 1398SOL    HW2 5094   0.726   0.712   1.031
 1399SOL     OW 5095   3.923   6.990   0.337
 1399SOL    HW1 5096   3.976   6.933   0.400
 1399SOL    HW2 5097   3.905   0.055   0.380
 1400SOL     OW 5098   6.040   0.220   4.807
 1400SOL    HW1 5099   5.984   0.301   4.791
 1400SOL    HW2 5100   6.098   0.203   4.727
 1401SOL     OW 5101   5.145   0.323   3.365
 1401SOL    HW1 5102   5.185   0.412   3.343
 1401SOL    HW2 5103   5.194   0.283   3.443
 1402SOL     OW 5104   6.209   4.493   1.976
 1402SOL    HW1 5105   6.200   4.553   1.896
 1402SOL    HW2 5106   6.172   4.402   1.954
 1403SOL     OW 5107   3.019   3.050   6.875
 1403SOL    HW1 5108   3.116   3.075   6.867
 1403SOL    HW2 5109   2.975   3.111   6.941
 1404SOL     OW 5110   4.369   6.621   0.550
 1404SOL    HW1 5111   4.354   6.666   0.462
 1404SOL    HW2 5112   4.309   6.662   0.619
 1405SOL     OW 5113   1.831   3.281   0.543
 1405SOL    HW1 5114   1.872   3.370   0.562
 1405SOL    HW2 5115   1.731   3.289   0.545
 1406SOL     OW 5116   2.339   3.066   1.339
 1406SOL    HW1 5117   2.398   3.146   1.337
 1406SOL    HW2 5118   2.391   2.986   1.307
 1407SOL     OW 5119   0.513   3.009   0.926
 1407SOL    HW1 5120   0.428   3.051   0.957
 1407SOL    HW2 5121   0.590   3.051   0.974
 1408SOL     OW 5122   5.879   5.984   0.048
 1408SOL    HW1 5123   5.786   5.949   0.038
 1408SOL    HW2 5124   5.901   6.044   6.995
 1409SOL     OW 5125   6.902   1.711   5.804
 1409SOL    HW1 5126   6.968   1.703   5.729
 1409SOL    HW2 5127   6.810   1.715   5.766
 1410SOL     OW 5128   3.714   2.091   6.050
 1410SOL    HW1 5129   3.633   2.148   6.040
 1410SOL    HW2 5130   3.708   2.037   6.134
 1411SOL     OW 5131   4.199   5.340   0.319
 1411SOL    HW1 5132   4.170   5.381   0.233
 1411SOL    HW2 5133   4.120   5.330   0.380
 1412SOL     OW 5134   1.902   2.592   0.682
 1412SOL    HW1 5135   1.940   2.507   0.718
 1412SOL    HW2 5136   1.966   2.632   0.617
 1413SOL     OW 5137   1.906   1.873   5.476
 1413SOL    HW1 5138   1.838   1.826   5.419
 1413SOL    HW2 5139   1.863   1.902   5.562
 1414SOL     OW 5140   1.283   4.330   2.288
 1414SOL    HW1 5141   1.309   4.397   2.358
 1414SOL    HW2 5142   1.259   4.243   2.332
 1415SOL     OW 5143   1.819   2.079   4.421
 1415SOL    HW1 5144   1.744   2.083   4.355
 1415SOL    HW2 5145   1.819   1.990   4.466
 1416SOL     OW 5146   3.937   0.257   5.129
 1416SOL    HW1 5147   3.982   0.347   5.126
 1416SOL    HW2 5148   3.870   0.250   5.055
 1417SOL     OW 5149   3.703   3.051   5.853
 1417SOL    HW1 5150   3.710   2.955   5.882
 1417SOL    HW2 5151   3.634   3.059   5.781
 1418SOL     OW 5152   3.269   3.882   6.582
 1418SOL    HW1 5153   3.286   3.942   6.504
 1418SOL    HW2 5154   3.342   3.892   6.649
 1419SOL     OW 5155   1.804   4.630   2.611
 1419SOL    HW1 5156   1.889   4.613   2.562
 1419SOL    HW2 5157   1.815   4.607   2.707
 1420SOL     OW 5158   2.898   6.071   3.291
 1420SOL    HW1 5159   2.942   6.003   3.232
 1420SOL    HW2 5160   2.910   6.162   3.252
 1421SOL     OW 5161   1.140   5.071   5.877
 1421SOL    HW1 5162   1.130   5.065   5.778
 1421SOL    HW2 5163   1.234   5.047   5.902
 1422SOL     OW 5164   2.239   4.223   6.037
 1422SOL    HW1 5165   2.178   4.246   5.961
 1422SOL    HW2 5166   2.333   4.221   6.005
 1423SOL     OW 5167   4.046   0.688   5.342
 1423SOL    HW1 5168   3.974   0.685   5.412
 1423SOL    HW2 5169   4.127   0.734   5.380
 1424SOL     OW 5170   5.999   2.941   6.690
 1424SOL    HW1 5171   6.076   2.878   6.680
 1424SOL    HW2 5172   5.996   2.976   6.784
 1425SOL     OW 5173   4.992   6.447   3.948
 1425SOL    HW1 5174   4.955   6.357   3.973
 1425SOL    HW2 5175   4.941   6.483   3.870
 1426SOL     OW 5176   3.247   2.175   6.711
 1426SOL    HW1 5177   3.207   2.266   6.709
 1426SOL    HW2 5178   3.213   2.125   6.790
 1427SOL     OW 5179   1.623   1.165   4.031
 1427SOL    HW1 5180   1.545   1.106   4.012
 1427SOL    HW2 5181   1.702   1.134   3.977
 1428SOL     OW 5182   0.473   3.946   3.875
 1428SOL    HW1 5183   0.515   3.857   3.893
 1428SOL    HW2 5184   0.402   3.963   3.944
 1429SOL     OW 5185   5.948   0.910   0.764
 1429SOL    HW1 5186   5.982   0.846   0.833
 1429SOL    HW2 5187   5.981   1.002   0.786
 1430SOL     OW 5188   1.538   3.842   3.548
 1430SOL    HW1 5189   1.626   3.797   3.565
 1430SOL    HW2 5190   1.472   3.813   3.617
 1431SOL     OW 5191   2.382   1.285   5.948
 1431SOL    HW1 5192   2.471   1.313   5.911
 1431SOL    HW2 5193   2.316   1.277   5.874
 1432SOL     OW 5194   2.380   1.544   2.221
 1432SOL    HW1 5195   2.464   1.492   2.234
 1432SOL    HW2 5196   2.301   1.483   2.228
 1433SOL     OW 5197   2.669   0.113   4.288
 1433SOL    HW1 5198   2.639   0.068   4.204
 1433SOL    HW2 5199   2.748   0.170   4.270
 1434SOL     OW 5200   0.429   3.030   0.465
 1434SOL    HW1 5201   0.494   3.044   0.390
 1434SOL    HW2 5202   0.385   2.941   0.455
 1435SOL     OW 5203   0.881   6.959   4.325
 1435SOL    HW1 5204   0.902   6.896   4.400
 1435SOL    HW2 5205   0.904   6.916   4.238
 1436SOL     OW 5206   5.341   2.012   6.928
 1436SOL    HW1 5207   5.299   2.014   6.837
 1436SOL    HW2 5208   5.421   2.072   6.929
 1437SOL     OW 5209   4.202   0.368   6.030
 1437SOL    HW1 5210   4.118   0.366   5.977
 1437SOL    HW2 5211   4.280   0.379   5.968
 1438SOL     OW 5212   2.649   0.142   2.148
 1438SOL    HW1 5213   2.651   0.081   2.227
 1438SOL    HW2 5214   2.731   0.198   2.147
 1439SOL     OW 5215   0.678   5.138   0.036
 1439SOL    HW1 5216   0.642   5.065   7.001
 1439SOL    HW2 5217   0.642   5.128   0.129
 1440SOL     OW 5218   3.233   2.976   3.742
 1440SOL    HW1 5219   3.151   2.988   3.687
 1440SOL    HW2 5220   3.313   2.973   3.682
 1441SOL     OW 5221   6.231   3.164   3.486
 1441SOL    HW1 5222   6.324   3.194   3.466
 1441SOL    HW2 5223   6.172   3.243   3.504
 1442SOL     OW 5224   5.117   4.463   0.470
 1442SOL    HW1 5225   5.090   4.547   0.422
 1442SOL    HW2 5226   5.202   4.429   0.432
 1443SOL     OW 5227   0.573   2.298   2.711
 1443SOL    HW1 5228   0.522   2.307   2.625
 1443SOL    HW2 5229   0.575   2.386   2.758
 1444SOL     OW 5230   4.534   1.032   3.666
 1444SOL    HW1 5231   4.604   1.030   3.737
 1444SOL    HW2 5232   4.444   1.043   3.708
 1445SOL     OW 5233   6.085   1.995   1.540
 1445SOL    HW1 5234   6.141   2.076   1.559
 1445SOL    HW2 5235   6.006   2.022   1.485
 1446SOL     OW 5236   4.419   0.637   1.276
 1446SOL    HW1 5237   4.363   0.564   1.238
 1446SOL    HW2 5238   4.430   0.710   1.208
 1447SOL     OW 5239   6.483   0.365   5.077
 1447SOL    HW1 5240   6.464   0.327   5.168
 1447SOL    HW2 5241   6.418   0.438   5.057
 1448SOL     OW 5242   5.399   0.969   6.568
 1448SOL    HW1 5243   5.306   1.007   6.572
 1448SOL    HW2 5244   5.414   0.910   6.647
 1449SOL     OW 5245   5.184   6.113   1.154
 1449SOL    HW1 5246   5.111   6.179   1.170
 1449SOL    HW2 5247   5.219   6.124   1.060
 1450SOL     OW 5248   5.716   2.892   3.375
 1450SOL    HW1 5249   5.650   2.943   3.431
 1450SOL    HW2 5250   5.715   2.796   3.403
 1451SOL     OW 5251   1.197   6.110   3.477
 1451SOL    HW1 5252   1.133   6.065   3.414
 1451SOL    HW2 5253   1.288   6.072   3.464
 1452SOL     OW 5254   4.437   1.275   5.489
 1452SOL    HW1 5255   4.504   1.320   5.430
 1452SOL    HW2 5256   4.441   1.315   5.580
 1453SOL     OW 5257   5.350   4.782   5.276
 1453SOL    HW1 5258   5.407   4.704   5.252
 1453SOL    HW2 5259   5.326   4.778   5.373
 1454SOL     OW 5260   4.123   4.107   1.067
 1454SOL    HW1 5261   4.187   4.082   0.994
 1454SOL    HW2 5262   4.144   4.055   1.150
 1455SOL     OW 5263   1.715   2.195   1.476
 1455SOL    HW1 5264   1.773   2.264   1.520
 1455SOL    HW2 5265   1.644   2.165   1.541
 1456SOL     OW 5266   6.030   6.244   3.475
 1456SOL    HW1 5267   6.112   6.269   3.423
 1456SOL    HW2 5268   6.057   6.197   3.558
 1457SOL     OW 5269   1.417   0.642   2.890
 1457SOL    HW1 5270   1.342   0.592   2.932
 1457SOL    HW2 5271   1.404   0.740   2.904
 1458SOL     OW 5272   5.524   5.311   6.878
 1458SOL    HW1 5273   5.573   5.234   6.919
 1458SOL    HW2 5274   5.551   5.320   6.782
 1459SOL     OW 5275   2.129   6.844   6.591
 1459SOL    HW1 5276   2.210   6.868   6.646
 1459SOL    HW2 5277   2.048   6.847   6.649
 1460SOL     OW 5278   1.286   0.190   6.924
 1460SOL    HW1 5279   1.198   0.160   6.887
 1460SOL    HW2 5280   1.309   0.135   7.004
 1461SOL     OW 5281   5.610   4.366   1.673
 1461SOL    HW1 5282   5.544   4.312   1.725
 1461SOL    HW2 5283   5.677   4.406   1.735
 1462SOL     OW 5284   5.838   0.918   6.424
 1462SOL    HW1 5285   5.761   0.971   6.389
 1462SOL    HW2 5286   5.812   0.821   6.430
 1463SOL     OW 5287   0.953   1.323   4.760
 1463SOL    HW1 5288   0.903   1.257   4.704
 1463SOL    HW2 5289   0.997   1.391   4.700
 1464SOL     OW 5290   0.251   6.284   1.066
 1464SOL    HW1 5291   0.324   6.251   1.126
 1464SOL    HW2 5292   0.229   6.379   1.090
 1465SOL     OW 5293   6.901   6.626   4.519
 1465SOL    HW1 5294   6.998   6.628   4.494
 1465SOL    HW2 5295   6.858   6.544   4.480
 1466SOL     OW 5296   5.715   4.769   3.402
 1466SOL    HW1 5297   5.621   4.734   3.407
 1466SOL    HW2 5298   5.730   4.834   3.476
 1467SOL     OW 5299   0.965   2.384   3.418
 1467SOL    HW1 5300   0.941   2.422   3.507
 1467SOL    HW2 5301   0.895   2.320   3.388
 1468SOL     OW 5302   5.760   5.831   3.758
 1468SOL    HW1 5303   5.677   5.871   3.719
 1468SOL    HW2 5304   5.787   5.752   3.704
 1469SOL     OW 5305   1.151   1.290   2.903
 1469SOL    HW1 5306   1.052   1.296   2.913
 1469SOL    HW2 5307   1.188   1.378   2.874
 1470SOL     OW 5308   0.867   1.348   3.079
 1470SOL    HW1 5309   0.851   1.262   3.032
 1470SOL    HW2 5310   0.801   1.358   3.154
 1471SOL     OW 5311   0.551   6.882   6.985
 1471SOL    HW1 5312   0.546   6.948   0.036
 1471SOL    HW2 5313   0.487   6.807   7.003
 1472SOL     OW 5314   4.218   1.139   5.822
 1472SOL    HW1 5315   4.269   1.092   5.750
 1472SOL    HW2 5316   4.196   1.074   5.895
 1473SOL     OW 5317   6.234   4.108   3.910
 1473SOL    HW1 5318   6.216   4.050   3.830
 1473SOL    HW2 5319   6.148   4.126   3.958
 1474SOL     OW 5320   4.861   5.618   3.652
 1474SOL    HW1 5321   4.917   5.642   3.572
 1474SOL    HW2 5322   4.836   5.701   3.702
 1475SOL     OW 5323   0.630   1.098   2.535
 1475SOL    HW1 5324   0.629   1.194   2.509
 1475SOL    HW2 5325   0.602   1.042   2.457
 1476SOL     OW 5326   6.563   1.917   2.101
 1476SOL    HW1 5327   6.620   1.878   2.028
 1476SOL    HW2 5328   6.607   1.900   2.189
 1477SOL     OW 5329   2.592   5.754   4.193
 1477SOL    HW1 5330   2.605   5.845   4.231
 1477SOL    HW2 5331   2.525   5.758   4.118
 1478SOL     OW 5332   6.472   4.010   1.092
 1478SOL    HW1 5333   6.378   4.009   1.056
 1478SOL    HW2 5334   6.474   4.056   1.181
 1479SOL     OW 5335   1.800   5.154   0.826
 1479SOL    HW1 5336   1.813   5.088   0.900
 1479SOL    HW2 5337   1.885   5.204   0.810
 1480SOL     OW 5338   2.741   1.023   6.825
 1480SOL    HW1 5339   2.645   1.020   6.852
 1480SOL    HW2 5340   2.784   1.105   6.863
 1481SOL     OW 5341   6.008   2.366   6.227
 1481SOL    HW1 5342   5.991   2.268   6.229
 1481SOL    HW2 5343   6.102   2.384   6.256
 1482SOL     OW 5344   6.477   0.390   6.430
 1482SOL    HW1 5345   6.421   0.332   6.489
 1482SOL    HW2 5346   6.546   0.335   6.383
 1483SOL     OW 5347   6.003   1.853   0.370
 1483SOL    HW1 5348   6.084   1.896   0.330
 1483SOL    HW2 5349   6.021   1.831   0.466
 1484SOL     OW 5350   6.273   5.396   2.409
 1484SOL    HW1 5351   6.335   5.474   2.415
 1484SOL    HW2 5352   6.222   5.386   2.495
 1485SOL     OW 5353   4.967   2.539   3.959
 1485SOL    HW1 5354   4.922   2.624   3.988
 1485SOL    HW2 5355   5.042   2.560   3.896
 1486SOL     OW 5356   4.726   1.856   2.218
 1486SOL    HW1 5357   4.670   1.859   2.301
 1486SOL    HW2 5358   4.710   1.939   2.164
 1487SOL     OW 5359   6.024   1.314   5.474
 1487SOL    HW1 5360   6.088   1.390   5.482
 1487SOL    HW2 5361   6.042   1.247   5.545
 1488SOL     OW 5362   4.349   1.956   3.019
 1488SOL    HW1 5363   4.311   1.904   2.942
 1488SOL    HW2 5364   4.304   2.045   3.026
 1489SOL     OW 5365   3.972   5.709   5.115
 1489SOL    HW1 5366   4.048   5.763   5.080
 1489SOL    HW2 5367   3.890   5.766   5.120
 1490SOL     OW 5368   1.867   2.713   0.205
 1490SOL    HW1 5369   1.956   2.692   0.165
 1490SOL    HW2 5370   1.816   2.772   0.143
 1491SOL     OW 5371   0.351   3.204   4.024
 1491SOL    HW1 5372   0.334   3.277   4.091
 1491SOL    HW2 5373   0.391   3.125   4.071
 1492SOL     OW 5374   4.891   2.269   1.628
 1492SOL    HW1 5375   4.951   2.216   1.568
 1492SOL    HW2 5376   4.947   2.331   1.684
 1493SOL     OW 5377   5.342   1.009   5.188
 1493SOL    HW1 5378   5.352   0.913   5.215
 1493SOL    HW2 5379   5.432   1.048   5.170
 1494SOL     OW 5380   4.819   2.714   5.860
 1494SOL    HW1 5381   4.741   2.662   5.825
 1494SOL    HW2 5382   4.786   2.802   5.894
 1495SOL     OW 5383   1.892   3.032   2.389
 1495SOL    HW1 5384   1.858   3.126   2.382
 1495SOL    HW2 5385   1.891   3.003   2.485
 1496SOL     OW 5386   0.487   0.284   2.178
 1496SOL    HW1 5387   0.395   0.287   2.217
 1496SOL    HW2 5388   0.537   0.207   2.217
 1497SOL     OW 5389   6.245   5.381   4.542
 1497SOL    HW1 5390   6.218   5.428   4.626
 1497SOL    HW2 5391   6.269   5.286   4.563
 1498SOL     OW 5392   2.527   6.290   0.110
 1498SOL    HW1 5393   2.567   6.225   0.046
 1498SOL    HW2 5394   2.481   6.240   0.184
 1499SOL     OW 5395   0.962   3.992   5.637
 1499SOL    HW1 5396   1.026   3.932   5.589
 1499SOL    HW2 5397   0.874   3.992   5.590
 1500SOL     OW 5398   4.622   0.185   6.192
 1500SOL    HW1 5399   4.713   0.198   6.230
 1500SOL    HW2 5400   4.626   0.197   6.093
 1501SOL     OW 5401   3.913   6.360   6.292
 1501SOL    HW1 5402   3.847   6.302   6.340
 1501SOL    HW2 5403   3.971   6.406   6.359
 1502SOL     OW 5404   6.171   6.285   0.171
 1502SOL    HW1 5405   6.132   6.197   0.199
 1502SOL    HW2 5406   6.128   6.359   0.224
 1503SOL     OW 5407   3.956   2.892   6.040
 1503SOL    HW1 5408   4.018   2.948   5.985
 1503SOL    HW2 5409   3.910   2.825   5.983
 1504SOL     OW 5410   3.141   6.027   4.742
 1504SOL    HW1 5411   3.100   5.939   4.767
 1504SOL    HW2 5412   3.224   6.011   4.688
 1505SOL     OW 5413   5.371   5.567   0.226
 1505SOL    HW1 5414   5.467   5.595   0.237
 1505SOL    HW2 5415   5.311   5.641   0.257
 1506SOL     OW 5416   0.763   6.281   4.525
 1506SOL    HW1 5417   0.704   6.347   4.573
 1506SOL    HW2 5418   0.788   6.317   4.436
 1507SOL     OW 5419   1.777   1.754   6.027
 1507SOL    HW1 5420   1.818   1.825   5.970
 1507SOL    HW2 5421   1.834   1.738   6.108
 1508SOL     OW 5422   5.307   6.939   0.268
 1508SOL    HW1 5423   5.271   6.937   0.361
 1508SOL    HW2 5424   5.401   6.974   0.269
 1509SOL     OW 5425   4.817   2.255   0.617
 1509SOL    HW1 5426   4.916   2.257   0.607
 1509SOL    HW2 5427   4.774   2.271   0.528
 1510SOL     OW 5428   6.798   1.978   3.951
 1510SOL    HW1 5429   6.840   1.923   4.024
 1510SOL    HW2 5430   6.716   1.931   3.918
 1511SOL     OW 5431   1.745   3.037   0.618
 1511SOL    HW1 5432   1.775   2.979   0.543
 1511SOL    HW2 5433   1.783   3.129   0.607
 1512SOL     OW 5434   0.206   1.117   2.120
 1512SOL    HW1 5435   0.251   1.152   2.202
 1512SOL    HW2 5436   0.160   1.031   2.142
 1513SOL     OW 5437   3.678   0.788   3.242
 1513SOL    HW1 5438   3.654   0.714   3.180
 1513SOL    HW2 5439   3.767   0.825   3.217
 1514SOL     OW 5440   5.253   1.464   5.336
 1514SOL    HW1 5441   5.227   1.373   5.305
 1514SOL    HW2 5442   5.277   1.521   5.257
 1515SOL     OW 5443   6.996   4.671   4.509
 1515SOL    HW1 5444   7.001   4.582   4.554
 1515SOL    HW2 5445   7.011   4.660   4.411
 1516SOL     OW 5446   0.945   0.779   0.330
 1516SOL    HW1 5447   0.970   0.690   0.369
 1516SOL    HW2 5448   0.847   0.780   0.311
 1517SOL     OW 5449   4.354   5.636   3.453
 1517SOL    HW1 5450   4.401   5.550   3.474
 1517SOL    HW2 5451   4.256   5.624   3.463
 1518SOL     OW 5452   0.691   4.279   1.320
 1518SOL    HW1 5453   0.740   4.245   1.401
 1518SOL    HW2 5454   0.725   4.370   1.297
 1519SOL     OW 5455   6.142   4.521   0.444
 1519SOL    HW1 5456   6.141   4.421   0.441
 1519SOL    HW2 5457   6.055   4.557   0.412
 1520SOL     OW 5458   1.312   3.859   3.034
 1520SOL    HW1 5459   1.330   3.831   3.128
 1520SOL    HW2 5460   1.395   3.898   2.994
 1521SOL     OW 5461   2.913   3.845   6.734
 1521SOL    HW1 5462   2.888   3.941   6.721
 1521SOL    HW2 5463   2.908   3.822   6.831
 1522SOL     OW 5464   6.004   2.304   0.137
 1522SOL    HW1 5465   6.024   2.274   0.230
 1522SOL    HW2 5466   6.028   2.231   0.072
 1523SOL     OW 5467   0.500   1.977   1.136
 1523SOL    HW1 5468   0.443   2.059   1.145
 1523SOL    HW2 5469   0.446   1.902   1.098
 1524SOL     OW 5470   0.073   0.916   2.262
 1524SOL    HW1 5471   7.001   0.947   2.270
 1524SOL    HW2 5472   0.099   0.868   2.345
 1525SOL     OW 5473   4.691   2.309   6.460
 1525SOL    HW1 5474   4.660   2.255   6.538
 1525SOL    HW2 5475   4.625   2.300   6.385
 1526SOL     OW 5476   6.636   2.456   1.920
 1526SOL    HW1 5477   6.622   2.357   1.918
 1526SOL    HW2 5478   6.599   2.493   2.005
 1527SOL     OW 5479   3.264   2.147   5.804
 1527SOL    HW1 5480   3.215   2.108   5.726
 1527SOL    HW2 5481   3.354   2.106   5.812
 1528SOL     OW 5482   5.106   6.239   3.398
 1528SOL    HW1 5483   5.035   6.283   3.454
 1528SOL    HW2 5484   5.187   6.297   3.396
 1529SOL     OW 5485   3.548   0.216   5.917
 1529SOL    HW1 5486   3.492   0.147   5.871
 1529SOL    HW2 5487   3.531   0.211   6.015
 1530SOL     OW 5488   3.751   6.705   2.324
 1530SOL    HW1 5489   3.780   6.787   2.373
 1530SOL    HW2 5490   3.689   6.731   2.250
 1531SOL     OW 5491   6.841   6.856   4.679
 1531SOL    HW1 5492   6.883   6.785   4.622
 1531SOL    HW2 5493   6.830   6.940   4.626
 1532SOL     OW 5494   3.110   2.051   5.190
 1532SOL    HW1 5495   3.043   2.058   5.265
 1532SOL    HW2 5496   3.104   2.134   5.134
 1533SOL     OW 5497   5.962   2.824   7.010
 1533SOL    HW1 5498   5.920   2.777   0.064
 1533SOL    HW2 5499   5.927   2.917   7.004
 1534SOL     OW 5500   6.855   5.998   1.151
 1534SOL    HW1 5501   6.927   6.066   1.141
 1534SOL    HW2 5502   6.833   5.958   1.062
 1535SOL     OW 5503   4.219   5.095   4.308
 1535SOL    HW1 5504   4.279   5.069   4.384
 1535SOL    HW2 5505   4.242   5.040   4.227
 1536SOL     OW 5506   2.892   6.084   5.185
 1536SOL    HW1 5507   2.974   6.098   5.241
 1536SOL    HW2 5508   2.885   6.158   5.118
 1537SOL     OW 5509   1.531   5.781   4.701
 1537SOL    HW1 5510   1.610   5.795   4.640
 1537SOL    HW2 5511   1.453   5.749   4.647
 1538SOL     OW 5512   2.248   5.680   6.463
 1538SOL    HW1 5513   2.303   5.638   6.535
 1538SOL    HW2 5514   2.169   5.621   6.443
 1539SOL     OW 5515   3.635   4.925   1.713
 1539SOL    HW1 5516   3.614   4.976   1.797
 1539SOL    HW2 5517   3.594   4.834   1.719
 1540SOL     OW 5518   0.309   6.739   4.734
 1540SOL    HW1 5519   0.278   6.723   4.640
 1540SOL    HW2 5520   0.404   6.711   4.744
 1541SOL     OW 5521   5.159   2.390   0.980
 1541SOL    HW1 5522   5.143   2.488   0.994
 1541SOL    HW2 5523   5.074   2.340   0.989
 1542SOL     OW 5524   0.909   6.676   1.038
 1542SOL    HW1 5525   0.968   6.706   1.113
 1542SOL    HW2 5526   0.823   6.641   1.076
 1543SOL     OW 5527   3.045   3.995   4.082
 1543SOL    HW1 5528   3.074   3.976   4.175
 1543SOL    HW2 5529   2.960   4.046   4.083
 1544SOL     OW 5530   3.331   4.106   2.944
 1544SOL    HW1 5531   3.277   4.034   2.900
 1544SOL    HW2 5532   3.271   4.184   2.965
 1545SOL     OW 5533   5.825   0.094   5.003
 1545SOL    HW1 5534   5.893   0.129   4.939
 1545SOL    HW2 5535   5.790   0.170   5.058
 1546SOL     OW 5536   0.613   6.493   5.862
 1546SOL    HW1 5537   0.689   6.438   5.827
 1546SOL    HW2 5538   0.529   6.466   5.816
 1547SOL     OW 5539   3.423   5.956   0.892
 1547SOL    HW1 5540   3.332   5.992   0.870
 1547SOL    HW2 5541   3.413   5.873   0.948
 1548SOL     OW 5542   5.183   4.160   4.646
 1548SOL    HW1 5543   5.225   4.218   4.716
 1548SOL    HW2 5544   5.146   4.217   4.573
 1549SOL     OW 5545   6.847   1.715   1.392
 1549SOL    HW1 5546   6.897   1.644   1.342
 1549SOL    HW2 5547   6.767   1.674   1.436
 1550SOL     OW 5548   2.429   6.089   4.459
 1550SOL    HW1 5549   2.367   6.163   4.485
 1550SOL    HW2 5550   2.377   6.008   4.434
 1551SOL     OW 5551   1.728   2.031   0.931
 1551SOL    HW1 5552   1.739   2.043   1.030
 1551SOL    HW2 5553   1.790   2.093   0.883
 1552SOL     OW 5554   0.906   0.322   0.680
 1552SOL    HW1 5555   0.899   0.243   0.619
 1552SOL    HW2 5556   0.861   0.301   0.767
 1553SOL     OW 5557   6.086   1.616   6.185
 1553SOL    HW1 5558   6.182   1.623   6.212
 1553SOL    HW2 5559   6.077   1.638   6.088
 1554SOL     OW 5560   3.541   1.746   1.872
 1554SOL    HW1 5561   3.549   1.822   1.808
 1554SOL    HW2 5562   3.569   1.776   1.964
 1555SOL     OW 5563   4.152   1.444   5.683
 1555SOL    HW1 5564   4.242   1.405   5.700
 1555SOL    HW2 5565   4.086   1.404   5.746
 1556SOL     OW 5566   3.417   1.671   1.064
 1556SOL    HW1 5567   3.328   1.638   1.032
 1556SOL    HW2 5568   3.467   1.596   1.107
 1557SOL     OW 5569   1.799   1.752   0.882
 1557SOL    HW1 5570   1.770   1.848   0.876
 1557SOL    HW2 5571   1.846   1.737   0.968
 1558SOL     OW 5572   6.608   3.294   6.336
 1558SOL    HW1 5573   6.654   3.225   6.280
 1558SOL    HW2 5574   6.533   3.251   6.388
 1559SOL     OW 5575   1.770   4.919   3.164
 1559SOL    HW1 5576   1.702   4.859   3.207
 1559SOL    HW2 5577   1.857   4.912   3.212
 1560SOL     OW 5578   3.807   1.352   1.446
 1560SOL    HW1 5579   3.889   1.294   1.440
 1560SOL    HW2 5580   3.820   1.420   1.518
 1561SOL     OW 5581   6.303   6.073   1.224
 1561SOL    HW1 5582   6.313   6.016   1.143
 1561SOL    HW2 5583   6.375   6.052   1.289
 1562SOL     OW 5584   3.486   6.662   2.516
 1562SOL    HW1 5585   3.416   6.629   2.453
 1562SOL    HW2 5586   3.565   6.694   2.464
 1563SOL     OW 5587   3.904   2.206   4.405
 1563SOL    HW1 5588   3.970   2.170   4.470
 1563SOL    HW2 5589   3.814   2.210   4.448
 1564SOL     OW 5590   1.290   2.112   2.785
 1564SOL    HW1 5591   1.263   2.192   2.838
 1564SOL    HW2 5592   1.211   2.075   2.736
 1565SOL     OW 5593   3.958   0.914   5.015
 1565SOL    HW1 5594   3.888   0.860   5.061
 1565SOL    HW2 5595   4.014   0.855   4.957
 1566SOL     OW 5596   4.611   4.949   2.953
 1566SOL    HW1 5597   4.605   5.048   2.968
 1566SOL    HW2 5598   4.521   4.908   2.966
 1567SOL     OW 5599   4.984   6.489   4.962
 1567SOL    HW1 5600   4.939   6.575   4.938
 1567SOL    HW2 5601   5.068   6.508   5.013
 1568SOL     OW 5602   2.616   5.999   2.759
 1568SOL    HW1 5603   2.660   5.932   2.818
 1568SOL    HW2 5604   2.530   5.962   2.725
 1569SOL     OW 5605   2.786   0.035   3.487
 1569SOL    HW1 5606   2.734   0.116   3.516
 1569SOL    HW2 5607   2.850   0.010   3.559
 1570SOL     OW 5608   3.454   6.820   0.274
 1570SOL    HW1 5609   3.449   6.725   0.243
 1570SOL    HW2 5610   3.545   6.856   0.257
 1571SOL     OW 5611   0.595   2.438   4.122
 1571SOL    HW1 5612   0.578   2.483   4.210
 1571SOL    HW2 5613   0.581   2.504   4.048
 1572SOL     OW 5614   1.779   5.141   1.985
 1572SOL    HW1 5615   1.715   5.134   1.909
 1572SOL    HW2 5616   1.811   5.050   2.010
 1573SOL     OW 5617   5.058   5.153   0.414
 1573SOL    HW1 5618   5.082   5.072   0.467
 1573SOL    HW2 5619   5.119   5.228   0.440
 1574SOL     OW 5620   6.963   3.420   2.806
 1574SOL    HW1 5621   6.882   3.478   2.800
 1574SOL    HW2 5622   6.964   3.374   2.895
 1575SOL     OW 5623   0.483   1.247   0.458
 1575SOL    HW1 5624   0.399   1.198   0.483
 1575SOL    HW2 5625   0.460   1.328   0.404
 1576SOL     OW 5626   0.053   0.089   2.490
 1576SOL    HW1 5627   0.053   0.052   2.583
 1576SOL    HW2 5628   0.119   0.164   2.484
 1577SOL     OW 5629   4.795   6.698   5.438
 1577SOL    HW1 5630   4.702   6.729   5.455
 1577SOL    HW2 5631   4.798   6.649   5.350
 1578SOL     OW 5632   5.017   0.883   0.156
 1578SOL    HW1 5633   4.946   0.834   0.207
 1578SOL    HW2 5634   5.014   0.980   0.182
 1579SOL     OW 5635   1.422   2.386   1.288
 1579SOL    HW1 5636   1.509   2.381   1.337
 1579SOL    HW2 5637   1.397   2.482   1.275
 1580SOL     OW 5638   3.521   3.488   2.836
 1580SOL    HW1 5639   3.460   3.566   2.828
 1580SOL    HW2 5640   3.613   3.515   2.808
 1581SOL     OW 5641   6.607   4.520   5.631
 1581SOL    HW1 5642   6.523   4.475   5.660
 1581SOL    HW2 5643   6.678   4.451   5.618
 1582SOL     OW 5644   4.375   6.760   5.338
 1582SOL    HW1 5645   4.393   6.752   5.436
 1582SOL    HW2 5646   4.462   6.771   5.289
 1583SOL     OW 5647   1.114   5.945   5.081
 1583SOL    HW1 5648   1.131   5.895   5.166
 1583SOL    HW2 5649   1.055   6.024   5.100
 1584SOL     OW 5650   0.462   4.985   6.815
 1584SOL    HW1 5651   0.539   4.927   6.838
 1584SOL    HW2 5652   0.390   4.973   6.883
 1585SOL     OW 5653   4.053   0.145   3.204
 1585SOL    HW1 5654   4.084   0.050   3.211
 1585SOL    HW2 5655   4.083   0.184   3.117
 1586SOL     OW 5656   2.527   4.844   3.757
 1586SOL    HW1 5657   2.540   4.843   3.658
 1586SOL    HW2 5658   2.521   4.750   3.791
 1587SOL     OW 5659   1.861   6.100   5.618
 1587SOL    HW1 5660   1.953   6.106   5.578
 1587SOL    HW2 5661   1.796   6.071   5.548
 1588SOL     OW 5662   5.951   0.798   2.482
 1588SOL    HW1 5663   5.924   0.791   2.578
 1588SOL    HW2 5664   5.890   0.740   2.426
 1589SOL     OW 5665   6.222   4.590   4.059
 1589SOL    HW1 5666   6.279   4.525   4.109
 1589SOL    HW2 5667   6.241   4.683   4.092
 1590SOL     OW 5668   6.492   2.225   3.749
 1590SOL    HW1 5669   6.446   2.287   3.812
 1590SOL    HW2 5670   6.589   2.248   3.745
 1591SOL     OW 5671   0.643   6.096   1.903
 1591SOL    HW1 5672   0.719   6.157   1.880
 1591SOL    HW2 5673   0.575   6.099   1.830
 1592SOL     OW 5674   0.723   3.990   6.855
 1592SOL    HW1 5675   0.765   4.075   6.823
 1592SOL    HW2 5676   0.624   4.003   6.863
 1593SOL     OW 5677   2.238   0.262   6.869
 1593SOL    HW1 5678   2.178   0.209   6.808
 1593SOL    HW2 5679   2.289   0.329   6.814
 1594SOL     OW 5680   6.352   0.375   1.971
 1594SOL    HW1 5681   6.391   0.286   1.993
 1594SOL    HW2 5682   6.291   0.404   2.046
 1595SOL     OW 5683   1.114   4.501   6.559
 1595SOL    HW1 5684   1.017   4.478   6.555
 1595SOL    HW2 5685   1.135   4.570   6.490
 1596SOL     OW 5686   5.141   4.680   2.299
 1596SOL    HW1 5687   5.189   4.646   2.380
 1596SOL    HW2 5688   5.142   4.610   2.228
 1597SOL     OW 5689   4.029   6.544   0.000
 1597SOL    HW1 5690   4.113   6.596   7.014
 1597SOL    HW2 5691   3.999   6.512   6.933
 1598SOL     OW 5692   1.798   5.826   0.016
 1598SOL    HW1 5693   1.708   5.799   7.006
 1598SOL    HW2 5694   1.796   5.834   0.116
 1599SOL     OW 5695   4.613   4.948   4.027
 1599SOL    HW1 5696   4.517   4.922   4.039
 1599SOL    HW2 5697   4.641   5.006   4.103
 1600SOL     OW 5698   4.113   0.509   2.850
 1600SOL    HW1 5699   4.051   0.576   2.890
 1600SOL    HW2 5700   4.205   0.548   2.845
 1601SOL     OW 5701   5.988   6.519   4.188
 1601SOL    HW1 5702   5.896   6.549   4.214
 1601SOL    HW2 5703   6.055   6.554   4.253
 1602SOL     OW 5704   4.250   5.100   3.813
 1602SOL    HW1 5705   4.331   5.097   3.755
 1602SOL    HW2 5706   4.237   5.193   3.848
 1603SOL     OW 5707   2.776   5.434   3.376
 1603SOL    HW1 5708   2.699   5.493   3.401
 1603SOL    HW2 5709   2.743   5.342   3.357
 1604SOL     OW 5710   4.108   5.281   2.172
 1604SOL    HW1 5711   4.133   5.377   2.187
 1604SOL    HW2 5712   4.012   5.268   2.199
 1605SOL     OW 5713   4.907   5.240   1.157
 1605SOL    HW1 5714   4.980   5.222   1.091
 1605SOL    HW2 5715   4.832   5.175   1.142
 1606SOL     OW 5716   4.380   6.300   4.789
 1606SOL    HW1 5717   4.442   6.227   4.817
 1606SOL    HW2 5718   4.413   6.342   4.704
 1607SOL     OW 5719   4.560   5.846   2.763
 1607SOL    HW1 5720   4.521   5.852   2.855
 1607SOL    HW2 5721   4.534   5.927   2.710
 1608SOL     OW 5722   6.575   1.040   3.246
 1608SOL    HW1 5723   6.665   1.064   3.283
 1608SOL    HW2 5724   6.543   0.955   3.288
 1609SOL     OW 5725   3.545   6.182   0.975
 1609SOL    HW1 5726   3.499   6.096   0.952
 1609SOL    HW2 5727   3.640   6.177   0.946
 1610SOL     OW 5728   4.558   0.386   0.322
 1610SOL    HW1 5729   4.653   0.415   0.340
 1610SOL    HW2 5730   4.499   0.467   0.319
 1611SOL     OW 5731   1.304   3.872   1.124
 1611SOL    HW1 5732   1.396   3.856   1.089
 1611SOL    HW2 5733   1.268   3.787   1.164
 1612SOL     OW 5734   3.775   0.043   1.704
 1612SOL    HW1 5735   3.689   0.092   1.721
 1612SOL    HW2 5736   3.829   0.042   1.788
 1613SOL     OW 5737   6.821   5.747   2.453
 1613SOL    HW1 5738   6.863   5.806   2.522
 1613SOL    HW2 5739   6.775   5.670   2.498
 1614SOL     OW 5740   6.409   2.326   6.097
 1614SOL    HW1 5741   6.325   2.337   6.044
 1614SOL    HW2 5742   6.436   2.230   6.099
 1615SOL     OW 5743   0.928   5.254   6.057
 1615SOL    HW1 5744   0.858   5.185   6.073
 1615SOL    HW2 5745   1.012   5.230   6.107
 1616SOL     OW 5746   2.355   1.597   5.067
 1616SOL    HW1 5747   2.275   1.538   5.072
 1616SOL    HW2 5748   2.328   1.690   5.042
 1617SOL     OW 5749   5.484   6.170   3.168
 1617SOL    HW1 5750   5.386   6.166   3.151
 1617SOL    HW2 5751   5.502   6.172   3.266
 1618SOL     OW 5752   2.919   5.448   2.950
 1618SOL    HW1 5753   2.961   5.412   3.033
 1618SOL    HW2 5754   2.824   5.415   2.943
 1619SOL     OW 5755   1.323   5.247   0.080
 1619SOL    HW1 5756   1.412   5.203   0.092
 1619SOL    HW2 5757   1.251   5.178   0.085
 1620SOL     OW 5758   3.839   5.476   6.489
 1620SOL    HW1 5759   3.858   5.433   6.577
 1620SOL    HW2 5760   3.870   5.417   6.415
 1621SOL     OW 5761   5.373   6.481   0.177
 1621SOL    HW1 5762   5.427   6.444   0.101
 1621SOL    HW2 5763   5.285   6.514   0.142
 1622SOL     OW 5764   0.593   4.039   4.394
 1622SOL    HW1 5765   0.512   4.086   4.359
 1622SOL    HW2 5766   0.658   4.106   4.428
 1623SOL     OW 5767   0.882   2.122   4.352
 1623SOL    HW1 5768   0.898   2.173   4.268
 1623SOL    HW2 5769   0.804   2.162   4.401
 1624SOL     OW 5770   4.056   1.175   0.986
 1624SOL    HW1 5771   3.975   1.231   0.969
 1624SOL    HW2 5772   4.065   1.158   1.084
 1625SOL     OW 5773   1.734   5.340   1.262
 1625SOL    HW1 5774   1.820   5.376   1.299
 1625SOL    HW2 5775   1.667   5.414   1.256
 1626SOL     OW 5776   3.221   1.553   1.383
 1626SOL    HW1 5777   3.165   1.565   1.466
 1626SOL    HW2 5778   3.282   1.475   1.395
 1627SOL     OW 5779   4.482   1.702   4.382
 1627SOL    HW1 5780   4.459   1.708   4.285
 1627SOL    HW2 5781   4.413   1.648   4.429
 1628SOL     OW 5782   5.706   6.530   6.689
 1628SOL    HW1 5783   5.801   6.545   6.717
 1628SOL    HW2 5784   5.657   6.618   6.688
 1629SOL     OW 5785   1.791   1.034   3.141
 1629SOL    HW1 5786   1.785   0.935   3.152
 1629SOL    HW2 5787   1.714   1.066   3.086
 1630SOL     OW 5788   0.881   3.600   7.008
 1630SOL    HW1 5789   0.846   3.528   0.045
 1630SOL    HW2 5790   0.825   3.682   7.017
 1631SOL     OW 5791   0.311   3.209   0.686
 1631SOL    HW1 5792   0.253   3.149   0.742
 1631SOL    HW2 5793   0.372   3.153   0.630
 1632SOL     OW 5794   6.759   4.572   2.734
 1632SOL    HW1 5795   6.752   4.475   2.711
 1632SOL    HW2 5796   6.671   4.604   2.769
 1633SOL     OW 5797   4.907   2.998   3.889
 1633SOL    HW1 5798   5.006   2.997   3.878
 1633SOL    HW2 5799   4.871   3.084   3.852
 1634SOL     OW 5800   5.347   0.225   4.606
 1634SOL    HW1 5801   5.370   0.128   4.617
 1634SOL    HW2 5802   5.263   0.245   4.656
 1635SOL     OW 5803   3.560   5.464   4.121
 1635SOL    HW1 5804   3.571   5.468   4.221
 1635SOL    HW2 5805   3.548   5.369   4.093
 1636SOL     OW 5806   5.724   6.519   1.591
 1636SOL    HW1 5807   5.726   6.605   1.643
 1636SOL    HW2 5808   5.736   6.539   1.494
 1637SOL     OW 5809   6.939   0.006   2.132
 1637SOL    HW1 5810   6.917   6.991   2.042
 1637SOL    HW2 5811   0.015   0.004   2.144
 1638SOL     OW 5812   0.090   2.989   2.023
 1638SOL    HW1 5813   0.090   2.896   2.058
 1638SOL    HW2 5814   0.181   3.012   1.988
 1639SOL     OW 5815   5.063   2.853   2.630
 1639SOL    HW1 5816   4.971   2.881   2.605
 1639SOL    HW2 5817   5.128   2.923   2.602
 1640SOL     OW 5818   6.239   0.048   0.025
 1640SOL    HW1 5819   6.263   0.134   7.004
 1640SOL    HW2 5820   6.311   0.021   0.088
 1641SOL     OW 5821   6.583   2.438   3.002
 1641SOL    HW1 5822   6.576   2.459   3.100
 1641SOL    HW2 5823   6.493   2.412   2.967
 1642SOL     OW 5824   5.596   2.043   5.491
 1642SOL    HW1 5825   5.652   1.976   5.443
 1642SOL    HW2 5826   5.502   2.011   5.497
 1643SOL     OW 5827   2.969   5.711   4.154
 1643SOL    HW1 5828   2.903   5.640   4.132
 1643SOL    HW2 5829   3.013   5.743   4.070
 1644SOL     OW 5830   5.704   2.813   0.551
 1644SOL    HW1 5831   5.670   2.810   0.645
 1644SOL    HW2 5832   5.776   2.745   0.540
 1645SOL     OW 5833   2.593   0.983   5.416
 1645SOL    HW1 5834   2.565   1.001   5.510
 1645SOL    HW2 5835   2.514   0.993   5.355
 1646SOL     OW 5836   0.780   5.586   0.793
 1646SOL    HW1 5837   0.765   5.502   0.741
 1646SOL    HW2 5838   0.708   5.652   0.772
 1647SOL     OW 5839   6.440   2.830   4.585
 1647SOL    HW1 5840   6.518   2.845   4.646
 1647SOL    HW2 5841   6.358   2.815   4.640
 1648SOL     OW 5842   5.474   6.368   0.857
 1648SOL    HW1 5843   5.512   6.391   0.946
 1648SOL    HW2 5844   5.468   6.268   0.848
 1649SOL     OW 5845   2.982   0.345   3.294
 1649SOL    HW1 5846   2.886   0.347   3.266
 1649SOL    HW2 5847   2.992   0.385   3.385
 1650SOL     OW 5848   2.854   5.134   6.673
 1650SOL    HW1 5849   2.930   5.098   6.727
 1650SOL    HW2 5850   2.889   5.187   6.597
 1651SOL     OW 5851   0.872   2.722   4.053
 1651SOL    HW1 5852   0.959   2.697   4.095
 1651SOL    HW2 5853   0.887   2.740   3.955
 1652SOL     OW 5854   0.475   2.832   1.252
 1652SOL    HW1 5855   0.462   2.799   1.158
 1652SOL    HW2 5856   0.386   2.843   1.296
 1653SOL     OW 5857   7.015   4.620   3.199
 1653SOL    HW1 5858   7.015   4.711   3.240
 1653SOL    HW2 5859   6.974   4.554   3.263
 1654SOL     OW 5860   0.549   3.136   1.758
 1654SOL    HW1 5861   0.554   3.056   1.699
 1654SOL    HW2 5862   0.641   3.165   1.783
 1655SOL     OW 5863   0.079   0.079   4.590
 1655SOL    HW1 5864   7.022   0.036   4.549
 1655SOL    HW2 5865   0.062   0.176   4.605
 1656SOL     OW 5866   2.190   4.851   3.978
 1656SOL    HW1 5867   2.154   4.851   3.885
 1656SOL    HW2 5868   2.263   4.919   3.986
 1657SOL     OW 5869   1.186   0.597   5.456
 1657SOL    HW1 5870   1.172   0.532   5.531
 1657SOL    HW2 5871   1.102   0.648   5.440
 1658SOL     OW 5872   6.860   7.021   6.338
 1658SOL    HW1 5873   6.952   0.020   6.306
 1658SOL    HW2 5874   6.839   6.926   6.318
 1659SOL     OW 5875   4.710   6.832   6.335
 1659SOL    HW1 5876   4.701   6.789   6.246
 1659SOL    HW2 5877   4.632   6.893   6.351
 1660SOL     OW 5878   1.961   6.882   1.797
 1660SOL    HW1 5879   1.899   6.856   1.871
 1660SOL    HW2 5880   1.965   6.982   1.790
 1661SOL     OW 5881   3.810   4.938   2.670
 1661SOL    HW1 5882   3.760   5.017   2.635
 1661SOL    HW2 5883   3.868   4.966   2.746
 1662SOL     OW 5884   0.317   0.924   4.804
 1662SOL    HW1 5885   0.372   0.869   4.867
 1662SOL    HW2 5886   0.363   0.929   4.715
 1663SOL     OW 5887   4.420   4.410   1.273
 1663SOL    HW1 5888   4.321   4.419   1.276
 1663SOL    HW2 5889   4.457   4.422   1.365
 1664SOL     OW 5890   1.021   0.217   5.385
 1664SOL    HW1 5891   0.952   0.186   5.451
 1664SOL    HW2 5892   1.105   0.242   5.434
 1665SOL     OW 5893   2.033   4.213   1.003
 1665SOL    HW1 5894   2.065   4.154   0.929
 1665SOL    HW2 5895   1.936   4.194   1.021
 1666SOL     OW 5896   5.904   6.999   6.527
 1666SOL    HW1 5897   5.840   6.928   6.497
 1666SOL    HW2 5898   5.992   6.957   6.551
 1667SOL     OW 5899   0.491   6.278   1.373
 1667SOL    HW1 5900   0.520   6.368   1.339
 1667SOL    HW2 5901   0.405   6.287   1.423
 1668SOL     OW 5902   4.900   4.277   4.048
 1668SOL    HW1 5903   4.831   4.252   3.980
 1668SOL    HW2 5904   4.876   4.236   4.136
 1669SOL     OW 5905   6.845   3.944   5.387
 1669SOL    HW1 5906   6.886   3.865   5.340
 1669SOL    HW2 5907   6.855   3.933   5.486
 1670SOL     OW 5908   2.144   4.611   5.839
 1670SOL    HW1 5909   2.049   4.589   5.859
 1670SOL    HW2 5910   2.159   4.609   5.740
 1671SOL     OW 5911   5.816   1.703   1.409
 1671SOL    HW1 5912   5.840   1.654   1.325
 1671SOL    HW2 5913   5.890   1.691   1.476
 1672SOL     OW 5914   1.020   2.956   7.001
 1672SOL    HW1 5915   0.988   2.928   0.068
 1672SOL    HW2 5916   0.976   2.899   6.931
 1673SOL     OW 5917   2.476   1.683   4.277
 1673SOL    HW1 5918   2.512   1.642   4.194
 1673SOL    HW2 5919   2.477   1.615   4.351
 1674SOL     OW 5920   4.566   2.392   2.628
 1674SOL    HW1 5921   4.546   2.464   2.694
 1674SOL    HW2 5922   4.515   2.309   2.652
 1675SOL     OW 5923   5.256   0.938   1.005
 1675SOL    HW1 5924   5.200   0.889   1.071
 1675SOL    HW2 5925   5.217   0.929   0.913
 1676SOL     OW 5926   1.690   1.838   3.014
 1676SOL    HW1 5927   1.728   1.818   3.104
 1676SOL    HW2 5928   1.763   1.864   2.952
 1677SOL     OW 5929   3.888   3.929   3.519
 1677SOL    HW1 5930   3.949   3.874   3.576
 1677SOL    HW2 5931   3.810   3.959   3.574
 1678SOL     OW 5932   0.579   6.542   0.841
 1678SOL    HW1 5933   0.618   6.573   0.928
 1678SOL    HW2 5934   0.631   6.464   0.807
 1679SOL     OW 5935   1.874   1.571   5.819
 1679SOL    HW1 5936   1.827   1.643   5.869
 1679SOL    HW2 5937   1.829   1.556   5.731
 1680SOL     OW 5938   4.624   2.589   4.043
 1680SOL    HW1 5939   4.690   2.663   4.030
 1680SOL    HW2 5940   4.673   2.505   4.067
 1681SOL     OW 5941   1.730   6.501   3.692
 1681SOL    HW1 5942   1.713   6.599   3.699
 1681SOL    HW2 5943   1.817   6.479   3.736
 1682SOL     OW 5944   2.298   0.054   5.409
 1682SOL    HW1 5945   2.396   0.036   5.414
 1682SOL    HW2 5946   2.282   0.135   5.352
 1683SOL     OW 5947   6.038   4.528   2.517
 1683SOL    HW1 5948   6.053   4.614   2.565
 1683SOL    HW2 5949   6.112   4.513   2.452
 1684SOL     OW 5950   2.626   4.813   1.538
 1684SOL    HW1 5951   2.533   4.822   1.502
 1684SOL    HW2 5952   2.670   4.733   1.498
 1685SOL     OW 5953   0.525   1.217   5.571
 1685SOL    HW1 5954   0.531   1.123   5.604
 1685SOL    HW2 5955   0.614   1.261   5.582
 1686SOL     OW 5956   4.791   5.813   2.971
 1686SOL    HW1 5957   4.808   5.732   3.027
 1686SOL    HW2 5958   4.724   5.791   2.900
 1687SOL     OW 5959   6.412   3.802   2.904
 1687SOL    HW1 5960   6.388   3.719   2.953
 1687SOL    HW2 5961   6.426   3.782   2.807
 1688SOL     OW 5962   2.271   1.930   3.672
 1688SOL    HW1 5963   2.291   1.866   3.598
 1688SOL    HW2 5964   2.296   1.888   3.760
 1689SOL     OW 5965   5.716   0.883   1.619
 1689SOL    HW1 5966   5.627   0.927   1.600
 1689SOL    HW2 5967   5.761   0.931   1.694
 1690SOL     OW 5968   0.969   3.988   4.266
 1690SOL    HW1 5969   0.923   4.048   4.331
 1690SOL    HW2 5970   0.902   3.950   4.202
 1691SOL     OW 5971   5.130   2.407   5.014
 1691SOL    HW1 5972   5.147   2.406   5.113
 1691SOL    HW2 5973   5.181   2.482   4.972
 1692SOL     OW 5974   5.825   5.332   1.401
 1692SOL    HW1 5975   5.874   5.407   1.445
 1692SOL    HW2 5976   5.853   5.327   1.305
 1693SOL     OW 5977   6.020   0.367   5.257
 1693SOL    HW1 5978   6.059   0.306   5.187
 1693SOL    HW2 5979   6.053   0.339   5.347
 1694SOL     OW 5980   5.384   0.701   5.190
 1694SOL    HW1 5981   5.302   0.670   5.141
 1694SOL    HW2 5982   5.438   0.621   5.218
 1695SOL     OW 5983   3.738   0.685   6.211
 1695SOL    HW1 5984   3.751   0.669   6.309
 1695SOL    HW2 5985   3.826   0.685   6.164
 1696SOL     OW 5986   4.489   6.088   0.052
 1696SOL    HW1 5987   4.574   6.089   7.022
 1696SOL    HW2 5988   4.501   6.141   0.135
 1697SOL     OW 5989   6.001   2.248   1.262
 1697SOL    HW1 5990   6.088   2.220   1.220
 1697SOL    HW2 5991   5.948   2.166   1.286
 1698SOL     OW 5992   3.612   0.693   1.732
 1698SOL    HW1 5993   3.641   0.647   1.648
 1698SOL    HW2 5994   3.532   0.646   1.769
 1699SOL     OW 5995   2.525   0.271   0.283
 1699SOL    HW1 5996   2.473   0.258   0.198
 1699SOL    HW2 5997   2.531   0.368   0.304
 1700SOL     OW 5998   5.871   3.720   3.303
 1700SOL    HW1 5999   5.928   3.739   3.223
 1700SOL    HW2 6000   5.851   3.806   3.350
 1701SOL     OW 6001   0.113   5.092   4.923
 1701SOL    HW1 6002   0.115   5.174   4.980
 1701SOL    HW2 6003   0.063   5.020   4.970
 1702SOL     OW 6004   1.903   2.566   5.898
 1702SOL    HW1 6005   1.833   2.607   5.840
 1702SOL    HW2 6006   1.993   2.596   5.866
 1703SOL     OW 6007   3.236   2.046   0.028
 1703SOL    HW1 6008   3.202   2.054   0.122
 1703SOL    HW2 6009   3.165   2.006   6.993
 1704SOL     OW 6010   2.224   1.699   0.987
 1704SOL    HW1 6011   2.236   1.650   0.901
 1704SOL    HW2 6012   2.310   1.699   1.037
 1705SOL     OW 6013   4.239   1.111   0.801
 1705SOL    HW1 6014   4.312   1.172   0.769
 1705SOL    HW2 6015   4.203   1.145   0.887
 1706SOL     OW 6016   3.982   2.264   0.853
 1706SOL    HW1 6017   3.964   2.346   0.798
 1706SOL    HW2 6018   3.897   2.213   0.866
 1707SOL     OW 6019   4.294   1.745   2.331
 1707SOL    HW1 6020   4.335   1.665   2.286
 1707SOL    HW2 6021   4.225   1.714   2.396
 1708SOL     OW 6022   3.174   5.130   1.164
 1708SOL    HW1 6023   3.104   5.096   1.101
 1708SOL    HW2 6024   3.132   5.190   1.231
 1709SOL     OW 6025   4.819   5.573   0.406
 1709SOL    HW1 6026   4.880   5.525   0.343
 1709SOL    HW2 6027   4.810   5.668   0.377
 1710SOL     OW 6028   4.132   5.621   3.160
 1710SOL    HW1 6029   4.114   5.665   3.073
 1710SOL    HW2 6030   4.050   5.573   3.191
 1711SOL     OW 6031   3.799   5.329   6.140
 1711SOL    HW1 6032   3.710   5.374   6.138
 1711SOL    HW2 6033   3.786   5.230   6.130
 1712SOL     OW 6034   0.119   1.958   4.188
 1712SOL    HW1 6035   0.035   1.911   4.162
 1712SOL    HW2 6036   0.134   2.037   4.128
 1713SOL     OW 6037   4.081   0.840   2.615
 1713SOL    HW1 6038   4.162   0.807   2.566
 1713SOL    HW2 6039   4.034   0.909   2.559
 1714SOL     OW 6040   3.415   2.809   6.809
 1714SOL    HW1 6041   3.388   2.780   6.900
 1714SOL    HW2 6042   3.468   2.737   6.765
 1715SOL     OW 6043   1.637   6.462   2.938
 1715SOL    HW1 6044   1.735   6.444   2.951
 1715SOL    HW2 6045   1.597   6.489   3.026
 1716SOL     OW 6046   4.341   0.304   3.741
 1716SOL    HW1 6047   4.428   0.310   3.791
 1716SOL    HW2 6048   4.357   0.261   3.652
 1717SOL     OW 6049   4.026   6.093   5.739
 1717SOL    HW1 6050   3.961   6.042   5.797
 1717SOL    HW2 6051   4.094   6.030   5.702
 1718SOL     OW 6052   1.647   2.925   1.655
 1718SOL    HW1 6053   1.705   2.892   1.729
 1718SOL    HW2 6054   1.552   2.927   1.685
 1719SOL     OW 6055   1.029   5.125   1.230
 1719SOL    HW1 6056   1.051   5.221   1.219
 1719SOL    HW2 6057   0.931   5.115   1.248
 1720SOL     OW 6058   6.465   3.111   5.518
 1720SOL    HW1 6059   6.410   3.192   5.540
 1720SOL    HW2 6060   6.415   3.029   5.546
 1721SOL     OW 6061   1.590   1.891   1.716
 1721SOL    HW1 6062   1.527   1.934   1.651
 1721SOL    HW2 6063   1.682   1.890   1.677
 1722SOL     OW 6064   3.048   1.983   3.459
 1722SOL    HW1 6065   2.964   1.971   3.407
 1722SOL    HW2 6066   3.127   1.970   3.399
 1723SOL     OW 6067   5.542   3.151   0.300
 1723SOL    HW1 6068   5.559   3.193   0.211
 1723SOL    HW2 6069   5.480   3.209   0.353
 1724SOL     OW 6070   6.835   2.318   1.325
 1724SOL    HW1 6071   6.820   2.220   1.322
 1724SOL    HW2 6072   6.753   2.364   1.360
 1725SOL     OW 6073   2.017   6.158   6.965
 1725SOL    HW1 6074   2.096   6.207   6.927
 1725SOL    HW2 6075   2.033   6.139   0.039
 1726SOL     OW 6076   5.743   4.063   4.047
 1726SOL    HW1 6077   5.663   4.083   4.104
 1726SOL    HW2 6078   5.762   3.965   4.049
 1727SOL     OW 6079   3.562   3.285   3.044
 1727SOL    HW1 6080   3.499   3.258   3.117
 1727SOL    HW2 6081   3.519   3.355   2.986
 1728SOL     OW 6082   4.687   2.243   4.447
 1728SOL    HW1 6083   4.693   2.251   4.546
 1728SOL    HW2 6084   4.620   2.309   4.412
 1729SOL     OW 6085   1.854   4.080   1.951
 1729SOL    HW1 6086   1.868   4.019   2.030
 1729SOL    HW2 6087   1.923   4.152   1.952
 1730SOL     OW 6088   2.939   5.056   5.598
 1730SOL    HW1 6089   3.010   5.060   5.527
 1730SOL    HW2 6090   2.887   4.971   5.589
 1731SOL     OW 6091   5.966   4.099   4.370
 1731SOL    HW1 6092   5.982   4.140   4.280
 1731SOL    HW2 6093   5.897   4.028   4.363
 1732SOL     OW 6094   2.162   4.515   6.438
 1732SOL    HW1 6095   2.222   4.454   6.386
 1732SOL    HW2 6096   2.214   4.594   6.470
 1733SOL     OW 6097   3.082   4.216   0.152
 1733SOL    HW1 6098   3.032   4.172   0.227
 1733SOL    HW2 6099   3.063   4.167   0.067
 1734SOL     OW 6100   6.866   3.123   1.191
 1734SOL    HW1 6101   6.937   3.055   1.210
 1734SOL    HW2 6102   6.819   3.098   1.106
 1735SOL     OW 6103   3.737   4.864   6.122
 1735SOL    HW1 6104   3.677   4.943   6.112
 1735SOL    HW2 6105   3.746   4.817   6.035
 1736SOL     OW 6106   4.391   3.078   0.868
 1736SOL    HW1 6107   4.373   3.054   0.963
 1736SOL    HW2 6108   4.389   2.995   0.811
 1737SOL     OW 6109   4.761   1.383   4.914
 1737SOL    HW1 6110   4.700   1.406   4.989
 1737SOL    HW2 6111   4.745   1.444   4.837
 1738SOL     OW 6112   1.346   3.273   4.426
 1738SOL    HW1 6113   1.416   3.334   4.463
 1738SOL    HW2 6114   1.295   3.232   4.502
 1739SOL     OW 6115   5.258   0.422   4.128
 1739SOL    HW1 6116   5.315   0.504   4.121
 1739SOL    HW2 6117   5.266   0.384   4.220
 1740SOL     OW 6118   6.440   3.016   4.378
 1740SOL    HW1 6119   6.494   3.100   4.374
 1740SOL    HW2 6120   6.483   2.952   4.441
 1741SOL     OW 6121   1.103   2.031   4.434
 1741SOL    HW1 6122   1.004   2.037   4.416
 1741SOL    HW2 6123   1.152   2.034   4.347
 1742SOL     OW 6124   6.169   5.816   6.451
 1742SOL    HW1 6125   6.164   5.884   6.378
 1742SOL    HW2 6126   6.078   5.777   6.467
 1743SOL     OW 6127   1.398   0.900   2.927
 1743SOL    HW1 6128   1.471   0.967   2.939
 1743SOL    HW2 6129   1.325   0.941   2.872
 1744SOL     OW 6130   3.860   1.851   4.090
 1744SOL    HW1 6131   3.807   1.935   4.085
 1744SOL    HW2 6132   3.946   1.869   4.138
 1745SOL     OW 6133   6.736   6.405   1.388
 1745SOL    HW1 6134   6.643   6.377   1.411
 1745SOL    HW2 6135   6.735   6.452   1.299
 1746SOL     OW 6136   2.004   4.141   3.718
 1746SOL    HW1 6137   2.047   4.221   3.677
 1746SOL    HW2 6138   1.952   4.092   3.648
 1747SOL     OW 6139   3.765   0.674   2.427
 1747SOL    HW1 6140   3.743   0.707   2.335
 1747SOL    HW2 6141   3.702   0.600   2.452
 1748SOL     OW 6142   6.861   2.201   4.877
 1748SOL    HW1 6143   6.783   2.255   4.845
 1748SOL    HW2 6144   6.861   2.113   4.830
 1749SOL     OW 6145   1.827   4.986   1.046
 1749SOL    HW1 6146   1.866   4.895   1.062
 1749SOL    HW2 6147   1.790   5.022   1.132
 1750SOL     OW 6148   4.623   6.902   5.217
 1750SOL    HW1 6149   4.589   6.945   5.301
 1750SOL    HW2 6150   4.719   6.928   5.203
 1751SOL     OW 6151   5.835   2.507   5.008
 1751SOL    HW1 6152   5.816   2.526   5.104
 1751SOL    HW2 6153   5.749   2.495   4.959
 1752SOL     OW 6154   6.366   0.779   1.099
 1752SOL    HW1 6155   6.272   0.811   1.084
 1752SOL    HW2 6156   6.377   0.687   1.062
 1753SOL     OW 6157   6.396   1.563   1.887
 1753SOL    HW1 6158   6.452   1.506   1.948
 1753SOL    HW2 6159   6.399   1.525   1.794
 1754SOL     OW 6160   3.321   5.253   5.592
 1754SOL    HW1 6161   3.303   5.193   5.514
 1754SOL    HW2 6162   3.348   5.344   5.557
 1755SOL     OW 6163   6.614   6.757   5.061
 1755SOL    HW1 6164   6.693   6.726   5.009
 1755SOL    HW2 6165   6.537   6.772   4.999
 1756SOL     OW 6166   5.259   0.095   5.988
 1756SOL    HW1 6167   5.249   0.160   6.064
 1756SOL    HW2 6168   5.210   0.011   6.009
 1757SOL     OW 6169   2.230   5.183   5.082
 1757SOL    HW1 6170   2.268   5.228   5.163
 1757SOL    HW2 6171   2.163   5.114   5.111
 1758SOL     OW 6172   2.512   6.630   4.650
 1758SOL    HW1 6173   2.477   6.576   4.726
 1758SOL    HW2 6174   2.566   6.572   4.589
 1759SOL     OW 6175   1.338   6.770   6.637
 1759SOL    HW1 6176   1.366   6.771   6.541
 1759SOL    HW2 6177   1.416   6.789   6.695
 1760SOL     OW 6178   6.225   1.360   5.209
 1760SOL    HW1 6179   6.277   1.276   5.226
 1760SOL    HW2 6180   6.128   1.343   5.228
 1761SOL     OW 6181   5.969   1.851   2.395
 1761SOL    HW1 6182   5.978   1.773   2.457
 1761SOL    HW2 6183   5.886   1.842   2.341
 1762SOL     OW 6184   6.923   1.473   5.111
 1762SOL    HW1 6185   6.825   1.487   5.099
 1762SOL    HW2 6186   6.940   1.426   5.197
 1763SOL     OW 6187   0.864   3.751   4.105
 1763SOL    HW1 6188   0.770   3.743   4.071
 1763SOL    HW2 6189   0.898   3.661   4.133
 1764SOL     OW 6190   0.940   5.516   2.572
 1764SOL    HW1 6191   0.941   5.566   2.658
 1764SOL    HW2 6192   0.924   5.419   2.590
 1765SOL     OW 6193   5.328   3.363   2.608
 1765SOL    HW1 6194   5.250   3.421   2.585
 1765SOL    HW2 6195   5.378   3.338   2.525
 1766SOL     OW 6196   4.687   5.216   4.749
 1766SOL    HW1 6197   4.599   5.173   4.731
 1766SOL    HW2 6198   4.730   5.172   4.828
 1767SOL     OW 6199   0.701   5.012   2.165
 1767SOL    HW1 6200   0.648   5.097   2.173
 1767SOL    HW2 6201   0.654   4.949   2.103
 1768SOL     OW 6202   5.289   6.473   2.298
 1768SOL    HW1 6203   5.346   6.507   2.224
 1768SOL    HW2 6204   5.229   6.546   2.331
 1769SOL     OW 6205   5.066   0.627   6.842
 1769SOL    HW1 6206   5.119   0.591   6.919
 1769SOL    HW2 6207   5.120   0.619   6.758
 1770SOL     OW 6208   2.299   5.167   6.345
 1770SOL    HW1 6209   2.225   5.149   6.410
 1770SOL    HW2 6210   2.343   5.081   6.320
 1771SOL     OW 6211   0.903   3.618   6.391
 1771SOL    HW1 6212   0.916   3.605   6.489
 1771SOL    HW2 6213   0.914   3.715   6.368
 1772SOL     OW 6214   2.426   4.534   3.699
 1772SOL    HW1 6215   2.456   4.453   3.649
 1772SOL    HW2 6216   2.340   4.567   3.661
 1773SOL     OW 6217   0.553   6.621   4.829
 1773SOL    HW1 6218   0.522   6.635   4.923
 1773SOL    HW2 6219   0.653   6.632   4.825
 1774SOL     OW 6220   5.455   4.927   1.056
 1774SOL    HW1 6221   5.510   4.987   0.997
 1774SOL    HW2 6222   5.410   4.982   1.126
 1775SOL     OW 6223   2.484   5.810   6.316
 1775SOL    HW1 6224   2.407   5.761   6.355
 1775SOL    HW2 6225   2.488   5.792   6.217
 1776SOL     OW 6226   4.920   1.289   6.398
 1776SOL    HW1 6227   4.956   1.338   6.477
 1776SOL    HW2 6228   4.971   1.314   6.316
 1777SOL     OW 6229   4.778   6.851   6.601
 1777SOL    HW1 6230   4.773   6.861   6.502
 1777SOL    HW2 6231   4.753   6.938   6.644
 1778SOL     OW 6232   5.994   6.842   4.276
 1778SOL    HW1 6233   6.029   6.934   4.293
 1778SOL    HW2 6234   6.002   6.821   4.178
 1779SOL     OW 6235   5.829   5.978   3.975
 1779SOL    HW1 6236   5.825   5.914   3.897
 1779SOL    HW2 6237   5.753   6.043   3.968
 1780SOL     OW 6238   2.184   5.474   4.611
 1780SOL    HW1 6239   2.237   5.558   4.609
 1780SOL    HW2 6240   2.165   5.449   4.706
 1781SOL     OW 6241   4.109   0.603   4.038
 1781SOL    HW1 6242   4.110   0.571   3.943
 1781SOL    HW2 6243   4.161   0.688   4.045
 1782SOL     OW 6244   1.328   1.550   2.579
 1782SOL    HW1 6245   1.334   1.629   2.641
 1782SOL    HW2 6246   1.382   1.568   2.498
 1783SOL     OW 6247   2.198   4.102   6.521
 1783SOL    HW1 6248   2.215   4.192   6.481
 1783SOL    HW2 6249   2.130   4.110   6.593
 1784SOL     OW 6250   2.684   0.022   1.283
 1784SOL    HW1 6251   2.687   0.080   1.202
 1784SOL    HW2 6252   2.689   6.949   1.256
 1785SOL     OW 6253   0.821   6.403   4.295
 1785SOL    HW1 6254   0.761   6.412   4.216
 1785SOL    HW2 6255   0.911   6.442   4.273
 1786SOL     OW 6256   1.079   5.927   0.363
 1786SOL    HW1 6257   1.108   5.884   0.448
 1786SOL    HW2 6258   1.063   6.024   0.378
 1787SOL     OW 6259   2.812   3.853   6.112
 1787SOL    HW1 6260   2.886   3.883   6.173
 1787SOL    HW2 6261   2.848   3.838   6.020
 1788SOL     OW 6262   4.624   3.724   0.798
 1788SOL    HW1 6263   4.570   3.671   0.732
 1788SOL    HW2 6264   4.568   3.745   0.878
 1789SOL     OW 6265   6.442   3.666   2.188
 1789SOL    HW1 6266   6.530   3.691   2.147
 1789SOL    HW2 6267   6.376   3.740   2.172
 1790SOL     OW 6268   2.597   2.257   4.890
 1790SOL    HW1 6269   2.601   2.351   4.922
 1790SOL    HW2 6270   2.680   2.208   4.918
 1791SOL     OW 6271   4.919   6.409   3.037
 1791SOL    HW1 6272   4.923   6.502   3.000
 1791SOL    HW2 6273   4.937   6.412   3.135
 1792SOL     OW 6274   0.148   1.605   5.317
 1792SOL    HW1 6275   0.108   1.674   5.257
 1792SOL    HW2 6276   0.199   1.539   5.263
 1793SOL     OW 6277   0.078   1.511   5.900
 1793SOL    HW1 6278   0.098   1.434   5.839
 1793SOL    HW2 6279   7.003   1.528   5.902
 1794SOL     OW 6280   0.773   6.884   6.215
 1794SOL    HW1 6281   0.728   6.969   6.188
 1794SOL    HW2 6282   0.730   6.807   6.168
 1795SOL     OW 6283   6.140   4.124   0.846
 1795SOL    HW1 6284   6.096   4.200   0.894
 1795SOL    HW2 6285   6.147   4.046   0.907
 1796SOL     OW 6286   1.015   0.286   6.211
 1796SOL    HW1 6287   0.949   0.246   6.274
 1796SOL    HW2 6288   1.107   0.260   6.239
 1797SOL     OW 6289   2.623   5.454   5.084
 1797SOL    HW1 6290   2.708   5.456   5.032
 1797SOL    HW2 6291   2.565   5.378   5.052
 1798SOL     OW 6292   3.047   3.238   4.439
 1798SOL    HW1 6293   3.013   3.195   4.356
 1798SOL    HW2 6294   3.071   3.333   4.420
 1799SOL     OW 6295   3.191   1.030   0.299
 1799SOL    HW1 6296   3.267   0.982   0.343
 1799SOL    HW2 6297   3.161   1.105   0.358
 1800SOL     OW 6298   5.440   3.343   4.874
 1800SOL    HW1 6299   5.475   3.375   4.785
 1800SOL    HW2 6300   5.512   3.350   4.943
 1801SOL     OW 6301   1.386   1.369   1.967
 1801SOL    HW1 6302   1.461   1.398   2.026
 1801SOL    HW2 6303   1.384   1.269   1.961
 1802SOL     OW 6304   6.751   4.780   3.349
 1802SOL    HW1 6305   6.718   4.689   3.322
 1802SOL    HW2 6306   6.724   4.798   3.444
 1803SOL     OW 6307   0.877   6.984   3.550
 1803SOL    HW1 6308   0.894   6.892   3.514
 1803SOL    HW2 6309   0.962   7.019   3.591
 1804SOL     OW 6310   2.140   3.334   5.946
 1804SOL    HW1 6311   2.193   3.414   5.919
 1804SOL    HW2 6312   2.191   3.251   5.922
 1805SOL     OW 6313   0.358   5.966   6.676
 1805SOL    HW1 6314   0.317   5.875   6.673
 1805SOL    HW2 6315   0.379   5.991   6.770
 1806SOL     OW 6316   6.914   1.667   2.128
 1806SOL    HW1 6317   6.934   1.617   2.044
 1806SOL    HW2 6318   6.950   1.760   2.121
 1807SOL     OW 6319   6.770   3.244   2.295
 1807SOL    HW1 6320   6.789   3.238   2.393
 1807SOL    HW2 6321   6.753   3.339   2.270
 1808SOL     OW 6322   4.999   2.124   6.125
 1808SOL    HW1 6323   5.008   2.220   6.154
 1808SOL    HW2 6324   5.071   2.070   6.167
 1809SOL     OW 6325   4.019   1.391   5.925
 1809SOL    HW1 6326   4.053   1.455   5.993
 1809SOL    HW2 6327   3.921   1.404   5.912
 1810SOL     OW 6328   0.340   0.097   4.170
 1810SOL    HW1 6329   0.260   0.151   4.195
 1810SOL    HW2 6330   0.412   0.158   4.135
 1811SOL     OW 6331   4.213   5.597   1.829
 1811SOL    HW1 6332   4.173   5.581   1.919
 1811SOL    HW2 6333   4.257   5.514   1.796
 1812SOL     OW 6334   4.296   6.710   5.060
 1812SOL    HW1 6335   4.321   6.770   4.983
 1812SOL    HW2 6336   4.287   6.765   5.143
 1813SOL     OW 6337   4.416   4.645   2.775
 1813SOL    HW1 6338   4.344   4.706   2.741
 1813SOL    HW2 6339   4.433   4.573   2.709
 1814SOL     OW 6340   6.977   5.943   0.640
 1814SOL    HW1 6341   0.035   5.905   0.685
 1814SOL    HW2 6342   7.006   6.005   0.567
 1815SOL     OW 6343   5.779   6.516   1.312
 1815SOL    HW1 6344   5.874   6.527   1.341
 1815SOL    HW2 6345   5.759   6.419   1.300
 1816SOL     OW 6346   4.261   5.288   5.814
 1816SOL    HW1 6347   4.294   5.247   5.899
 1816SOL    HW2 6348   4.299   5.380   5.805
 1817SOL     OW 6349   0.833   1.516   3.844
 1817SOL    HW1 6350   0.793   1.486   3.757
 1817SOL    HW2 6351   0.761   1.550   3.904
 1818SOL     OW 6352   2.104   6.782   1.092
 1818SOL    HW1 6353   2.065   6.830   1.014
 1818SOL    HW2 6354   2.201   6.804   1.101
 1819SOL     OW 6355   2.060   4.944   3.774
 1819SOL    HW1 6356   1.983   4.915   3.830
 1819SOL    HW2 6357   2.027   4.996   3.696
 1820SOL     OW 6358   3.659   0.384   4.529
 1820SOL    HW1 6359   3.581   0.329   4.560
 1820SOL    HW2 6360   3.737   0.369   4.590
 1821SOL     OW 6361   3.562   2.074   2.802
 1821SOL    HW1 6362   3.485   2.106   2.746
 1821SOL    HW2 6363   3.555   2.113   2.893
 1822SOL     OW 6364   7.021   2.933   2.593
 1822SOL    HW1 6365   6.925   2.949   2.570
 1822SOL    HW2 6366   0.056   3.001   2.548
 1823SOL     OW 6367   3.760   6.444   2.290
 1823SOL    HW1 6368   3.743   6.540   2.313
 1823SOL    HW2 6369   3.834   6.408   2.348
 1824SOL     OW 6370   3.767   2.879   1.482
 1824SOL    HW1 6371   3.760   2.875   1.582
 1824SOL    HW2 6372   3.697   2.940   1.446
 1825SOL     OW 6373   2.239   1.573   5.342
 1825SOL    HW1 6374   2.154   1.532   5.307
 1825SOL    HW2 6375   2.220   1.667   5.373
 1826SOL     OW 6376   3.424   2.260   1.709
 1826SOL    HW1 6377   3.515   2.227   1.735
 1826SOL    HW2 6378   3.431   2.319   1.629
 1827SOL     OW 6379   5.623   4.128   1.320
 1827SOL    HW1 6380   5.575   4.054   1.368
 1827SOL    HW2 6381   5.557   4.182   1.268
 1828SOL     OW 6382   1.813   3.348   5.205
 1828SOL    HW1 6383   1.815   3.397   5.118
 1828SOL    HW2 6384   1.903   3.310   5.224
 1829SOL     OW 6385   3.164   0.693   3.618
 1829SOL    HW1 6386   3.261   0.677   3.598
 1829SOL    HW2 6387   3.147   0.792   3.622
 1830SOL     OW 6388   4.641   6.950   4.749
 1830SOL    HW1 6389   4.582   6.954   4.668
 1830SOL    HW2 6390   4.648   0.018   4.789
 1831SOL     OW 6391   4.176   5.713   1.164
 1831SOL    HW1 6392   4.255   5.708   1.225
 1831SOL    HW2 6393   4.127   5.626   1.165
 1832SOL     OW 6394   2.394   3.514   0.288
 1832SOL    HW1 6395   2.362   3.462   0.209
 1832SOL    HW2 6396   2.386   3.612   0.271
 1833SOL     OW 6397   5.093   0.391   0.414
 1833SOL    HW1 6398   5.084   0.446   0.498
 1833SOL    HW2 6399   5.007   0.341   0.398
 1834SOL     OW 6400   1.973   2.184   5.999
 1834SOL    HW1 6401   1.987   2.099   6.050
 1834SOL    HW2 6402   2.030   2.256   6.038
 1835SOL     OW 6403   6.331   5.760   0.894
 1835SOL    HW1 6404   6.369   5.813   0.970
 1835SOL    HW2 6405   6.383   5.779   0.811
 1836SOL     OW 6406   5.037   2.486   1.768
 1836SOL    HW1 6407   4.986   2.451   1.847
 1836SOL    HW2 6408   5.004   2.578   1.746
 1837SOL     OW 6409   3.539   2.619   6.374
 1837SOL    HW1 6410   3.496   2.708   6.388
 1837SOL    HW2 6411   3.629   2.632   6.333
 1838SOL     OW 6412   6.348   0.933   0.416
 1838SOL    HW1 6413   6.442   0.968   0.407
 1838SOL    HW2 6414   6.341   0.845   0.369
 1839SOL     OW 6415   0.452   1.171   6.760
 1839SOL    HW1 6416   0.412   1.231   6.691
 1839SOL    HW2 6417   0.485   1.087   6.717
 1840SOL     OW 6418   4.675   6.288   3.144
 1840SOL    HW1 6419   4.755   6.345   3.124
 1840SOL    HW2 6420   4.702   6.192   3.146
 1841SOL     OW 6421   2.415   1.145   2.407
 1841SOL    HW1 6422   2.386   1.233   2.446
 1841SOL    HW2 6423   2.358   1.122   2.329
 1842SOL     OW 6424   1.529   5.454   0.150
 1842SOL    HW1 6425   1.476   5.423   0.230
 1842SOL    HW2 6426   1.618   5.488   0.180
 1843SOL     OW 6427   3.529   1.384   4.736
 1843SOL    HW1 6428   3.570   1.447   4.670
 1843SOL    HW2 6429   3.471   1.318   4.688
 1844SOL     OW 6430   5.612   2.429   6.838
 1844SOL    HW1 6431   5.554   2.382   6.905
 1844SOL    HW2 6432   5.624   2.524   6.865
 1845SOL     OW 6433   1.392   1.802   3.391
 1845SOL    HW1 6434   1.384   1.797   3.292
 1845SOL    HW2 6435   1.408   1.711   3.428
 1846SOL     OW 6436   4.143   1.741   2.027
 1846SOL    HW1 6437   4.159   1.836   2.052
 1846SOL    HW2 6438   4.205   1.682   2.078
 1847SOL     OW 6439   2.269   6.480   5.585
 1847SOL    HW1 6440   2.366   6.458   5.595
 1847SOL    HW2 6441   2.254   6.577   5.601
 1848SOL     OW 6442   2.893   5.946   3.769
 1848SOL    HW1 6443   2.912   5.943   3.671
 1848SOL    HW2 6444   2.826   5.874   3.791
 1849SOL     OW 6445   4.616   2.889   1.650
 1849SOL    HW1 6446   4.711   2.888   1.620
 1849SOL    HW2 6447   4.609   2.937   1.738
 1850SOL     OW 6448   5.216   1.464   1.120
 1850SOL    HW1 6449   5.182   1.498   1.207
 1850SOL    HW2 6450   5.196   1.367   1.111
 1851SOL     OW 6451   0.071   3.920   5.144
 1851SOL    HW1 6452   0.093   3.854   5.216
 1851SOL    HW2 6453   7.005   3.899   5.105
 1852SOL     OW 6454   0.935   6.598   2.709
 1852SOL    HW1 6455   0.869   6.535   2.667
 1852SOL    HW2 6456   1.001   6.546   2.762
 1853SOL     OW 6457   0.370   2.675   4.374
 1853SOL    HW1 6458   0.351   2.737   4.299
 1853SOL    HW2 6459   0.463   2.640   4.365
 1854SOL     OW 6460   0.353   0.336   3.485
 1854SOL    HW1 6461   0.370   0.249   3.439
 1854SOL    HW2 6462   0.259   0.338   3.518
 1855SOL     OW 6463   4.576   2.559   4.402
 1855SOL    HW1 6464   4.635   2.572   4.322
 1855SOL    HW2 6465   4.563   2.646   4.449
 1856SOL     OW 6466   3.672   2.574   0.033
 1856SOL    HW1 6467   3.746   2.532   0.087
 1856SOL    HW2 6468   3.712   2.639   6.991
 1857SOL     OW 6469   4.206   1.687   1.209
 1857SOL    HW1 6470   4.269   1.709   1.283
 1857SOL    HW2 6471   4.112   1.684   1.244
 1858SOL     OW 6472   4.430   2.358   3.914
 1858SOL    HW1 6473   4.441   2.410   3.829
 1858SOL    HW2 6474   4.406   2.420   3.989
 1859SOL     OW 6475   6.238   2.144   4.262
 1859SOL    HW1 6476   6.197   2.108   4.346
 1859SOL    HW2 6477   6.197   2.099   4.183
 1860SOL     OW 6478   1.316   1.412   4.769
 1860SOL    HW1 6479   1.340   1.406   4.865
 1860SOL    HW2 6480   1.219   1.437   4.760
 1861SOL     OW 6481   6.793   0.136   3.289
 1861SOL    HW1 6482   6.777   0.218   3.344
 1861SOL    HW2 6483   6.759   0.152   3.196
 1862SOL     OW 6484   2.742   5.719   6.446
 1862SOL    HW1 6485   2.686   5.775   6.384
 1862SOL    HW2 6486   2.749   5.626   6.410
 1863SOL     OW 6487   0.597   3.109   0.662
 1863SOL    HW1 6488   0.551   3.040   0.607
 1863SOL    HW2 6489   0.586   3.087   0.759
 1864SOL     OW 6490   4.003   5.632   2.740
 1864SOL    HW1 6491   3.995   5.542   2.696
 1864SOL    HW2 6492   4.090   5.673   2.716
 1865SOL     OW 6493   5.454   2.038   6.501
 1865SOL    HW1 6494   5.387   2.109   6.522
 1865SOL    HW2 6495   5.508   2.018   6.583
 1866SOL     OW 6496   0.684   5.053   3.639
 1866SOL    HW1 6497   0.672   5.009   3.550
 1866SOL    HW2 6498   0.607   5.113   3.658
 1867SOL     OW 6499   1.806   2.438   1.626
 1867SOL    HW1 6500   1.896   2.430   1.582
 1867SOL    HW2 6501   1.817   2.461   1.722
 1868SOL     OW 6502   6.103   4.032   5.667
 1868SOL    HW1 6503   6.080   4.051   5.571
 1868SOL    HW2 6504   6.184   4.083   5.693
 1869SOL     OW 6505   4.581   1.396   3.985
 1869SOL    HW1 6506   4.604   1.372   3.890
 1869SOL    HW2 6507   4.590   1.495   3.997
 1870SOL     OW 6508   6.985   5.600   4.284
 1870SOL    HW1 6509   6.924   5.628   4.358
 1870SOL    HW2 6510   0.017   5.521   4.313
 1871SOL     OW 6511   0.387   6.560   0.631
 1871SOL    HW1 6512   0.440   6.576   0.714
 1871SOL    HW2 6513   0.448   6.528   0.559
 1872SOL     OW 6514   2.600   2.490   1.536
 1872SOL    HW1 6515   2.698   2.499   1.555
 1872SOL    HW2 6516   2.559   2.580   1.525
 1873SOL     OW 6517   0.198   1.713   0.796
 1873SOL    HW1 6518   0.213   1.618   0.769
 1873SOL    HW2 6519   0.255   1.773   0.740
 1874SOL     OW 6520   0.363   6.301   0.257
 1874SOL    HW1 6521   0.284   6.300   0.195
 1874SOL    HW2 6522   0.331   6.288   0.351
 1875SOL     OW 6523   6.583   4.859   0.423
 1875SOL    HW1 6524   6.511   4.801   0.463
 1875SOL    HW2 6525   6.631   4.907   0.497
 1876SOL     OW 6526   6.808   5.953   6.883
 1876SOL    HW1 6527   6.862   5.918   6.806
 1876SOL    HW2 6528   6.734   5.889   6.903
 1877SOL     OW 6529   0.879   1.016   2.601
 1877SOL    HW1 6530   0.786   1.044   2.580
 1877SOL    HW2 6531   0.929   0.997   2.517
 1878SOL     OW 6532   6.657   3.916   3.473
 1878SOL    HW1 6533   6.677   3.942   3.568
 1878SOL    HW2 6534   6.743   3.908   3.422
 1879SOL     OW 6535   4.249   5.713   4.468
 1879SOL    HW1 6536   4.302   5.760   4.397
 1879SOL    HW2 6537   4.303   5.707   4.552
 1880SOL     OW 6538   0.511   2.053   3.822
 1880SOL    HW1 6539   0.540   2.142   3.856
 1880SOL    HW2 6540   0.521   2.050   3.723
 1881SOL     OW 6541   1.192   1.602   4.414
 1881SOL    HW1 6542   1.168   1.687   4.366
 1881SOL    HW2 6543   1.251   1.547   4.355
 1882SOL     OW 6544   1.680   5.641   6.493
 1882SOL    HW1 6545   1.687   5.548   6.530
 1882SOL    HW2 6546   1.761   5.694   6.521
 1883SOL     OW 6547   1.418   2.807   2.271
 1883SOL    HW1 6548   1.484   2.879   2.253
 1883SOL    HW2 6549   1.443   2.759   2.355
 1884SOL     OW 6550   2.938   1.195   0.169
 1884SOL    HW1 6551   2.964   1.099   0.158
 1884SOL    HW2 6552   2.860   1.215   0.109
 1885SOL     OW 6553   0.203   1.911   1.292
 1885SOL    HW1 6554   0.236   1.817   1.286
 1885SOL    HW2 6555   0.251   1.968   1.226
 1886SOL     OW 6556   3.002   2.903   6.116
 1886SOL    HW1 6557   3.100   2.895   6.102
 1886SOL    HW2 6558   2.982   2.914   6.213
 1887SOL     OW 6559   0.297   6.717   5.372
 1887SOL    HW1 6560   0.331   6.679   5.458
 1887SOL    HW2 6561   0.290   6.817   5.381
 1888SOL     OW 6562   2.409   1.992   6.098
 1888SOL    HW1 6563   2.353   1.924   6.146
 1888SOL    HW2 6564   2.497   1.951   6.074
 1889SOL     OW 6565   3.524   2.972   0.160
 1889SOL    HW1 6566   3.527   2.897   0.226
 1889SOL    HW2 6567   3.596   2.958   0.092
 1890SOL     OW 6568   6.293   5.291   6.653
 1890SOL    HW1 6569   6.333   5.206   6.688
 1890SOL    HW2 6570   6.364   5.347   6.611
 1891SOL     OW 6571   5.865   4.111   5.132
 1891SOL    HW1 6572   5.907   4.198   5.157
 1891SOL    HW2 6573   5.765   4.120   5.136
 1892SOL     OW 6574   4.083   6.274   1.414
 1892SOL    HW1 6575   4.147   6.308   1.346
 1892SOL    HW2 6576   4.129   6.267   1.503
 1893SOL     OW 6577   3.740   2.128   4.157
 1893SOL    HW1 6578   3.647   2.097   4.176
 1893SOL    HW2 6579   3.785   2.150   4.243
 1894SOL     OW 6580   3.868   4.099   0.905
 1894SOL    HW1 6581   3.927   4.131   0.979
 1894SOL    HW2 6582   3.919   4.034   0.848
 1895SOL     OW 6583   5.038   0.616   3.044
 1895SOL    HW1 6584   5.115   0.569   3.001
 1895SOL    HW2 6585   5.072   0.668   3.123
 1896SOL     OW 6586   6.586   1.301   5.895
 1896SOL    HW1 6587   6.567   1.208   5.862
 1896SOL    HW2 6588   6.646   1.296   5.975
 1897SOL     OW 6589   6.006   4.651   3.380
 1897SOL    HW1 6590   5.919   4.699   3.381
 1897SOL    HW2 6591   6.080   4.716   3.364
 1898SOL     OW 6592   5.900   5.072   6.856
 1898SOL    HW1 6593   5.971   5.042   6.791
 1898SOL    HW2 6594   5.844   4.994   6.883
 1899SOL     OW 6595   0.999   3.524   3.160
 1899SOL    HW1 6596   1.051   3.580   3.095
 1899SOL    HW2 6597   0.979   3.435   3.119
 1900SOL     OW 6598   2.477   5.569   0.208
 1900SOL    HW1 6599   2.435   5.657   0.231
 1900SOL    HW2 6600   2.407   5.508   0.172
 1901SOL     OW 6601   1.575   1.359   6.879
 1901SOL    HW1 6602   1.674   1.346   6.869
 1901SOL    HW2 6603   1.556   1.394   6.971
 1902SOL     OW 6604   1.227   3.026   4.870
 1902SOL    HW1 6605   1.253   2.931   4.854
 1902SOL    HW2 6606   1.261   3.055   4.960
 1903SOL     OW 6607   6.217   3.228   3.914
 1903SOL    HW1 6608   6.161   3.177   3.849
 1903SOL    HW2 6609   6.242   3.168   3.990
 1904SOL     OW 6610   6.655   0.096   3.597
 1904SOL    HW1 6611   6.705   0.181   3.581
 1904SOL    HW2 6612   6.643   0.083   3.695
 1905SOL     OW 6613   6.735   2.917   3.751
 1905SOL    HW1 6614   6.691   2.995   3.796
 1905SOL    HW2 6615   6.675   2.881   3.680
 1906SOL     OW 6616   2.342   6.768   0.795
 1906SOL    HW1 6617   2.330   6.848   0.737
 1906SOL    HW2 6618   2.371   6.798   0.886
 1907SOL     OW 6619   3.610   6.399   3.498
 1907SOL    HW1 6620   3.648   6.491   3.508
 1907SOL    HW2 6621   3.555   6.394   3.415
 1908SOL     OW 6622   4.987   1.688   6.542
 1908SOL    HW1 6623   4.944   1.724   6.625
 1908SOL    HW2 6624   4.947   1.732   6.461
 1909SOL     OW 6625   3.091   4.852   4.713
 1909SOL    HW1 6626   3.006   4.844   4.661
 1909SOL    HW2 6627   3.152   4.776   4.690
 1910SOL     OW 6628   5.095   1.589   5.664
 1910SOL    HW1 6629   5.155   1.584   5.744
 1910SOL    HW2 6630   5.115   1.672   5.613
 1911SOL     OW 6631   6.415   3.575   6.109
 1911SOL    HW1 6632   6.316   3.558   6.117
 1911SOL    HW2 6633   6.439   3.590   6.013
 1912SOL     OW 6634   3.753   0.138   3.361
 1912SOL    HW1 6635   3.736   0.231   3.327
 1912SOL    HW2 6636   3.847   0.112   3.341
 1913SOL     OW 6637   1.450   4.340   5.467
 1913SOL    HW1 6638   1.497   4.332   5.379
 1913SOL    HW2 6639   1.359   4.377   5.453
 1914SOL     OW 6640   4.133   1.970   5.629
 1914SOL    HW1 6641   4.159   1.873   5.625
 1914SOL    HW2 6642   4.216   2.026   5.624
 1915SOL     OW 6643   3.025   0.210   5.506
 1915SOL    HW1 6644   3.113   0.225   5.551
 1915SOL    HW2 6645   2.998   0.114   5.517
 1916SOL     OW 6646   3.710   6.401   1.664
 1916SOL    HW1 6647   3.646   6.349   1.721
 1916SOL    HW2 6648   3.740   6.345   1.587
 1917SOL     OW 6649   3.109   3.047   4.232
 1917SOL    HW1 6650   3.161   2.975   4.185
 1917SOL    HW2 6651   3.061   3.103   4.164
 1918SOL     OW 6652   5.794   6.812   4.439
 1918SOL    HW1 6653   5.860   6.830   4.366
 1918SOL    HW2 6654   5.711   6.864   4.422
 1919SOL     OW 6655   6.568   6.694   1.439
 1919SOL    HW1 6656   6.636   6.624   1.461
 1919SOL    HW2 6657   6.613   6.772   1.397
 1920SOL     OW 6658   6.710   5.848   4.305
 1920SOL    HW1 6659   6.639   5.915   4.281
 1920SOL    HW2 6660   6.756   5.878   4.389
 1921SOL     OW 6661   1.059   6.696   6.672
 1921SOL    HW1 6662   1.024   6.693   6.579
 1921SOL    HW2 6663   1.157   6.715   6.670
 1922SOL     OW 6664   3.660   4.268   0.476
 1922SOL    HW1 6665   3.745   4.254   0.426
 1922SOL    HW2 6666   3.650   4.197   0.546
 1923SOL     OW 6667   1.583   1.599   0.864
 1923SOL    HW1 6668   1.603   1.517   0.811
 1923SOL    HW2 6669   1.664   1.657   0.869
 1924SOL     OW 6670   0.389   4.570   1.562
 1924SOL    HW1 6671   0.356   4.582   1.656
 1924SOL    HW2 6672   0.313   4.541   1.503
 1925SOL     OW 6673   3.002   4.043   1.246
 1925SOL    HW1 6674   2.969   3.956   1.209
 1925SOL    HW2 6675   2.929   4.112   1.240
 1926SOL     OW 6676   1.305   6.994   3.843
 1926SOL    HW1 6677   1.359   0.016   3.772
 1926SOL    HW2 6678   1.327   0.011   3.932
 1927SOL     OW 6679   4.011   3.457   6.907
 1927SOL    HW1 6680   4.076   3.418   6.972
 1927SOL    HW2 6681   3.932   3.396   6.897
 1928SOL     OW 6682   6.397   4.374   5.659
 1928SOL    HW1 6683   6.350   4.350   5.574
 1928SOL    HW2 6684   6.393   4.296   5.722
 1929SOL     OW 6685   1.261   0.164   1.890
 1929SOL    HW1 6686   1.308   0.092   1.941
 1929SOL    HW2 6687   1.162   0.155   1.903
 1930SOL     OW 6688   5.661   3.827   6.175
 1930SOL    HW1 6689   5.636   3.895   6.106
 1930SOL    HW2 6690   5.643   3.735   6.139
 1931SOL     OW 6691   0.538   2.530   4.618
 1931SOL    HW1 6692   0.578   2.498   4.704
 1931SOL    HW2 6693   0.459   2.588   4.637
 1932SOL     OW 6694   6.135   3.613   1.470
 1932SOL    HW1 6695   6.151   3.703   1.510
 1932SOL    HW2 6696   6.214   3.587   1.414
 1933SOL     OW 6697   2.850   4.617   1.368
 1933SOL    HW1 6698   2.890   4.540   1.418
 1933SOL    HW2 6699   2.898   4.629   1.281
 1934SOL     OW 6700   0.919   6.107   5.173
 1934SOL    HW1 6701   0.873   6.025   5.207
 1934SOL    HW2 6702   0.911   6.181   5.241
 1935SOL     OW 6703   2.158   1.072   3.560
 1935SOL    HW1 6704   2.124   1.129   3.635
 1935SOL    HW2 6705   2.092   1.075   3.485
 1936SOL     OW 6706   6.027   5.558   5.177
 1936SOL    HW1 6707   5.946   5.568   5.119
 1936SOL    HW2 6708   6.001   5.562   5.273
 1937SOL     OW 6709   3.937   6.681   1.940
 1937SOL    HW1 6710   3.969   6.598   1.985
 1937SOL    HW2 6711   3.906   6.747   2.009
 1938SOL     OW 6712   4.845   1.243   3.695
 1938SOL    HW1 6713   4.841   1.197   3.783
 1938SOL    HW2 6714   4.903   1.191   3.632
 1939SOL     OW 6715   1.665   0.993   3.468
 1939SOL    HW1 6716   1.706   0.916   3.517
 1939SOL    HW2 6717   1.567   0.978   3.459
 1940SOL     OW 6718   0.225   5.274   0.007
 1940SOL    HW1 6719   0.264   5.277   6.938
 1940SOL    HW2 6720   0.298   5.288   0.074
 1941SOL     OW 6721   4.750   4.149   2.777
 1941SOL    HW1 6722   4.809   4.112   2.704
 1941SOL    HW2 6723   4.743   4.082   2.851
 1942SOL     OW 6724   6.129   4.730   2.660
 1942SOL    HW1 6725   6.156   4.824   2.638
 1942SOL    HW2 6726   6.098   4.726   2.755
 1943SOL     OW 6727   2.447   5.027   2.811
 1943SOL    HW1 6728   2.525   5.089   2.801
 1943SOL    HW2 6729   2.449   4.985   2.902
 1944SOL     OW 6730   6.932   1.163   1.119
 1944SOL    HW1 6731   7.000   1.202   1.057
 1944SOL    HW2 6732   6.977   1.110   1.190
 1945SOL     OW 6733   3.293   4.928   3.925
 1945SOL    HW1 6734   3.263   4.903   3.833
 1945SOL    HW2 6735   3.220   4.906   3.990
 1946SOL     OW 6736   1.162   0.696   6.675
 1946SOL    HW1 6737   1.247   0.647   6.655
 1946SOL    HW2 6738   1.171   0.746   6.760
 1947SOL     OW 6739   5.825   5.572   3.626
 1947SOL    HW1 6740   5.810   5.533   3.717
 1947SOL    HW2 6741   5.908   5.532   3.586
 1948SOL     OW 6742   6.337   5.172   4.321
 1948SOL    HW1 6743   6.380   5.257   4.350
 1948SOL    HW2 6744   6.361   5.098   4.385
 1949SOL     OW 6745   4.069   3.900   6.754
 1949SOL    HW1 6746   4.016   3.904   6.669
 1949SOL    HW2 6747   4.159   3.942   6.739
 1950SOL     OW 6748   3.065   3.720   6.531
 1950SOL    HW1 6749   2.983   3.748   6.581
 1950SOL    HW2 6750   3.137   3.788   6.545
 1951SOL     OW 6751   6.291   1.623   6.905
 1951SOL    HW1 6752   6.340   1.570   6.836
 1951SOL    HW2 6753   6.199   1.646   6.871
 1952SOL     OW 6754   3.639   2.200   6.846
 1952SOL    HW1 6755   3.607   2.178   6.754
 1952SOL    HW2 6756   3.737   2.183   6.853
 1953SOL     OW 6757   6.854   2.710   6.616
 1953SOL    HW1 6758   6.786   2.759   6.561
 1953SOL    HW2 6759   6.814   2.627   6.654
 1954SOL     OW 6760   3.290   2.166   4.143
 1954SOL    HW1 6761   3.226   2.160   4.066
 1954SOL    HW2 6762   3.245   2.208   4.221
 1955SOL     OW 6763   0.376   6.593   3.060
 1955SOL    HW1 6764   0.290   6.608   3.011
 1955SOL    HW2 6765   0.379   6.649   3.142
 1956SOL     OW 6766   6.028   5.835   2.581
 1956SOL    HW1 6767   6.089   5.914   2.587
 1956SOL    HW2 6768   6.033   5.796   2.489
 1957SOL     OW 6769   0.001   6.732   5.362
 1957SOL    HW1 6770   0.099   6.730   5.382
 1957SOL    HW2 6771   6.979   6.801   5.418
 1958SOL     OW 6772   5.816   3.222   5.939
 1958SOL    HW1 6773   5.754   3.261   5.871
 1958SOL    HW2 6774   5.857   3.296   5.993
 1959SOL     OW 6775   1.269   2.221   6.041
 1959SOL    HW1 6776   1.339   2.167   5.994
 1959SOL    HW2 6777   1.290   2.318   6.034
 1960SOL     OW 6778   5.279   5.540   0.872
 1960SOL    HW1 6779   5.221   5.506   0.946
 1960SOL    HW2 6780   5.368   5.495   0.876
 1961SOL     OW 6781   5.603   4.121   3.669
 1961SOL    HW1 6782   5.547   4.169   3.736
 1961SOL    HW2 6783   5.697   4.115   3.702
 1962SOL     OW 6784   0.925   6.249   3.856
 1962SOL    HW1 6785   0.986   6.273   3.780
 1962SOL    HW2 6786   0.978   6.249   3.942
 1963SOL     OW 6787   1.070   0.355   3.020
 1963SOL    HW1 6788   0.995   0.318   3.073
 1963SOL    HW2 6789   1.065   0.322   2.926
 1964SOL     OW 6790   4.907   3.077   2.984
 1964SOL    HW1 6791   4.951   3.134   2.915
 1964SOL    HW2 6792   4.955   3.087   3.071
 1965SOL     OW 6793   1.368   3.821   3.325
 1965SOL    HW1 6794   1.450   3.824   3.382
 1965SOL    HW2 6795   1.330   3.728   3.328
 1966SOL     OW 6796   6.684   5.391   5.534
 1966SOL    HW1 6797   6.713   5.470   5.587
 1966SOL    HW2 6798   6.677   5.417   5.437
 1967SOL     OW 6799   4.830   2.728   5.128
 1967SOL    HW1 6800   4.891   2.691   5.058
 1967SOL    HW2 6801   4.876   2.723   5.217
 1968SOL     OW 6802   3.605   5.952   6.849
 1968SOL    HW1 6803   3.633   5.856   6.848
 1968SOL    HW2 6804   3.527   5.964   6.910
 1969SOL     OW 6805   0.341   2.283   1.463
 1969SOL    HW1 6806   0.328   2.197   1.512
 1969SOL    HW2 6807   0.273   2.350   1.495
 1970SOL     OW 6808   1.428   0.543   4.360
 1970SOL    HW1 6809   1.482   0.580   4.436
 1970SOL    HW2 6810   1.393   0.618   4.304
 1971SOL     OW 6811   0.206   6.704   6.635
 1971SOL    HW1 6812   0.282   6.705   6.570
 1971SOL    HW2 6813   0.124   6.667   6.592
 1972SOL     OW 6814   0.925   4.433   4.004
 1972SOL    HW1 6815   0.850   4.475   4.054
 1972SOL    HW2 6816   1.010   4.445   4.055
 1973SOL     OW 6817   3.140   3.112   1.654
 1973SOL    HW1 6818   3.135   3.084   1.558
 1973SOL    HW2 6819   3.151   3.211   1.659
 1974SOL     OW 6820   5.404   0.640   4.093
 1974SOL    HW1 6821   5.345   0.712   4.056
 1974SOL    HW2 6822   5.444   0.671   4.179
 1975SOL     OW 6823   3.446   0.414   4.240
 1975SOL    HW1 6824   3.521   0.455   4.188
 1975SOL    HW2 6825   3.429   0.469   4.322
 1976SOL     OW 6826   0.016   5.778   0.336
 1976SOL    HW1 6827   6.951   5.823   0.354
 1976SOL    HW2 6828   0.089   5.825   0.387
 1977SOL     OW 6829   0.990   2.442   4.784
 1977SOL    HW1 6830   0.990   2.444   4.684
 1977SOL    HW2 6831   1.000   2.535   4.819
 1978SOL     OW 6832   6.534   1.981   4.308
 1978SOL    HW1 6833   6.510   2.071   4.271
 1978SOL    HW2 6834   6.631   1.979   4.332
 1979SOL     OW 6835   5.937   4.713   4.052
 1979SOL    HW1 6836   5.895   4.759   3.974
 1979SOL    HW2 6837   6.035   4.705   4.038
 1980SOL     OW 6838   3.959   0.478   1.203
 1980SOL    HW1 6839   3.898   0.410   1.164
 1980SOL    HW2 6840   3.918   0.569   1.195
 1981SOL     OW 6841   4.945   2.891   1.908
 1981SOL    HW1 6842   4.904   2.825   1.845
 1981SOL    HW2 6843   4.878   2.963   1.929
 1982SOL     OW 6844   5.833   5.373   4.543
 1982SOL    HW1 6845   5.886   5.307   4.597
 1982SOL    HW2 6846   5.758   5.408   4.599
 1983SOL     OW 6847   0.921   3.345   3.365
 1983SOL    HW1 6848   0.944   3.402   3.286
 1983SOL    HW2 6849   0.967   3.380   3.446
 1984SOL     OW 6850   4.147   1.820   6.294
 1984SOL    HW1 6851   4.091   1.868   6.227
 1984SOL    HW2 6852   4.217   1.766   6.247
 1985SOL     OW 6853   1.380   0.475   1.377
 1985SOL    HW1 6854   1.473   0.503   1.350
 1985SOL    HW2 6855   1.384   0.385   1.419
 1986SOL     OW 6856   1.611   2.131   6.653
 1986SOL    HW1 6857   1.603   2.206   6.588
 1986SOL    HW2 6858   1.632   2.168   6.744
 1987SOL     OW 6859   2.279   3.443   0.817
 1987SOL    HW1 6860   2.232   3.438   0.729
 1987SOL    HW2 6861   2.262   3.359   0.869
 1988SOL     OW 6862   4.621   3.982   0.360
 1988SOL    HW1 6863   4.551   4.036   0.314
 1988SOL    HW2 6864   4.602   3.980   0.458
 1989SOL     OW 6865   2.306   0.178   4.028
 1989SOL    HW1 6866   2.357   0.255   4.067
 1989SOL    HW2 6867   2.338   0.161   3.935
 1990SOL     OW 6868   3.148   0.932   1.240
 1990SOL    HW1 6869   3.059   0.889   1.254
 1990SOL    HW2 6870   3.196   0.938   1.328
 1991SOL     OW 6871   2.969   5.434   3.961
 1991SOL    HW1 6872   2.890   5.467   4.014
 1991SOL    HW2 6873   3.039   5.506   3.957
 1992SOL     OW 6874   2.177   6.261   5.739
 1992SOL    HW1 6875   2.117   6.270   5.818
 1992SOL    HW2 6876   2.189   6.350   5.695
 1993SOL     OW 6877   3.830   3.451   5.576
 1993SOL    HW1 6878   3.902   3.508   5.539
 1993SOL    HW2 6879   3.764   3.508   5.625
 1994SOL     OW 6880   6.367   2.121   2.296
 1994SOL    HW1 6881   6.299   2.121   2.369
 1994SOL    HW2 6882   6.327   2.082   2.213
 1995SOL     OW 6883   5.751   1.988   1.961
 1995SOL    HW1 6884   5.690   1.945   1.894
 1995SOL    HW2 6885   5.846   1.976   1.932
 1996SOL     OW 6886   3.519   4.279   0.222
 1996SOL    HW1 6887   3.614   4.296   0.196
 1996SOL    HW2 6888   3.509   4.292   0.321
 1997SOL     OW 6889   5.054   0.522   3.987
 1997SOL    HW1 6890   5.025   0.440   3.937
 1997SOL    HW2 6891   5.134   0.499   4.043
 1998SOL     OW 6892   2.702   4.429   5.885
 1998SOL    HW1 6893   2.761   4.429   5.805
 1998SOL    HW2 6894   2.623   4.370   5.868
 1999SOL     OW 6895   2.690   6.983   2.389
 1999SOL    HW1 6896   2.597   6.996   2.421
 1999SOL    HW2 6897   2.740   6.927   2.455
 2000SOL     OW 6898   4.337   1.428   4.955
 2000SOL    HW1 6899   4.367   1.408   4.861
 2000SOL    HW2 6900   4.240   1.408   4.963
 2001SOL     OW 6901   2.722   1.224   0.921
 2001SOL    HW1 6902   2.798   1.167   0.890
 2001SOL    HW2 6903   2.725   1.232   1.021
 2002SOL     OW 6904   2.005   5.190   5.842
 2002SOL    HW1 6905   2.101   5.212   5.859
 2002SOL    HW2 6906   1.948   5.265   5.874
 2003SOL     OW 6907   5.887   6.181   3.259
 2003SOL    HW1 6908   5.795   6.174   3.297
 2003SOL    HW2 6909   5.954   6.188   3.333
 2004SOL     OW 6910   3.210   0.872   5.668
 2004SOL    HW1 6911   3.251   0.896   5.755
 2004SOL    HW2 6912   3.256   0.792   5.629
 2005SOL     OW 6913   1.934   5.451   5.903
 2005SOL    HW1 6914   1.940   5.455   5.803
 2005SOL    HW2 6915   1.933   5.544   5.939
 2006SOL     OW 6916   4.436   5.084   4.486
 2006SOL    HW1 6917   4.439   5.044   4.577
 2006SOL    HW2 6918   4.411   5.181   4.492
 2007SOL     OW 6919   5.284   5.829   0.795
 2007SOL    HW1 6920   5.282   5.729   0.801
 2007SOL    HW2 6921   5.216   5.860   0.729
 2008SOL     OW 6922   6.933   6.467   3.642
 2008SOL    HW1 6923   6.929   6.461   3.741
 2008SOL    HW2 6924   7.000   6.401   3.607
 2009SOL     OW 6925   6.949   0.447   1.926
 2009SOL    HW1 6926   6.884   0.496   1.984
 2009SOL    HW2 6927   6.922   0.351   1.919
 2010SOL     OW 6928   0.895   0.537   0.503
 2010SOL    HW1 6929   0.843   0.604   0.557
 2010SOL    HW2 6930   0.901   0.452   0.553
 2011SOL     OW 6931   6.631   1.931   4.955
 2011SOL    HW1 6932   6.563   1.883   5.010
 2011SOL    HW2 6933   6.650   2.020   4.996
 2012SOL     OW 6934   1.696   4.453   0.783
 2012SOL    HW1 6935   1.758   4.509   0.729
 2012SOL    HW2 6936   1.722   4.357   0.776
 2013SOL     OW 6937   5.561   1.847   2.458
 2013SOL    HW1 6938   5.606   1.762   2.487
 2013SOL    HW2 6939   5.627   1.922   2.462
 2014SOL     OW 6940   1.772   5.544   3.654
 2014SOL    HW1 6941   1.811   5.634   3.634
 2014SOL    HW2 6942   1.846   5.476   3.654
 2015SOL     OW 6943   3.078   0.552   0.063
 2015SOL    HW1 6944   3.054   0.456   0.075
 2015SOL    HW2 6945   3.044   0.584   6.997
 2016SOL     OW 6946   0.569   5.406   4.458
 2016SOL    HW1 6947   0.667   5.388   4.466
 2016SOL    HW2 6948   0.553   5.504   4.451
 2017SOL     OW 6949   2.655   5.813   2.956
 2017SOL    HW1 6950   2.620   5.859   3.037
 2017SOL    HW2 6951   2.591   5.742   2.928
 2018SOL     OW 6952   0.529   5.335   5.924
 2018SOL    HW1 6953   0.445   5.358   5.974
 2018SOL    HW2 6954   0.511   5.338   5.826
 2019SOL     OW 6955   5.797   2.311   1.935
 2019SOL    HW1 6956   5.893   2.301   1.910
 2019SOL    HW2 6957   5.770   2.237   1.997
 2020SOL     OW 6958   2.434   5.554   3.204
 2020SOL    HW1 6959   2.414   5.456   3.206
 2020SOL    HW2 6960   2.348   5.605   3.196
 2021SOL     OW 6961   1.948   0.765   2.319
 2021SOL    HW1 6962   1.912   0.739   2.230
 2021SOL    HW2 6963   1.982   0.859   2.315
 2022SOL     OW 6964   2.365   3.756   1.737
 2022SOL    HW1 6965   2.281   3.780   1.786
 2022SOL    HW2 6966   2.400   3.669   1.772
 2023SOL     OW 6967   6.514   1.110   6.189
 2023SOL    HW1 6968   6.460   1.068   6.117
 2023SOL    HW2 6969   6.505   1.210   6.183
 2024SOL     OW 6970   5.963   0.430   3.606
 2024SOL    HW1 6971   5.870   0.467   3.609
 2024SOL    HW2 6972   6.010   0.464   3.524
 2025SOL     OW 6973   0.359   1.532   1.872
 2025SOL    HW1 6974   0.438   1.582   1.908
 2025SOL    HW2 6975   0.333   1.460   1.936
 2026SOL     OW 6976   2.482   1.711   5.622
 2026SOL    HW1 6977   2.415   1.778   5.655
 2026SOL    HW2 6978   2.434   1.629   5.591
 2027SOL     OW 6979   1.245   1.138   2.101
 2027SOL    HW1 6980   1.233   1.122   2.199
 2027SOL    HW2 6981   1.337   1.111   2.074
 2028SOL     OW 6982   3.447   2.443   0.163
 2028SOL    HW1 6983   3.519   2.405   0.222
 2028SOL    HW2 6984   3.489   2.488   0.084
 2029SOL     OW 6985   0.944   1.366   6.379
 2029SOL    HW1 6986   1.001   1.333   6.304
 2029SOL    HW2 6987   1.000   1.380   6.460
 2030SOL     OW 6988   2.006   2.180   3.125
 2030SOL    HW1 6989   2.079   2.112   3.125
 2030SOL    HW2 6990   1.953   2.173   3.210
 2031SOL     OW 6991   5.700   6.554   2.078
 2031SOL    HW1 6992   5.704   6.485   2.005
 2031SOL    HW2 6993   5.786   6.605   2.079
 2032SOL     OW 6994   4.812   6.148   0.584
 2032SOL    HW1 6995   4.912   6.139   0.588
 2032SOL    HW2 6996   4.784   6.161   0.489
 2033SOL     OW 6997   5.421   4.390   6.397
 2033SOL    HW1 6998   5.442   4.485   6.419
 2033SOL    HW2 6999   5.387   4.383   6.304
 2034SOL     OW 7000   2.161   0.040   3.134
 2034SOL    HW1 7001   2.174   6.975   3.088
 2034SOL    HW2 7002   2.190   0.032   3.230
 2035SOL     OW 7003   0.898   1.734   2.327
 2035SOL    HW1 7004   0.873   1.719   2.231
 2035SOL    HW2 7005   0.939   1.651   2.364
 2036SOL     OW 7006   0.499   5.412   0.625
 2036SOL    HW1 7007   0.494   5.404   0.725
 2036SOL    HW2 7008   0.425   5.471   0.593
 2037SOL     OW 7009   6.922   2.491   5.739
 2037SOL    HW1 7010   7.019   2.514   5.743
 2037SOL    HW2 7011   6.900   2.454   5.649
 2038SOL     OW 7012   0.279   1.503   4.491
 2038SOL    HW1 7013   0.378   1.497   4.502
 2038SOL    HW2 7014   0.240   1.411   4.486
 2039SOL     OW 7015   6.714   5.443   3.417
 2039SOL    HW1 7016   6.751   5.510   3.353
 2039SOL    HW2 7017   6.651   5.382   3.368
 2040SOL     OW 7018   3.965   3.118   4.775
 2040SOL    HW1 7019   3.912   3.095   4.693
 2040SOL    HW2 7020   4.027   3.194   4.755
 2041SOL     OW 7021   5.710   4.709   5.364
 2041SOL    HW1 7022   5.630   4.650   5.375
 2041SOL    HW2 7023   5.779   4.687   5.433
 2042SOL     OW 7024   4.802   5.316   0.372
 2042SOL    HW1 7025   4.854   5.259   0.435
 2042SOL    HW2 7026   4.790   5.408   0.412
 2043SOL     OW 7027   5.450   4.428   2.095
 2043SOL    HW1 7028   5.491   4.355   2.150
 2043SOL    HW2 7029   5.512   4.506   2.091
 2044SOL     OW 7030   6.103   0.559   1.529
 2044SOL    HW1 7031   6.011   0.531   1.501
 2044SOL    HW2 7032   6.145   0.613   1.457
 2045SOL     OW 7033   2.571   4.701   5.784
 2045SOL    HW1 7034   2.531   4.610   5.789
 2045SOL    HW2 7035   2.500   4.769   5.803
 2046SOL     OW 7036   6.329   0.319   4.187
 2046SOL    HW1 7037   6.247   0.366   4.219
 2046SOL    HW2 7038   6.370   0.371   4.112
 2047SOL     OW 7039   5.028   2.642   0.900
 2047SOL    HW1 7040   5.034   2.652   0.801
 2047SOL    HW2 7041   4.993   2.727   0.940
 2048SOL     OW 7042   4.246   0.577   6.886
 2048SOL    HW1 7043   4.327   0.603   6.940
 2048SOL    HW2 7044   4.173   0.643   6.901
 2049SOL     OW 7045   4.177   1.513   0.273
 2049SOL    HW1 7046   4.138   1.481   0.187
 2049SOL    HW2 7047   4.234   1.593   0.257
 2050SOL     OW 7048   6.266   2.852   3.925
 2050SOL    HW1 7049   6.195   2.893   3.868
 2050SOL    HW2 7050   6.300   2.921   3.990
 2051SOL     OW 7051   1.250   6.248   0.125
 2051SOL    HW1 7052   1.316   6.248   0.050
 2051SOL    HW2 7053   1.212   6.340   0.137
 2052SOL     OW 7054   0.877   2.837   6.655
 2052SOL    HW1 7055   0.835   2.808   6.569
 2052SOL    HW2 7056   0.812   2.895   6.705
 2053SOL     OW 7057   6.316   0.822   6.665
 2053SOL    HW1 7058   6.249   0.800   6.594
 2053SOL    HW2 7059   6.328   0.743   6.725
 2054SOL     OW 7060   5.622   2.505   0.544
 2054SOL    HW1 7061   5.658   2.505   0.637
 2054SOL    HW2 7062   5.547   2.571   0.537
 2055SOL     OW 7063   5.352   2.379   3.550
 2055SOL    HW1 7064   5.307   2.369   3.461
 2055SOL    HW2 7065   5.283   2.378   3.623
 2056SOL     OW 7066   2.121   0.991   3.078
 2056SOL    HW1 7067   2.184   0.947   3.142
 2056SOL    HW2 7068   2.066   0.921   3.032
 2057SOL     OW 7069   6.336   2.702   4.298
 2057SOL    HW1 7070   6.241   2.693   4.267
 2057SOL    HW2 7071   6.384   2.768   4.239
 2058SOL     OW 7072   7.000   2.033   2.635
 2058SOL    HW1 7073   0.016   2.123   2.615
 2058SOL    HW2 7074   0.044   1.980   2.688
 2059SOL     OW 7075   2.303   1.189   6.936
 2059SOL    HW1 7076   2.235   1.174   6.864
 2059SOL    HW2 7077   2.288   1.279   6.977
 2060SOL     OW 7078   0.066   4.536   1.946
 2060SOL    HW1 7079   0.041   4.477   1.869
 2060SOL    HW2 7080   0.011   4.511   2.026
 2061SOL     OW 7081   0.004   1.358   2.396
 2061SOL    HW1 7082   0.004   1.417   2.315
 2061SOL    HW2 7083   6.969   1.278   2.379
 2062SOL     OW 7084   4.765   0.362   2.458
 2062SOL    HW1 7085   4.749   0.443   2.401
 2062SOL    HW2 7086   4.757   0.388   2.554
 2063SOL     OW 7087   1.626   3.004   6.259
 2063SOL    HW1 7088   1.688   3.082   6.271
 2063SOL    HW2 7089   1.535   3.037   6.235
 2064SOL     OW 7090   0.668   2.407   5.604
 2064SOL    HW1 7091   0.616   2.467   5.544
 2064SOL    HW2 7092   0.690   2.454   5.689
 2065SOL     OW 7093   6.136   3.517   2.438
 2065SOL    HW1 7094   6.082   3.600   2.425
 2065SOL    HW2 7095   6.124   3.457   2.360
 2066SOL     OW 7096   0.118   6.764   4.933
 2066SOL    HW1 7097   0.179   6.742   4.857
 2066SOL    HW2 7098   0.126   6.861   4.955
 2067SOL     OW 7099   6.123   6.684   0.555
 2067SOL    HW1 7100   6.126   6.763   0.494
 2067SOL    HW2 7101   6.217   6.653   0.574
 2068SOL     OW 7102   2.215   1.158   5.387
 2068SOL    HW1 7103   2.240   1.208   5.470
 2068SOL    HW2 7104   2.120   1.127   5.395
 2069SOL     OW 7105   0.849   3.093   2.041
 2069SOL    HW1 7106   0.801   3.009   2.020
 2069SOL    HW2 7107   0.849   3.108   2.140
 2070SOL     OW 7108   1.531   0.801   2.533
 2070SOL    HW1 7109   1.431   0.805   2.544
 2070SOL    HW2 7110   1.574   0.789   2.622
 2071SOL     OW 7111   0.250   6.856   4.115
 2071SOL    HW1 7112   0.303   6.939   4.132
 2071SOL    HW2 7113   0.295   6.779   4.159
 2072SOL     OW 7114   4.892   6.141   1.897
 2072SOL    HW1 7115   4.850   6.067   1.949
 2072SOL    HW2 7116   4.824   6.180   1.835
 2073SOL     OW 7117   3.579   6.528   5.402
 2073SOL    HW1 7118   3.668   6.481   5.401
 2073SOL    HW2 7119   3.541   6.530   5.310
 2074SOL     OW 7120   6.746   1.549   1.056
 2074SOL    HW1 7121   6.833   1.587   1.024
 2074SOL    HW2 7122   6.763   1.492   1.137
 2075SOL     OW 7123   4.037   3.370   0.764
 2075SOL    HW1 7124   4.111   3.355   0.829
 2075SOL    HW2 7125   3.989   3.284   0.747
 2076SOL     OW 7126   5.123   5.978   0.607
 2076SOL    HW1 7127   5.132   6.068   0.649
 2076SOL    HW2 7128   5.161   5.981   0.514
 2077SOL     OW 7129   5.766   1.639   2.688
 2077SOL    HW1 7130   5.791   1.684   2.774
 2077SOL    HW2 7131   5.848   1.628   2.631
 2078SOL     OW 7132   2.987   5.438   6.680
 2078SOL    HW1 7133   2.980   5.532   6.646
 2078SOL    HW2 7134   2.980   5.375   6.602
 2079SOL     OW 7135   5.984   0.893   3.322
 2079SOL    HW1 7136   5.937   0.981   3.323
 2079SOL    HW2 7137   6.023   0.877   3.231
 2080SOL     OW 7138   2.875   2.178   4.969
 2080SOL    HW1 7139   2.841   2.182   5.063
 2080SOL    HW2 7140   2.971   2.206   4.966
 2081SOL     OW 7141   1.427   6.648   5.058
 2081SOL    HW1 7142   1.448   6.567   5.003
 2081SOL    HW2 7143   1.419   6.727   4.997
 2082SOL     OW 7144   5.678   0.910   0.768
 2082SOL    HW1 7145   5.661   0.813   0.754
 2082SOL    HW2 7146   5.774   0.931   0.748
 2083SOL     OW 7147   3.778   4.975   6.590
 2083SOL    HW1 7148   3.769   4.922   6.505
 2083SOL    HW2 7149   3.874   5.000   6.603
 2084SOL     OW 7150   0.001   2.307   3.248
 2084SOL    HW1 7151   7.010   2.406   3.245
 2084SOL    HW2 7152   0.028   2.275   3.157
 2085SOL     OW 7153   4.876   0.910   6.102
 2085SOL    HW1 7154   4.899   0.926   6.198
 2085SOL    HW2 7155   4.776   0.904   6.093
 2086SOL     OW 7156   3.330   4.833   0.350
 2086SOL    HW1 7157   3.263   4.844   0.276
 2086SOL    HW2 7158   3.414   4.882   0.327
 2087SOL     OW 7159   5.783   6.748   2.381
 2087SOL    HW1 7160   5.687   6.719   2.379
 2087SOL    HW2 7161   5.833   6.688   2.444
 2088SOL     OW 7162   3.718   6.548   1.071
 2088SOL    HW1 7163   3.680   6.606   1.144
 2088SOL    HW2 7164   3.689   6.583   0.982
 2089SOL     OW 7165   4.881   1.472   0.125
 2089SOL    HW1 7166   4.882   1.444   0.029
 2089SOL    HW2 7167   4.959   1.532   0.143
 2090SOL     OW 7168   3.738   3.536   4.652
 2090SOL    HW1 7169   3.677   3.582   4.716
 2090SOL    HW2 7170   3.832   3.560   4.673
 2091SOL     OW 7171   0.458   5.775   0.502
 2091SOL    HW1 7172   0.543   5.733   0.471
 2091SOL    HW2 7173   0.411   5.715   0.566
 2092SOL     OW 7174   5.913   6.222   1.063
 2092SOL    HW1 7175   5.995   6.229   1.120
 2092SOL    HW2 7176   5.921   6.285   0.986
 2093SOL     OW 7177   1.086   2.835   2.040
 2093SOL    HW1 7178   1.148   2.761   2.014
 2093SOL    HW2 7179   1.005   2.797   2.084
 2094SOL     OW 7180   6.418   0.103   2.049
 2094SOL    HW1 7181   6.490   0.086   1.983
 2094SOL    HW2 7182   6.329   0.091   2.005
 2095SOL     OW 7183   5.834   6.219   4.329
 2095SOL    HW1 7184   5.808   6.136   4.378
 2095SOL    HW2 7185   5.931   6.239   4.345
 2096SOL     OW 7186   4.969   4.023   2.659
 2096SOL    HW1 7187   4.977   3.925   2.674
 2096SOL    HW2 7188   5.034   4.052   2.589
 2097SOL     OW 7189   0.274   2.325   7.007
 2097SOL    HW1 7190   0.322   2.279   0.059
 2097SOL    HW2 7191   0.214   2.395   0.021
 2098SOL     OW 7192   4.345   6.476   3.511
 2098SOL    HW1 7193   4.343   6.498   3.609
 2098SOL    HW2 7194   4.433   6.434   3.488
 2099SOL     OW 7195   2.753   1.260   4.530
 2099SOL    HW1 7196   2.814   1.215   4.464
 2099SOL    HW2 7197   2.765   1.360   4.523
 2100SOL     OW 7198   4.089   4.001   7.021
 2100SOL    HW1 7199   4.065   3.959   6.933
 2100SOL    HW2 7200   4.148   3.938   0.049
 2101SOL     OW 7201   0.245   0.269   3.076
 2101SOL    HW1 7202   0.307   0.191   3.074
 2101SOL    HW2 7203   0.295   0.353   3.056
 2102SOL     OW 7204   6.752   5.652   2.773
 2102SOL    HW1 7205   6.694   5.600   2.710
 2102SOL    HW2 7206   6.761   5.746   2.741
 2103SOL     OW 7207   3.511   3.211   6.914
 2103SOL    HW1 7208   3.515   3.269   6.995
 2103SOL    HW2 7209   3.552   3.122   6.935
 2104SOL     OW 7210   1.523   3.347   5.908
 2104SOL    HW1 7211   1.582   3.397   5.846
 2104SOL    HW2 7212   1.539   3.249   5.897
 2105SOL     OW 7213   5.362   5.201   2.806
 2105SOL    HW1 7214   5.350   5.103   2.792
 2105SOL    HW2 7215   5.272   5.245   2.806
 2106SOL     OW 7216   4.603   5.276   6.721
 2106SOL    HW1 7217   4.582   5.370   6.691
 2106SOL    HW2 7218   4.687   5.276   6.774
 2107SOL     OW 7219   3.933   4.111   5.752
 2107SOL    HW1 7220   3.896   4.188   5.805
 2107SOL    HW2 7221   3.942   4.138   5.656
 2108SOL     OW 7222   5.788   5.506   5.993
 2108SOL    HW1 7223   5.838   5.466   5.916
 2108SOL    HW2 7224   5.819   5.465   6.078
 2109SOL     OW 7225   5.713   5.835   2.863
 2109SOL    HW1 7226   5.685   5.887   2.782
 2109SOL    HW2 7227   5.663   5.869   2.943
 2110SOL     OW 7228   2.908   4.430   6.409
 2110SOL    HW1 7229   2.808   4.436   6.406
 2110SOL    HW2 7230   2.948   4.521   6.399
 2111SOL     OW 7231   0.817   2.650   6.424
 2111SOL    HW1 7232   0.863   2.634   6.337
 2111SOL    HW2 7233   0.818   2.566   6.479
 2112SOL     OW 7234   4.042   2.711   1.683
 2112SOL    HW1 7235   4.027   2.798   1.728
 2112SOL    HW2 7236   4.060   2.726   1.586
 2113SOL     OW 7237   1.459   0.387   2.810
 2113SOL    HW1 7238   1.439   0.447   2.888
 2113SOL    HW2 7239   1.444   0.436   2.725
 2114SOL     OW 7240   1.394   4.519   0.179
 2114SOL    HW1 7241   1.305   4.506   0.222
 2114SOL    HW2 7242   1.416   4.617   0.177
 2115SOL     OW 7243   2.135   5.077   2.759
 2115SOL    HW1 7244   2.084   5.005   2.806
 2115SOL    HW2 7245   2.233   5.057   2.763
 2116SOL     OW 7246   0.062   3.772   2.877
 2116SOL    HW1 7247   7.014   3.715   2.836
 2116SOL    HW2 7248   0.065   3.755   2.976
 2117SOL     OW 7249   7.020   4.417   1.693
 2117SOL    HW1 7250   0.081   4.403   1.640
 2117SOL    HW2 7251   6.946   4.362   1.655
 2118SOL     OW 7252   6.916   3.676   2.683
 2118SOL    HW1 7253   6.885   3.766   2.711
 2118SOL    HW2 7254   6.856   3.640   2.612
 2119SOL     OW 7255   2.282   5.712   1.207
 2119SOL    HW1 7256   2.190   5.718   1.246
 2119SOL    HW2 7257   2.278   5.671   1.116
 2120SOL     OW 7258   5.996   4.508   2.184
 2120SOL    HW1 7259   6.033   4.445   2.253
 2120SOL    HW2 7260   6.056   4.508   2.104
 2121SOL     OW 7261   0.577   5.263   5.315
 2121SOL    HW1 7262   0.567   5.198   5.239
 2121SOL    HW2 7263   0.661   5.241   5.366
 2122SOL     OW 7264   5.247   4.389   5.297
 2122SOL    HW1 7265   5.260   4.293   5.271
 2122SOL    HW2 7266   5.221   4.442   5.216
 2123SOL     OW 7267   0.065   4.395   2.545
 2123SOL    HW1 7268   0.159   4.380   2.513
 2123SOL    HW2 7269   0.061   4.381   2.644
 2124SOL     OW 7270   2.022   1.448   1.410
 2124SOL    HW1 7271   1.942   1.501   1.440
 2124SOL    HW2 7272   1.997   1.352   1.403
 2125SOL     OW 7273   2.090   0.586   6.914
 2125SOL    HW1 7274   2.084   0.685   6.915
 2125SOL    HW2 7275   2.089   0.551   7.008
 2126SOL     OW 7276   2.785   0.685   6.636
 2126SOL    HW1 7277   2.752   0.593   6.613
 2126SOL    HW2 7278   2.797   0.738   6.552
 2127SOL     OW 7279   6.029   3.129   4.174
 2127SOL    HW1 7280   6.052   3.215   4.220
 2127SOL    HW2 7281   5.966   3.148   4.099
 2128SOL     OW 7282   0.539   4.382   4.855
 2128SOL    HW1 7283   0.475   4.452   4.888
 2128SOL    HW2 7284   0.526   4.369   4.757
 2129SOL     OW 7285   4.685   2.994   5.376
 2129SOL    HW1 7286   4.683   2.910   5.430
 2129SOL    HW2 7287   4.596   3.039   5.379
 2130SOL     OW 7288   4.983   6.908   2.664
 2130SOL    HW1 7289   4.977   6.996   2.710
 2130SOL    HW2 7290   4.916   6.905   2.589
 2131SOL     OW 7291   0.209   0.664   0.699
 2131SOL    HW1 7292   0.144   0.684   0.772
 2131SOL    HW2 7293   0.295   0.712   0.716
 2132SOL     OW 7294   2.535   2.881   1.290
 2132SOL    HW1 7295   2.541   2.783   1.272
 2132SOL    HW2 7296   2.599   2.929   1.231
 2133SOL     OW 7297   3.008   2.291   6.188
 2133SOL    HW1 7298   3.014   2.353   6.266
 2133SOL    HW2 7299   3.099   2.277   6.149
 2134SOL     OW 7300   6.807   1.370   1.251
 2134SOL    HW1 7301   6.854   1.300   1.197
 2134SOL    HW2 7302   6.801   1.340   1.346
 2135SOL     OW 7303   1.027   4.095   4.700
 2135SOL    HW1 7304   1.100   4.049   4.750
 2135SOL    HW2 7305   0.954   4.030   4.681
 2136SOL     OW 7306   2.386   5.320   2.115
 2136SOL    HW1 7307   2.465   5.322   2.177
 2136SOL    HW2 7308   2.383   5.404   2.062
 2137SOL     OW 7309   3.244   5.788   4.991
 2137SOL    HW1 7310   3.166   5.807   4.932
 2137SOL    HW2 7311   3.250   5.690   5.008
 2138SOL     OW 7312   6.321   1.051   2.804
 2138SOL    HW1 7313   6.351   1.067   2.898
 2138SOL    HW2 7314   6.225   1.025   2.803
 2139SOL     OW 7315   3.345   0.617   5.522
 2139SOL    HW1 7316   3.315   0.597   5.428
 2139SOL    HW2 7317   3.419   0.684   5.520
 2140SOL     OW 7318   2.860   0.957   4.585
 2140SOL    HW1 7319   2.776   0.998   4.622
 2140SOL    HW2 7320   2.838   0.869   4.543
 2141SOL     OW 7321   6.138   4.195   2.441
 2141SOL    HW1 7322   6.170   4.224   2.531
 2141SOL    HW2 7323   6.217   4.176   2.382
 2142SOL     OW 7324   1.903   2.864   3.805
 2142SOL    HW1 7325   1.996   2.839   3.777
 2142SOL    HW2 7326   1.841   2.850   3.728
 2143SOL     OW 7327   2.502   5.279   1.463
 2143SOL    HW1 7328   2.597   5.248   1.463
 2143SOL    HW2 7329   2.447   5.220   1.521
 2144SOL     OW 7330   6.871   5.596   4.535
 2144SOL    HW1 7331   6.791   5.569   4.589
 2144SOL    HW2 7332   6.940   5.523   4.538
 2145SOL     OW 7333   4.268   6.603   4.264
 2145SOL    HW1 7334   4.348   6.549   4.288
 2145SOL    HW2 7335   4.224   6.638   4.347
 2146SOL     OW 7336   2.448   2.959   0.901
 2146SOL    HW1 7337   2.492   2.877   0.937
 2146SOL    HW2 7338   2.427   3.021   0.976
 2147SOL     OW 7339   6.644   1.664   5.686
 2147SOL    HW1 7340   6.626   1.575   5.643
 2147SOL    HW2 7341   6.582   1.676   5.764
 2148SOL     OW 7342   6.939   3.026   6.774
 2148SOL    HW1 7343   6.945   3.126   6.775
 2148SOL    HW2 7344   6.849   2.997   6.805
 2149SOL     OW 7345   0.607   0.302   0.295
 2149SOL    HW1 7346   0.550   0.367   0.247
 2149SOL    HW2 7347   0.622   0.334   0.389
 2150SOL     OW 7348   2.369   2.875   1.714
 2150SOL    HW1 7349   2.288   2.928   1.738
 2150SOL    HW2 7350   2.368   2.788   1.762
 2151SOL     OW 7351   0.687   6.606   6.919
 2151SOL    HW1 7352   0.611   6.648   6.871
 2151SOL    HW2 7353   0.667   6.509   6.934
 2152SOL     OW 7354   4.202   5.757   2.284
 2152SOL    HW1 7355   4.233   5.851   2.299
 2152SOL    HW2 7356   4.123   5.757   2.222
 2153SOL     OW 7357   4.361   0.788   2.519
 2153SOL    HW1 7358   4.454   0.801   2.552
 2153SOL    HW2 7359   4.364   0.746   2.428
 2154SOL     OW 7360   3.645   6.660   3.434
 2154SOL    HW1 7361   3.627   6.605   3.352
 2154SOL    HW2 7362   3.583   6.739   3.435
 2155SOL     OW 7363   4.233   6.732   0.763
 2155SOL    HW1 7364   4.137   6.704   0.762
 2155SOL    HW2 7365   4.243   6.815   0.818
 2156SOL     OW 7366   5.533   1.609   3.682
 2156SOL    HW1 7367   5.545   1.633   3.585
 2156SOL    HW2 7368   5.622   1.587   3.722
 2157SOL     OW 7369   4.281   4.976   4.070
 2157SOL    HW1 7370   4.238   5.019   3.991
 2157SOL    HW2 7371   4.237   4.889   4.089
 2158SOL     OW 7372   3.458   0.340   0.563
 2158SOL    HW1 7373   3.548   0.309   0.593
 2158SOL    HW2 7374   3.409   0.264   0.521
 2159SOL     OW 7375   1.490   0.573   6.001
 2159SOL    HW1 7376   1.402   0.611   5.970
 2159SOL    HW2 7377   1.556   0.647   6.012
 2160SOL     OW 7378   5.060   6.219   0.252
 2160SOL    HW1 7379   5.133   6.168   0.298
 2160SOL    HW2 7380   5.094   6.255   0.165
 2161SOL     OW 7381   1.478   3.970   2.227
 2161SOL    HW1 7382   1.550   3.911   2.192
 2161SOL    HW2 7383   1.468   3.956   2.326
 2162SOL     OW 7384   1.999   6.845   3.323
 2162SOL    HW1 7385   2.054   6.901   3.385
 2162SOL    HW2 7386   1.902   6.864   3.337
 2163SOL     OW 7387   1.378   3.135   0.714
 2163SOL    HW1 7388   1.412   3.044   0.737
 2163SOL    HW2 7389   1.447   3.183   0.660
 2164SOL     OW 7390   2.146   2.896   1.309
 2164SOL    HW1 7391   2.117   2.931   1.220
 2164SOL    HW2 7392   2.220   2.953   1.345
 2165SOL     OW 7393   6.994   2.200   3.506
 2165SOL    HW1 7394   0.062   2.202   3.547
 2165SOL    HW2 7395   7.000   2.220   3.409
 2166SOL     OW 7396   0.646   4.395   4.081
 2166SOL    HW1 7397   0.571   4.400   4.015
 2166SOL    HW2 7398   0.667   4.299   4.100
 2167SOL     OW 7399   1.841   2.724   4.044
 2167SOL    HW1 7400   1.835   2.796   3.975
 2167SOL    HW2 7401   1.750   2.705   4.081
 2168SOL     OW 7402   1.167   2.190   3.219
 2168SOL    HW1 7403   1.236   2.262   3.226
 2168SOL    HW2 7404   1.095   2.206   3.287
 2169SOL     OW 7405   0.208   0.350   1.451
 2169SOL    HW1 7406   0.304   0.355   1.423
 2169SOL    HW2 7407   0.190   0.419   1.521
 2170SOL     OW 7408   0.809   4.105   5.853
 2170SOL    HW1 7409   0.846   4.061   5.772
 2170SOL    HW2 7410   0.802   4.039   5.928
 2171SOL     OW 7411   0.070   5.128   1.278
 2171SOL    HW1 7412   0.135   5.056   1.254
 2171SOL    HW2 7413   0.108   5.183   1.352
 2172SOL     OW 7414   0.104   1.849   5.177
 2172SOL    HW1 7415   0.084   1.805   5.090
 2172SOL    HW2 7416   0.201   1.874   5.180
 2173SOL     OW 7417   5.842   0.527   5.160
 2173SOL    HW1 7418   5.774   0.469   5.117
 2173SOL    HW2 7419   5.916   0.471   5.198
 2174SOL     OW 7420   0.088   6.177   5.160
 2174SOL    HW1 7421   7.010   6.179   5.160
 2174SOL    HW2 7422   0.121   6.180   5.254
 2175SOL     OW 7423   2.881   3.048   5.567
 2175SOL    HW1 7424   2.891   2.991   5.486
 2175SOL    HW2 7425   2.945   3.125   5.562
 2176SOL     OW 7426   5.377   2.739   1.413
 2176SOL    HW1 7427   5.406   2.694   1.497
 2176SOL    HW2 7428   5.370   2.838   1.428
 2177SOL     OW 7429   0.115   1.048   3.346
 2177SOL    HW1 7430   0.072   0.999   3.270
 2177SOL    HW2 7431   0.090   1.004   3.432
 2178SOL     OW 7432   0.842   1.595   2.110
 2178SOL    HW1 7433   0.909   1.615   2.038
 2178SOL    HW2 7434   0.823   1.497   2.112
 2179SOL     OW 7435   2.260   4.587   6.764
 2179SOL    HW1 7436   2.231   4.496   6.796
 2179SOL    HW2 7437   2.360   4.594   6.773
 2180SOL     OW 7438   1.384   4.677   1.894
 2180SOL    HW1 7439   1.403   4.739   1.970
 2180SOL    HW2 7440   1.303   4.622   1.916
 2181SOL     OW 7441   5.129   4.765   4.291
 2181SOL    HW1 7442   5.221   4.749   4.325
 2181SOL    HW2 7443   5.075   4.682   4.297
 2182SOL     OW 7444   0.623   4.983   3.371
 2182SOL    HW1 7445   0.531   4.995   3.333
 2182SOL    HW2 7446   0.687   5.043   3.322
 2183SOL     OW 7447   3.545   3.329   0.131
 2183SOL    HW1 7448   3.634   3.371   0.113
 2183SOL    HW2 7449   3.543   3.295   0.225
 2184SOL     OW 7450   6.482   0.140   0.378
 2184SOL    HW1 7451   6.431   0.222   0.403
 2184SOL    HW2 7452   6.518   0.096   0.460
 2185SOL     OW 7453   1.048   1.635   6.504
 2185SOL    HW1 7454   0.967   1.659   6.451
 2185SOL    HW2 7455   1.063   1.703   6.576
 2186SOL     OW 7456   6.509   5.283   4.655
 2186SOL    HW1 7457   6.558   5.291   4.742
 2186SOL    HW2 7458   6.498   5.374   4.615
 2187SOL     OW 7459   0.789   5.700   3.138
 2187SOL    HW1 7460   0.696   5.675   3.167
 2187SOL    HW2 7461   0.785   5.781   3.080
 2188SOL     OW 7462   2.077   6.462   0.160
 2188SOL    HW1 7463   2.024   6.455   0.075
 2188SOL    HW2 7464   2.161   6.512   0.142
 2189SOL     OW 7465   2.185   1.331   2.189
 2189SOL    HW1 7466   2.101   1.375   2.156
 2189SOL    HW2 7467   2.216   1.264   2.122
 2190SOL     OW 7468   6.584   4.209   2.651
 2190SOL    HW1 7469   6.646   4.260   2.711
 2190SOL    HW2 7470   6.489   4.226   2.680
 2191SOL     OW 7471   2.222   0.873   5.635
 2191SOL    HW1 7472   2.193   0.839   5.546
 2191SOL    HW2 7473   2.186   0.813   5.707
 2192SOL     OW 7474   5.550   0.922   2.190
 2192SOL    HW1 7475   5.573   0.827   2.167
 2192SOL    HW2 7476   5.633   0.973   2.208
 2193SOL     OW 7477   6.830   6.747   6.378
 2193SOL    HW1 7478   6.738   6.735   6.340
 2193SOL    HW2 7479   6.829   6.723   6.475
 2194SOL     OW 7480   0.493   4.459   5.346
 2194SOL    HW1 7481   0.485   4.551   5.308
 2194SOL    HW2 7482   0.589   4.433   5.351
 2195SOL     OW 7483   0.765   5.452   6.314
 2195SOL    HW1 7484   0.794   5.357   6.305
 2195SOL    HW2 7485   0.816   5.509   6.250
 2196SOL     OW 7486   2.398   6.006   5.423
 2196SOL    HW1 7487   2.437   6.081   5.369
 2196SOL    HW2 7488   2.451   5.923   5.407
 2197SOL     OW 7489   3.068   3.161   5.801
 2197SOL    HW1 7490   3.089   3.071   5.762
 2197SOL    HW2 7491   3.151   3.199   5.842
 2198SOL     OW 7492   0.232   0.290   6.248
 2198SOL    HW1 7493   0.243   0.389   6.240
 2198SOL    HW2 7494   0.287   0.256   6.325
 2199SOL     OW 7495   4.923   6.708   4.156
 2199SOL    HW1 7496   4.966   6.625   4.119
 2199SOL    HW2 7497   4.881   6.760   4.082
 2200SOL     OW 7498   3.134   1.002   4.325
 2200SOL    HW1 7499   3.180   0.985   4.413
 2200SOL    HW2 7500   3.156   0.928   4.261
 2201SOL     OW 7501   6.681   2.724   3.272
 2201SOL    HW1 7502   6.734   2.640   3.276
 2201SOL    HW2 7503   6.586   2.703   3.246
 2202SOL     OW 7504   3.397   4.955   2.669
 2202SOL    HW1 7505   3.335   5.014   2.721
 2202SOL    HW2 7506   3.445   4.893   2.730
 2203SOL     OW 7507   2.261   3.905   0.874
 2203SOL    HW1 7508   2.291   3.814   0.844
 2203SOL    HW2 7509   2.280   3.916   0.971
 2204SOL     OW 7510   4.167   3.123   1.129
 2204SOL    HW1 7511   4.243   3.061   1.149
 2204SOL    HW2 7512   4.086   3.069   1.104
 2205SOL     OW 7513   1.377   6.553   0.706
 2205SOL    HW1 7514   1.450   6.529   0.770
 2205SOL    HW2 7515   1.392   6.505   0.619
 2206SOL     OW 7516   3.113   3.303   6.440
 2206SOL    HW1 7517   3.101   3.215   6.487
 2206SOL    HW2 7518   3.070   3.300   6.350
 2207SOL     OW 7519   4.226   5.601   0.908
 2207SOL    HW1 7520   4.164   5.523   0.910
 2207SOL    HW2 7521   4.240   5.634   1.002
 2208SOL     OW 7522   1.084   5.818   3.682
 2208SOL    HW1 7523   1.024   5.767   3.620
 2208SOL    HW2 7524   1.139   5.883   3.630
 2209SOL     OW 7525   2.897   5.334   5.053
 2209SOL    HW1 7526   2.841   5.360   4.974
 2209SOL    HW2 7527   2.858   5.252   5.096
 2210SOL     OW 7528   5.908   6.289   1.541
 2210SOL    HW1 7529   5.877   6.379   1.570
 2210SOL    HW2 7530   5.838   6.221   1.564
 2211SOL     OW 7531   6.171   0.314   0.616
 2211SOL    HW1 7532   6.115   0.391   0.648
 2211SOL    HW2 7533   6.263   0.345   0.596
 2212SOL     OW 7534   2.340   6.091   6.993
 2212SOL    HW1 7535   2.423   6.053   6.955
 2212SOL    HW2 7536   2.327   6.184   6.959
 2213SOL     OW 7537   4.392   2.410   4.526
 2213SOL    HW1 7538   4.458   2.469   4.481
 2213SOL    HW2 7539   4.380   2.439   4.621
 2214SOL     OW 7540   4.169   2.803   5.740
 2214SOL    HW1 7541   4.138   2.895   5.760
 2214SOL    HW2 7542   4.128   2.771   5.655
 2215SOL     OW 7543   5.402   1.522   6.584
 2215SOL    HW1 7544   5.346   1.510   6.667
 2215SOL    HW2 7545   5.427   1.433   6.548
 2216SOL     OW 7546   0.546   5.899   6.165
 2216SOL    HW1 7547   0.545   5.872   6.261
 2216SOL    HW2 7548   0.641   5.909   6.135
 2217SOL     OW 7549   4.324   0.717   3.753
 2217SOL    HW1 7550   4.259   0.645   3.730
 2217SOL    HW2 7551   4.274   0.801   3.777
 2218SOL     OW 7552   0.895   5.557   6.811
 2218SOL    HW1 7553   0.827   5.614   6.765
 2218SOL    HW2 7554   0.849   5.492   6.871
 2219SOL     OW 7555   5.857   1.495   0.661
 2219SOL    HW1 7556   5.873   1.463   0.568
 2219SOL    HW2 7557   5.920   1.571   0.681
 2220SOL     OW 7558   1.926   6.238   5.292
 2220SOL    HW1 7559   1.944   6.225   5.194
 2220SOL    HW2 7560   1.989   6.307   5.328
 2221SOL     OW 7561   6.371   1.435   4.752
 2221SOL    HW1 7562   6.344   1.343   4.722
 2221SOL    HW2 7563   6.314   1.463   4.829
 2222SOL     OW 7564   6.194   6.927   0.438
 2222SOL    HW1 7565   6.177   0.002   0.427
 2222SOL    HW2 7566   6.217   6.886   0.350
 2223SOL     OW 7567   6.719   0.981   5.729
 2223SOL    HW1 7568   6.628   0.991   5.769
 2223SOL    HW2 7569   6.770   1.066   5.743
 2224SOL     OW 7570   5.541   3.572   1.909
 2224SOL    HW1 7571   5.592   3.636   1.966
 2224SOL    HW2 7572   5.462   3.538   1.960
 2225SOL     OW 7573   0.182   6.492   3.911
 2225SOL    HW1 7574   0.275   6.476   3.879
 2225SOL    HW2 7575   0.164   6.591   3.914
 2226SOL     OW 7576   3.670   5.134   0.465
 2226SOL    HW1 7577   3.601   5.207   0.460
 2226SOL    HW2 7578   3.643   5.068   0.535
 2227SOL     OW 7579   4.192   2.409   1.448
 2227SOL    HW1 7580   4.163   2.453   1.533
 2227SOL    HW2 7581   4.238   2.477   1.390
 2228SOL     OW 7582   4.494   5.440   0.316
 2228SOL    HW1 7583   4.444   5.526   0.321
 2228SOL    HW2 7584   4.592   5.458   0.327
 2229SOL     OW 7585   3.285   3.622   4.823
 2229SOL    HW1 7586   3.224   3.697   4.799
 2229SOL    HW2 7587   3.251   3.537   4.782
 2230SOL     OW 7588   5.131   6.284   1.447
 2230SOL    HW1 7589   5.035   6.289   1.423
 2230SOL    HW2 7590   5.187   6.293   1.365
 2231SOL     OW 7591   0.700   1.337   6.485
 2231SOL    HW1 7592   0.743   1.322   6.575
 2231SOL    HW2 7593   0.770   1.337   6.414
 2232SOL     OW 7594   1.062   0.781   4.933
 2232SOL    HW1 7595   1.069   0.786   5.033
 2232SOL    HW2 7596   1.142   0.734   4.897
 2233SOL     OW 7597   3.009   3.088   0.684
 2233SOL    HW1 7598   3.097   3.097   0.731
 2233SOL    HW2 7599   3.010   3.006   0.627
 2234SOL     OW 7600   3.468   1.520   0.826
 2234SOL    HW1 7601   3.419   1.444   0.870
 2234SOL    HW2 7602   3.436   1.607   0.865
 2235SOL     OW 7603   2.708   0.315   2.584
 2235SOL    HW1 7604   2.793   0.310   2.533
 2235SOL    HW2 7605   2.653   0.233   2.567
 2236SOL     OW 7606   2.167   3.935   6.085
 2236SOL    HW1 7607   2.162   4.035   6.082
 2236SOL    HW2 7608   2.142   3.904   6.177
 2237SOL     OW 7609   6.143   5.508   4.788
 2237SOL    HW1 7610   6.108   5.498   4.881
 2237SOL    HW2 7611   6.068   5.533   4.727
 2238SOL     OW 7612   4.674   4.791   2.717
 2238SOL    HW1 7613   4.648   4.866   2.778
 2238SOL    HW2 7614   4.593   4.740   2.690
 2239SOL     OW 7615   3.992   5.529   3.929
 2239SOL    HW1 7616   3.954   5.440   3.905
 2239SOL    HW2 7617   4.083   5.539   3.889
 2240SOL     OW 7618   3.885   5.827   2.549
 2240SOL    HW1 7619   3.825   5.877   2.611
 2240SOL    HW2 7620   3.905   5.737   2.588
 2241SOL     OW 7621   6.772   6.548   1.636
 2241SOL    HW1 7622   6.811   6.493   1.562
 2241SOL    HW2 7623   6.762   6.491   1.718
 2242SOL     OW 7624   5.461   3.135   2.876
 2242SOL    HW1 7625   5.552   3.142   2.916
 2242SOL    HW2 7626   5.412   3.222   2.890
 2243SOL     OW 7627   2.725   5.895   0.256
 2243SOL    HW1 7628   2.778   5.820   0.217
 2243SOL    HW2 7629   2.768   5.982   0.233
 2244SOL     OW 7630   2.999   0.131   1.142
 2244SOL    HW1 7631   3.071   0.117   1.073
 2244SOL    HW2 7632   2.987   0.047   1.194
 2245SOL     OW 7633   0.257   1.436   0.847
 2245SOL    HW1 7634   0.301   1.353   0.813
 2245SOL    HW2 7635   0.162   1.416   0.872
 2246SOL     OW 7636   1.902   0.290   3.813
 2246SOL    HW1 7637   1.860   0.278   3.723
 2246SOL    HW2 7638   1.891   0.385   3.842
 2247SOL     OW 7639   3.030   3.941   2.815
 2247SOL    HW1 7640   2.986   3.859   2.778
 2247SOL    HW2 7641   3.066   3.996   2.739
 2248SOL     OW 7642   6.481   4.217   4.323
 2248SOL    HW1 7643   6.437   4.258   4.403
 2248SOL    HW2 7644   6.537   4.140   4.352
 2249SOL     OW 7645   3.327   6.642   3.732
 2249SOL    HW1 7646   3.342   6.576   3.658
 2249SOL    HW2 7647   3.266   6.601   3.800
 2250SOL     OW 7648   3.629   3.744   5.543
 2250SOL    HW1 7649   3.718   3.790   5.548
 2250SOL    HW2 7650   3.587   3.762   5.454
 2251SOL     OW 7651   5.132   6.845   6.308
 2251SOL    HW1 7652   5.222   6.884   6.330
 2251SOL    HW2 7653   5.105   6.873   6.216
 2252SOL     OW 7654   5.476   1.737   2.885
 2252SOL    HW1 7655   5.457   1.797   2.807
 2252SOL    HW2 7656   5.550   1.777   2.939
 2253SOL     OW 7657   0.538   3.390   0.204
 2253SOL    HW1 7658   0.477   3.382   0.283
 2253SOL    HW2 7659   0.515   3.320   0.137
 2254SOL     OW 7660   3.702   3.732   3.101
 2254SOL    HW1 7661   3.659   3.641   3.101
 2254SOL    HW2 7662   3.792   3.726   3.144
 2255SOL     OW 7663   2.757   4.060   5.903
 2255SOL    HW1 7664   2.775   4.110   5.988
 2255SOL    HW2 7665   2.826   4.085   5.835
 2256SOL     OW 7666   4.481   6.329   2.201
 2256SOL    HW1 7667   4.381   6.335   2.211
 2256SOL    HW2 7668   4.504   6.251   2.143
 2257SOL     OW 7669   0.289   1.864   4.709
 2257SOL    HW1 7670   0.347   1.917   4.648
 2257SOL    HW2 7671   0.308   1.890   4.804
 2258SOL     OW 7672   2.306   6.343   4.040
 2258SOL    HW1 7673   2.352   6.296   3.965
 2258SOL    HW2 7674   2.323   6.441   4.033
 2259SOL     OW 7675   5.784   2.729   4.803
 2259SOL    HW1 7676   5.814   2.656   4.741
 2259SOL    HW2 7677   5.854   2.744   4.873
 2260SOL     OW 7678   0.900   3.282   1.059
 2260SOL    HW1 7679   0.958   3.209   1.023
 2260SOL    HW2 7680   0.957   3.347   1.110
 2261SOL     OW 7681   6.315   3.800   0.836
 2261SOL    HW1 7682   6.235   3.853   0.807
 2261SOL    HW2 7683   6.385   3.803   0.765
 2262SOL     OW 7684   6.528   0.757   3.296
 2262SOL    HW1 7685   6.496   0.723   3.384
 2262SOL    HW2 7686   6.603   0.700   3.264
 2263SOL     OW 7687   1.962   5.712   1.142
 2263SOL    HW1 7688   1.942   5.733   1.046
 2263SOL    HW2 7689   1.910   5.630   1.170
 2264SOL     OW 7690   2.654   6.623   6.562
 2264SOL    HW1 7691   2.592   6.699   6.581
 2264SOL    HW2 7692   2.713   6.647   6.484
 2265SOL     OW 7693   1.389   0.316   4.248
 2265SOL    HW1 7694   1.403   0.395   4.307
 2265SOL    HW2 7695   1.371   0.235   4.304
 2266SOL     OW 7696   5.018   1.382   6.174
 2266SOL    HW1 7697   5.075   1.349   6.099
 2266SOL    HW2 7698   5.012   1.482   6.171
 2267SOL     OW 7699   4.666   2.698   4.742
 2267SOL    HW1 7700   4.668   2.766   4.815
 2267SOL    HW2 7701   4.756   2.693   4.698
 2268SOL     OW 7702   6.287   3.404   6.572
 2268SOL    HW1 7703   6.226   3.412   6.493
 2268SOL    HW2 7704   6.256   3.465   6.645
 2269SOL     OW 7705   0.526   3.375   5.185
 2269SOL    HW1 7706   0.427   3.387   5.197
 2269SOL    HW2 7707   0.558   3.303   5.247
 2270SOL     OW 7708   4.304   3.141   6.227
 2270SOL    HW1 7709   4.330   3.224   6.177
 2270SOL    HW2 7710   4.232   3.163   6.292
 2271SOL     OW 7711   5.744   4.478   6.872
 2271SOL    HW1 7712   5.768   4.470   6.775
 2271SOL    HW2 7713   5.827   4.486   6.926
 2272SOL     OW 7714   6.766   1.646   6.377
 2272SOL    HW1 7715   6.699   1.675   6.446
 2272SOL    HW2 7716   6.845   1.707   6.378
 2273SOL     OW 7717   1.674   2.219   2.308
 2273SOL    HW1 7718   1.660   2.134   2.257
 2273SOL    HW2 7719   1.586   2.253   2.342
 2274SOL     OW 7720   0.654   1.810   6.823
 2274SOL    HW1 7721   0.657   1.741   6.750
 2274SOL    HW2 7722   0.596   1.886   6.794
 2275SOL     OW 7723   5.955   5.207   2.336
 2275SOL    HW1 7724   5.988   5.262   2.260
 2275SOL    HW2 7725   5.987   5.247   2.422
 2276SOL     OW 7726   1.541   6.395   1.208
 2276SOL    HW1 7727   1.625   6.449   1.207
 2276SOL    HW2 7728   1.474   6.439   1.268
 2277SOL     OW 7729   3.386   3.825   4.069
 2277SOL    HW1 7730   3.484   3.835   4.085
 2277SOL    HW2 7731   3.340   3.809   4.157
 2278SOL     OW 7732   6.829   2.959   4.087
 2278SOL    HW1 7733   6.753   3.019   4.060
 2278SOL    HW2 7734   6.792   2.871   4.117
 2279SOL     OW 7735   6.783   6.150   5.974
 2279SOL    HW1 7736   6.797   6.063   6.021
 2279SOL    HW2 7737   6.870   6.200   5.970
 2280SOL     OW 7738   6.291   0.511   4.958
 2280SOL    HW1 7739   6.276   0.538   4.863
 2280SOL    HW2 7740   6.227   0.560   5.017
 2281SOL     OW 7741   4.467   0.852   1.772
 2281SOL    HW1 7742   4.410   0.834   1.692
 2281SOL    HW2 7743   4.562   0.831   1.750
 2282SOL     OW 7744   4.662   6.301   5.489
 2282SOL    HW1 7745   4.647   6.350   5.403
 2282SOL    HW2 7746   4.659   6.365   5.565
 2283SOL     OW 7747   1.636   0.432   2.400
 2283SOL    HW1 7748   1.666   0.364   2.467
 2283SOL    HW2 7749   1.694   0.513   2.406
 2284SOL     OW 7750   0.877   3.655   5.541
 2284SOL    HW1 7751   0.805   3.621   5.481
 2284SOL    HW2 7752   0.928   3.578   5.580
 2285SOL     OW 7753   1.146   3.574   6.954
 2285SOL    HW1 7754   1.054   3.607   6.971
 2285SOL    HW2 7755   1.142   3.493   6.896
 2286SOL     OW 7756   5.160   6.793   3.173
 2286SOL    HW1 7757   5.147   6.736   3.254
 2286SOL    HW2 7758   5.076   6.792   3.118
 2287SOL     OW 7759   2.635   1.083   3.553
 2287SOL    HW1 7760   2.547   1.130   3.551
 2287SOL    HW2 7761   2.708   1.150   3.567
 2288SOL     OW 7762   0.649   5.420   3.782
 2288SOL    HW1 7763   0.634   5.480   3.861
 2288SOL    HW2 7764   0.741   5.381   3.787
 2289SOL     OW 7765   6.692   4.567   1.256
 2289SOL    HW1 7766   6.598   4.566   1.222
 2289SOL    HW2 7767   6.694   4.603   1.349
 2290SOL     OW 7768   0.858   4.268   1.049
 2290SOL    HW1 7769   0.815   4.314   1.127
 2290SOL    HW2 7770   0.884   4.336   0.981
 2291SOL     OW 7771   2.967   1.967   5.771
 2291SOL    HW1 7772   2.873   1.973   5.739
 2291SOL    HW2 7773   2.983   2.036   5.842
 2292SOL     OW 7774   1.336   1.518   5.044
 2292SOL    HW1 7775   1.255   1.501   5.099
 2292SOL    HW2 7776   1.408   1.557   5.102
 2293SOL     OW 7777   5.650   5.839   1.782
 2293SOL    HW1 7778   5.708   5.897   1.839
 2293SOL    HW2 7779   5.654   5.745   1.815
 2294SOL     OW 7780   3.680   6.761   0.668
 2294SOL    HW1 7781   3.657   6.853   0.701
 2294SOL    HW2 7782   3.774   6.761   0.632
 2295SOL     OW 7783   0.522   1.959   2.480
 2295SOL    HW1 7784   0.439   1.948   2.535
 2295SOL    HW2 7785   0.591   2.009   2.532
 2296SOL     OW 7786   3.380   6.886   0.840
 2296SOL    HW1 7787   3.469   6.840   0.833
 2296SOL    HW2 7788   3.308   6.824   0.811
 2297SOL     OW 7789   4.025   4.121   5.505
 2297SOL    HW1 7790   4.111   4.093   5.547
 2297SOL    HW2 7791   4.037   4.134   5.407
 2298SOL     OW 7792   3.684   2.598   1.061
 2298SOL    HW1 7793   3.639   2.678   1.101
 2298SOL    HW2 7794   3.617   2.545   1.009
 2299SOL     OW 7795   5.407   0.006   6.988
 2299SOL    HW1 7796   5.326   7.003   0.017
 2299SOL    HW2 7797   5.484   6.973   7.016
 2300SOL     OW 7798   1.553   5.298   1.537
 2300SOL    HW1 7799   1.575   5.242   1.457
 2300SOL    HW2 7800   1.637   5.334   1.577
 2301SOL     OW 7801   3.127   3.468   3.138
 2301SOL    HW1 7802   3.202   3.530   3.161
 2301SOL    HW2 7803   3.141   3.432   3.045
 2302SOL     OW 7804   4.185   6.493   2.495
 2302SOL    HW1 7805   4.178   6.581   2.542
 2302SOL    HW2 7806   4.261   6.441   2.533
 2303SOL     OW 7807   1.432   3.640   5.197
 2303SOL    HW1 7808   1.380   3.651   5.282
 2303SOL    HW2 7809   1.449   3.543   5.180
 2304SOL     OW 7810   2.644   0.501   3.836
 2304SOL    HW1 7811   2.563   0.546   3.797
 2304SOL    HW2 7812   2.717   0.567   3.847
 2305SOL     OW 7813   4.012   5.753   2.968
 2305SOL    HW1 7814   4.005   5.691   2.890
 2305SOL    HW2 7815   3.922   5.764   3.010
 2306SOL     OW 7816   2.447   5.479   1.663
 2306SOL    HW1 7817   2.406   5.536   1.593
 2306SOL    HW2 7818   2.518   5.422   1.622
 2307SOL     OW 7819   2.274   4.572   2.878
 2307SOL    HW1 7820   2.337   4.508   2.834
 2307SOL    HW2 7821   2.257   4.650   2.818
 2308SOL     OW 7822   0.968   0.728   6.286
 2308SOL    HW1 7823   0.962   0.828   6.276
 2308SOL    HW2 7824   0.913   0.684   6.215
 2309SOL     OW 7825   2.909   6.082   0.138
 2309SOL    HW1 7826   2.867   6.162   0.096
 2309SOL    HW2 7827   2.923   6.011   0.069
 2310SOL     OW 7828   6.772   6.815   1.008
 2310SOL    HW1 7829   6.814   6.905   1.012
 2310SOL    HW2 7830   6.673   6.824   0.996
 2311SOL     OW 7831   2.505   0.089   2.637
 2311SOL    HW1 7832   2.500   0.028   2.716
 2311SOL    HW2 7833   2.432   0.157   2.642
 2312SOL     OW 7834   2.847   6.742   3.498
 2312SOL    HW1 7835   2.847   6.658   3.444
 2312SOL    HW2 7836   2.823   6.819   3.439
 2313SOL     OW 7837   4.568   5.093   1.905
 2313SOL    HW1 7838   4.492   5.053   1.855
 2313SOL    HW2 7839   4.635   5.130   1.840
 2314SOL     OW 7840   5.623   0.641   3.188
 2314SOL    HW1 7841   5.617   0.737   3.215
 2314SOL    HW2 7842   5.718   0.611   3.194
 2315SOL     OW 7843   5.277   3.441   5.319
 2315SOL    HW1 7844   5.214   3.386   5.262
 2315SOL    HW2 7845   5.330   3.380   5.378
 2316SOL     OW 7846   2.460   1.466   5.458
 2316SOL    HW1 7847   2.536   1.496   5.401
 2316SOL    HW2 7848   2.376   1.511   5.427
 2317SOL     OW 7849   6.481   6.626   3.753
 2317SOL    HW1 7850   6.544   6.677   3.812
 2317SOL    HW2 7851   6.387   6.647   3.779
 2318SOL     OW 7852   2.105   3.462   4.279
 2318SOL    HW1 7853   2.137   3.373   4.246
 2318SOL    HW2 7854   2.077   3.454   4.375
 2319SOL     OW 7855   3.383   5.226   4.726
 2319SOL    HW1 7856   3.328   5.149   4.758
 2319SOL    HW2 7857   3.326   5.308   4.722
 2320SOL     OW 7858   1.476   2.500   5.416
 2320SOL    HW1 7859   1.573   2.509   5.394
 2320SOL    HW2 7860   1.462   2.518   5.514
 2321SOL     OW 7861   2.738   5.462   6.339
 2321SOL    HW1 7862   2.745   5.487   6.242
 2321SOL    HW2 7863   2.642   5.450   6.363
 2322SOL     OW 7864   1.848   4.413   2.031
 2322SOL    HW1 7865   1.929   4.435   1.977
 2322SOL    HW2 7866   1.775   4.381   1.970
 2323SOL     OW 7867   3.339   4.799   1.808
 2323SOL    HW1 7868   3.409   4.729   1.823
 2323SOL    HW2 7869   3.267   4.763   1.750
 2324SOL     OW 7870   6.784   5.614   0.904
 2324SOL    HW1 7871   6.743   5.672   0.833
 2324SOL    HW2 7872   6.736   5.630   0.990
 2325SOL     OW 7873   0.131   4.629   1.418
 2325SOL    HW1 7874   0.127   4.537   1.457
 2325SOL    HW2 7875   0.058   4.685   1.458
 2326SOL     OW 7876   1.634   6.265   6.501
 2326SOL    HW1 7877   1.642   6.321   6.418
 2326SOL    HW2 7878   1.672   6.174   6.483
 2327SOL     OW 7879   0.392   1.417   3.341
 2327SOL    HW1 7880   0.309   1.367   3.317
 2327SOL    HW2 7881   0.373   1.515   3.339
 2328SOL     OW 7882   1.447   1.980   2.499
 2328SOL    HW1 7883   1.389   1.957   2.420
 2328SOL    HW2 7884   1.406   2.057   2.549
 2329SOL     OW 7885   0.990   4.524   4.692
 2329SOL    HW1 7886   0.946   4.510   4.604
 2329SOL    HW2 7887   0.960   4.454   4.756
 2330SOL     OW 7888   0.400   2.786   0.652
 2330SOL    HW1 7889   0.497   2.809   0.655
 2330SOL    HW2 7890   0.378   2.724   0.727
 2331SOL     OW 7891   3.265   5.363   6.824
 2331SOL    HW1 7892   3.319   5.351   6.741
 2331SOL    HW2 7893   3.172   5.392   6.800
 2332SOL     OW 7894   0.135   0.112   5.661
 2332SOL    HW1 7895   0.219   0.153   5.698
 2332SOL    HW2 7896   0.063   0.181   5.657
 2333SOL     OW 7897   6.917   5.176   2.901
 2333SOL    HW1 7898   6.971   5.260   2.895
 2333SOL    HW2 7899   6.869   5.174   2.989
 2334SOL     OW 7900   1.291   1.259   6.882
 2334SOL    HW1 7901   1.376   1.310   6.899
 2334SOL    HW2 7902   1.213   1.315   6.909
 2335SOL     OW 7903   5.763   0.209   3.526
 2335SOL    HW1 7904   5.852   0.171   3.550
 2335SOL    HW2 7905   5.706   0.215   3.608
 2336SOL     OW 7906   3.351   1.150   4.273
 2336SOL    HW1 7907   3.255   1.123   4.284
 2336SOL    HW2 7908   3.391   1.102   4.195
 2337SOL     OW 7909   4.030   0.948   1.722
 2337SOL    HW1 7910   4.029   0.856   1.684
 2337SOL    HW2 7911   4.040   0.944   1.822
 2338SOL     OW 7912   0.948   3.228   4.259
 2338SOL    HW1 7913   0.941   3.156   4.329
 2338SOL    HW2 7914   1.035   3.217   4.210
 2339SOL     OW 7915   3.234   4.109   3.277
 2339SOL    HW1 7916   3.323   4.140   3.243
 2339SOL    HW2 7917   3.163   4.130   3.210
 2340SOL     OW 7918   0.686   4.668   6.811
 2340SOL    HW1 7919   0.692   4.580   6.764
 2340SOL    HW2 7920   0.777   4.695   6.844
 2341SOL     OW 7921   2.947   4.838   2.058
 2341SOL    HW1 7922   2.896   4.753   2.067
 2341SOL    HW2 7923   2.970   4.853   1.961
 2342SOL     OW 7924   1.912   0.018   4.862
 2342SOL    HW1 7925   1.866   0.082   4.801
 2342SOL    HW2 7926   2.008   0.011   4.835
 2343SOL     OW 7927   1.659   5.326   2.700
 2343SOL    HW1 7928   1.629   5.269   2.776
 2343SOL    HW2 7929   1.580   5.364   2.653
 2344SOL     OW 7930   0.229   5.774   6.828
 2344SOL    HW1 7931   0.215   5.683   6.866
 2344SOL    HW2 7932   0.225   5.842   6.901
 2345SOL     OW 7933   2.464   5.455   4.761
 2345SOL    HW1 7934   2.504   5.428   4.673
 2345SOL    HW2 7935   2.433   5.374   4.810
 2346SOL     OW 7936   3.880   3.226   5.748
 2346SOL    HW1 7937   3.837   3.300   5.696
 2346SOL    HW2 7938   3.810   3.164   5.782
 2347SOL     OW 7939   2.485   1.968   1.384
 2347SOL    HW1 7940   2.390   1.997   1.399
 2347SOL    HW2 7941   2.547   2.041   1.410
 2348SOL     OW 7942   1.588   6.212   3.590
 2348SOL    HW1 7943   1.547   6.303   3.592
 2348SOL    HW2 7944   1.636   6.196   3.677
 2349SOL     OW 7945   0.973   4.639   6.160
 2349SOL    HW1 7946   1.018   4.712   6.108
 2349SOL    HW2 7947   0.950   4.564   6.099
 2350SOL     OW 7948   5.941   5.061   5.981
 2350SOL    HW1 7949   5.864   5.090   5.923
 2350SOL    HW2 7950   6.019   5.036   5.924
 2351SOL     OW 7951   3.098   4.900   4.148
 2351SOL    HW1 7952   3.100   5.000   4.150
 2351SOL    HW2 7953   3.096   4.865   4.242
 2352SOL     OW 7954   0.587   3.285   2.389
 2352SOL    HW1 7955   0.522   3.271   2.463
 2352SOL    HW2 7956   0.537   3.304   2.304
 2353SOL     OW 7957   3.442   4.920   4.324
 2353SOL    HW1 7958   3.453   4.914   4.225
 2353SOL    HW2 7959   3.530   4.902   4.368
 2354SOL     OW 7960   2.250   2.214   4.236
 2354SOL    HW1 7961   2.333   2.180   4.192
 2354SOL    HW2 7962   2.184   2.139   4.245
 2355SOL     OW 7963   2.021   6.649   5.799
 2355SOL    HW1 7964   2.021   6.651   5.699
 2355SOL    HW2 7965   2.113   6.631   5.833
 2356SOL     OW 7966   1.374   3.105   6.247
 2356SOL    HW1 7967   1.283   3.101   6.288
 2356SOL    HW2 7968   1.427   3.179   6.289
 2357SOL     OW 7969   4.340   0.660   2.295
 2357SOL    HW1 7970   4.356   0.563   2.315
 2357SOL    HW2 7971   4.333   0.672   2.196
 2358SOL     OW 7972   3.356   5.488   5.444
 2358SOL    HW1 7973   3.439   5.539   5.418
 2358SOL    HW2 7974   3.282   5.512   5.382
 2359SOL     OW 7975   0.158   0.568   5.481
 2359SOL    HW1 7976   0.235   0.631   5.496
 2359SOL    HW2 7977   0.072   0.620   5.483
 2360SOL     OW 7978   5.710   3.597   6.904
 2360SOL    HW1 7979   5.717   3.681   6.849
 2360SOL    HW2 7980   5.659   3.616   6.987
 2361SOL     OW 7981   2.352   0.411   6.640
 2361SOL    HW1 7982   2.398   0.500   6.637
 2361SOL    HW2 7983   2.285   0.407   6.565
 2362SOL     OW 7984   2.512   6.040   3.976
 2362SOL    HW1 7985   2.427   5.986   3.976
 2362SOL    HW2 7986   2.547   6.047   4.069
 2363SOL     OW 7987   3.702   1.952   4.416
 2363SOL    HW1 7988   3.687   1.938   4.514
 2363SOL    HW2 7989   3.641   2.024   4.383
 2364SOL     OW 7990   0.781   2.789   2.088
 2364SOL    HW1 7991   0.779   2.718   2.017
 2364SOL    HW2 7992   0.827   2.754   2.169
 2365SOL     OW 7993   6.596   2.263   6.753
 2365SOL    HW1 7994   6.677   2.319   6.768
 2365SOL    HW2 7995   6.566   2.223   6.840
 2366SOL     OW 7996   2.161   5.735   6.727
 2366SOL    HW1 7997   2.250   5.766   6.692
 2366SOL    HW2 7998   2.102   5.814   6.742
 2367SOL     OW 7999   2.178   3.689   1.174
 2367SOL    HW1 8000   2.203   3.595   1.153
 2367SOL    HW2 8001   2.103   3.718   1.114
 2368SOL     OW 8002   5.405   6.608   4.378
 2368SOL    HW1 8003   5.375   6.535   4.317
 2368SOL    HW2 8004   5.446   6.569   4.460
 2369SOL     OW 8005   1.602   0.687   4.531
 2369SOL    HW1 8006   1.609   0.745   4.612
 2369SOL    HW2 8007   1.604   0.745   4.449
 2370SOL     OW 8008   5.591   3.201   0.043
 2370SOL    HW1 8009   5.544   3.283   0.011
 2370SOL    HW2 8010   5.639   3.159   6.989
 2371SOL     OW 8011   1.603   6.795   1.737
 2371SOL    HW1 8012   1.584   6.889   1.709
 2371SOL    HW2 8013   1.670   6.794   1.811
 2372SOL     OW 8014   6.716   3.024   2.051
 2372SOL    HW1 8015   6.792   2.996   2.111
 2372SOL    HW2 8016   6.698   3.121   2.062
 2373SOL     OW 8017   0.572   3.356   5.725
 2373SOL    HW1 8018   0.660   3.350   5.677
 2373SOL    HW2 8019   0.516   3.427   5.682
 2374SOL     OW 8020   6.264   1.609   4.360
 2374SOL    HW1 8021   6.254   1.646   4.452
 2374SOL    HW2 8022   6.319   1.672   4.304
 2375SOL     OW 8023   3.441   6.200   5.011
 2375SOL    HW1 8024   3.456   6.111   4.968
 2375SOL    HW2 8025   3.494   6.205   5.096
 2376SOL     OW 8026   6.552   3.228   4.201
 2376SOL    HW1 8027   6.506   3.238   4.113
 2376SOL    HW2 8028   6.651   3.230   4.187
 2377SOL     OW 8029   3.744   4.121   4.023
 2377SOL    HW1 8030   3.668   4.174   4.061
 2377SOL    HW2 8031   3.797   4.081   4.098
 2378SOL     OW 8032   4.962   1.695   0.353
 2378SOL    HW1 8033   4.995   1.700   0.448
 2378SOL    HW2 8034   4.864   1.675   0.353
 2379SOL     OW 8035   0.259   1.098   0.455
 2379SOL    HW1 8036   0.306   1.029   0.400
 2379SOL    HW2 8037   0.195   1.149   0.399
 2380SOL     OW 8038   0.269   2.155   6.652
 2380SOL    HW1 8039   0.293   2.242   6.608
 2380SOL    HW2 8040   0.185   2.166   6.704
 2381SOL     OW 8041   1.763   5.365   4.366
 2381SOL    HW1 8042   1.858   5.389   4.381
 2381SOL    HW2 8043   1.739   5.285   4.421
 2382SOL     OW 8044   1.937   3.617   4.627
 2382SOL    HW1 8045   1.946   3.522   4.597
 2382SOL    HW2 8046   2.023   3.647   4.668
 2383SOL     OW 8047   5.197   6.742   0.727
 2383SOL    HW1 8048   5.111   6.767   0.682
 2383SOL    HW2 8049   5.274   6.780   0.675
 2384SOL     OW 8050   6.038   0.998   2.781
 2384SOL    HW1 8051   5.969   1.057   2.738
 2384SOL    HW2 8052   6.018   0.903   2.761
 2385SOL     OW 8053   0.936   0.557   0.087
 2385SOL    HW1 8054   1.024   0.513   0.102
 2385SOL    HW2 8055   0.869   0.489   0.056
 2386SOL     OW 8056   5.502   6.279   4.529
 2386SOL    HW1 8057   5.512   6.266   4.430
 2386SOL    HW2 8058   5.530   6.372   4.554
 2387SOL     OW 8059   1.352   1.800   4.198
 2387SOL    HW1 8060   1.320   1.888   4.234
 2387SOL    HW2 8061   1.433   1.771   4.247
 2388SOL     OW 8062   0.242   2.103   3.983
 2388SOL    HW1 8063   0.159   2.110   3.928
 2388SOL    HW2 8064   0.316   2.068   3.926
 2389SOL     OW 8065   4.691   4.429   3.286
 2389SOL    HW1 8066   4.727   4.417   3.193
 2389SOL    HW2 8067   4.764   4.462   3.346
 2390SOL     OW 8068   3.929   3.129   3.443
 2390SOL    HW1 8069   3.924   3.049   3.384
 2390SOL    HW2 8070   3.838   3.168   3.455
 2391SOL     OW 8071   5.411   3.954   5.818
 2391SOL    HW1 8072   5.448   3.911   5.736
 2391SOL    HW2 8073   5.341   4.020   5.792
 2392SOL     OW 8074   3.585   6.232   5.255
 2392SOL    HW1 8075   3.638   6.309   5.291
 2392SOL    HW2 8076   3.520   6.201   5.324
 2393SOL     OW 8077   5.518   4.046   6.074
 2393SOL    HW1 8078   5.483   4.020   5.984
 2393SOL    HW2 8079   5.442   4.049   6.139
 2394SOL     OW 8080   0.850   4.279   4.843
 2394SOL    HW1 8081   0.924   4.222   4.807
 2394SOL    HW2 8082   0.763   4.247   4.806
 2395SOL     OW 8083   5.166   0.882   5.773
 2395SOL    HW1 8084   5.234   0.824   5.818
 2395SOL    HW2 8085   5.122   0.940   5.841
 2396SOL     OW 8086   3.765   5.029   0.853
 2396SOL    HW1 8087   3.847   5.019   0.798
 2396SOL    HW2 8088   3.785   5.084   0.934
 2397SOL     OW 8089   0.112   3.709   5.658
 2397SOL    HW1 8090   0.039   3.652   5.697
 2397SOL    HW2 8091   0.092   3.728   5.562
 2398SOL     OW 8092   4.273   4.332   6.721
 2398SOL    HW1 8093   4.343   4.289   6.778
 2398SOL    HW2 8094   4.315   4.372   6.640
 2399SOL     OW 8095   4.602   0.411   1.329
 2399SOL    HW1 8096   4.524   0.473   1.334
 2399SOL    HW2 8097   4.641   0.413   1.237
 2400SOL     OW 8098   2.687   4.372   1.093
 2400SOL    HW1 8099   2.784   4.349   1.095
 2400SOL    HW2 8100   2.644   4.343   1.178
 2401SOL     OW 8101   5.074   6.428   6.788
 2401SOL    HW1 8102   5.172   6.434   6.770
 2401SOL    HW2 8103   5.023   6.472   6.714
 2402SOL     OW 8104   0.221   0.478   4.038
 2402SOL    HW1 8105   0.184   0.484   3.945
 2402SOL    HW2 8106   0.286   0.402   4.043
 2403SOL     OW 8107   1.645   2.348   6.366
 2403SOL    HW1 8108   1.554   2.305   6.364
 2403SOL    HW2 8109   1.688   2.339   6.277
 2404SOL     OW 8110   2.488   0.681   0.751
 2404SOL    HW1 8111   2.543   0.664   0.669
 2404SOL    HW2 8112   2.432   0.763   0.737
 2405SOL     OW 8113   3.261   3.658   2.230
 2405SOL    HW1 8114   3.288   3.716   2.154
 2405SOL    HW2 8115   3.330   3.664   2.303
 2406SOL     OW 8116   3.066   0.463   1.742
 2406SOL    HW1 8117   3.048   0.395   1.813
 2406SOL    HW2 8118   3.046   0.423   1.652
 2407SOL     OW 8119   5.658   1.940   3.012
 2407SOL    HW1 8120   5.674   2.003   2.936
 2407SOL    HW2 8121   5.745   1.911   3.051
 2408SOL     OW 8122   4.440   4.537   3.276
 2408SOL    HW1 8123   4.529   4.492   3.276
 2408SOL    HW2 8124   4.397   4.527   3.366
 2409SOL     OW 8125   2.531   5.039   1.809
 2409SOL    HW1 8126   2.573   4.949   1.821
 2409SOL    HW2 8127   2.531   5.088   1.897
 2410SOL     OW 8128   4.211   2.986   5.327
 2410SOL    HW1 8129   4.179   3.036   5.407
 2410SOL    HW2 8130   4.302   3.021   5.301
 2411SOL     OW 8131   4.925   5.975   4.470
 2411SOL    HW1 8132   5.017   5.936   4.471
 2411SOL    HW2 8133   4.902   6.011   4.560
 2412SOL     OW 8134   5.842   3.981   1.155
 2412SOL    HW1 8135   5.764   4.007   1.212
 2412SOL    HW2 8136   5.893   3.908   1.201
 2413SOL     OW 8137   6.660   1.110   1.062
 2413SOL    HW1 8138   6.751   1.149   1.079
 2413SOL    HW2 8139   6.646   1.102   0.964
 2414SOL     OW 8140   4.833   4.584   3.462
 2414SOL    HW1 8141   4.819   4.615   3.556
 2414SOL    HW2 8142   4.928   4.556   3.450
 2415SOL     OW 8143   6.191   1.619   3.071
 2415SOL    HW1 8144   6.244   1.694   3.031
 2415SOL    HW2 8145   6.160   1.558   2.998
 2416SOL     OW 8146   4.825   2.452   4.817
 2416SOL    HW1 8147   4.836   2.372   4.758
 2416SOL    HW2 8148   4.745   2.504   4.786
 2417SOL     OW 8149   3.551   3.633   4.847
 2417SOL    HW1 8150   3.454   3.628   4.870
 2417SOL    HW2 8151   3.596   3.699   4.908
 2418SOL     OW 8152   3.631   3.276   4.719
 2418SOL    HW1 8153   3.695   3.349   4.694
 2418SOL    HW2 8154   3.638   3.201   4.653
 2419SOL     OW 8155   6.727   6.729   4.239
 2419SOL    HW1 8156   6.820   6.696   4.221
 2419SOL    HW2 8157   6.717   6.747   4.337
 2420SOL     OW 8158   3.411   0.728   3.386
 2420SOL    HW1 8159   3.444   0.687   3.471
 2420SOL    HW2 8160   3.487   0.769   3.336
 2421SOL     OW 8161   2.394   2.131   4.777
 2421SOL    HW1 8162   2.463   2.200   4.798
 2421SOL    HW2 8163   2.363   2.142   4.683
 2422SOL     OW 8164   5.291   1.797   0.626
 2422SOL    HW1 8165   5.377   1.817   0.673
 2422SOL    HW2 8166   5.225   1.760   0.692
 2423SOL     OW 8167   1.559   5.911   2.479
 2423SOL    HW1 8168   1.638   5.873   2.527
 2423SOL    HW2 8169   1.533   5.997   2.522
 2424SOL     OW 8170   6.550   6.765   6.728
 2424SOL    HW1 8171   6.520   6.688   6.671
 2424SOL    HW2 8172   6.523   6.748   6.823
 2425SOL     OW 8173   5.819   0.386   3.969
 2425SOL    HW1 8174   5.852   0.305   4.017
 2425SOL    HW2 8175   5.773   0.359   3.885
 2426SOL     OW 8176   1.163   5.321   5.461
 2426SOL    HW1 8177   1.165   5.359   5.554
 2426SOL    HW2 8178   1.146   5.395   5.396
 2427SOL     OW 8179   5.291   6.013   5.389
 2427SOL    HW1 8180   5.221   6.004   5.460
 2427SOL    HW2 8181   5.255   6.068   5.314
 2428SOL     OW 8182   0.482   0.818   2.118
 2428SOL    HW1 8183   0.507   0.915   2.117
 2428SOL    HW2 8184   0.385   0.809   2.095
 2429SOL     OW 8185   5.921   5.592   1.841
 2429SOL    HW1 8186   5.958   5.502   1.865
 2429SOL    HW2 8187   5.973   5.663   1.888
 2430SOL     OW 8188   6.320   1.255   2.030
 2430SOL    HW1 8189   6.329   1.328   2.097
 2430SOL    HW2 8190   6.343   1.167   2.073
 2431SOL     OW 8191   4.044   0.609   2.363
 2431SOL    HW1 8192   4.100   0.567   2.435
 2431SOL    HW2 8193   3.954   0.632   2.400
 2432SOL     OW 8194   4.436   6.804   2.340
 2432SOL    HW1 8195   4.447   6.741   2.417
 2432SOL    HW2 8196   4.402   6.755   2.261
 2433SOL     OW 8197   4.467   1.834   0.444
 2433SOL    HW1 8198   4.394   1.883   0.491
 2433SOL    HW2 8199   4.542   1.898   0.424
 2434SOL     OW 8200   4.311   1.701   6.107
 2434SOL    HW1 8201   4.309   1.749   6.019
 2434SOL    HW2 8202   4.406   1.683   6.133
 2435SOL     OW 8203   5.075   5.772   5.238
 2435SOL    HW1 8204   5.070   5.848   5.303
 2435SOL    HW2 8205   5.037   5.799   5.151
 2436SOL     OW 8206   1.759   5.751   6.233
 2436SOL    HW1 8207   1.694   5.826   6.220
 2436SOL    HW2 8208   1.737   5.703   6.319
 2437SOL     OW 8209   6.177   6.959   6.510
 2437SOL    HW1 8210   6.166   6.975   6.412
 2437SOL    HW2 8211   6.236   6.879   6.525
 2438SOL     OW 8212   3.183   2.261   0.568
 2438SOL    HW1 8213   3.188   2.311   0.654
 2438SOL    HW2 8214   3.095   2.279   0.524
 2439SOL     OW 8215   0.654   3.985   6.282
 2439SOL    HW1 8216   0.612   4.067   6.243
 2439SOL    HW2 8217   0.646   3.987   6.381
 2440SOL     OW 8218   4.640   5.724   5.933
 2440SOL    HW1 8219   4.606   5.803   5.984
 2440SOL    HW2 8220   4.595   5.641   5.966
 2441SOL     OW 8221   0.054   2.826   0.918
 2441SOL    HW1 8222   7.015   2.856   0.845
 2441SOL    HW2 8223   0.001   2.778   0.989
 2442SOL     OW 8224   1.001   3.744   5.798
 2442SOL    HW1 8225   1.051   3.772   5.880
 2442SOL    HW2 8226   1.001   3.818   5.731
 2443SOL     OW 8227   3.045   4.181   6.321
 2443SOL    HW1 8228   3.064   4.250   6.392
 2443SOL    HW2 8229   2.957   4.200   6.278
 2444SOL     OW 8230   2.825   4.625   6.115
 2444SOL    HW1 8231   2.751   4.574   6.071
 2444SOL    HW2 8232   2.902   4.564   6.133
 2445SOL     OW 8233   0.415   0.662   1.153
 2445SOL    HW1 8234   0.472   0.743   1.144
 2445SOL    HW2 8235   0.471   0.580   1.147
 2446SOL     OW 8236   6.206   4.029   4.494
 2446SOL    HW1 8237   6.118   4.045   4.450
 2446SOL    HW2 8238   6.229   4.107   4.552
 2447SOL     OW 8239   1.628   2.251   6.910
 2447SOL    HW1 8240   1.690   2.246   6.987
 2447SOL    HW2 8241   1.540   2.209   6.935
 2448SOL     OW 8242   0.106   0.425   4.538
 2448SOL    HW1 8243   0.151   0.458   4.455
 2448SOL    HW2 8244   0.175   0.398   4.605
 2449SOL     OW 8245   0.439   3.630   6.982
 2449SOL    HW1 8246   0.364   3.670   0.011
 2449SOL    HW2 8247   0.404   3.560   6.920
 2450SOL     OW 8248   2.739   4.715   2.727
 2450SOL    HW1 8249   2.691   4.783   2.671
 2450SOL    HW2 8250   2.834   4.708   2.696
 2451SOL     OW 8251   2.062   6.829   4.225
 2451SOL    HW1 8252   2.047   6.800   4.131
 2451SOL    HW2 8253   2.139   6.893   4.228
 2452SOL     OW 8254   1.301   3.846   2.697
 2452SOL    HW1 8255   1.210   3.860   2.736
 2452SOL    HW2 8256   1.308   3.753   2.661
 2453SOL     OW 8257   6.343   4.519   1.629
 2453SOL    HW1 8258   6.271   4.464   1.588
 2453SOL    HW2 8259   6.303   4.586   1.693
 2454SOL     OW 8260   3.416   0.569   2.202
 2454SOL    HW1 8261   3.464   0.656   2.212
 2454SOL    HW2 8262   3.476   0.503   2.157
 2455SOL     OW 8263   5.370   5.307   1.111
 2455SOL    HW1 8264   5.424   5.389   1.095
 2455SOL    HW2 8265   5.417   5.249   1.178
 2456SOL     OW 8266   5.258   6.595   1.767
 2456SOL    HW1 8267   5.227   6.622   1.675
 2456SOL    HW2 8268   5.264   6.496   1.772
 2457SOL     OW 8269   5.919   0.037   0.586
 2457SOL    HW1 8270   6.003   0.082   0.558
 2457SOL    HW2 8271   5.941   6.981   0.643
 2458SOL     OW 8272   2.038   6.136   3.107
 2458SOL    HW1 8273   2.101   6.204   3.144
 2458SOL    HW2 8274   2.065   6.113   3.013
 2459SOL     OW 8275   2.235   0.184   1.016
 2459SOL    HW1 8276   2.227   0.138   1.105
 2459SOL    HW2 8277   2.329   0.217   1.004
 2460SOL     OW 8278   3.122   6.202   2.276
 2460SOL    HW1 8279   3.145   6.223   2.181
 2460SOL    HW2 8280   3.193   6.143   2.315
 2461SOL     OW 8281   5.533   0.618   2.139
 2461SOL    HW1 8282   5.515   0.552   2.212
 2461SOL    HW2 8283   5.621   0.663   2.155
 2462SOL     OW 8284   2.402   5.336   6.669
 2462SOL    HW1 8285   2.448   5.253   6.638
 2462SOL    HW2 8286   2.448   5.370   6.751
 2463SOL     OW 8287   6.435   1.990   3.368
 2463SOL    HW1 8288   6.493   2.041   3.433
 2463SOL    HW2 8289   6.489   1.919   3.324
 2464SOL     OW 8290   1.094   3.391   1.229
 2464SOL    HW1 8291   1.132   3.347   1.310
 2464SOL    HW2 8292   1.151   3.470   1.204
 2465SOL     OW 8293   0.202   6.159   2.189
 2465SOL    HW1 8294   0.122   6.215   2.208
 2465SOL    HW2 8295   0.231   6.171   2.094
 2466SOL     OW 8296   4.006   1.610   2.811
 2466SOL    HW1 8297   4.082   1.675   2.812
 2466SOL    HW2 8298   3.972   1.596   2.904
 2467SOL     OW 8299   6.946   0.864   5.929
 2467SOL    HW1 8300   6.866   0.914   5.963
 2467SOL    HW2 8301   6.926   0.826   5.839
 2468SOL     OW 8302   6.747   5.953   1.386
 2468SOL    HW1 8303   6.782   5.986   1.298
 2468SOL    HW2 8304   6.786   5.863   1.406
 2469SOL     OW 8305   2.648   3.221   5.546
 2469SOL    HW1 8306   2.704   3.196   5.626
 2469SOL    HW2 8307   2.689   3.182   5.464
 2470SOL     OW 8308   4.489   3.760   6.760
 2470SOL    HW1 8309   4.496   3.675   6.813
 2470SOL    HW2 8310   4.450   3.739   6.670
 2471SOL     OW 8311   0.636   6.793   3.093
 2471SOL    HW1 8312   0.679   6.868   3.043
 2471SOL    HW2 8313   0.631   6.816   3.190
 2472SOL     OW 8314   5.737   2.501   4.518
 2472SOL    HW1 8315   5.745   2.510   4.617
 2472SOL    HW2 8316   5.805   2.434   4.486
 2473SOL     OW 8317   1.080   5.797   4.833
 2473SOL    HW1 8318   1.093   5.847   4.919
 2473SOL    HW2 8319   0.984   5.799   4.808
 2474SOL     OW 8320   6.441   4.680   5.097
 2474SOL    HW1 8321   6.493   4.747   5.149
 2474SOL    HW2 8322   6.399   4.724   5.017
 2475SOL     OW 8323   3.861   2.683   0.467
 2475SOL    HW1 8324   3.949   2.639   0.450
 2475SOL    HW2 8325   3.787   2.619   0.447
 2476SOL     OW 8326   0.757   2.145   3.538
 2476SOL    HW1 8327   0.822   2.173   3.609
 2476SOL    HW2 8328   0.737   2.048   3.549
 2477SOL     OW 8329   5.074   5.094   1.411
 2477SOL    HW1 8330   5.174   5.087   1.422
 2477SOL    HW2 8331   5.054   5.149   1.330
 2478SOL     OW 8332   5.808   0.037   2.695
 2478SOL    HW1 8333   5.865   0.030   2.614
 2478SOL    HW2 8334   5.712   0.044   2.669
 2479SOL     OW 8335   0.923   2.654   0.441
 2479SOL    HW1 8336   0.986   2.726   0.467
 2479SOL    HW2 8337   0.923   2.582   0.511
 2480SOL     OW 8338   1.059   3.590   0.922
 2480SOL    HW1 8339   1.040   3.652   0.846
 2480SOL    HW2 8340   0.993   3.605   0.996
 2481SOL     OW 8341   4.279   5.152   2.343
 2481SOL    HW1 8342   4.363   5.119   2.301
 2481SOL    HW2 8343   4.227   5.206   2.277
 2482SOL     OW 8344   4.999   2.682   4.927
 2482SOL    HW1 8345   4.992   2.584   4.910
 2482SOL    HW2 8346   5.011   2.730   4.840
 2483SOL     OW 8347   1.137   1.843   0.118
 2483SOL    HW1 8348   1.083   1.765   0.149
 2483SOL    HW2 8349   1.081   1.926   0.124
 2484SOL     OW 8350   3.293   1.490   0.016
 2484SOL    HW1 8351   3.376   1.540   0.040
 2484SOL    HW2 8352   3.252   1.451   0.099
 2485SOL     OW 8353   0.245   5.399   2.248
 2485SOL    HW1 8354   0.269   5.466   2.317
 2485SOL    HW2 8355   0.148   5.375   2.256
 2486SOL     OW 8356   1.347   5.269   3.241
 2486SOL    HW1 8357   1.281   5.339   3.267
 2486SOL    HW2 8358   1.415   5.310   3.180
 2487SOL     OW 8359   3.687   0.240   0.719
 2487SOL    HW1 8360   3.764   0.265   0.661
 2487SOL    HW2 8361   3.689   0.297   0.802
 2488SOL     OW 8362   3.123   5.456   1.115
 2488SOL    HW1 8363   3.216   5.439   1.147
 2488SOL    HW2 8364   3.123   5.534   1.052
 2489SOL     OW 8365   1.337   5.642   4.534
 2489SOL    HW1 8366   1.259   5.579   4.533
 2489SOL    HW2 8367   1.405   5.612   4.468
 2490SOL     OW 8368   5.621   3.457   1.316
 2490SOL    HW1 8369   5.655   3.364   1.330
 2490SOL    HW2 8370   5.627   3.508   1.402
 2491SOL     OW 8371   2.967   5.339   2.390
 2491SOL    HW1 8372   2.922   5.255   2.362
 2491SOL    HW2 8373   2.913   5.384   2.461
 2492SOL     OW 8374   4.995   3.332   6.663
 2492SOL    HW1 8375   5.032   3.252   6.710
 2492SOL    HW2 8376   5.039   3.342   6.574
 2493SOL     OW 8377   6.144   1.660   3.337
 2493SOL    HW1 8378   6.154   1.611   3.250
 2493SOL    HW2 8379   6.158   1.758   3.322
 2494SOL     OW 8380   4.862   3.035   2.500
 2494SOL    HW1 8381   4.788   3.032   2.567
 2494SOL    HW2 8382   4.830   2.993   2.414
 2495SOL     OW 8383   5.509   1.236   5.097
 2495SOL    HW1 8384   5.502   1.325   5.142
 2495SOL    HW2 8385   5.597   1.194   5.118
 2496SOL     OW 8386   1.360   6.685   0.283
 2496SOL    HW1 8387   1.262   6.687   0.300
 2496SOL    HW2 8388   1.377   6.690   0.184
 2497SOL     OW 8389   6.386   1.505   6.689
 2497SOL    HW1 8390   6.375   1.557   6.604
 2497SOL    HW2 8391   6.457   1.436   6.675
 2498SOL     OW 8392   1.894   3.106   4.957
 2498SOL    HW1 8393   1.986   3.138   4.979
 2498SOL    HW2 8394   1.864   3.145   4.870
 2499SOL     OW 8395   5.928   0.511   4.829
 2499SOL    HW1 8396   5.836   0.485   4.860
 2499SOL    HW2 8397   5.931   0.610   4.813
 2500SOL     OW 8398   4.734   3.303   0.016
 2500SOL    HW1 8399   4.751   3.306   6.941
 2500SOL    HW2 8400   4.751   3.211   0.051
 2501SOL     OW 8401   6.714   4.094   0.332
 2501SOL    HW1 8402   6.703   4.101   0.431
 2501SOL    HW2 8403   6.790   4.031   0.312
 2502SOL     OW 8404   2.146   6.607   3.284
 2502SOL    HW1 8405   2.145   6.618   3.184
 2502SOL    HW2 8406   2.117   6.692   3.327
 2503SOL     OW 8407   4.164   5.003   5.269
 2503SOL    HW1 8408   4.218   4.926   5.236
 2503SOL    HW2 8409   4.225   5.071   5.310
 2504SOL     OW 8410   1.499   4.456   4.141
 2504SOL    HW1 8411   1.448   4.520   4.197
 2504SOL    HW2 8412   1.436   4.394   4.094
 2505SOL     OW 8413   4.466   5.457   4.324
 2505SOL    HW1 8414   4.414   5.398   4.386
 2505SOL    HW2 8415   4.403   5.504   4.261
 2506SOL     OW 8416   0.044   2.467   6.591
 2506SOL    HW1 8417   0.082   2.555   6.562
 2506SOL    HW2 8418   0.003   2.421   6.512
 2507SOL     OW 8419   6.519   6.032   0.085
 2507SOL    HW1 8420   6.600   6.026   0.027
 2507SOL    HW2 8421   6.455   5.959   0.062
 2508SOL     OW 8422   2.497   2.616   2.642
 2508SOL    HW1 8423   2.502   2.540   2.578
 2508SOL    HW2 8424   2.578   2.615   2.702
 2509SOL     OW 8425   4.734   2.906   3.660
 2509SOL    HW1 8426   4.783   2.931   3.744
 2509SOL    HW2 8427   4.667   2.835   3.681
 2510SOL     OW 8428   3.897   5.511   0.285
 2510SOL    HW1 8429   3.961   5.586   0.271
 2510SOL    HW2 8430   3.873   5.471   0.197
 2511SOL     OW 8431   1.277   0.688   4.811
 2511SOL    HW1 8432   1.260   0.744   4.730
 2511SOL    HW2 8433   1.249   0.593   4.793
 2512SOL     OW 8434   5.152   3.703   5.315
 2512SOL    HW1 8435   5.164   3.611   5.352
 2512SOL    HW2 8436   5.141   3.769   5.390
 2513SOL     OW 8437   0.640   3.367   0.499
 2513SOL    HW1 8438   0.659   3.344   0.403
 2513SOL    HW2 8439   0.606   3.286   0.547
 2514SOL     OW 8440   1.208   0.524   3.586
 2514SOL    HW1 8441   1.277   0.590   3.557
 2514SOL    HW2 8442   1.143   0.568   3.648
 2515SOL     OW 8443   0.678   5.633   0.447
 2515SOL    HW1 8444   0.670   5.606   0.351
 2515SOL    HW2 8445   0.774   5.654   0.467
 2516SOL     OW 8446   5.533   6.381   3.816
 2516SOL    HW1 8447   5.455   6.329   3.781
 2516SOL    HW2 8448   5.543   6.465   3.764
 2517SOL     OW 8449   2.260   4.756   0.154
 2517SOL    HW1 8450   2.253   4.774   0.056
 2517SOL    HW2 8451   2.329   4.686   0.171
 2518SOL     OW 8452   2.238   2.644   6.848
 2518SOL    HW1 8453   2.282   2.564   6.809
 2518SOL    HW2 8454   2.163   2.674   6.788
 2519SOL     OW 8455   5.029   4.621   4.627
 2519SOL    HW1 8456   4.981   4.640   4.713
 2519SOL    HW2 8457   5.128   4.618   4.644
 2520SOL     OW 8458   2.149   4.082   2.124
 2520SOL    HW1 8459   2.201   4.167   2.133
 2520SOL    HW2 8460   2.213   4.007   2.107
 2521SOL     OW 8461   5.359   6.547   5.441
 2521SOL    HW1 8462   5.274   6.511   5.479
 2521SOL    HW2 8463   5.391   6.486   5.369
 2522SOL     OW 8464   1.206   3.170   4.639
 2522SOL    HW1 8465   1.227   3.103   4.710
 2522SOL    HW2 8466   1.112   3.202   4.651
 2523SOL     OW 8467   0.745   3.358   6.814
 2523SOL    HW1 8468   0.787   3.444   6.845
 2523SOL    HW2 8469   0.761   3.287   6.883
 2524SOL     OW 8470   1.218   6.539   4.383
 2524SOL    HW1 8471   1.305   6.588   4.374
 2524SOL    HW2 8472   1.188   6.543   4.478
 2525SOL     OW 8473   1.061   3.737   3.888
 2525SOL    HW1 8474   1.011   3.759   3.972
 2525SOL    HW2 8475   1.159   3.734   3.908
 2526SOL     OW 8476   6.748   1.594   4.736
 2526SOL    HW1 8477   6.835   1.617   4.692
 2526SOL    HW2 8478   6.678   1.659   4.707
 2527SOL     OW 8479   5.845   6.632   3.545
 2527SOL    HW1 8480   5.940   6.646   3.519
 2527SOL    HW2 8481   5.822   6.535   3.539
 2528SOL     OW 8482   6.441   5.195   0.310
 2528SOL    HW1 8483   6.359   5.207   0.366
 2528SOL    HW2 8484   6.458   5.097   0.296
 2529SOL     OW 8485   4.961   3.726   4.648
 2529SOL    HW1 8486   4.929   3.723   4.743
 2529SOL    HW2 8487   5.043   3.783   4.643
 2530SOL     OW 8488   0.299   0.966   3.865
 2530SOL    HW1 8489   0.279   1.063   3.851
 2530SOL    HW2 8490   0.380   0.957   3.924
 2531SOL     OW 8491   3.689   1.909   6.350
 2531SOL    HW1 8492   3.716   2.003   6.368
 2531SOL    HW2 8493   3.710   1.852   6.430
 2532SOL     OW 8494   1.391   4.621   6.572
 2532SOL    HW1 8495   1.321   4.557   6.543
 2532SOL    HW2 8496   1.428   4.592   6.661
 2533SOL     OW 8497   5.562   6.826   6.031
 2533SOL    HW1 8498   5.634   6.858   6.091
 2533SOL    HW2 8499   5.555   6.886   5.951
 2534SOL     OW 8500   1.064   1.618   3.692
 2534SOL    HW1 8501   0.986   1.604   3.753
 2534SOL    HW2 8502   1.070   1.542   3.627
 2535SOL     OW 8503   1.940   1.455   3.072
 2535SOL    HW1 8504   1.851   1.459   3.119
 2535SOL    HW2 8505   1.963   1.360   3.053
 2536SOL     OW 8506   5.945   0.876   4.078
 2536SOL    HW1 8507   6.024   0.906   4.023
 2536SOL    HW2 8508   5.862   0.919   4.043
 2537SOL     OW 8509   4.635   5.689   1.202
 2537SOL    HW1 8510   4.715   5.668   1.146
 2537SOL    HW2 8511   4.585   5.766   1.161
 2538SOL     OW 8512   2.302   4.851   4.915
 2538SOL    HW1 8513   2.395   4.830   4.946
 2538SOL    HW2 8514   2.243   4.771   4.929
 2539SOL     OW 8515   3.344   0.031   5.285
 2539SOL    HW1 8516   3.431   0.007   5.243
 2539SOL    HW2 8517   3.341   0.130   5.301
 2540SOL     OW 8518   5.279   1.902   2.400
 2540SOL    HW1 8519   5.369   1.888   2.441
 2540SOL    HW2 8520   5.288   1.899   2.300
 2541SOL     OW 8521   0.997   6.284   5.649
 2541SOL    HW1 8522   1.069   6.346   5.683
 2541SOL    HW2 8523   0.918   6.337   5.621
 2542SOL     OW 8524   3.202   1.935   4.302
 2542SOL    HW1 8525   3.167   2.000   4.369
 2542SOL    HW2 8526   3.295   1.961   4.276
 2543SOL     OW 8527   0.294   2.076   3.495
 2543SOL    HW1 8528   0.348   1.996   3.522
 2543SOL    HW2 8529   0.222   2.047   3.431
 2544SOL     OW 8530   6.505   5.085   1.677
 2544SOL    HW1 8531   6.558   5.053   1.598
 2544SOL    HW2 8532   6.410   5.056   1.668
 2545SOL     OW 8533   0.310   1.659   1.415
 2545SOL    HW1 8534   0.321   1.756   1.436
 2545SOL    HW2 8535   0.374   1.606   1.471
 2546SOL     OW 8536   0.301   4.211   2.559
 2546SOL    HW1 8537   0.361   4.247   2.630
 2546SOL    HW2 8538   0.207   4.208   2.593
 2547SOL     OW 8539   5.993   3.633   1.059
 2547SOL    HW1 8540   6.085   3.667   1.082
 2547SOL    HW2 8541   5.961   3.678   0.976
 2548SOL     OW 8542   6.898   6.993   5.128
 2548SOL    HW1 8543   6.943   6.904   5.140
 2548SOL    HW2 8544   6.966   0.039   5.103
 2549SOL     OW 8545   2.605   2.417   0.790
 2549SOL    HW1 8546   2.610   2.371   0.879
 2549SOL    HW2 8547   2.691   2.464   0.772
 2550SOL     OW 8548   4.298   0.096   6.164
 2550SOL    HW1 8549   4.324   0.128   6.255
 2550SOL    HW2 8550   4.269   0.173   6.108
 2551SOL     OW 8551   3.395   5.524   0.219
 2551SOL    HW1 8552   3.460   5.597   0.239
 2551SOL    HW2 8553   3.363   5.532   0.125
 2552SOL     OW 8554   2.552   6.035   0.857
 2552SOL    HW1 8555   2.554   6.094   0.938
 2552SOL    HW2 8556   2.467   5.982   0.857
 2553SOL     OW 8557   4.479   1.104   6.973
 2553SOL    HW1 8558   4.506   1.067   6.883
 2553SOL    HW2 8559   4.380   1.114   6.976
 2554SOL     OW 8560   1.268   5.751   1.407
 2554SOL    HW1 8561   1.187   5.810   1.400
 2554SOL    HW2 8562   1.351   5.808   1.404
 2555SOL     OW 8563   5.551   5.834   4.955
 2555SOL    HW1 8564   5.569   5.931   4.970
 2555SOL    HW2 8565   5.561   5.784   5.041
 2556SOL     OW 8566   3.851   0.298   1.024
 2556SOL    HW1 8567   3.920   0.277   0.954
 2556SOL    HW2 8568   3.824   0.214   1.071
 2557SOL     OW 8569   3.459   0.290   0.022
 2557SOL    HW1 8570   3.450   0.267   6.948
 2557SOL    HW2 8571   3.448   0.388   0.034
 2558SOL     OW 8572   6.014   3.765   6.275
 2558SOL    HW1 8573   5.919   3.753   6.245
 2558SOL    HW2 8574   6.070   3.792   6.197
 2559SOL     OW 8575   0.936   4.622   4.285
 2559SOL    HW1 8576   0.983   4.654   4.367
 2559SOL    HW2 8577   0.843   4.658   4.284
 2560SOL     OW 8578   4.860   2.071   3.293
 2560SOL    HW1 8579   4.897   2.148   3.241
 2560SOL    HW2 8580   4.912   2.060   3.377
 2561SOL     OW 8581   3.722   0.883   4.326
 2561SOL    HW1 8582   3.628   0.867   4.296
 2561SOL    HW2 8583   3.752   0.807   4.383
 2562SOL     OW 8584   3.270   6.910   3.316
 2562SOL    HW1 8585   3.212   6.991   3.318
 2562SOL    HW2 8586   3.245   6.850   3.392
 2563SOL     OW 8587   3.866   1.108   0.121
 2563SOL    HW1 8588   3.912   1.098   0.209
 2563SOL    HW2 8589   3.879   1.201   0.088
 2564SOL     OW 8590   1.639   1.135   0.692
 2564SOL    HW1 8591   1.541   1.132   0.708
 2564SOL    HW2 8592   1.685   1.170   0.773
 2565SOL     OW 8593   1.299   2.204   6.898
 2565SOL    HW1 8594   1.217   2.146   6.891
 2565SOL    HW2 8595   1.322   2.239   6.807
 2566SOL     OW 8596   2.347   0.890   1.258
 2566SOL    HW1 8597   2.385   0.950   1.187
 2566SOL    HW2 8598   2.366   0.929   1.348
 2567SOL     OW 8599   1.677   0.344   0.219
 2567SOL    HW1 8600   1.617   0.270   0.248
 2567SOL    HW2 8601   1.671   0.419   0.285
 2568SOL     OW 8602   2.712   6.344   1.218
 2568SOL    HW1 8603   2.694   6.443   1.220
 2568SOL    HW2 8604   2.781   6.324   1.148
 2569SOL     OW 8605   0.899   0.446   1.467
 2569SOL    HW1 8606   0.884   0.350   1.491
 2569SOL    HW2 8607   0.820   0.500   1.494
 2570SOL     OW 8608   5.782   6.896   6.160
 2570SOL    HW1 8609   5.780   6.988   6.198
 2570SOL    HW2 8610   5.786   6.829   6.234
 2571SOL     OW 8611   3.412   3.278   4.863
 2571SOL    HW1 8612   3.498   3.277   4.812
 2571SOL    HW2 8613   3.374   3.186   4.867
 2572SOL     OW 8614   1.767   6.543   1.870
 2572SOL    HW1 8615   1.852   6.522   1.822
 2572SOL    HW2 8616   1.735   6.462   1.919
 2573SOL     OW 8617   0.157   2.305   4.512
 2573SOL    HW1 8618   0.175   2.349   4.425
 2573SOL    HW2 8619   0.130   2.210   4.497
 2574SOL     OW 8620   1.009   3.838   1.791
 2574SOL    HW1 8621   1.066   3.866   1.714
 2574SOL    HW2 8622   0.926   3.793   1.757
 2575SOL     OW 8623   6.382   3.842   0.414
 2575SOL    HW1 8624   6.380   3.854   0.314
 2575SOL    HW2 8625   6.295   3.801   0.444
 2576SOL     OW 8626   1.693   6.834   3.401
 2576SOL    HW1 8627   1.593   6.837   3.395
 2576SOL    HW2 8628   1.726   6.752   3.354
 2577SOL     OW 8629   2.285   6.108   2.642
 2577SOL    HW1 8630   2.255   6.087   2.549
 2577SOL    HW2 8631   2.324   6.025   2.684
 2578SOL     OW 8632   5.092   2.588   4.225
 2578SOL    HW1 8633   5.178   2.575   4.275
 2578SOL    HW2 8634   5.069   2.504   4.175
 2579SOL     OW 8635   6.826   2.478   6.750
 2579SOL    HW1 8636   6.910   2.497   6.700
 2579SOL    HW2 8637   6.845   2.479   6.848
 2580SOL     OW 8638   1.541   2.452   6.610
 2580SOL    HW1 8639   1.445   2.471   6.631
 2580SOL    HW2 8640   1.551   2.432   6.513
 2581SOL     OW 8641   6.449   6.677   3.187
 2581SOL    HW1 8642   6.355   6.659   3.214
 2581SOL    HW2 8643   6.511   6.624   3.244
 2582SOL     OW 8644   0.608   5.470   2.297
 2582SOL    HW1 8645   0.555   5.500   2.217
 2582SOL    HW2 8646   0.704   5.495   2.284
 2583SOL     OW 8647   1.601   6.916   0.181
 2583SOL    HW1 8648   1.578   6.990   0.245
 2583SOL    HW2 8649   1.609   6.830   0.231
 2584SOL     OW 8650   4.079   6.403   1.721
 2584SOL    HW1 8651   4.013   6.329   1.733
 2584SOL    HW2 8652   4.032   6.490   1.714
 2585SOL     OW 8653   3.598   0.413   0.963
 2585SOL    HW1 8654   3.690   0.390   0.994
 2585SOL    HW2 8655   3.600   0.501   0.916
 2586SOL     OW 8656   6.430   1.978   3.878
 2586SOL    HW1 8657   6.497   1.907   3.854
 2586SOL    HW2 8658   6.449   2.061   3.826
 2587SOL     OW 8659   5.811   6.370   3.561
 2587SOL    HW1 8660   5.787   6.326   3.647
 2587SOL    HW2 8661   5.902   6.340   3.532
 2588SOL     OW 8662   5.534   0.630   1.235
 2588SOL    HW1 8663   5.599   0.562   1.270
 2588SOL    HW2 8664   5.585   0.707   1.197
 2589SOL     OW 8665   6.494   6.159   6.472
 2589SOL    HW1 8666   6.486   6.179   6.374
 2589SOL    HW2 8667   6.591   6.155   6.497
 2590SOL     OW 8668   4.471   0.197   2.940
 2590SOL    HW1 8669   4.565   0.175   2.966
 2590SOL    HW2 8670   4.432   0.260   3.007
 2591SOL     OW 8671   5.460   6.658   1.447
 2591SOL    HW1 8672   5.537   6.595   1.439
 2591SOL    HW2 8673   5.430   6.686   1.356
 2592SOL     OW 8674   3.937   5.295   1.876
 2592SOL    HW1 8675   3.855   5.301   1.818
 2592SOL    HW2 8676   3.939   5.372   1.939
 2593SOL     OW 8677   3.099   6.484   2.526
 2593SOL    HW1 8678   3.068   6.507   2.619
 2593SOL    HW2 8679   3.021   6.460   2.470
 2594SOL     OW 8680   0.545   6.455   6.273
 2594SOL    HW1 8681   0.624   6.478   6.329
 2594SOL    HW2 8682   0.546   6.358   6.251
 2595SOL     OW 8683   6.118   3.562   4.612
 2595SOL    HW1 8684   6.188   3.605   4.556
 2595SOL    HW2 8685   6.034   3.553   4.559
 2596SOL     OW 8686   3.886   2.091   2.069
 2596SOL    HW1 8687   3.860   2.004   2.110
 2596SOL    HW2 8688   3.804   2.141   2.042
 2597SOL     OW 8689   2.158   3.690   0.442
 2597SOL    HW1 8690   2.258   3.692   0.434
 2597SOL    HW2 8691   2.118   3.664   0.354
 2598SOL     OW 8692   6.461   3.433   3.562
 2598SOL    HW1 8693   6.474   3.335   3.552
 2598SOL    HW2 8694   6.520   3.468   3.634
 2599SOL     OW 8695   3.724   5.632   0.064
 2599SOL    HW1 8696   3.721   5.533   0.080
 2599SOL    HW2 8697   3.641   5.675   0.101
 2600SOL     OW 8698   5.872   3.442   3.279
 2600SOL    HW1 8699   5.885   3.531   3.321
 2600SOL    HW2 8700   5.944   3.426   3.211
 2601SOL     OW 8701   3.724   3.470   6.398
 2601SOL    HW1 8702   3.751   3.544   6.460
 2601SOL    HW2 8703   3.690   3.509   6.313
 2602SOL     OW 8704   6.458   5.170   3.889
 2602SOL    HW1 8705   6.411   5.232   3.826
 2602SOL    HW2 8706   6.426   5.077   3.874
 2603SOL     OW 8707   2.837   1.961   1.248
 2603SOL    HW1 8708   2.853   1.924   1.340
 2603SOL    HW2 8709   2.834   2.061   1.252
 2604SOL     OW 8710   5.628   0.099   1.173
 2604SOL    HW1 8711   5.710   0.088   1.115
 2604SOL    HW2 8712   5.596   0.009   1.201
 2605SOL     OW 8713   4.441   4.994   4.765
 2605SOL    HW1 8714   4.406   4.915   4.716
 2605SOL    HW2 8715   4.372   5.026   4.830
 2606SOL     OW 8716   7.008   4.406   0.498
 2606SOL    HW1 8717   6.946   4.328   0.503
 2606SOL    HW2 8718   0.030   4.419   0.587
 2607SOL     OW 8719   0.692   0.930   3.759
 2607SOL    HW1 8720   0.770   0.990   3.773
 2607SOL    HW2 8721   0.722   0.846   3.712
 2608SOL     OW 8722   5.166   0.522   1.372
 2608SOL    HW1 8723   5.171   0.619   1.350
 2608SOL    HW2 8724   5.210   0.506   1.461
 2609SOL     OW 8725   0.894   2.234   2.420
 2609SOL    HW1 8726   0.911   2.163   2.352
 2609SOL    HW2 8727   0.846   2.310   2.377
 2610SOL     OW 8728   5.989   6.059   4.766
 2610SOL    HW1 8729   5.933   6.020   4.840
 2610SOL    HW2 8730   6.021   5.985   4.707
 2611SOL     OW 8731   4.866   6.364   1.477
 2611SOL    HW1 8732   4.804   6.371   1.398
 2611SOL    HW2 8733   4.906   6.454   1.495
 2612SOL     OW 8734   5.525   6.620   2.881
 2612SOL    HW1 8735   5.426   6.623   2.895
 2612SOL    HW2 8736   5.557   6.525   2.886
 2613SOL     OW 8737   4.022   0.318   1.951
 2613SOL    HW1 8738   3.978   0.391   1.898
 2613SOL    HW2 8739   4.121   0.336   1.955
 2614SOL     OW 8740   6.954   6.561   6.168
 2614SOL    HW1 8741   6.972   6.580   6.071
 2614SOL    HW2 8742   6.922   6.645   6.212
 2615SOL     OW 8743   4.957   5.438   2.508
 2615SOL    HW1 8744   4.869   5.455   2.464
 2615SOL    HW2 8745   4.980   5.341   2.501
 2616SOL     OW 8746   4.035   3.067   2.911
 2616SOL    HW1 8747   4.056   3.149   2.963
 2616SOL    HW2 8748   3.948   3.028   2.943
 2617SOL     OW 8749   3.810   6.613   1.484
 2617SOL    HW1 8750   3.879   6.648   1.547
 2617SOL    HW2 8751   3.762   6.537   1.528
 2618SOL     OW 8752   0.910   0.103   0.523
 2618SOL    HW1 8753   0.976   0.031   0.544
 2618SOL    HW2 8754   0.872   0.089   0.432
 2619SOL     OW 8755   4.345   1.940   2.136
 2619SOL    HW1 8756   4.314   2.035   2.141
 2619SOL    HW2 8757   4.306   1.888   2.212
 2620SOL     OW 8758   1.120   4.895   3.901
 2620SOL    HW1 8759   1.100   4.847   3.815
 2620SOL    HW2 8760   1.187   4.967   3.884
 2621SOL     OW 8761   0.481   5.265   3.627
 2621SOL    HW1 8762   0.387   5.251   3.658
 2621SOL    HW2 8763   0.528   5.329   3.689
 2622SOL     OW 8764   2.478   2.742   6.947
 2622SOL    HW1 8765   2.473   2.744   0.024
 2622SOL    HW2 8766   2.385   2.735   6.909
 2623SOL     OW 8767   3.260   0.987   5.904
 2623SOL    HW1 8768   3.184   0.952   5.959
 2623SOL    HW2 8769   3.276   1.083   5.927
 2624SOL     OW 8770   5.845   2.269   3.655
 2624SOL    HW1 8771   5.765   2.253   3.596
 2624SOL    HW2 8772   5.881   2.361   3.638
 2625SOL     OW 8773   2.870   2.471   5.993
 2625SOL    HW1 8774   2.914   2.413   6.062
 2625SOL    HW2 8775   2.927   2.551   5.976
 2626SOL     OW 8776   1.898   6.458   3.074
 2626SOL    HW1 8777   1.930   6.376   3.123
 2626SOL    HW2 8778   1.977   6.514   3.049
 2627SOL     OW 8779   6.766   0.148   4.211
 2627SOL    HW1 8780   6.740   0.142   4.307
 2627SOL    HW2 8781   6.770   0.056   4.171
 2628SOL     OW 8782   4.037   6.287   6.786
 2628SOL    HW1 8783   4.105   6.272   6.858
 2628SOL    HW2 8784   3.973   6.210   6.784
 2629SOL     OW 8785   3.668   4.114   1.436
 2629SOL    HW1 8786   3.760   4.081   1.455
 2629SOL    HW2 8787   3.648   4.194   1.494
 2630SOL     OW 8788   3.342   2.110   2.640
 2630SOL    HW1 8789   3.263   2.165   2.614
 2630SOL    HW2 8790   3.395   2.087   2.558
 2631SOL     OW 8791   4.361   6.496   3.777
 2631SOL    HW1 8792   4.306   6.485   3.860
 2631SOL    HW2 8793   4.423   6.418   3.768
 2632SOL     OW 8794   3.603   2.237   0.251
 2632SOL    HW1 8795   3.587   2.181   0.169
 2632SOL    HW2 8796   3.534   2.215   0.320
 2633SOL     OW 8797   6.040   2.240   6.695
 2633SOL    HW1 8798   6.051   2.216   6.792
 2633SOL    HW2 8799   5.988   2.325   6.689
 2634SOL     OW 8800   2.226   4.276   1.463
 2634SOL    HW1 8801   2.222   4.275   1.363
 2634SOL    HW2 8802   2.177   4.197   1.500
 2635SOL     OW 8803   5.269   4.550   5.096
 2635SOL    HW1 8804   5.360   4.589   5.086
 2635SOL    HW2 8805   5.226   4.541   5.006
 2636SOL     OW 8806   4.489   0.305   5.529
 2636SOL    HW1 8807   4.571   0.357   5.557
 2636SOL    HW2 8808   4.431   0.363   5.473
 2637SOL     OW 8809   5.556   6.331   2.947
 2637SOL    HW1 8810   5.527   6.283   2.865
 2637SOL    HW2 8811   5.521   6.283   3.028
 2638SOL     OW 8812   5.737   5.771   0.954
 2638SOL    HW1 8813   5.672   5.779   0.878
 2638SOL    HW2 8814   5.721   5.684   1.002
 2639SOL     OW 8815   6.102   6.291   1.247
 2639SOL    HW1 8816   6.056   6.330   1.327
 2639SOL    HW2 8817   6.162   6.216   1.275
 2640SOL     OW 8818   6.660   6.207   5.323
 2640SOL    HW1 8819   6.614   6.294   5.341
 2640SOL    HW2 8820   6.601   6.131   5.351
 2641SOL     OW 8821   5.032   4.211   6.715
 2641SOL    HW1 8822   5.042   4.171   6.807
 2641SOL    HW2 8823   5.054   4.141   6.647
 2642SOL     OW 8824   5.173   0.467   3.618
 2642SOL    HW1 8825   5.112   0.419   3.680
 2642SOL    HW2 8826   5.123   0.496   3.537
 2643SOL     OW 8827   0.067   6.893   3.003
 2643SOL    HW1 8828   7.021   6.886   3.076
 2643SOL    HW2 8829   0.108   6.984   3.006
 2644SOL     OW 8830   0.471   4.586   6.025
 2644SOL    HW1 8831   0.506   4.572   5.932
 2644SOL    HW2 8832   0.392   4.527   6.039
 2645SOL     OW 8833   5.398   6.170   6.177
 2645SOL    HW1 8834   5.474   6.200   6.236
 2645SOL    HW2 8835   5.435   6.136   6.091
 2646SOL     OW 8836   0.044   0.252   6.053
 2646SOL    HW1 8837   6.993   0.313   6.081
 2646SOL    HW2 8838   0.130   0.283   6.095
 2647SOL     OW 8839   4.256   2.014   1.390
 2647SOL    HW1 8840   4.262   2.031   1.291
 2647SOL    HW2 8841   4.181   2.067   1.428
 2648SOL     OW 8842   5.828   0.217   2.241
 2648SOL    HW1 8843   5.753   0.203   2.177
 2648SOL    HW2 8844   5.817   0.155   2.319
 2649SOL     OW 8845   3.278   1.565   6.137
 2649SOL    HW1 8846   3.178   1.556   6.132
 2649SOL    HW2 8847   3.308   1.634   6.071
 2650SOL     OW 8848   6.821   5.692   3.198
 2650SOL    HW1 8849   6.727   5.723   3.208
 2650SOL    HW2 8850   6.878   5.735   3.269
 2651SOL     OW 8851   7.016   1.534   1.898
 2651SOL    HW1 8852   7.023   1.534   1.798
 2651SOL    HW2 8853   0.058   1.469   1.936
 2652SOL     OW 8854   3.090   3.098   3.543
 2652SOL    HW1 8855   2.996   3.131   3.545
 2652SOL    HW2 8856   3.116   3.077   3.448
 2653SOL     OW 8857   6.269   6.667   6.128
 2653SOL    HW1 8858   6.205   6.662   6.204
 2653SOL    HW2 8859   6.318   6.754   6.131
 2654SOL     OW 8860   5.112   2.421   5.843
 2654SOL    HW1 8861   5.051   2.420   5.922
 2654SOL    HW2 8862   5.204   2.396   5.872
 2655SOL     OW 8863   4.804   6.333   4.633
 2655SOL    HW1 8864   4.793   6.309   4.537
 2655SOL    HW2 8865   4.897   6.366   4.649
 2656SOL     OW 8866   5.361   3.328   3.638
 2656SOL    HW1 8867   5.418   3.316   3.557
 2656SOL    HW2 8868   5.411   3.381   3.706
 2657SOL     OW 8869   1.994   4.281   6.796
 2657SOL    HW1 8870   1.958   4.352   6.857
 2657SOL    HW2 8871   1.962   4.191   6.827
 2658SOL     OW 8872   6.345   4.616   5.798
 2658SOL    HW1 8873   6.329   4.524   5.762
 2658SOL    HW2 8874   6.318   4.684   5.729
 2659SOL     OW 8875   6.929   2.611   4.309
 2659SOL    HW1 8876   6.961   2.619   4.403
 2659SOL    HW2 8877   6.973   2.681   4.252
 2660SOL     OW 8878   6.180   2.154   2.493
 2660SOL    HW1 8879   6.229   2.219   2.552
 2660SOL    HW2 8880   6.104   2.201   2.448
 2661SOL     OW 8881   3.684   5.802   1.108
 2661SOL    HW1 8882   3.748   5.813   1.032
 2661SOL    HW2 8883   3.727   5.746   1.179
 2662SOL     OW 8884   3.900   6.739   4.479
 2662SOL    HW1 8885   3.986   6.791   4.487
 2662SOL    HW2 8886   3.868   6.714   4.570
 2663SOL     OW 8887   2.119   4.710   2.080
 2663SOL    HW1 8888   2.144   4.708   2.176
 2663SOL    HW2 8889   2.067   4.627   2.057
 2664SOL     OW 8890   4.017   3.751   2.775
 2664SOL    HW1 8891   4.002   3.837   2.825
 2664SOL    HW2 8892   4.050   3.681   2.839
 2665SOL     OW 8893   3.614   1.226   5.304
 2665SOL    HW1 8894   3.584   1.132   5.318
 2665SOL    HW2 8895   3.543   1.289   5.335
 2666SOL     OW 8896   5.217   4.168   0.784
 2666SOL    HW1 8897   5.291   4.235   0.795
 2666SOL    HW2 8898   5.202   4.121   0.871
 2667SOL     OW 8899   2.142   5.725   4.780
 2667SOL    HW1 8900   2.158   5.789   4.706
 2667SOL    HW2 8901   2.044   5.704   4.786
 2668SOL     OW 8902   6.889   3.299   5.235
 2668SOL    HW1 8903   6.835   3.261   5.310
 2668SOL    HW2 8904   6.829   3.346   5.170
 2669SOL     OW 8905   4.125   5.248   5.574
 2669SOL    HW1 8906   4.184   5.245   5.494
 2669SOL    HW2 8907   4.180   5.265   5.656
 2670SOL     OW 8908   0.839   1.287   7.020
 2670SOL    HW1 8909   0.753   1.330   0.025
 2670SOL    HW2 8910   0.913   1.353   0.008
 2671SOL     OW 8911   2.524   3.352   6.691
 2671SOL    HW1 8912   2.520   3.406   6.607
 2671SOL    HW2 8913   2.619   3.331   6.713
 2672SOL     OW 8914   2.032   5.469   0.238
 2672SOL    HW1 8915   2.115   5.450   0.290
 2672SOL    HW2 8916   2.056   5.505   0.148
 2673SOL     OW 8917   3.840   1.956   3.192
 2673SOL    HW1 8918   3.824   1.959   3.093
 2673SOL    HW2 8919   3.754   1.967   3.241
 2674SOL     OW 8920   6.868   5.270   4.682
 2674SOL    HW1 8921   6.961   5.253   4.649
 2674SOL    HW2 8922   6.805   5.265   4.605
 2675SOL     OW 8923   0.256   4.592   5.533
 2675SOL    HW1 8924   0.159   4.604   5.555
 2675SOL    HW2 8925   0.268   4.513   5.473
 2676SOL     OW 8926   4.837   1.629   1.586
 2676SOL    HW1 8927   4.793   1.539   1.580
 2676SOL    HW2 8928   4.812   1.672   1.673
 2677SOL     OW 8929   1.976   4.514   1.258
 2677SOL    HW1 8930   2.007   4.441   1.198
 2677SOL    HW2 8931   1.919   4.475   1.331
 2678SOL     OW 8932   1.176   5.220   6.185
 2678SOL    HW1 8933   1.135   5.271   6.261
 2678SOL    HW2 8934   1.201   5.128   6.216
 2679SOL     OW 8935   3.341   5.122   0.616
 2679SOL    HW1 8936   3.377   5.212   0.592
 2679SOL    HW2 8937   3.417   5.058   0.626
 2680SOL     OW 8938   2.113   1.267   1.022
 2680SOL    HW1 8939   2.060   1.350   1.002
 2680SOL    HW2 8940   2.054   1.198   1.063
 2681SOL     OW 8941   1.518   3.016   3.844
 2681SOL    HW1 8942   1.491   3.108   3.818
 2681SOL    HW2 8943   1.525   3.009   3.943
 2682SOL     OW 8944   5.247   3.065   2.513
 2682SOL    HW1 8945   5.332   3.050   2.564
 2682SOL    HW2 8946   5.257   3.029   2.420
 2683SOL     OW 8947   0.964   5.793   1.168
 2683SOL    HW1 8948   1.042   5.844   1.204
 2683SOL    HW2 8949   0.980   5.770   1.072
 2684SOL     OW 8950   2.575   6.677   2.814
 2684SOL    HW1 8951   2.667   6.716   2.806
 2684SOL    HW2 8952   2.580   6.578   2.806
 2685SOL     OW 8953   5.076   5.893   4.831
 2685SOL    HW1 8954   5.150   5.944   4.873
 2685SOL    HW2 8955   5.076   5.910   4.732
 2686SOL     OW 8956   2.190   3.079   3.890
 2686SOL    HW1 8957   2.233   3.019   3.957
 2686SOL    HW2 8958   2.112   3.125   3.933
 2687SOL     OW 8959   3.897   5.549   2.305
 2687SOL    HW1 8960   3.843   5.473   2.341
 2687SOL    HW2 8961   3.873   5.566   2.210
 2688SOL     OW 8962   4.711   4.564   6.391
 2688SOL    HW1 8963   4.701   4.651   6.343
 2688SOL    HW2 8964   4.792   4.567   6.449
 2689SOL     OW 8965   0.771   2.471   3.647
 2689SOL    HW1 8966   0.705   2.456   3.573
 2689SOL    HW2 8967   0.757   2.402   3.718
 2690SOL     OW 8968   4.115   3.417   3.900
 2690SOL    HW1 8969   4.090   3.324   3.928
 2690SOL    HW2 8970   4.145   3.416   3.805
 2691SOL     OW 8971   1.452   5.679   2.354
 2691SOL    HW1 8972   1.471   5.768   2.396
 2691SOL    HW2 8973   1.379   5.689   2.287
 2692SOL     OW 8974   0.046   6.055   3.227
 2692SOL    HW1 8975   0.095   5.979   3.271
 2692SOL    HW2 8976   7.019   6.020   3.148
 2693SOL     OW 8977   1.964   3.533   3.649
 2693SOL    HW1 8978   2.058   3.568   3.644
 2693SOL    HW2 8979   1.967   3.435   3.665
 2694SOL     OW 8980   2.406   6.690   3.030
 2694SOL    HW1 8981   2.354   6.755   2.974
 2694SOL    HW2 8982   2.496   6.675   2.989
 2695SOL     OW 8983   4.810   2.160   2.373
 2695SOL    HW1 8984   4.717   2.173   2.337
 2695SOL    HW2 8985   4.809   2.172   2.472
 2696SOL     OW 8986   4.008   3.875   5.383
 2696SOL    HW1 8987   3.963   3.951   5.431
 2696SOL    HW2 8988   4.101   3.903   5.357
 2697SOL     OW 8989   3.416   1.604   4.097
 2697SOL    HW1 8990   3.499   1.584   4.045
 2697SOL    HW2 8991   3.360   1.670   4.047
 2698SOL     OW 8992   0.884   4.228   0.594
 2698SOL    HW1 8993   0.903   4.130   0.595
 2698SOL    HW2 8994   0.800   4.247   0.645
 2699SOL     OW 8995   3.817   5.834   1.603
 2699SOL    HW1 8996   3.721   5.837   1.632
 2699SOL    HW2 8997   3.861   5.752   1.641
 2700SOL     OW 8998   1.686   3.484   2.775
 2700SOL    HW1 8999   1.716   3.515   2.865
 2700SOL    HW2 9000   1.591   3.455   2.780
 2701SOL     OW 9001   3.758   0.246   6.300
 2701SOL    HW1 9002   3.845   0.232   6.346
 2701SOL    HW2 9003   3.698   0.169   6.317
 2702SOL     OW 9004   0.130   1.344   3.330
 2702SOL    HW1 9005   0.079   1.406   3.388
 2702SOL    HW2 9006   0.116   1.250   3.361
 2703SOL     OW 9007   1.884   1.714   2.333
 2703SOL    HW1 9008   1.940   1.777   2.387
 2703SOL    HW2 9009   1.788   1.725   2.357
 2704SOL     OW 9010   2.772   5.234   1.723
 2704SOL    HW1 9011   2.705   5.186   1.666
 2704SOL    HW2 9012   2.861   5.189   1.715
 2705SOL     OW 9013   6.172   5.892   3.725
 2705SOL    HW1 9014   6.269   5.897   3.704
 2705SOL    HW2 9015   6.158   5.845   3.812
 2706SOL     OW 9016   6.516   1.623   2.276
 2706SOL    HW1 9017   6.596   1.678   2.299
 2706SOL    HW2 9018   6.438   1.652   2.333
 2707SOL     OW 9019   1.749   1.930   6.532
 2707SOL    HW1 9020   1.717   1.841   6.562
 2707SOL    HW2 9021   1.677   1.998   6.547
 2708SOL     OW 9022   1.883   2.792   1.773
 2708SOL    HW1 9023   1.938   2.717   1.737
 2708SOL    HW2 9024   1.881   2.787   1.873
 2709SOL     OW 9025   5.320   5.830   1.106
 2709SOL    HW1 9026   5.278   5.921   1.114
 2709SOL    HW2 9027   5.385   5.830   1.030
 2710SOL     OW 9028   0.059   3.870   2.512
 2710SOL    HW1 9029   0.085   3.846   2.418
 2710SOL    HW2 9030   0.009   3.794   2.553
 2711SOL     OW 9031   1.027   0.319   1.854
 2711SOL    HW1 9032   1.108   0.368   1.821
 2711SOL    HW2 9033   1.003   0.351   1.945
 2712SOL     OW 9034   2.541   4.609   0.695
 2712SOL    HW1 9035   2.550   4.706   0.674
 2712SOL    HW2 9036   2.517   4.559   0.612
 2713SOL     OW 9037   2.416   3.224   5.383
 2713SOL    HW1 9038   2.449   3.156   5.318
 2713SOL    HW2 9039   2.487   3.241   5.452
 2714SOL     OW 9040   5.151   0.531   5.742
 2714SOL    HW1 9041   5.111   0.575   5.823
 2714SOL    HW2 9042   5.199   0.448   5.770
 2715SOL     OW 9043   5.895   1.260   6.616
 2715SOL    HW1 9044   5.839   1.289   6.538
 2715SOL    HW2 9045   5.969   1.201   6.585
 2716SOL     OW 9046   0.056   5.679   2.346
 2716SOL    HW1 9047   0.050   5.688   2.445
 2716SOL    HW2 9048   0.118   5.749   2.310
 2717SOL     OW 9049   0.871   0.027   3.270
 2717SOL    HW1 9050   0.849   0.001   3.364
 2717SOL    HW2 9051   0.895   6.969   3.217
 2718SOL     OW 9052   2.116   4.469   4.116
 2718SOL    HW1 9053   2.198   4.505   4.072
 2718SOL    HW2 9054   2.074   4.399   4.058
 2719SOL     OW 9055   4.417   5.297   2.088
 2719SOL    HW1 9056   4.490   5.355   2.050
 2719SOL    HW2 9057   4.452   5.246   2.166
 2720SOL     OW 9058   1.777   6.678   4.138
 2720SOL    HW1 9059   1.830   6.735   4.076
 2720SOL    HW2 9060   1.838   6.627   4.198
 2721SOL     OW 9061   3.332   6.853   4.141
 2721SOL    HW1 9062   3.423   6.856   4.181
 2721SOL    HW2 9063   3.264   6.873   4.211
 2722SOL     OW 9064   0.562   6.274   3.228
 2722SOL    HW1 9065   0.567   6.174   3.228
 2722SOL    HW2 9066   0.649   6.312   3.197
 2723SOL     OW 9067   2.078   1.061   5.761
 2723SOL    HW1 9068   2.072   1.043   5.859
 2723SOL    HW2 9069   2.132   0.989   5.717
 2724SOL     OW 9070   4.228   5.800   6.765
 2724SOL    HW1 9071   4.196   5.716   6.721
 2724SOL    HW2 9072   4.325   5.813   6.744
 2725SOL     OW 9073   4.110   4.775   4.113
 2725SOL    HW1 9074   4.012   4.787   4.094
 2725SOL    HW2 9075   4.156   4.742   4.030
 2726SOL     OW 9076   5.050   5.035   1.779
 2726SOL    HW1 9077   5.008   5.094   1.710
 2726SOL    HW2 9078   4.985   5.017   1.853
 2727SOL     OW 9079   1.001   4.920   2.550
 2727SOL    HW1 9080   0.903   4.900   2.536
 2727SOL    HW2 9081   1.043   4.942   2.462
 2728SOL     OW 9082   2.538   6.472   5.593
 2728SOL    HW1 9083   2.577   6.552   5.547
 2728SOL    HW2 9084   2.571   6.389   5.548
 2729SOL     OW 9085   5.702   5.042   3.036
 2729SOL    HW1 9086   5.753   5.052   3.122
 2729SOL    HW2 9087   5.675   5.133   3.003
 2730SOL     OW 9088   1.818   0.379   1.010
 2730SOL    HW1 9089   1.749   0.445   0.981
 2730SOL    HW2 9090   1.849   0.326   0.931
 2731SOL     OW 9091   2.955   3.792   1.697
 2731SOL    HW1 9092   3.035   3.846   1.727
 2731SOL    HW2 9093   2.938   3.719   1.763
 2732SOL     OW 9094   5.148   2.079   2.571
 2732SOL    HW1 9095   5.198   2.004   2.527
 2732SOL    HW2 9096   5.155   2.071   2.670
 2733SOL     OW 9097   1.179   6.511   5.716
 2733SOL    HW1 9098   1.258   6.571   5.711
 2733SOL    HW2 9099   1.098   6.564   5.743
 2734SOL     OW 9100   1.991   6.394   3.792
 2734SOL    HW1 9101   2.055   6.470   3.804
 2734SOL    HW2 9102   2.030   6.311   3.830
 2735SOL     OW 9103   1.402   5.063   2.348
 2735SOL    HW1 9104   1.486   5.116   2.334
 2735SOL    HW2 9105   1.425   4.966   2.356
 2736SOL     OW 9106   4.220   0.443   4.835
 2736SOL    HW1 9107   4.306   0.488   4.857
 2736SOL    HW2 9108   4.144   0.506   4.849
 2737SOL     OW 9109   4.321   3.708   6.440
 2737SOL    HW1 9110   4.415   3.674   6.449
 2737SOL    HW2 9111   4.324   3.802   6.406
 2738SOL     OW 9112   5.609   5.097   4.682
 2738SOL    HW1 9113   5.532   5.035   4.665
 2738SOL    HW2 9114   5.607   5.172   4.616
 2739SOL     OW 9115   5.136   3.338   1.458
 2739SOL    HW1 9116   5.194   3.390   1.396
 2739SOL    HW2 9117   5.040   3.349   1.432
 2740SOL     OW 9118   5.850   2.624   3.283
 2740SOL    HW1 9119   5.920   2.594   3.218
 2740SOL    HW2 9120   5.767   2.571   3.267
 2741SOL     OW 9121   0.747   2.739   5.574
 2741SOL    HW1 9122   0.842   2.706   5.574
 2741SOL    HW2 9123   0.696   2.694   5.501
 2742SOL     OW 9124   2.034   6.385   6.736
 2742SOL    HW1 9125   2.041   6.285   6.730
 2742SOL    HW2 9126   1.963   6.409   6.802
 2743SOL     OW 9127   5.345   4.734   1.425
 2743SOL    HW1 9128   5.390   4.645   1.414
 2743SOL    HW2 9129   5.253   4.730   1.386
 2744SOL     OW 9130   3.891   2.103   5.752
 2744SOL    HW1 9131   3.989   2.097   5.732
 2744SOL    HW2 9132   3.864   2.027   5.811
 2745SOL     OW 9133   2.555   6.156   1.101
 2745SOL    HW1 9134   2.535   6.091   1.174
 2745SOL    HW2 9135   2.605   6.234   1.138
 2746SOL     OW 9136   1.942   1.817   6.382
 2746SOL    HW1 9137   1.968   1.725   6.410
 2746SOL    HW2 9138   1.883   1.858   6.452
 2747SOL     OW 9139   5.502   6.718   4.012
 2747SOL    HW1 9140   5.464   6.712   4.104
 2747SOL    HW2 9141   5.533   6.627   3.983
 2748SOL     OW 9142   3.619   1.358   2.772
 2748SOL    HW1 9143   3.667   1.279   2.734
 2748SOL    HW2 9144   3.645   1.440   2.722
 2749SOL     OW 9145   4.644   5.045   4.289
 2749SOL    HW1 9146   4.733   5.076   4.322
 2749SOL    HW2 9147   4.574   5.066   4.357
 2750SOL     OW 9148   0.564   5.910   2.599
 2750SOL    HW1 9149   0.656   5.938   2.571
 2750SOL    HW2 9150   0.570   5.851   2.680
 2751SOL     OW 9151   1.936   6.772   6.851
 2751SOL    HW1 9152   1.864   6.837   6.826
 2751SOL    HW2 9153   2.008   6.820   6.901
 2752SOL     OW 9154   5.674   6.098   5.574
 2752SOL    HW1 9155   5.622   6.047   5.505
 2752SOL    HW2 9156   5.771   6.094   5.551
 2753SOL     OW 9157   4.169   5.883   6.380
 2753SOL    HW1 9158   4.130   5.940   6.452
 2753SOL    HW2 9159   4.100   5.819   6.347
 2754SOL     OW 9160   0.563   1.068   4.530
 2754SOL    HW1 9161   0.481   1.073   4.474
 2754SOL    HW2 9162   0.579   0.973   4.558
 2755SOL     OW 9163   2.821   6.502   2.016
 2755SOL    HW1 9164   2.809   6.438   2.092
 2755SOL    HW2 9165   2.744   6.493   1.953
 2756SOL     OW 9166   6.928   3.172   5.782
 2756SOL    HW1 9167   6.922   3.075   5.758
 2756SOL    HW2 9168   6.842   3.201   5.823
 2757SOL     OW 9169   4.309   2.773   6.688
 2757SOL    HW1 9170   4.347   2.738   6.773
 2757SOL    HW2 9171   4.375   2.760   6.614
 2758SOL     OW 9172   5.948   5.724   2.825
 2758SOL    HW1 9173   5.854   5.753   2.843
 2758SOL    HW2 9174   5.977   5.759   2.736
 2759SOL     OW 9175   3.336   4.081   6.366
 2759SOL    HW1 9176   3.327   4.171   6.408
 2759SOL    HW2 9177   3.284   4.078   6.281
 2760SOL     OW 9178   5.318   6.056   3.513
 2760SOL    HW1 9179   5.305   5.957   3.507
 2760SOL    HW2 9180   5.239   6.102   3.475
 2761SOL     OW 9181   1.857   3.284   2.642
 2761SOL    HW1 9182   1.783   3.323   2.696
 2761SOL    HW2 9183   1.940   3.338   2.656
 2762SOL     OW 9184   1.863   1.947   0.559
 2762SOL    HW1 9185   1.804   1.868   0.549
 2762SOL    HW2 9186   1.820   2.014   0.619
 2763SOL     OW 9187   4.994   1.685   5.286
 2763SOL    HW1 9188   5.052   1.644   5.215
 2763SOL    HW2 9189   4.953   1.769   5.250
 2764SOL     OW 9190   0.926   4.139   2.189
 2764SOL    HW1 9191   0.986   4.080   2.135
 2764SOL    HW2 9192   0.846   4.086   2.220
 2765SOL     OW 9193   6.735   6.400   6.726
 2765SOL    HW1 9194   6.711   6.454   6.645
 2765SOL    HW2 9195   6.766   6.461   6.798
 2766SOL     OW 9196   5.782   0.660   6.506
 2766SOL    HW1 9197   5.779   0.710   6.593
 2766SOL    HW2 9198   5.690   0.631   6.481
 2767SOL     OW 9199   0.058   5.191   6.263
 2767SOL    HW1 9200   0.006   5.112   6.230
 2767SOL    HW2 9201   0.155   5.168   6.270
 2768SOL     OW 9202   4.661   6.989   1.135
 2768SOL    HW1 9203   4.759   7.002   1.152
 2768SOL    HW2 9204   4.643   6.893   1.114
 2769SOL     OW 9205   1.785   4.527   5.362
 2769SOL    HW1 9206   1.763   4.470   5.283
 2769SOL    HW2 9207   1.847   4.476   5.423
 2770SOL     OW 9208   2.823   6.581   0.785
 2770SOL    HW1 9209   2.741   6.553   0.734
 2770SOL    HW2 9210   2.904   6.541   0.741
 2771SOL     OW 9211   4.618   0.420   4.747
 2771SOL    HW1 9212   4.609   0.446   4.650
 2771SOL    HW2 9213   4.579   0.492   4.804
 2772SOL     OW 9214   3.842   0.476   3.201
 2772SOL    HW1 9215   3.758   0.432   3.168
 2772SOL    HW2 9216   3.899   0.409   3.248
 2773SOL     OW 9217   6.131   2.595   3.896
 2773SOL    HW1 9218   6.184   2.679   3.908
 2773SOL    HW2 9219   6.057   2.592   3.963
 2774SOL     OW 9220   5.177   1.776   3.593
 2774SOL    HW1 9221   5.115   1.721   3.538
 2774SOL    HW2 9222   5.193   1.730   3.681
 2775SOL     OW 9223   0.828   4.197   4.374
 2775SOL    HW1 9224   0.839   4.228   4.468
 2775SOL    HW2 9225   0.820   4.277   4.313
 2776SOL     OW 9226   4.971   4.106   5.880
 2776SOL    HW1 9227   4.873   4.104   5.860
 2776SOL    HW2 9228   4.987   4.074   5.973
 2777SOL     OW 9229   3.038   1.831   6.491
 2777SOL    HW1 9230   2.961   1.888   6.521
 2777SOL    HW2 9231   3.120   1.888   6.483
 2778SOL     OW 9232   3.045   6.032   6.519
 2778SOL    HW1 9233   3.068   6.085   6.437
 2778SOL    HW2 9234   3.025   6.095   6.594
 2779SOL     OW 9235   6.004   6.646   1.807
 2779SOL    HW1 9236   6.051   6.710   1.868
 2779SOL    HW2 9237   6.071   6.584   1.766
 2780SOL     OW 9238   0.608   1.812   5.553
 2780SOL    HW1 9239   0.664   1.842   5.630
 2780SOL    HW2 9240   0.525   1.867   5.548
 2781SOL     OW 9241   6.132   0.669   2.984
 2781SOL    HW1 9242   6.113   0.758   3.026
 2781SOL    HW2 9243   6.046   0.629   2.951
 2782SOL     OW 9244   4.332   0.900   0.265
 2782SOL    HW1 9245   4.419   0.864   0.230
 2782SOL    HW2 9246   4.290   0.958   0.195
 2783SOL     OW 9247   5.663   3.698   1.492
 2783SOL    HW1 9248   5.592   3.654   1.547
 2783SOL    HW2 9249   5.650   3.797   1.495
 2784SOL     OW 9250   1.255   1.380   0.962
 2784SOL    HW1 9251   1.339   1.402   1.011
 2784SOL    HW2 9252   1.245   1.281   0.956
 2785SOL     OW 9253   5.491   2.670   1.665
 2785SOL    HW1 9254   5.494   2.755   1.717
 2785SOL    HW2 9255   5.513   2.593   1.725
 2786SOL     OW 9256   0.140   6.642   0.129
 2786SOL    HW1 9257   0.063   6.700   0.156
 2786SOL    HW2 9258   0.132   6.553   0.175
 2787SOL     OW 9259   6.316   4.819   6.513
 2787SOL    HW1 9260   6.299   4.894   6.449
 2787SOL    HW2 9261   6.311   4.732   6.464
 2788SOL     OW 9262   2.892   6.230   5.545
 2788SOL    HW1 9263   2.935   6.147   5.509
 2788SOL    HW2 9264   2.793   6.223   5.536
 2789SOL     OW 9265   0.742   2.659   5.063
 2789SOL    HW1 9266   0.786   2.588   5.118
 2789SOL    HW2 9267   0.775   2.654   4.968
 2790SOL     OW 9268   1.492   5.880   1.410
 2790SOL    HW1 9269   1.536   5.927   1.486
 2790SOL    HW2 9270   1.557   5.869   1.334
 2791SOL     OW 9271   0.113   4.063   3.151
 2791SOL    HW1 9272   0.017   4.087   3.136
 2791SOL    HW2 9273   0.165   4.146   3.172
 2792SOL     OW 9274   3.211   1.683   5.370
 2792SOL    HW1 9275   3.128   1.704   5.421
 2792SOL    HW2 9276   3.283   1.653   5.434
 2793SOL     OW 9277   3.294   4.347   1.153
 2793SOL    HW1 9278   3.287   4.437   1.195
 2793SOL    HW2 9279   3.259   4.278   1.216
 2794SOL     OW 9280   0.600   2.441   6.161
 2794SOL    HW1 9281   0.543   2.501   6.217
 2794SOL    HW2 9282   0.634   2.366   6.217
 2795SOL     OW 9283   0.763   4.717   1.511
 2795SOL    HW1 9284   0.724   4.627   1.532
 2795SOL    HW2 9285   0.858   4.706   1.480
 2796SOL     OW 9286   1.476   6.233   5.581
 2796SOL    HW1 9287   1.529   6.183   5.513
 2796SOL    HW2 9288   1.403   6.284   5.536
 2797SOL     OW 9289   5.640   6.811   3.748
 2797SOL    HW1 9290   5.679   6.868   3.676
 2797SOL    HW2 9291   5.711   6.788   3.814
 2798SOL     OW 9292   5.907   0.283   1.508
 2798SOL    HW1 9293   5.843   0.210   1.533
 2798SOL    HW2 9294   5.898   0.358   1.574
 2799SOL     OW 9295   3.502   5.918   5.355
 2799SOL    HW1 9296   3.495   5.997   5.415
 2799SOL    HW2 9297   3.592   5.875   5.365
 2800SOL     OW 9298   6.101   0.377   6.592
 2800SOL    HW1 9299   6.174   0.309   6.591
 2800SOL    HW2 9300   6.126   0.453   6.653
 2801SOL     OW 9301   0.615   5.015   5.623
 2801SOL    HW1 9302   0.656   5.013   5.714
 2801SOL    HW2 9303   0.672   5.069   5.561
 2802SOL     OW 9304   6.899   4.956   5.663
 2802SOL    HW1 9305   6.844   5.036   5.638
 2802SOL    HW2 9306   6.944   4.973   5.751
 2803SOL     OW 9307   3.516   2.427   6.872
 2803SOL    HW1 9308   3.556   2.339   6.846
 2803SOL    HW2 9309   3.582   2.477   6.928
 2804SOL     OW 9310   0.363   2.717   3.695
 2804SOL    HW1 9311   0.363   2.636   3.753
 2804SOL    HW2 9312   0.451   2.726   3.649
 2805SOL     OW 9313   4.509   3.312   1.204
 2805SOL    HW1 9314   4.450   3.248   1.254
 2805SOL    HW2 9315   4.563   3.262   1.137
 2806SOL     OW 9316   0.135   4.103   6.087
 2806SOL    HW1 9317   0.185   4.059   6.012
 2806SOL    HW2 9318   0.149   4.202   6.082
 2807SOL     OW 9319   2.987   0.514   3.514
 2807SOL    HW1 9320   2.965   0.443   3.580
 2807SOL    HW2 9321   3.045   0.583   3.557
 2808SOL     OW 9322   6.720   4.783   6.709
 2808SOL    HW1 9323   6.626   4.815   6.722
 2808SOL    HW2 9324   6.776   4.814   6.786
 2809SOL     OW 9325   6.544   4.960   2.073
 2809SOL    HW1 9326   6.483   5.036   2.095
 2809SOL    HW2 9327   6.554   4.900   2.152
 2810SOL     OW 9328   2.393   5.628   2.897
 2810SOL    HW1 9329   2.393   5.661   2.991
 2810SOL    HW2 9330   2.354   5.536   2.894
 2811SOL     OW 9331   0.723   0.390   1.877
 2811SOL    HW1 9332   0.807   0.415   1.828
 2811SOL    HW2 9333   0.649   0.380   1.811
 2812SOL     OW 9334   0.661   3.057   1.336
 2812SOL    HW1 9335   0.710   3.046   1.422
 2812SOL    HW2 9336   0.606   2.975   1.319
 2813SOL     OW 9337   0.652   2.459   1.562
 2813SOL    HW1 9338   0.582   2.531   1.559
 2813SOL    HW2 9339   0.614   2.374   1.525
 2814SOL     OW 9340   2.263   4.221   0.081
 2814SOL    HW1 9341   2.206   4.249   0.004
 2814SOL    HW2 9342   2.206   4.177   0.150
 2815SOL     OW 9343   0.380   5.633   5.474
 2815SOL    HW1 9344   0.308   5.568   5.498
 2815SOL    HW2 9345   0.341   5.708   5.420
 2816SOL     OW 9346   0.792   5.924   6.036
 2816SOL    HW1 9347   0.884   5.944   6.069
 2816SOL    HW2 9348   0.797   5.863   5.957
 2817SOL     OW 9349   4.418   0.993   2.018
 2817SOL    HW1 9350   4.319   1.005   2.005
 2817SOL    HW2 9351   4.458   0.956   1.934
 2818SOL     OW 9352   1.007   0.239   1.084
 2818SOL    HW1 9353   0.916   0.269   1.055
 2818SOL    HW2 9354   1.057   0.203   1.006
 2819SOL     OW 9355   0.699   0.432   6.961
 2819SOL    HW1 9356   0.740   0.342   6.977
 2819SOL    HW2 9357   0.755   0.481   6.894
 2820SOL     OW 9358   0.863   2.781   1.448
 2820SOL    HW1 9359   0.875   2.857   1.512
 2820SOL    HW2 9360   0.868   2.694   1.498
 2821SOL     OW 9361   3.186   3.646   6.272
 2821SOL    HW1 9362   3.152   3.645   6.366
 2821SOL    HW2 9363   3.115   3.613   6.210
 2822SOL     OW 9364   4.510   2.735   1.060
 2822SOL    HW1 9365   4.478   2.644   1.086
 2822SOL    HW2 9366   4.537   2.735   0.963
 2823SOL     OW 9367   5.853   1.985   1.396
 2823SOL    HW1 9368   5.770   2.037   1.415
 2823SOL    HW2 9369   5.829   1.891   1.371
 2824SOL     OW 9370   1.063   3.998   5.069
 2824SOL    HW1 9371   1.099   3.968   4.980
 2824SOL    HW2 9372   1.122   3.963   5.142
 2825SOL     OW 9373   5.271   1.650   6.403
 2825SOL    HW1 9374   5.188   1.678   6.452
 2825SOL    HW2 9375   5.334   1.605   6.467
 2826SOL     OW 9376   2.238   3.385   0.066
 2826SOL    HW1 9377   2.203   3.303   0.112
 2826SOL    HW2 9378   2.192   3.466   0.102
 2827SOL     OW 9379   6.739   0.957   6.082
 2827SOL    HW1 9380   6.661   0.905   6.046
 2827SOL    HW2 9381   6.711   1.006   6.165
 2828SOL     OW 9382   1.353   3.852   0.717
 2828SOL    HW1 9383   1.408   3.911   0.776
 2828SOL    HW2 9384   1.257   3.879   0.723
 2829SOL     OW 9385   3.636   4.098   3.428
 2829SOL    HW1 9386   3.642   4.055   3.518
 2829SOL    HW2 9387   3.711   4.164   3.417
 2830SOL     OW 9388   3.136   4.782   5.558
 2830SOL    HW1 9389   3.103   4.762   5.650
 2830SOL    HW2 9390   3.117   4.878   5.536
 2831SOL     OW 9391   6.084   1.637   2.273
 2831SOL    HW1 9392   5.998   1.617   2.226
 2831SOL    HW2 9393   6.068   1.704   2.346
 2832SOL     OW 9394   0.625   3.566   1.319
 2832SOL    HW1 9395   0.628   3.497   1.391
 2832SOL    HW2 9396   0.580   3.528   1.238
 2833SOL     OW 9397   1.602   2.001   2.110
 2833SOL    HW1 9398   1.521   1.965   2.065
 2833SOL    HW2 9399   1.684   1.958   2.071
 2834SOL     OW 9400   3.348   6.329   5.703
 2834SOL    HW1 9401   3.341   6.257   5.772
 2834SOL    HW2 9402   3.415   6.397   5.733
 2835SOL     OW 9403   7.021   0.025   0.079
 2835SOL    HW1 9404   6.934   0.065   0.049
 2835SOL    HW2 9405   7.006   6.953   0.105
 2836SOL     OW 9406   3.425   6.485   2.739
 2836SOL    HW1 9407   3.462   6.395   2.712
 2836SOL    HW2 9408   3.481   6.557   2.698
 2837SOL     OW 9409   5.058   4.283   2.532
 2837SOL    HW1 9410   5.121   4.290   2.610
 2837SOL    HW2 9411   4.967   4.313   2.560
 2838SOL     OW 9412   5.521   4.337   5.845
 2838SOL    HW1 9413   5.552   4.336   5.940
 2838SOL    HW2 9414   5.432   4.383   5.840
 2839SOL     OW 9415   5.910   2.856   5.014
 2839SOL    HW1 9416   5.837   2.819   5.072
 2839SOL    HW2 9417   5.995   2.863   5.066
 2840SOL     OW 9418   0.135   6.239   4.019
 2840SOL    HW1 9419   0.151   6.320   3.963
 2840SOL    HW2 9420   0.038   6.234   4.043
 2841SOL     OW 9421   6.270   2.973   2.152
 2841SOL    HW1 9422   6.288   3.063   2.193
 2841SOL    HW2 9423   6.273   2.903   2.223
 2842SOL     OW 9424   1.194   6.889   3.041
 2842SOL    HW1 9425   1.217   6.984   3.024
 2842SOL    HW2 9426   1.199   6.837   2.956
 2843SOL     OW 9427   2.310   2.802   3.341
 2843SOL    HW1 9428   2.306   2.727   3.407
 2843SOL    HW2 9429   2.309   2.765   3.248
 2844SOL     OW 9430   5.004   4.394   0.928
 2844SOL    HW1 9431   4.990   4.405   0.829
 2844SOL    HW2 9432   5.080   4.450   0.958
 2845SOL     OW 9433   3.239   2.009   2.997
 2845SOL    HW1 9434   3.226   1.936   3.064
 2845SOL    HW2 9435   3.326   2.055   3.014
 2846SOL     OW 9436   5.674   0.602   0.110
 2846SOL    HW1 9437   5.576   0.617   0.107
 2846SOL    HW2 9438   5.695   0.506   0.092
 2847SOL     OW 9439   4.458   4.968   2.567
 2847SOL    HW1 9440   4.491   5.055   2.530
 2847SOL    HW2 9441   4.448   4.902   2.493
 2848SOL     OW 9442   0.827   4.156   5.368
 2848SOL    HW1 9443   0.828   4.181   5.271
 2848SOL    HW2 9444   0.916   4.179   5.408
 2849SOL     OW 9445   5.012   0.740   2.552
 2849SOL    HW1 9446   4.998   0.740   2.651
 2849SOL    HW2 9447   4.980   0.827   2.514
 2850SOL     OW 9448   1.915   6.981   2.800
 2850SOL    HW1 9449   1.889   6.946   2.889
 2850SOL    HW2 9450   1.957   6.908   2.746
 2851SOL     OW 9451   3.808   3.675   0.647
 2851SOL    HW1 9452   3.844   3.761   0.681
 2851SOL    HW2 9453   3.803   3.608   0.721
 2852SOL     OW 9454   6.329   4.141   5.806
 2852SOL    HW1 9455   6.381   4.056   5.811
 2852SOL    HW2 9456   6.272   4.151   5.887
 2853SOL     OW 9457   0.372   3.882   6.894
 2853SOL    HW1 9458   0.351   3.787   6.872
 2853SOL    HW2 9459   0.391   3.933   6.809
 2854SOL     OW 9460   3.367   1.309   6.117
 2854SOL    HW1 9461   3.315   1.263   6.045
 2854SOL    HW2 9462   3.338   1.405   6.123
 2855SOL     OW 9463   2.133   1.376   5.089
 2855SOL    HW1 9464   2.164   1.317   5.163
 2855SOL    HW2 9465   2.132   1.325   5.003
 2856SOL     OW 9466   0.215   5.434   3.234
 2856SOL    HW1 9467   0.189   5.348   3.279
 2856SOL    HW2 9468   0.305   5.424   3.194
 2857SOL     OW 9469   0.251   3.509   0.346
 2857SOL    HW1 9470   0.285   3.479   0.435
 2857SOL    HW2 9471   0.157   3.477   0.333
 2858SOL     OW 9472   4.627   5.272   2.754
 2858SOL    HW1 9473   4.558   5.239   2.818
 2858SOL    HW2 9474   4.603   5.244   2.661
 2859SOL     OW 9475   4.958   4.396   1.296
 2859SOL    HW1 9476   4.906   4.326   1.345
 2859SOL    HW2 9477   4.900   4.436   1.225
 2860SOL     OW 9478   0.709   6.443   2.349
 2860SOL    HW1 9479   0.665   6.530   2.326
 2860SOL    HW2 9480   0.730   6.393   2.265
 2861SOL     OW 9481   4.717   4.797   6.836
 2861SOL    HW1 9482   4.619   4.790   6.818
 2861SOL    HW2 9483   4.735   4.874   6.896
 2862SOL     OW 9484   3.954   3.087   0.728
 2862SOL    HW1 9485   4.008   3.076   0.645
 2862SOL    HW2 9486   3.897   3.006   0.742
 2863SOL     OW 9487   5.700   6.859   5.468
 2863SOL    HW1 9488   5.759   6.912   5.408
 2863SOL    HW2 9489   5.634   6.807   5.412
 2864SOL     OW 9490   3.885   3.701   0.325
 2864SOL    HW1 9491   3.869   3.783   0.271
 2864SOL    HW2 9492   3.879   3.724   0.422
 2865SOL     OW 9493   4.857   5.772   4.284
 2865SOL    HW1 9494   4.880   5.723   4.368
 2865SOL    HW2 9495   4.885   5.868   4.293
 2866SOL     OW 9496   4.505   4.694   0.129
 2866SOL    HW1 9497   4.481   4.772   0.070
 2866SOL    HW2 9498   4.552   4.625   0.075
 2867SOL     OW 9499   5.519   6.131   1.811
 2867SOL    HW1 9500   5.541   6.044   1.854
 2867SOL    HW2 9501   5.464   6.187   1.874
 2868SOL     OW 9502   1.102   1.820   6.097
 2868SOL    HW1 9503   1.180   1.800   6.156
 2868SOL    HW2 9504   1.086   1.919   6.096
 2869SOL     OW 9505   5.654   5.712   4.625
 2869SOL    HW1 9506   5.576   5.757   4.581
 2869SOL    HW2 9507   5.639   5.614   4.628
 2870SOL     OW 9508   6.513   1.896   1.544
 2870SOL    HW1 9509   6.496   1.850   1.632
 2870SOL    HW2 9510   6.611   1.900   1.527
 2871SOL     OW 9511   5.288   1.697   1.320
 2871SOL    HW1 9512   5.217   1.685   1.389
 2871SOL    HW2 9513   5.265   1.776   1.262
 2872SOL     OW 9514   2.346   2.497   2.198
 2872SOL    HW1 9515   2.387   2.537   2.117
 2872SOL    HW2 9516   2.395   2.413   2.222
 2873SOL     OW 9517   0.875   6.317   1.445
 2873SOL    HW1 9518   0.968   6.351   1.440
 2873SOL    HW2 9519   0.867   6.233   1.390
 2874SOL     OW 9520   2.391   0.647   2.951
 2874SOL    HW1 9521   2.305   0.628   2.905
 2874SOL    HW2 9522   2.437   0.723   2.905
 2875SOL     OW 9523   3.240   6.631   2.919
 2875SOL    HW1 9524   3.310   6.577   2.872
 2875SOL    HW2 9525   3.150   6.612   2.881
 2876SOL     OW 9526   0.957   6.084   2.089
 2876SOL    HW1 9527   1.014   6.043   2.161
 2876SOL    HW2 9528   0.941   6.017   2.017
 2877SOL     OW 9529   0.848   1.729   6.015
 2877SOL    HW1 9530   0.816   1.634   6.023
 2877SOL    HW2 9531   0.935   1.739   6.065
 2878SOL     OW 9532   4.092   3.268   4.543
 2878SOL    HW1 9533   4.073   3.312   4.455
 2878SOL    HW2 9534   4.180   3.220   4.538
 2879SOL     OW 9535   4.346   4.300   0.483
 2879SOL    HW1 9536   4.435   4.344   0.472
 2879SOL    HW2 9537   4.352   4.205   0.454
 2880SOL     OW 9538   1.793   1.514   4.585
 2880SOL    HW1 9539   1.710   1.543   4.632
 2880SOL    HW2 9540   1.777   1.426   4.540
 2881SOL     OW 9541   4.496   6.752   6.621
 2881SOL    HW1 9542   4.517   6.803   6.705
 2881SOL    HW2 9543   4.580   6.734   6.571
 2882SOL     OW 9544   4.816   6.470   0.502
 2882SOL    HW1 9545   4.741   6.506   0.557
 2882SOL    HW2 9546   4.862   6.546   0.455
 2883SOL     OW 9547   6.043   6.137   3.722
 2883SOL    HW1 9548   6.075   6.044   3.741
 2883SOL    HW2 9549   5.948   6.146   3.752
 2884SOL     OW 9550   6.797   5.245   3.140
 2884SOL    HW1 9551   6.789   5.333   3.092
 2884SOL    HW2 9552   6.713   5.228   3.192
 2885SOL     OW 9553   1.063   2.894   3.115
 2885SOL    HW1 9554   1.014   2.938   3.191
 2885SOL    HW2 9555   1.116   2.817   3.151
 2886SOL     OW 9556   2.392   4.503   5.850
 2886SOL    HW1 9557   2.307   4.549   5.876
 2886SOL    HW2 9558   2.373   4.407   5.831
 2887SOL     OW 9559   0.791   5.475   3.512
 2887SOL    HW1 9560   0.853   5.480   3.590
 2887SOL    HW2 9561   0.787   5.381   3.478
 2888SOL     OW 9562   6.470   6.986   0.161
 2888SOL    HW1 9563   6.483   6.894   0.198
 2888SOL    HW2 9564   6.486   0.030   0.233
 2889SOL     OW 9565   3.685   6.476   3.232
 2889SOL    HW1 9566   3.631   6.439   3.156
 2889SOL    HW2 9567   3.781   6.482   3.204
 2890SOL     OW 9568   3.046   0.408   1.236
 2890SOL    HW1 9569   2.947   0.408   1.250
 2890SOL    HW2 9570   3.067   0.359   1.151
 2891SOL     OW 9571   0.425   2.266   4.229
 2891SOL    HW1 9572   0.513   2.299   4.196
 2891SOL    HW2 9573   0.418   2.280   4.328
 2892SOL     OW 9574   6.784   4.021   2.613
 2892SOL    HW1 9575   6.711   4.082   2.643
 2892SOL    HW2 9576   6.848   4.070   2.555
 2893SOL     OW 9577   6.791   5.163   4.190
 2893SOL    HW1 9578   6.810   5.246   4.137
 2893SOL    HW2 9579   6.760   5.189   4.282
 2894SOL     OW 9580   1.390   5.155   2.650
 2894SOL    HW1 9581   1.361   5.226   2.586
 2894SOL    HW2 9582   1.432   5.079   2.600
 2895SOL     OW 9583   4.295   6.890   6.012
 2895SOL    HW1 9584   4.270   6.813   6.072
 2895SOL    HW2 9585   4.306   6.972   6.068
 2896SOL     OW 9586   5.548   6.037   4.693
 2896SOL    HW1 9587   5.492   6.047   4.775
 2896SOL    HW2 9588   5.552   6.125   4.645
 2897SOL     OW 9589   4.008   4.811   3.226
 2897SOL    HW1 9590   4.107   4.799   3.220
 2897SOL    HW2 9591   3.974   4.766   3.308
 2898SOL     OW 9592   5.646   3.615   2.710
 2898SOL    HW1 9593   5.699   3.534   2.682
 2898SOL    HW2 9594   5.673   3.641   2.802
 2899SOL     OW 9595   6.904   3.384   1.184
 2899SOL    HW1 9596   6.872   3.289   1.182
 2899SOL    HW2 9597   6.903   3.417   1.278
 2900SOL     OW 9598   2.685   3.696   6.614
 2900SOL    HW1 9599   2.736   3.650   6.541
 2900SOL    HW2 9600   2.729   3.783   6.636
 2901SOL     OW 9601   1.327   4.283   3.757
 2901SOL    HW1 9602   1.306   4.256   3.850
 2901SOL    HW2 9603   1.307   4.208   3.694
 2902SOL     OW 9604   0.485   6.150   3.600
 2902SOL    HW1 9605   0.562   6.211   3.617
 2902SOL    HW2 9606   0.449   6.116   3.687
 2903SOL     OW 9607   4.669   5.450   0.717
 2903SOL    HW1 9608   4.760   5.431   0.681
 2903SOL    HW2 9609   4.647   5.547   0.703
 2904SOL     OW 9610   2.352   4.282   5.283
 2904SOL    HW1 9611   2.380   4.201   5.230
 2904SOL    HW2 9612   2.341   4.360   5.221
 2905SOL     OW 9613   0.534   5.118   1.933
 2905SOL    HW1 9614   0.530   5.020   1.947
 2905SOL    HW2 9615   0.544   5.165   2.021
 2906SOL     OW 9616   5.799   6.316   2.638
 2906SOL    HW1 9617   5.729   6.387   2.648
 2906SOL    HW2 9618   5.867   6.326   2.710
 2907SOL     OW 9619   0.321   1.336   3.635
 2907SOL    HW1 9620   0.403   1.300   3.591
 2907SOL    HW2 9621   0.278   1.404   3.575
 2908SOL     OW 9622   4.627   6.987   2.411
 2908SOL    HW1 9623   4.605   0.051   2.455
 2908SOL    HW2 9624   4.545   6.930   2.406
 2909SOL     OW 9625   0.919   5.920   2.536
 2909SOL    HW1 9626   0.930   6.019   2.545
 2909SOL    HW2 9627   0.889   5.882   2.624
 2910SOL     OW 9628   6.991   1.166   3.818
 2910SOL    HW1 9629   6.959   1.203   3.731
 2910SOL    HW2 9630   0.063   1.193   3.833
 2911SOL     OW 9631   6.699   4.041   4.676
 2911SOL    HW1 9632   6.643   4.006   4.601
 2911SOL    HW2 9633   6.749   4.122   4.646
 2912SOL     OW 9634   0.137   6.831   1.503
 2912SOL    HW1 9635   0.217   6.811   1.560
 2912SOL    HW2 9636   0.155   6.801   1.409
 2913SOL     OW 9637   2.229   5.996   1.433
 2913SOL    HW1 9638   2.324   5.998   1.401
 2913SOL    HW2 9639   2.179   5.926   1.383
 2914SOL     OW 9640   5.350   5.177   0.164
 2914SOL    HW1 9641   5.378   5.162   0.069
 2914SOL    HW2 9642   5.250   5.184   0.168
 2915SOL     OW 9643   2.502   0.945   2.839
 2915SOL    HW1 9644   2.427   1.011   2.844
 2915SOL    HW2 9645   2.521   0.924   2.743
 2916SOL     OW 9646   1.408   5.796   0.143
 2916SOL    HW1 9647   1.408   5.761   0.237
 2916SOL    HW2 9648   1.369   5.888   0.141
 2917SOL     OW 9649   2.873   6.091   4.247
 2917SOL    HW1 9650   2.928   6.034   4.307
 2917SOL    HW2 9651   2.870   6.184   4.282
 2918SOL     OW 9652   5.892   3.147   1.954
 2918SOL    HW1 9653   5.900   3.244   1.979
 2918SOL    HW2 9654   5.804   3.131   1.910
 2919SOL     OW 9655   1.317   5.529   4.119
 2919SOL    HW1 9656   1.373   5.491   4.192
 2919SOL    HW2 9657   1.368   5.600   4.071
 2920SOL     OW 9658   1.211   2.208   2.409
 2920SOL    HW1 9659   1.130   2.261   2.385
 2920SOL    HW2 9660   1.207   2.118   2.364
 2921SOL     OW 9661   0.796   0.628   4.868
 2921SOL    HW1 9662   0.821   0.582   4.783
 2921SOL    HW2 9663   0.864   0.699   4.889
 2922SOL     OW 9664   3.433   0.587   3.642
 2922SOL    HW1 9665   3.533   0.578   3.641
 2922SOL    HW2 9666   3.391   0.497   3.639
 2923SOL     OW 9667   5.967   5.620   4.600
 2923SOL    HW1 9668   5.904   5.661   4.666
 2923SOL    HW2 9669   5.925   5.538   4.560
 2924SOL     OW 9670   5.977   2.648   5.387
 2924SOL    HW1 9671   5.971   2.605   5.477
 2924SOL    HW2 9672   5.894   2.627   5.335
 2925SOL     OW 9673   4.972   0.166   6.002
 2925SOL    HW1 9674   5.037   0.241   6.014
 2925SOL    HW2 9675   4.907   0.189   5.930
 2926SOL     OW 9676   0.086   2.042   4.449
 2926SOL    HW1 9677   0.063   1.960   4.501
 2926SOL    HW2 9678   0.108   2.016   4.355
 2927SOL     OW 9679   1.060   2.381   1.997
 2927SOL    HW1 9680   1.146   2.364   2.043
 2927SOL    HW2 9681   1.077   2.424   1.908
 2928SOL     OW 9682   0.079   2.786   0.182
 2928SOL    HW1 9683   7.012   2.817   0.150
 2928SOL    HW2 9684   0.091   2.813   0.277
 2929SOL     OW 9685   2.624   2.500   5.297
 2929SOL    HW1 9686   2.680   2.472   5.375
 2929SOL    HW2 9687   2.611   2.599   5.300
 2930SOL     OW 9688   6.530   4.905   5.191
 2930SOL    HW1 9689   6.569   4.972   5.127
 2930SOL    HW2 9690   6.592   4.893   5.269
 2931SOL     OW 9691   4.918   4.323   5.654
 2931SOL    HW1 9692   4.925   4.370   5.742
 2931SOL    HW2 9693   4.894   4.227   5.668
 2932SOL     OW 9694   6.427   5.510   0.718
 2932SOL    HW1 9695   6.475   5.597   0.726
 2932SOL    HW2 9696   6.329   5.525   0.729
 2933SOL     OW 9697   1.515   0.051   1.176
 2933SOL    HW1 9698   1.429   0.040   1.226
 2933SOL    HW2 9699   1.587   0.001   1.224
 2934SOL     OW 9700   4.198   4.854   0.555
 2934SOL    HW1 9701   4.165   4.937   0.511
 2934SOL    HW2 9702   4.221   4.786   0.485
 2935SOL     OW 9703   0.107   2.485   6.171
 2935SOL    HW1 9704   0.169   2.426   6.221
 2935SOL    HW2 9705   0.099   2.573   6.218
 2936SOL     OW 9706   4.484   6.337   0.813
 2936SOL    HW1 9707   4.414   6.397   0.852
 2936SOL    HW2 9708   4.486   6.349   0.714
 2937SOL     OW 9709   4.711   5.170   2.120
 2937SOL    HW1 9710   4.666   5.105   2.180
 2937SOL    HW2 9711   4.666   5.171   2.031
 2938SOL     OW 9712   6.321   5.836   0.004
 2938SOL    HW1 9713   6.314   5.746   0.047
 2938SOL    HW2 9714   6.234   5.859   6.982
 2939SOL     OW 9715   0.061   5.803   1.146
 2939SOL    HW1 9716   0.051   5.730   1.078
 2939SOL    HW2 9717   7.006   5.865   1.139
 2940SOL     OW 9718   4.821   6.366   3.565
 2940SOL    HW1 9719   4.725   6.377   3.539
 2940SOL    HW2 9720   4.856   6.454   3.598
 2941SOL     OW 9721   1.278   3.880   3.739
 2941SOL    HW1 9722   1.290   3.880   3.838
 2941SOL    HW2 9723   1.266   3.787   3.707
 2942SOL     OW 9724   3.795   1.770   1.530
 2942SOL    HW1 9725   3.855   1.846   1.555
 2942SOL    HW2 9726   3.702   1.804   1.517
 2943SOL     OW 9727   5.759   3.970   3.459
 2943SOL    HW1 9728   5.739   4.015   3.372
 2943SOL    HW2 9729   5.807   4.034   3.518
 2944SOL     OW 9730   1.528   5.836   3.083
 2944SOL    HW1 9731   1.580   5.767   3.133
 2944SOL    HW2 9732   1.586   5.916   3.066
 2945SOL     OW 9733   5.241   4.597   1.671
 2945SOL    HW1 9734   5.312   4.641   1.616
 2945SOL    HW2 9735   5.235   4.642   1.760
 2946SOL     OW 9736   3.257   3.737   5.683
 2946SOL    HW1 9737   3.186   3.769   5.620
 2946SOL    HW2 9738   3.300   3.654   5.646
 2947SOL     OW 9739   5.831   6.757   0.173
 2947SOL    HW1 9740   5.919   6.797   0.146
 2947SOL    HW2 9741   5.844   6.661   0.197
 2948SOL     OW 9742   6.394   3.916   2.091
 2948SOL    HW1 9743   6.395   4.012   2.120
 2948SOL    HW2 9744   6.365   3.911   1.995
 2949SOL     OW 9745   1.519   6.802   0.937
 2949SOL    HW1 9746   1.553   6.739   0.868
 2949SOL    HW2 9747   1.465   6.752   1.005
 2950SOL     OW 9748   5.443   4.615   2.905
 2950SOL    HW1 9749   5.475   4.700   2.863
 2950SOL    HW2 9750   5.493   4.538   2.867
 2951SOL     OW 9751   6.224   1.738   1.804
 2951SOL    HW1 9752   6.272   1.656   1.837
 2951SOL    HW2 9753   6.242   1.814   1.866
 2952SOL     OW 9754   5.653   1.453   4.275
 2952SOL    HW1 9755   5.674   1.486   4.183
 2952SOL    HW2 9756   5.578   1.507   4.313
 2953SOL     OW 9757   0.897   5.967   4.369
 2953SOL    HW1 9758   0.991   5.956   4.339
 2953SOL    HW2 9759   0.867   5.884   4.416
 2954SOL     OW 9760   6.970   4.711   6.030
 2954SOL    HW1 9761   6.936   4.677   6.117
 2954SOL    HW2 9762   6.969   4.638   5.962
 2955SOL     OW 9763   2.073   4.929   6.834
 2955SOL    HW1 9764   2.042   5.016   6.873
 2955SOL    HW2 9765   2.149   4.893   6.887
 2956SOL     OW 9766   6.105   4.235   3.649
 2956SOL    HW1 9767   6.151   4.239   3.561
 2956SOL    HW2 9768   6.164   4.276   3.719
 2957SOL     OW 9769   2.931   5.267   1.089
 2957SOL    HW1 9770   3.003   5.334   1.105
 2957SOL    HW2 9771   2.913   5.259   0.991
 2958SOL     OW 9772   2.779   5.012   2.679
 2958SOL    HW1 9773   2.749   5.092   2.731
 2958SOL    HW2 9774   2.739   5.016   2.587
 2959SOL     OW 9775   0.186   2.910   3.180
 2959SOL    HW1 9776   0.244   2.922   3.261
 2959SOL    HW2 9777   0.090   2.913   3.208
 2960SOL     OW 9778   4.650   0.589   0.541
 2960SOL    HW1 9779   4.564   0.637   0.556
 2960SOL    HW2 9780   4.724   0.655   0.525
 2961SOL     OW 9781   5.651   4.081   2.387
 2961SOL    HW1 9782   5.577   4.128   2.436
 2961SOL    HW2 9783   5.638   4.092   2.289
 2962SOL     OW 9784   0.088   6.676   2.587
 2962SOL    HW1 9785   0.029   6.690   2.508
 2962SOL    HW2 9786   0.142   6.593   2.574
 2963SOL     OW 9787   1.971   1.283   4.821
 2963SOL    HW1 9788   1.938   1.245   4.735
 2963SOL    HW2 9789   1.948   1.380   4.826
 2964SOL     OW 9790   1.393   1.933   0.312
 2964SOL    HW1 9791   1.316   1.944   0.249
 2964SOL    HW2 9792   1.385   2.000   0.386
 2965SOL     OW 9793   1.468   7.009   4.430
 2965SOL    HW1 9794   1.543   6.956   4.469
 2965SOL    HW2 9795   1.380   6.970   4.459
 2966SOL     OW 9796   3.746   5.765   3.141
 2966SOL    HW1 9797   3.742   5.665   3.151
 2966SOL    HW2 9798   3.664   5.796   3.092
 2967SOL     OW 9799   6.069   0.168   5.479
 2967SOL    HW1 9800   6.000   0.158   5.550
 2967SOL    HW2 9801   6.143   0.102   5.495
 2968SOL     OW 9802   2.000   2.379   1.212
 2968SOL    HW1 9803   2.071   2.446   1.192
 2968SOL    HW2 9804   1.910   2.424   1.208
 2969SOL     OW 9805   5.199   3.217   4.351
 2969SOL    HW1 9806   5.135   3.197   4.426
 2969SOL    HW2 9807   5.235   3.310   4.362
 2970SOL     OW 9808   2.672   2.368   4.345
 2970SOL    HW1 9809   2.633   2.447   4.299
 2970SOL    HW2 9810   2.675   2.385   4.444
 2971SOL     OW 9811   5.440   2.854   6.267
 2971SOL    HW1 9812   5.509   2.915   6.227
 2971SOL    HW2 9813   5.386   2.905   6.334
 2972SOL     OW 9814   5.720   4.888   6.924
 2972SOL    HW1 9815   5.731   4.835   6.839
 2972SOL    HW2 9816   5.678   4.830   6.994
 2973SOL     OW 9817   4.725   1.115   2.253
 2973SOL    HW1 9818   4.704   1.023   2.218
 2973SOL    HW2 9819   4.682   1.183   2.194
 2974SOL     OW 9820   4.748   6.009   3.166
 2974SOL    HW1 9821   4.759   5.959   3.081
 2974SOL    HW2 9822   4.653   6.000   3.197
 2975SOL     OW 9823   4.858   4.047   4.233
 2975SOL    HW1 9824   4.949   4.022   4.200
 2975SOL    HW2 9825   4.852   4.029   4.331
 2976SOL     OW 9826   4.122   2.211   2.161
 2976SOL    HW1 9827   4.036   2.163   2.145
 2976SOL    HW2 9828   4.134   2.284   2.093
 2977SOL     OW 9829   1.355   0.924   1.333
 2977SOL    HW1 9830   1.272   0.878   1.301
 2977SOL    HW2 9831   1.435   0.869   1.308
 2978SOL     OW 9832   4.537   5.287   6.283
 2978SOL    HW1 9833   4.633   5.305   6.264
 2978SOL    HW2 9834   4.529   5.235   6.368
 2979SOL     OW 9835   3.429   0.776   4.221
 2979SOL    HW1 9836   3.452   0.855   4.164
 2979SOL    HW2 9837   3.463   0.693   4.178
 2980SOL     OW 9838   3.781   3.584   5.953
 2980SOL    HW1 9839   3.708   3.589   6.021
 2980SOL    HW2 9840   3.742   3.570   5.862
 2981SOL     OW 9841   1.507   0.807   0.744
 2981SOL    HW1 9842   1.488   0.735   0.678
 2981SOL    HW2 9843   1.605   0.813   0.760
 2982SOL     OW 9844   0.549   0.415   1.671
 2982SOL    HW1 9845   0.522   0.411   1.575
 2982SOL    HW2 9846   0.471   0.444   1.726
 2983SOL     OW 9847   5.790   2.927   6.222
 2983SOL    HW1 9848   5.865   2.919   6.156
 2983SOL    HW2 9849   5.710   2.967   6.177
 2984SOL     OW 9850   0.206   4.705   0.707
 2984SOL    HW1 9851   0.195   4.649   0.625
 2984SOL    HW2 9852   0.297   4.691   0.745
 2985SOL     OW 9853   6.989   6.230   4.849
 2985SOL    HW1 9854   0.065   6.214   4.848
 2985SOL    HW2 9855   6.965   6.282   4.931
 2986SOL     OW 9856   3.723   4.096   2.595
 2986SOL    HW1 9857   3.814   4.064   2.569
 2986SOL    HW2 9858   3.706   4.185   2.552
 2987SOL     OW 9859   1.824   0.619   4.361
 2987SOL    HW1 9860   1.782   0.648   4.448
 2987SOL    HW2 9861   1.766   0.550   4.318
 2988SOL     OW 9862   0.865   1.939   6.993
 2988SOL    HW1 9863   0.805   1.880   6.938
 2988SOL    HW2 9864   0.809   1.994   0.032
 2989SOL     OW 9865   5.186   3.245   4.051
 2989SOL    HW1 9866   5.193   3.219   4.147
 2989SOL    HW2 9867   5.091   3.269   4.030
 2990SOL     OW 9868   5.099   1.487   4.162
 2990SOL    HW1 9869   5.058   1.546   4.232
 2990SOL    HW2 9870   5.047   1.495   4.077
 2991SOL     OW 9871   6.592   4.065   0.847
 2991SOL    HW1 9872   6.565   4.160   0.861
 2991SOL    HW2 9873   6.558   4.009   0.922
 2992SOL     OW 9874   0.340   3.654   5.286
 2992SOL    HW1 9875   0.298   3.564   5.299
 2992SOL    HW2 9876   0.400   3.674   5.363
 2993SOL     OW 9877   1.115   4.480   0.273
 2993SOL    HW1 9878   1.065   4.394   0.265
 2993SOL    HW2 9879   1.070   4.551   0.218
 2994SOL     OW 9880   4.079   6.800   6.713
 2994SOL    HW1 9881   4.099   6.767   6.805
 2994SOL    HW2 9882   3.996   6.755   6.679
 2995SOL     OW 9883   5.298   0.618   1.083
 2995SOL    HW1 9884   5.388   0.590   1.118
 2995SOL    HW2 9885   5.271   0.703   1.126
 2996SOL     OW 9886   0.285   1.612   4.770
 2996SOL    HW1 9887   0.284   1.554   4.688
 2996SOL    HW2 9888   0.281   1.708   4.742
 2997SOL     OW 9889   5.406   0.261   3.540
 2997SOL    HW1 9890   5.412   0.351   3.582
 2997SOL    HW2 9891   5.420   0.269   3.441
 2998SOL     OW 9892   2.337   1.717   2.422
 2998SOL    HW1 9893   2.399   1.707   2.500
 2998SOL    HW2 9894   2.359   1.646   2.354
 2999SOL     OW 9895   2.549   4.408   0.508
 2999SOL    HW1 9896   2.556   4.330   0.571
 2999SOL    HW2 9897   2.608   4.392   0.429
 3000SOL     OW 9898   2.985   3.998   5.127
 3000SOL    HW1 9899   2.943   4.088   5.140
 3000SOL    HW2 9900   2.928   3.943   5.065
 3001SOL     OW 9901   5.999   0.440   5.826
 3001SOL    HW1 9902   5.921   0.383   5.801
 3001SOL    HW2 9903   6.056   0.392   5.893
 3002SOL     OW 9904   2.368   1.981   1.856
 3002SOL    HW1 9905   2.455   1.935   1.839
 3002SOL    HW2 9906   2.351   1.984   1.954
 3003SOL     OW 9907   0.953   6.542   6.892
 3003SOL    HW1 9908   1.004   6.610   6.839
 3003SOL    HW2 9909   0.856   6.565   6.890
 3004SOL     OW 9910   2.419   6.311   3.770
 3004SOL    HW1 9911   2.480   6.388   3.791
 3004SOL    HW2 9912   2.446   6.270   3.683
 3005SOL     OW 9913   0.977   2.632   5.530
 3005SOL    HW1 9914   0.990   2.664   5.436
 3005SOL    HW2 9915   1.033   2.552   5.547
 3006SOL     OW 9916   5.336   1.618   5.819
 3006SOL    HW1 9917   5.383   1.655   5.738
 3006SOL    HW2 9918   5.298   1.693   5.872
 3007SOL     OW 9919   5.411   4.987   6.906
 3007SOL    HW1 9920   5.491   5.032   6.945
 3007SOL    HW2 9921   5.364   4.935   6.978
 3008SOL     OW 9922   4.992   2.750   6.125
 3008SOL    HW1 9923   4.983   2.743   6.026
 3008SOL    HW2 9924   4.903   2.733   6.168
 3009SOL     OW 9925   0.109   3.762   2.267
 3009SOL    HW1 9926   0.201   3.763   2.227
 3009SOL    HW2 9927   0.042   3.790   2.199
 3010SOL     OW 9928   4.322   6.174   6.356
 3010SOL    HW1 9929   4.254   6.247   6.362
 3010SOL    HW2 9930   4.318   6.132   6.265
 3011SOL     OW 9931   6.986   0.010   0.841
 3011SOL    HW1 9932   0.007   0.080   0.785
 3011SOL    HW2 9933   6.948   0.052   0.924
 3012SOL     OW 9934   2.523   2.718   5.984
 3012SOL    HW1 9935   2.581   2.800   5.976
 3012SOL    HW2 9936   2.429   2.747   6.004
 3013SOL     OW 9937   0.859   5.008   5.044
 3013SOL    HW1 9938   0.832   5.104   5.048
 3013SOL    HW2 9939   0.917   4.992   4.965
 3014SOL     OW 9940   4.873   0.221   5.054
 3014SOL    HW1 9941   4.802   0.270   5.104
 3014SOL    HW2 9942   4.928   0.286   5.002
 3015SOL     OW 9943   1.394   1.016   6.960
 3015SOL    HW1 9944   1.393   1.027   0.036
 3015SOL    HW2 9945   1.337   1.086   6.918
 3016SOL     OW 9946   1.920   6.796   4.562
 3016SOL    HW1 9947   1.977   6.877   4.569
 3016SOL    HW2 9948   1.827   6.822   4.534
 3017SOL     OW 9949   0.095   5.437   0.751
 3017SOL    HW1 9950   0.130   5.352   0.790
 3017SOL    HW2 9951   0.013   5.418   0.698
 3018SOL     OW 9952   3.112   0.198   0.518
 3018SOL    HW1 9953   3.078   0.124   0.460
 3018SOL    HW2 9954   3.199   0.171   0.559
 3019SOL     OW 9955   1.769   0.472   5.150
 3019SOL    HW1 9956   1.766   0.378   5.182
 3019SOL    HW2 9957   1.810   0.475   5.059
 3020SOL     OW 9958   5.439   3.446   7.006
 3020SOL    HW1 9959   5.495   3.469   0.063
 3020SOL    HW2 9960   5.385   3.526   6.979
 3021SOL     OW 9961   4.098   6.304   4.414
 3021SOL    HW1 9962   4.110   6.403   4.420
 3021SOL    HW2 9963   4.058   6.281   4.325
 3022SOL     OW 9964   4.319   5.602   4.048
 3022SOL    HW1 9965   4.388   5.662   4.009
 3022SOL    HW2 9966   4.299   5.527   3.985
 3023SOL     OW 9967   5.005   6.415   2.547
 3023SOL    HW1 9968   5.043   6.501   2.512
 3023SOL    HW2 9969   4.968   6.429   2.638
 3024SOL     OW 9970   0.001   6.011   6.536
 3024SOL    HW1 9971   0.052   6.048   6.459
 3024SOL    HW2 9972   6.935   6.057   6.543
 3025SOL     OW 9973   3.571   6.009   0.651
 3025SOL    HW1 9974   3.613   5.931   0.606
 3025SOL    HW2 9975   3.534   5.980   0.740
 3026SOL     OW 9976   6.474   0.919   0.709
 3026SOL    HW1 9977   6.428   0.932   0.621
 3026SOL    HW2 9978   6.496   0.822   0.720
 3027SOL     OW 9979   4.768   1.520   1.273
 3027SOL    HW1 9980   4.704   1.585   1.232
 3027SOL    HW2 9981   4.817   1.472   1.200
 3028SOL     OW 9982   3.362   4.152   5.597
 3028SOL    HW1 9983   3.459   4.128   5.608
 3028SOL    HW2 9984   3.333   4.130   5.504
 3029SOL     OW 9985   0.637   2.571   4.356
 3029SOL    HW1 9986   0.633   2.558   4.455
 3029SOL    HW2 9987   0.728   2.604   4.331
 3030SOL     OW 9988   2.585   3.455   0.759
 3030SOL    HW1 9989   2.618   3.548   0.740
 3030SOL    HW2 9990   2.492   3.445   0.725
 3031SOL     OW 9991   0.655   6.518   1.474
 3031SOL    HW1 9992   0.716   6.549   1.546
 3031SOL    HW2 9993   0.695   6.439   1.428
 3032SOL     OW 9994   1.995   0.574   2.099
 3032SOL    HW1 9995   1.991   0.490   2.046
 3032SOL    HW2 9996   1.930   0.640   2.062
 3033SOL     OW 9997   6.855   2.163   4.462
 3033SOL    HW1 9998   6.823   2.254   4.489
 3033SOL    HW2 9999   6.954   2.165   4.450
 3034SOL     OW10000   6.545   5.254   3.260
 3034SOL    HW110001   6.479   5.215   3.324
 3034SOL    HW210002   6.509   5.248   3.167
 3035SOL     OW10003   0.949   2.602   6.782
 3035SOL    HW110004   0.932   2.683   6.726
 3035SOL    HW210005   1.045   2.602   6.811
 3036SOL     OW10006   3.219   2.035   6.447
 3036SOL    HW110007   3.222   2.060   6.544
 3036SOL    HW210008   3.257   2.109   6.392
 3037SOL     OW10009   0.376   5.328   0.209
 3037SOL    HW110010   0.303   5.303   0.272
 3037SOL    HW210011   0.460   5.345   0.261
 3038SOL     OW10012   5.766   4.779   6.680
 3038SOL    HW110013   5.858   4.749   6.655
 3038SOL    HW210014   5.700   4.744   6.613
 3039SOL     OW10015   6.714   3.950   0.002
 3039SOL    HW110016   6.762   4.021   6.975
 3039SOL    HW210017   6.780   3.882   0.035
 3040SOL     OW10018   5.258   3.789   6.020
 3040SOL    HW110019   5.310   3.770   6.104
 3040SOL    HW210020   5.321   3.810   5.946
 3041SOL     OW10021   2.027   4.116   5.018
 3041SOL    HW110022   2.123   4.107   4.991
 3041SOL    HW210023   1.999   4.212   5.009
 3042SOL     OW10024   6.776   5.491   3.018
 3042SOL    HW110025   6.767   5.564   3.085
 3042SOL    HW210026   6.788   5.531   2.927
 3043SOL     OW10027   3.092   4.987   0.483
 3043SOL    HW110028   3.113   4.969   0.387
 3043SOL    HW210029   3.178   4.993   0.535
 3044SOL     OW10030   3.662   3.531   5.251
 3044SOL    HW110031   3.734   3.600   5.262
 3044SOL    HW210032   3.670   3.490   5.160
 3045SOL     OW10033   4.804   1.710   1.871
 3045SOL    HW110034   4.823   1.808   1.880
 3045SOL    HW210035   4.830   1.663   1.956
 3046SOL     OW10036   5.562   5.962   1.073
 3046SOL    HW110037   5.633   5.909   1.026
 3046SOL    HW210038   5.594   5.987   1.165
 3047SOL     OW10039   6.109   1.120   5.913
 3047SOL    HW110040   6.151   1.079   5.832
 3047SOL    HW210041   6.039   1.186   5.883
 3048SOL     OW10042   3.641   4.234   0.860
 3048SOL    HW110043   3.731   4.193   0.845
 3048SOL    HW210044   3.572   4.182   0.811
 3049SOL     OW10045   1.093   0.542   3.849
 3049SOL    HW110046   1.037   0.505   3.923
 3049SOL    HW210047   1.180   0.493   3.845
 3050SOL     OW10048   2.880   2.033   1.646
 3050SOL    HW110049   2.827   1.971   1.589
 3050SOL    HW210050   2.962   1.987   1.678
 3051SOL     OW10051   2.088   5.400   5.415
 3051SOL    HW110052   2.064   5.444   5.329
 3051SOL    HW210053   2.188   5.404   5.428
 3052SOL     OW10054   6.918   6.365   2.464
 3052SOL    HW110055   6.837   6.418   2.437
 3052SOL    HW210056   6.942   6.388   2.558
 3053SOL     OW10057   1.596   4.334   0.094
 3053SOL    HW110058   1.545   4.417   0.117
 3053SOL    HW210059   1.537   4.272   0.043
 3054SOL     OW10060   5.843   1.167   2.658
 3054SOL    HW110061   5.830   1.214   2.570
 3054SOL    HW210062   5.821   1.230   2.732
 3055SOL     OW10063   5.927   5.667   6.472
 3055SOL    HW110064   5.938   5.687   6.375
 3055SOL    HW210065   5.979   5.584   6.495
 3056SOL     OW10066   4.609   1.452   5.885
 3056SOL    HW110067   4.690   1.487   5.839
 3056SOL    HW210068   4.636   1.394   5.962
 3057SOL     OW10069   5.939   5.081   2.741
 3057SOL    HW110070   5.913   5.149   2.810
 3057SOL    HW210071   6.001   5.014   2.782
 3058SOL     OW10072   0.780   4.993   6.583
 3058SOL    HW110073   0.696   4.941   6.565
 3058SOL    HW210074   0.786   5.013   6.681
 3059SOL     OW10075   2.240   2.511   4.226
 3059SOL    HW110076   2.231   2.411   4.219
 3059SOL    HW210077   2.191   2.543   4.307
 3060SOL     OW10078   5.096   5.140   5.086
 3060SOL    HW110079   5.081   5.046   5.118
 3060SOL    HW210080   5.151   5.138   5.003
 3061SOL     OW10081   4.979   5.290   5.296
 3061SOL    HW110082   5.019   5.216   5.242
 3061SOL    HW210083   5.020   5.377   5.268
 3062SOL     OW10084   4.961   4.564   1.636
 3062SOL    HW110085   5.049   4.611   1.640
 3062SOL    HW210086   4.975   4.466   1.631
 3063SOL     OW10087   0.037   4.071   1.711
 3063SOL    HW110088   0.120   4.048   1.660
 3063SOL    HW210089   6.999   4.126   1.654
 3064SOL     OW10090   5.175   1.872   6.731
 3064SOL    HW110091   5.266   1.830   6.733
 3064SOL    HW210092   5.111   1.815   6.782
 3065SOL     OW10093   0.101   1.512   6.422
 3065SOL    HW110094   0.005   1.486   6.409
 3065SOL    HW210095   0.133   1.562   6.342
 3066SOL     OW10096   5.085   6.082   5.692
 3066SOL    HW110097   5.023   6.095   5.769
 3066SOL    HW210098   5.158   6.150   5.696
 3067SOL     OW10099   1.415   2.013   5.925
 3067SOL    HW110100   1.449   1.920   5.938
 3067SOL    HW210101   1.330   2.010   5.871
 3068SOL     OW10102   0.994   0.546   0.798
 3068SOL    HW110103   0.945   0.624   0.758
 3068SOL    HW210104   0.985   0.467   0.738
 3069SOL     OW10105   4.987   0.172   2.691
 3069SOL    HW110106   4.891   0.191   2.710
 3069SOL    HW210107   5.015   0.220   2.609
 3070SOL     OW10108   2.405   0.684   1.023
 3070SOL    HW110109   2.425   0.672   0.926
 3070SOL    HW210110   2.459   0.761   1.058
 3071SOL     OW10111   0.185   4.089   4.527
 3071SOL    HW110112   0.195   3.989   4.532
 3071SOL    HW210113   0.135   4.121   4.608
 3072SOL     OW10114   2.269   6.850   6.038
 3072SOL    HW110115   2.197   6.903   6.082
 3072SOL    HW210116   2.232   6.763   6.006
 3073SOL     OW10117   5.959   5.273   1.181
 3073SOL    HW110118   5.891   5.208   1.146
 3073SOL    HW210119   6.030   5.287   1.113
 3074SOL     OW10120   1.659   3.259   1.190
 3074SOL    HW110121   1.631   3.204   1.111
 3074SOL    HW210122   1.757   3.276   1.186
 3075SOL     OW10123   2.940   5.667   2.369
 3075SOL    HW110124   2.983   5.589   2.415
 3075SOL    HW210125   2.930   5.743   2.434
 3076SOL     OW10126   0.457   0.349   4.947
 3076SOL    HW110127   0.531   0.399   4.902
 3076SOL    HW210128   0.495   0.268   4.993
 3077SOL     OW10129   6.368   3.918   2.479
 3077SOL    HW110130   6.287   3.879   2.522
 3077SOL    HW210131   6.350   3.934   2.381
 3078SOL     OW10132   6.769   2.696   1.846
 3078SOL    HW110133   6.690   2.754   1.826
 3078SOL    HW210134   6.737   2.610   1.887
 3079SOL     OW10135   2.042   3.226   5.676
 3079SOL    HW110136   2.059   3.128   5.676
 3079SOL    HW210137   2.128   3.275   5.689
 3080SOL     OW10138   4.292   5.160   0.785
 3080SOL    HW110139   4.236   5.187   0.864
 3080SOL    HW210140   4.329   5.069   0.800
 3081SOL     OW10141   1.610   4.161   0.321
 3081SOL    HW110142   1.514   4.161   0.352
 3081SOL    HW210143   1.629   4.247   0.275
 3082SOL     OW10144   4.567   5.445   4.824
 3082SOL    HW110145   4.628   5.488   4.891
 3082SOL    HW210146   4.611   5.364   4.785
 3083SOL     OW10147   3.292   5.731   2.147
 3083SOL    HW110148   3.378   5.748   2.100
 3083SOL    HW210149   3.223   5.798   2.117
 3084SOL     OW10150   0.641   3.505   3.959
 3084SOL    HW110151   0.723   3.522   3.903
 3084SOL    HW210152   0.667   3.454   4.041
 3085SOL     OW10153   5.378   4.367   0.398
 3085SOL    HW110154   5.460   4.319   0.430
 3085SOL    HW210155   5.384   4.382   0.300
 3086SOL     OW10156   6.081   0.452   6.314
 3086SOL    HW110157   6.025   0.388   6.262
 3086SOL    HW210158   6.108   0.411   6.401
 3087SOL     OW10159   3.133   0.218   2.302
 3087SOL    HW110160   3.082   0.133   2.316
 3087SOL    HW210161   3.230   0.203   2.320
 3088SOL     OW10162   1.762   2.726   5.681
 3088SOL    HW110163   1.841   2.691   5.631
 3088SOL    HW210164   1.692   2.757   5.617
 3089SOL     OW10165   4.286   6.845   4.835
 3089SOL    HW110166   4.332   6.809   4.754
 3089SOL    HW210167   4.294   6.945   4.837
 3090SOL     OW10168   1.674   1.760   2.664
 3090SOL    HW110169   1.768   1.774   2.696
 3090SOL    HW210170   1.615   1.833   2.700
 3091SOL     OW10171   0.852   2.500   1.131
 3091SOL    HW110172   0.823   2.567   1.200
 3091SOL    HW210173   0.926   2.445   1.169
 3092SOL     OW10174   6.552   0.858   2.532
 3092SOL    HW110175   6.542   0.942   2.585
 3092SOL    HW210176   6.467   0.838   2.485
 3093SOL     OW10177   5.388   4.760   6.753
 3093SOL    HW110178   5.442   4.682   6.783
 3093SOL    HW210179   5.421   4.843   6.799
 3094SOL     OW10180   2.691   1.441   6.099
 3094SOL    HW110181   2.652   1.515   6.044
 3094SOL    HW210182   2.636   1.426   6.180
 3095SOL     OW10183   1.890   3.528   5.002
 3095SOL    HW110184   1.985   3.500   4.996
 3095SOL    HW210185   1.882   3.606   5.064
 3096SOL     OW10186   0.226   3.758   4.326
 3096SOL    HW110187   0.310   3.705   4.310
 3096SOL    HW210188   0.211   3.767   4.424
 3097SOL     OW10189   5.566   2.422   5.846
 3097SOL    HW110190   5.654   2.444   5.888
 3097SOL    HW210191   5.493   2.436   5.913
 3098SOL     OW10192   1.918   2.861   2.026
 3098SOL    HW110193   1.987   2.802   2.068
 3098SOL    HW210194   1.829   2.842   2.065
 3099SOL     OW10195   0.174   5.807   4.216
 3099SOL    HW110196   0.261   5.838   4.255
 3099SOL    HW210197   0.137   5.734   4.274
 3100SOL     OW10198   6.777   5.700   2.195
 3100SOL    HW110199   6.743   5.784   2.151
 3100SOL    HW210200   6.803   5.721   2.289
 3101SOL     OW10201   3.789   6.349   5.401
 3101SOL    HW110202   3.876   6.397   5.413
 3101SOL    HW210203   3.807   6.252   5.385
 3102SOL     OW10204   0.223   4.807   0.982
 3102SOL    HW110205   0.279   4.889   0.998
 3102SOL    HW210206   0.189   4.808   0.888
 3103SOL     OW10207   3.393   0.518   1.502
 3103SOL    HW110208   3.331   0.571   1.560
 3103SOL    HW210209   3.485   0.521   1.541
 3104SOL     OW10210   4.635   0.516   6.108
 3104SOL    HW110211   4.568   0.587   6.087
 3104SOL    HW210212   4.666   0.473   6.023
 3105SOL     OW10213   5.953   3.600   0.003
 3105SOL    HW110214   5.938   3.673   0.070
 3105SOL    HW210215   5.866   3.578   6.982
 3106SOL     OW10216   6.158   7.005   5.216
 3106SOL    HW110217   6.131   0.049   5.146
 3106SOL    HW210218   6.242   0.012   5.260
 3107SOL     OW10219   4.064   1.585   6.131
 3107SOL    HW110220   4.150   1.630   6.108
 3107SOL    HW210221   3.995   1.654   6.154
 3108SOL     OW10222   1.859   3.962   3.521
 3108SOL    HW110223   1.834   4.026   3.448
 3108SOL    HW210224   1.776   3.931   3.568
 3109SOL     OW10225   6.469   5.844   3.770
 3109SOL    HW110226   6.445   5.870   3.676
 3109SOL    HW210227   6.567   5.828   3.776
 3110SOL     OW10228   1.059   4.532   3.602
 3110SOL    HW110229   1.011   4.448   3.625
 3110SOL    HW210230   1.068   4.539   3.503
 3111SOL     OW10231   5.514   4.463   4.294
 3111SOL    HW110232   5.431   4.425   4.335
 3111SOL    HW210233   5.489   4.522   4.217
 3112SOL     OW10234   3.755   1.857   6.894
 3112SOL    HW110235   3.739   1.769   6.940
 3112SOL    HW210236   3.692   1.925   6.932
 3113SOL     OW10237   2.291   5.704   3.607
 3113SOL    HW110238   2.298   5.676   3.512
 3113SOL    HW210239   2.372   5.676   3.657
 3114SOL     OW10240   4.232   0.969   6.734
 3114SOL    HW110241   4.255   0.958   6.830
 3114SOL    HW210242   4.296   0.917   6.678
 3115SOL     OW10243   4.690   4.823   5.446
 3115SOL    HW110244   4.693   4.907   5.500
 3115SOL    HW210245   4.780   4.779   5.448
 3116SOL     OW10246   0.656   1.655   1.161
 3116SOL    HW110247   0.641   1.602   1.077
 3116SOL    HW210248   0.575   1.650   1.218
 3117SOL     OW10249   4.851   1.531   5.778
 3117SOL    HW110250   4.930   1.568   5.729
 3117SOL    HW210251   4.855   1.431   5.775
 3118SOL     OW10252   1.299   0.965   3.384
 3118SOL    HW110253   1.277   0.938   3.291
 3118SOL    HW210254   1.216   0.997   3.430
 3119SOL     OW10255   4.307   4.801   5.714
 3119SOL    HW110256   4.360   4.879   5.746
 3119SOL    HW210257   4.290   4.738   5.790
 3120SOL     OW10258   1.963   6.403   4.794
 3120SOL    HW110259   2.031   6.464   4.836
 3120SOL    HW210260   2.009   6.322   4.757
 3121SOL     OW10261   4.572   1.499   4.545
 3121SOL    HW110262   4.655   1.509   4.600
 3121SOL    HW210263   4.557   1.582   4.492
 3122SOL     OW10264   3.442   5.306   4.432
 3122SOL    HW110265   3.385   5.267   4.504
 3122SOL    HW210266   3.522   5.248   4.417
 3123SOL     OW10267   2.339   1.594   3.757
 3123SOL    HW110268   2.277   1.534   3.707
 3123SOL    HW210269   2.411   1.626   3.695
 3124SOL     OW10270   5.319   6.857   3.664
 3124SOL    HW110271   5.378   6.911   3.724
 3124SOL    HW210272   5.363   6.845   3.575
 3125SOL     OW10273   1.673   1.934   5.620
 3125SOL    HW110274   1.647   1.984   5.537
 3125SOL    HW210275   1.594   1.882   5.653
 3126SOL     OW10276   5.934   5.181   4.713
 3126SOL    HW110277   6.025   5.171   4.672
 3126SOL    HW210278   5.876   5.104   4.684
 3127SOL     OW10279   0.054   1.406   4.899
 3127SOL    HW110280   0.076   1.310   4.916
 3127SOL    HW210281   7.019   1.441   4.974
 3128SOL     OW10282   4.370   0.572   0.333
 3128SOL    HW110283   4.279   0.531   0.327
 3128SOL    HW210284   4.378   0.624   0.417
 3129SOL     OW10285   4.731   3.351   0.409
 3129SOL    HW110286   4.811   3.360   0.349
 3129SOL    HW210287   4.687   3.262   0.393
 3130SOL     OW10288   1.183   4.480   2.079
 3130SOL    HW110289   1.212   4.427   2.159
 3130SOL    HW210290   1.088   4.457   2.057
 3131SOL     OW10291   6.809   4.294   2.766
 3131SOL    HW110292   6.892   4.247   2.736
 3131SOL    HW210293   6.824   4.334   2.856
 3132SOL     OW10294   3.946   4.629   6.647
 3132SOL    HW110295   3.976   4.542   6.687
 3132SOL    HW210296   3.883   4.611   6.571
 3133SOL     OW10297   3.853   0.623   4.156
 3133SOL    HW110298   3.907   0.637   4.072
 3133SOL    HW210299   3.907   0.651   4.235
 3134SOL     OW10300   4.228   5.351   2.873
 3134SOL    HW110301   4.280   5.431   2.844
 3134SOL    HW210302   4.275   5.267   2.843
 3135SOL     OW10303   4.807   6.506   6.072
 3135SOL    HW110304   4.846   6.421   6.037
 3135SOL    HW210305   4.880   6.566   6.104
 3136SOL     OW10306   6.378   1.814   2.955
 3136SOL    HW110307   6.454   1.812   2.890
 3136SOL    HW210308   6.403   1.870   3.034
 3137SOL     OW10309   6.247   6.838   6.846
 3137SOL    HW110310   6.215   6.877   6.760
 3137SOL    HW210311   6.243   6.908   6.918
 3138SOL     OW10312   5.573   5.682   3.940
 3138SOL    HW110313   5.601   5.666   4.034
 3138SOL    HW210314   5.650   5.718   3.887
 3139SOL     OW10315   2.478   5.038   1.062
 3139SOL    HW110316   2.405   4.989   1.109
 3139SOL    HW210317   2.549   5.062   1.127
 3140SOL     OW10318   6.979   7.009   6.035
 3140SOL    HW110319   0.044   6.965   6.017
 3140SOL    HW210320   6.995   0.078   6.071
 3141SOL     OW10321   6.668   2.391   6.249
 3141SOL    HW110322   6.728   2.420   6.175
 3141SOL    HW210323   6.591   2.339   6.211
 3142SOL     OW10324   5.079   1.248   2.854
 3142SOL    HW110325   5.016   1.326   2.855
 3142SOL    HW210326   5.109   1.231   2.760
 3143SOL     OW10327   6.526   1.350   0.617
 3143SOL    HW110328   6.597   1.377   0.682
 3143SOL    HW210329   6.521   1.417   0.543
 3144SOL     OW10330   4.027   3.595   6.229
 3144SOL    HW110331   3.987   3.510   6.197
 3144SOL    HW210332   3.959   3.669   6.222
 3145SOL     OW10333   0.664   6.126   1.205
 3145SOL    HW110334   0.658   6.026   1.204
 3145SOL    HW210335   0.593   6.163   1.264
 3146SOL     OW10336   0.821   7.016   5.022
 3146SOL    HW110337   0.918   6.993   5.037
 3146SOL    HW210338   0.811   0.036   4.933
 3147SOL     OW10339   4.008   4.885   6.737
 3147SOL    HW110340   3.953   4.909   6.817
 3147SOL    HW210341   3.978   4.796   6.701
 3148SOL     OW10342   6.857   5.358   2.558
 3148SOL    HW110343   6.832   5.280   2.617
 3148SOL    HW210344   6.777   5.417   2.547
 3149SOL     OW10345   3.077   1.021   0.576
 3149SOL    HW110346   3.141   0.945   0.562
 3149SOL    HW210347   3.127   1.108   0.572
 3150SOL     OW10348   6.660   5.892   4.670
 3150SOL    HW110349   6.575   5.929   4.633
 3150SOL    HW210350   6.696   5.955   4.739
 3151SOL     OW10351   6.322   1.604   5.758
 3151SOL    HW110352   6.384   1.620   5.835
 3151SOL    HW210353   6.287   1.510   5.762
 3152SOL     OW10354   1.074   2.988   6.105
 3152SOL    HW110355   0.995   3.015   6.160
 3152SOL    HW210356   1.121   3.070   6.072
 3153SOL     OW10357   6.306   4.806   0.972
 3153SOL    HW110358   6.211   4.778   0.952
 3153SOL    HW210359   6.339   4.866   0.899
 3154SOL     OW10360   4.781   1.558   0.739
 3154SOL    HW110361   4.707   1.605   0.787
 3154SOL    HW210362   4.756   1.548   0.642
 3155SOL     OW10363   0.364   5.079   0.991
 3155SOL    HW110364   0.415   5.160   1.018
 3155SOL    HW210365   0.280   5.107   0.943
 3156SOL     OW10366   3.635   4.174   1.918
 3156SOL    HW110367   3.659   4.266   1.949
 3156SOL    HW210368   3.704   4.109   1.952
 3157SOL     OW10369   0.437   1.808   5.206
 3157SOL    HW110370   0.528   1.838   5.234
 3157SOL    HW210371   0.441   1.711   5.180
 3158SOL     OW10372   2.455   1.055   5.629
 3158SOL    HW110373   2.383   0.986   5.631
 3158SOL    HW210374   2.414   1.146   5.638
 3159SOL     OW10375   6.499   6.726   0.280
 3159SOL    HW110376   6.590   6.694   0.254
 3159SOL    HW210377   6.483   6.706   0.377
 3160SOL     OW10378   2.410   0.166   6.140
 3160SOL    HW110379   2.333   0.215   6.180
 3160SOL    HW210380   2.452   0.108   6.210
 3161SOL     OW10381   2.068   2.907   3.145
 3161SOL    HW110382   2.060   2.816   3.185
 3161SOL    HW210383   2.079   2.974   3.218
 3162SOL     OW10384   2.014   5.808   0.855
 3162SOL    HW110385   2.113   5.815   0.846
 3162SOL    HW210386   1.976   5.765   0.773
 3163SOL     OW10387   4.591   3.609   0.529
 3163SOL    HW110388   4.647   3.687   0.555
 3163SOL    HW210389   4.644   3.525   0.536
 3164SOL     OW10390   2.613   5.974   3.180
 3164SOL    HW110391   2.526   5.974   3.229
 3164SOL    HW210392   2.683   5.930   3.237
 3165SOL     OW10393   0.988   6.169   0.389
 3165SOL    HW110394   0.920   6.171   0.463
 3165SOL    HW210395   0.947   6.206   0.306
 3166SOL     OW10396   3.954   1.131   5.787
 3166SOL    HW110397   3.926   1.083   5.870
 3166SOL    HW210398   4.052   1.151   5.792
 3167SOL     OW10399   5.218   3.371   0.781
 3167SOL    HW110400   5.190   3.463   0.808
 3167SOL    HW210401   5.316   3.370   0.763
 3168SOL     OW10402   4.357   1.535   0.645
 3168SOL    HW110403   4.267   1.492   0.645
 3168SOL    HW210404   4.414   1.493   0.574
 3169SOL     OW10405   2.061   4.514   1.872
 3169SOL    HW110406   2.101   4.433   1.829
 3169SOL    HW210407   2.072   4.593   1.812
 3170SOL     OW10408   3.569   5.334   3.379
 3170SOL    HW110409   3.524   5.301   3.462
 3170SOL    HW210410   3.574   5.260   3.312
 3171SOL     OW10411   5.385   2.735   3.241
 3171SOL    HW110412   5.300   2.738   3.294
 3171SOL    HW210413   5.374   2.788   3.157
 3172SOL     OW10414   0.245   4.441   1.069
 3172SOL    HW110415   0.272   4.523   1.121
 3172SOL    HW210416   0.157   4.457   1.025
 3173SOL     OW10417   3.731   2.098   0.605
 3173SOL    HW110418   3.785   2.063   0.682
 3173SOL    HW210419   3.713   2.023   0.541
 3174SOL     OW10420   2.713   3.596   5.961
 3174SOL    HW110421   2.746   3.612   5.868
 3174SOL    HW210422   2.784   3.550   6.014
 3175SOL     OW10423   0.089   0.198   4.252
 3175SOL    HW110424   0.006   0.143   4.251
 3175SOL    HW210425   0.065   0.295   4.251
 3176SOL     OW10426   1.373   4.651   5.150
 3176SOL    HW110427   1.328   4.739   5.140
 3176SOL    HW210428   1.347   4.610   5.237
 3177SOL     OW10429   5.632   3.630   3.496
 3177SOL    HW110430   5.708   3.642   3.432
 3177SOL    HW210431   5.619   3.533   3.514
 3178SOL     OW10432   7.003   0.832   1.189
 3178SOL    HW110433   6.917   0.826   1.239
 3178SOL    HW210434   0.006   0.742   1.155
 3179SOL     OW10435   0.823   2.238   1.669
 3179SOL    HW110436   0.804   2.156   1.724
 3179SOL    HW210437   0.746   2.254   1.606
 3180SOL     OW10438   6.492   5.418   0.060
 3180SOL    HW110439   6.453   5.327   0.047
 3180SOL    HW210440   6.560   5.414   0.134
 3181SOL     OW10441   0.655   1.066   4.853
 3181SOL    HW110442   0.569   1.113   4.870
 3181SOL    HW210443   0.637   0.969   4.833
 3182SOL     OW10444   2.685   0.118   0.596
 3182SOL    HW110445   2.657   0.025   0.622
 3182SOL    HW210446   2.675   0.128   0.497
 3183SOL     OW10447   4.579   4.524   1.922
 3183SOL    HW110448   4.575   4.428   1.948
 3183SOL    HW210449   4.672   4.547   1.894
 3184SOL     OW10450   0.441   2.236   4.810
 3184SOL    HW110451   0.410   2.141   4.817
 3184SOL    HW210452   0.365   2.295   4.783
 3185SOL     OW10453   0.029   5.599   6.273
 3185SOL    HW110454   0.119   5.555   6.267
 3185SOL    HW210455   0.041   5.698   6.275
 3186SOL     OW10456   0.394   1.556   6.282
 3186SOL    HW110457   0.391   1.513   6.372
 3186SOL    HW210458   0.433   1.492   6.216
 3187SOL     OW10459   3.893   6.052   2.359
 3187SOL    HW110460   3.910   5.958   2.387
 3187SOL    HW210461   3.917   6.114   2.434
 3188SOL     OW10462   1.965   4.417   5.552
 3188SOL    HW110463   1.989   4.321   5.536
 3188SOL    HW210464   1.911   4.424   5.636
 3189SOL     OW10465   2.988   1.283   6.727
 3189SOL    HW110466   3.083   1.257   6.745
 3189SOL    HW210467   2.955   1.343   6.800
 3190SOL     OW10468   6.643   5.588   4.244
 3190SOL    HW110469   6.642   5.675   4.294
 3190SOL    HW210470   6.713   5.592   4.173
 3191SOL     OW10471   4.509   5.694   1.974
 3191SOL    HW110472   4.432   5.653   1.924
 3191SOL    HW210473   4.485   5.787   2.001
 3192SOL     OW10474   5.987   2.318   2.334
 3192SOL    HW110475   5.950   2.410   2.342
 3192SOL    HW210476   5.913   2.253   2.315
 3193SOL     OW10477   3.824   0.270   5.389
 3193SOL    HW110478   3.742   0.241   5.339
 3193SOL    HW210479   3.902   0.267   5.327
 3194SOL     OW10480   1.141   1.312   5.910
 3194SOL    HW110481   1.229   1.265   5.918
 3194SOL    HW210482   1.152   1.394   5.853
 3195SOL     OW10483   0.279   1.750   1.741
 3195SOL    HW110484   0.301   1.653   1.759
 3195SOL    HW210485   0.295   1.803   1.824
 3196SOL     OW10486   6.245   6.926   4.611
 3196SOL    HW110487   6.259   6.859   4.684
 3196SOL    HW210488   6.149   6.927   4.584
 3197SOL     OW10489   2.194   0.524   6.413
 3197SOL    HW110490   2.217   0.621   6.404
 3197SOL    HW210491   2.128   0.512   6.487
 3198SOL     OW10492   6.423   2.665   3.792
 3198SOL    HW110493   6.466   2.714   3.716
 3198SOL    HW210494   6.372   2.730   3.848
 3199SOL     OW10495   5.388   4.342   3.369
 3199SOL    HW110496   5.407   4.391   3.284
 3199SOL    HW210497   5.472   4.299   3.402
 3200SOL     OW10498   5.703   3.124   4.253
 3200SOL    HW110499   5.748   3.035   4.260
 3200SOL    HW210500   5.652   3.129   4.167
 3201SOL     OW10501   6.052   3.992   2.695
 3201SOL    HW110502   6.085   3.961   2.606
 3201SOL    HW210503   5.979   4.059   2.681
 3202SOL     OW10504   1.262   5.149   0.437
 3202SOL    HW110505   1.271   5.052   0.459
 3202SOL    HW210506   1.187   5.161   0.371
 3203SOL     OW10507   4.315   6.095   1.171
 3203SOL    HW110508   4.362   6.134   1.249
 3203SOL    HW210509   4.229   6.054   1.201
 3204SOL     OW10510   2.415   1.204   3.592
 3204SOL    HW110511   2.329   1.185   3.544
 3204SOL    HW210512   2.398   1.208   3.690
 3205SOL     OW10513   5.475   2.780   5.392
 3205SOL    HW110514   5.405   2.852   5.387
 3205SOL    HW210515   5.541   2.803   5.463
 3206SOL     OW10516   2.847   2.819   1.638
 3206SOL    HW110517   2.904   2.869   1.703
 3206SOL    HW210518   2.781   2.881   1.598
 3207SOL     OW10519   0.839   6.531   5.188
 3207SOL    HW110520   0.778   6.583   5.247
 3207SOL    HW210521   0.791   6.508   5.103
 3208SOL     OW10522   6.260   6.087   5.853
 3208SOL    HW110523   6.316   6.028   5.911
 3208SOL    HW210524   6.313   6.168   5.827
 3209SOL     OW10525   4.993   5.935   6.014
 3209SOL    HW110526   4.978   5.851   5.962
 3209SOL    HW210527   4.924   6.002   5.989
 3210SOL     OW10528   6.768   4.676   1.542
 3210SOL    HW110529   6.844   4.738   1.523
 3210SOL    HW210530   6.788   4.623   1.625
 3211SOL     OW10531   1.390   6.293   6.909
 3211SOL    HW110532   1.407   6.217   6.845
 3211SOL    HW210533   1.471   6.352   6.913
 3212SOL     OW10534   2.454   6.970   2.877
 3212SOL    HW110535   2.479   0.023   2.937
 3212SOL    HW210536   2.526   6.900   2.881
 3213SOL     OW10537   1.350   1.100   5.932
 3213SOL    HW110538   1.354   1.026   5.865
 3213SOL    HW210539   1.404   1.074   6.012
 3214SOL     OW10540   3.565   1.197   3.010
 3214SOL    HW110541   3.581   1.106   2.971
 3214SOL    HW210542   3.624   1.263   2.964
 3215SOL     OW10543   1.438   2.878   0.746
 3215SOL    HW110544   1.352   2.834   0.770
 3215SOL    HW210545   1.496   2.813   0.697
 3216SOL     OW10546   5.427   4.024   0.634
 3216SOL    HW110547   5.333   4.048   0.656
 3216SOL    HW210548   5.485   4.043   0.714
 3217SOL     OW10549   0.754   4.927   2.969
 3217SOL    HW110550   0.704   5.003   3.011
 3217SOL    HW210551   0.842   4.916   3.015
 3218SOL     OW10552   6.659   1.559   3.139
 3218SOL    HW110553   6.687   1.568   3.043
 3218SOL    HW210554   6.740   1.554   3.197
 3219SOL     OW10555   5.563   0.293   5.665
 3219SOL    HW110556   5.572   0.345   5.580
 3219SOL    HW210557   5.467   0.271   5.681
 3220SOL     OW10558   7.007   4.500   6.775
 3220SOL    HW110559   6.951   4.464   6.851
 3220SOL    HW210560   0.003   4.596   6.791
 3221SOL     OW10561   4.482   0.177   1.998
 3221SOL    HW110562   4.581   0.185   1.981
 3221SOL    HW210563   4.434   0.166   1.911
 3222SOL     OW10564   2.576   1.335   2.257
 3222SOL    HW110565   2.666   1.293   2.244
 3222SOL    HW210566   2.514   1.270   2.300
 3223SOL     OW10567   1.341   6.806   1.356
 3223SOL    HW110568   1.440   6.812   1.366
 3223SOL    HW210569   1.302   6.898   1.354
 3224SOL     OW10570   4.126   2.275   4.601
 3224SOL    HW110571   4.166   2.347   4.545
 3224SOL    HW210572   4.178   2.266   4.686
 3225SOL     OW10573   4.470   0.019   4.001
 3225SOL    HW110574   4.402   0.091   4.012
 3225SOL    HW210575   4.532   0.044   3.926
 3226SOL     OW10576   0.342   0.201   1.671
 3226SOL    HW110577   0.361   0.271   1.740
 3226SOL    HW210578   0.300   0.121   1.715
 3227SOL     OW10579   4.677   2.745   5.515
 3227SOL    HW110580   4.637   2.785   5.597
 3227SOL    HW210581   4.626   2.663   5.489
 3228SOL     OW10582   1.133   4.302   0.680
 3228SOL    HW110583   1.043   4.277   0.644
 3228SOL    HW210584   1.182   4.219   0.708
 3229SOL     OW10585   1.908   1.785   6.937
 3229SOL    HW110586   1.978   1.777   7.007
 3229SOL    HW210587   1.895   1.882   6.913
 3230SOL     OW10588   2.319   5.792   5.795
 3230SOL    HW110589   2.228   5.787   5.754
 3230SOL    HW210590   2.379   5.726   5.749
 3231SOL     OW10591   2.511   1.267   1.972
 3231SOL    HW110592   2.412   1.253   1.984
 3231SOL    HW210593   2.526   1.336   1.901
 3232SOL     OW10594   4.218   6.230   4.072
 3232SOL    HW110595   4.226   6.321   4.030
 3232SOL    HW210596   4.127   6.220   4.113
 3233SOL     OW10597   0.942   2.299   0.122
 3233SOL    HW110598   0.874   2.242   0.168
 3233SOL    HW210599   0.971   2.254   0.037
 3234SOL     OW10600   2.830   2.730   0.908
 3234SOL    HW110601   2.827   2.670   0.828
 3234SOL    HW210602   2.738   2.763   0.929
 3235SOL     OW10603   6.527   6.187   2.420
 3235SOL    HW110604   6.537   6.196   2.519
 3235SOL    HW210605   6.437   6.221   2.392
 3236SOL     OW10606   2.992   4.089   0.373
 3236SOL    HW110607   3.027   3.995   0.370
 3236SOL    HW210608   2.997   4.124   0.467
 3237SOL     OW10609   5.816   1.241   5.330
 3237SOL    HW110610   5.897   1.280   5.373
 3237SOL    HW210611   5.735   1.266   5.383
 3238SOL     OW10612   6.359   5.558   1.225
 3238SOL    HW110613   6.381   5.485   1.160
 3238SOL    HW210614   6.320   5.635   1.176
 3239SOL     OW10615   6.871   0.186   3.896
 3239SOL    HW110616   6.898   0.192   3.992
 3239SOL    HW210617   6.868   0.277   3.856
 3240SOL     OW10618   0.616   0.915   6.311
 3240SOL    HW110619   0.623   0.908   6.411
 3240SOL    HW210620   0.564   0.838   6.276
 3241SOL     OW10621   5.622   1.695   6.603
 3241SOL    HW110622   5.698   1.630   6.612
 3241SOL    HW210623   5.540   1.646   6.572
 3242SOL     OW10624   4.842   4.407   5.367
 3242SOL    HW110625   4.870   4.356   5.449
 3242SOL    HW210626   4.747   4.437   5.378
 3243SOL     OW10627   5.019   5.200   5.716
 3243SOL    HW110628   4.954   5.239   5.781
 3243SOL    HW210629   5.053   5.272   5.655
 3244SOL     OW10630   5.942   6.166   6.884
 3244SOL    HW110631   6.022   6.209   6.843
 3244SOL    HW210632   5.864   6.175   6.822
 3245SOL     OW10633   4.126   1.614   4.191
 3245SOL    HW110634   4.141   1.671   4.271
 3245SOL    HW210635   4.045   1.646   4.142
 3246SOL     OW10636   0.693   0.483   2.133
 3246SOL    HW110637   0.640   0.407   2.169
 3246SOL    HW210638   0.707   0.470   2.035
 3247SOL     OW10639   0.772   4.191   2.854
 3247SOL    HW110640   0.818   4.233   2.932
 3247SOL    HW210641   0.674   4.204   2.862
 3248SOL     OW10642   5.608   2.254   3.520
 3248SOL    HW110643   5.599   2.166   3.473
 3248SOL    HW210644   5.519   2.299   3.522
 3249SOL     OW10645   3.248   3.677   3.589
 3249SOL    HW110646   3.175   3.742   3.569
 3249SOL    HW210647   3.223   3.623   3.670
 3250SOL     OW10648   5.526   6.001   2.289
 3250SOL    HW110649   5.479   5.988   2.376
 3250SOL    HW210650   5.483   6.077   2.240
 3251SOL     OW10651   2.600   1.174   4.224
 3251SOL    HW110652   2.686   1.154   4.272
 3251SOL    HW210653   2.539   1.225   4.285
 3252SOL     OW10654   2.286   1.405   4.260
 3252SOL    HW110655   2.198   1.368   4.289
 3252SOL    HW210656   2.360   1.359   4.310
 3253SOL     OW10657   6.532   2.897   1.200
 3253SOL    HW110658   6.483   2.888   1.113
 3253SOL    HW210659   6.563   2.991   1.211
 3254SOL     OW10660   5.804   0.751   0.300
 3254SOL    HW110661   5.855   0.828   0.261
 3254SOL    HW210662   5.774   0.690   0.226
 3255SOL     OW10663   5.746   4.791   1.136
 3255SOL    HW110664   5.800   4.862   1.180
 3255SOL    HW210665   5.680   4.833   1.073
 3256SOL     OW10666   4.546   2.387   1.191
 3256SOL    HW110667   4.628   2.342   1.226
 3256SOL    HW210668   4.565   2.423   1.099
 3257SOL     OW10669   2.022   1.896   2.484
 3257SOL    HW110670   2.089   1.915   2.555
 3257SOL    HW210671   1.949   1.964   2.487
 3258SOL     OW10672   2.556   6.005   3.696
 3258SOL    HW110673   2.526   6.015   3.791
 3258SOL    HW210674   2.522   6.081   3.642
 3259SOL     OW10675   5.129   3.954   4.272
 3259SOL    HW110676   5.087   3.866   4.298
 3259SOL    HW210677   5.222   3.938   4.239
 3260SOL     OW10678   2.141   4.293   1.750
 3260SOL    HW110679   2.062   4.276   1.692
 3260SOL    HW210680   2.223   4.298   1.693
 3261SOL     OW10681   4.107   0.640   3.324
 3261SOL    HW110682   4.069   0.548   3.329
 3261SOL    HW210683   4.043   0.700   3.278
 3262SOL     OW10684   3.607   1.936   2.534
 3262SOL    HW110685   3.609   1.991   2.618
 3262SOL    HW210686   3.658   1.851   2.549
 3263SOL     OW10687   1.683   1.491   2.695
 3263SOL    HW110688   1.780   1.477   2.674
 3263SOL    HW210689   1.663   1.589   2.693
 3264SOL     OW10690   2.607   5.301   0.129
 3264SOL    HW110691   2.698   5.278   0.096
 3264SOL    HW210692   2.614   5.364   0.206
 3265SOL     OW10693   5.807   5.110   5.763
 3265SOL    HW110694   5.714   5.113   5.801
 3265SOL    HW210695   5.803   5.119   5.664
 3266SOL     OW10696   3.125   4.977   0.197
 3266SOL    HW110697   3.153   5.010   0.107
 3266SOL    HW210698   3.031   4.943   0.193
 3267SOL     OW10699   4.195   0.218   0.427
 3267SOL    HW110700   4.286   0.255   0.443
 3267SOL    HW210701   4.182   0.202   0.329
 3268SOL     OW10702   6.565   4.378   1.691
 3268SOL    HW110703   6.621   4.423   1.761
 3268SOL    HW210704   6.487   4.436   1.668
 3269SOL     OW10705   1.120   5.020   2.277
 3269SOL    HW110706   1.066   4.959   2.220
 3269SOL    HW210707   1.217   4.999   2.267
 3270SOL     OW10708   0.972   2.721   5.267
 3270SOL    HW110709   0.988   2.770   5.181
 3270SOL    HW210710   0.968   2.623   5.249
 3271SOL     OW10711   0.171   3.552   2.644
 3271SOL    HW110712   0.204   3.646   2.644
 3271SOL    HW210713   0.078   3.550   2.681
 3272SOL     OW10714   4.552   6.220   0.305
 3272SOL    HW110715   4.647   6.251   0.304
 3272SOL    HW210716   4.493   6.296   0.332
 3273SOL     OW10717   5.068   3.354   6.390
 3273SOL    HW110718   4.980   3.324   6.354
 3273SOL    HW210719   5.112   3.415   6.324
 3274SOL     OW10720   5.830   1.029   7.012
 3274SOL    HW110721   5.864   0.991   0.075
 3274SOL    HW210722   5.901   1.022   6.942
 3275SOL     OW10723   4.961   0.345   1.263
 3275SOL    HW110724   4.936   0.278   1.334
 3275SOL    HW210725   5.028   0.409   1.301
 3276SOL     OW10726   4.436   6.971   0.403
 3276SOL    HW110727   4.360   6.932   0.454
 3276SOL    HW210728   4.451   0.043   0.433
 3277SOL     OW10729   3.270   1.604   1.991
 3277SOL    HW110730   3.317   1.683   1.952
 3277SOL    HW210731   3.181   1.632   2.027
 3278SOL     OW10732   6.860   0.298   6.511
 3278SOL    HW110733   6.952   0.261   6.521
 3278SOL    HW210734   6.813   0.253   6.435
 3279SOL     OW10735   4.302   6.512   0.929
 3279SOL    HW110736   4.317   6.581   0.857
 3279SOL    HW210737   4.327   6.551   1.018
 3280SOL     OW10738   5.460   3.402   4.584
 3280SOL    HW110739   5.367   3.437   4.572
 3280SOL    HW210740   5.468   3.314   4.538
 3281SOL     OW10741   6.617   4.348   2.134
 3281SOL    HW110742   6.627   4.248   2.126
 3281SOL    HW210743   6.699   4.392   2.100
 3282SOL     OW10744   0.732   3.913   5.489
 3282SOL    HW110745   0.729   3.977   5.413
 3282SOL    HW210746   0.786   3.832   5.464
 3283SOL     OW10747   4.122   0.832   1.231
 3283SOL    HW110748   4.186   0.864   1.161
 3283SOL    HW210749   4.083   0.911   1.278
 3284SOL     OW10750   1.818   5.805   4.814
 3284SOL    HW110751   1.750   5.859   4.863
 3284SOL    HW210752   1.872   5.865   4.754
 3285SOL     OW10753   6.213   0.794   4.512
 3285SOL    HW110754   6.136   0.838   4.467
 3285SOL    HW210755   6.246   0.718   4.456
 3286SOL     OW10756   3.089   1.891   1.743
 3286SOL    HW110757   3.151   1.947   1.798
 3286SOL    HW210758   3.121   1.888   1.649
 3287SOL     OW10759   1.884   0.411   6.179
 3287SOL    HW110760   1.796   0.456   6.162
 3287SOL    HW210761   1.888   0.381   6.274
 3288SOL     OW10762   1.861   6.404   0.866
 3288SOL    HW110763   1.933   6.435   0.928
 3288SOL    HW210764   1.826   6.483   0.814
 3289SOL     OW10765   3.754   1.783   6.603
 3289SOL    HW110766   3.838   1.740   6.571
 3289SOL    HW210767   3.762   1.804   6.700
 3290SOL     OW10768   6.687   5.054   0.603
 3290SOL    HW110769   6.645   5.145   0.596
 3290SOL    HW210770   6.776   5.055   0.558
 3291SOL     OW10771   4.603   0.028   5.446
 3291SOL    HW110772   4.660   7.011   5.517
 3291SOL    HW210773   4.567   0.116   5.478
 3292SOL     OW10774   0.342   1.770   1.031
 3292SOL    HW110775   0.268   1.778   0.964
 3292SOL    HW210776   0.405   1.698   1.002
 3293SOL     OW10777   6.365   5.503   2.772
 3293SOL    HW110778   6.381   5.565   2.849
 3293SOL    HW210779   6.267   5.487   2.761
 3294SOL     OW10780   5.218   2.309   5.568
 3294SOL    HW110781   5.158   2.310   5.648
 3294SOL    HW210782   5.255   2.400   5.552
 3295SOL     OW10783   2.012   2.976   1.072
 3295SOL    HW110784   1.983   2.942   0.983
 3295SOL    HW210785   1.961   3.060   1.094
 3296SOL     OW10786   0.893   0.384   5.677
 3296SOL    HW110787   0.819   0.366   5.612
 3296SOL    HW210788   0.875   0.334   5.762
 3297SOL     OW10789   3.276   1.861   5.178
 3297SOL    HW110790   3.245   1.787   5.238
 3297SOL    HW210791   3.210   1.936   5.181
 3298SOL     OW10792   5.983   4.159   4.653
 3298SOL    HW110793   5.959   4.145   4.557
 3298SOL    HW210794   6.076   4.195   4.660
 3299SOL     OW10795   3.458   4.886   3.681
 3299SOL    HW110796   3.422   4.870   3.773
 3299SOL    HW210797   3.550   4.926   3.688
 3300SOL     OW10798   1.960   6.885   5.427
 3300SOL    HW110799   1.970   6.983   5.411
 3300SOL    HW210800   1.912   6.870   5.513
 3301SOL     OW10801   1.855   3.007   2.660
 3301SOL    HW110802   1.923   2.989   2.732
 3301SOL    HW210803   1.853   3.104   2.639
 3302SOL     OW10804   2.368   4.871   5.656
 3302SOL    HW110805   2.269   4.862   5.669
 3302SOL    HW210806   2.397   4.816   5.578
 3303SOL     OW10807   3.385   2.881   0.826
 3303SOL    HW110808   3.442   2.867   0.745
 3303SOL    HW210809   3.440   2.872   0.909
 3304SOL     OW10810   2.740   4.856   5.564
 3304SOL    HW110811   2.736   4.853   5.464
 3304SOL    HW210812   2.660   4.906   5.599
 3305SOL     OW10813   3.628   0.612   1.265
 3305SOL    HW110814   3.554   0.646   1.207
 3305SOL    HW210815   3.706   0.674   1.260
 3306SOL     OW10816   1.979   0.314   0.194
 3306SOL    HW110817   2.056   0.373   0.171
 3306SOL    HW210818   1.894   0.358   0.165
 3307SOL     OW10819   0.897   6.837   4.591
 3307SOL    HW110820   0.848   6.907   4.643
 3307SOL    HW210821   0.831   6.779   4.543
 3308SOL     OW10822   3.498   4.561   0.962
 3308SOL    HW110823   3.425   4.597   0.904
 3308SOL    HW210824   3.582   4.551   0.908
 3309SOL     OW10825   5.216   3.912   4.009
 3309SOL    HW110826   5.130   3.863   4.021
 3309SOL    HW210827   5.198   4.011   4.006
 3310SOL     OW10828   0.358   5.011   4.710
 3310SOL    HW110829   0.332   4.922   4.672
 3310SOL    HW210830   0.355   5.006   4.810
 3311SOL     OW10831   2.993   3.824   0.647
 3311SOL    HW110832   3.074   3.868   0.607
 3311SOL    HW210833   2.935   3.894   0.691
 3312SOL     OW10834   5.111   2.771   6.375
 3312SOL    HW110835   5.148   2.861   6.399
 3312SOL    HW210836   5.049   2.780   6.297
 3313SOL     OW10837   0.852   0.630   3.252
 3313SOL    HW110838   0.761   0.651   3.217
 3313SOL    HW210839   0.876   0.695   3.325
 3314SOL     OW10840   2.098   6.619   2.957
 3314SOL    HW110841   2.132   6.557   2.886
 3314SOL    HW210842   2.133   6.711   2.941
 3315SOL     OW10843   0.169   5.285   5.095
 3315SOL    HW110844   0.190   5.216   5.164
 3315SOL    HW210845   0.250   5.341   5.078
 3316SOL     OW10846   2.699   1.015   6.447
 3316SOL    HW110847   2.770   1.044   6.512
 3316SOL    HW210848   2.640   1.092   6.426
 3317SOL     OW10849   4.959   2.427   2.041
 3317SOL    HW110850   4.873   2.474   2.064
 3317SOL    HW210851   4.943   2.328   2.036
 3318SOL     OW10852   2.783   2.500   0.401
 3318SOL    HW110853   2.747   2.436   0.333
 3318SOL    HW210854   2.814   2.583   0.354
 3319SOL     OW10855   6.711   6.518   2.992
 3319SOL    HW110856   6.809   6.510   3.013
 3319SOL    HW210857   6.659   6.459   3.053
 3320SOL     OW10858   6.142   0.118   0.799
 3320SOL    HW110859   6.199   0.049   0.755
 3320SOL    HW210860   6.150   0.205   0.750
 3321SOL     OW10861   5.637   1.814   0.272
 3321SOL    HW110862   5.725   1.856   0.293
 3321SOL    HW210863   5.645   1.715   0.278
 3322SOL     OW10864   6.617   3.225   0.772
 3322SOL    HW110865   6.640   3.300   0.710
 3322SOL    HW210866   6.562   3.157   0.724
 3323SOL     OW10867   2.290   2.057   2.112
 3323SOL    HW110868   2.314   2.045   2.208
 3323SOL    HW210869   2.200   2.018   2.095
 3324SOL     OW10870   5.134   4.963   5.659
 3324SOL    HW110871   5.210   4.979   5.595
 3324SOL    HW210872   5.085   5.049   5.674
 3325SOL     OW10873   1.565   3.249   6.512
 3325SOL    HW110874   1.654   3.276   6.548
 3325SOL    HW210875   1.513   3.202   6.583
 3326SOL     OW10876   5.350   1.185   2.891
 3326SOL    HW110877   5.250   1.192   2.894
 3326SOL    HW210878   5.378   1.097   2.928
 3327SOL     OW10879   1.220   6.210   1.291
 3327SOL    HW110880   1.197   6.149   1.215
 3327SOL    HW210881   1.203   6.162   1.378
 3328SOL     OW10882   3.717   2.050   1.003
 3328SOL    HW110883   3.763   2.107   1.071
 3328SOL    HW210884   3.696   1.960   1.043
 3329SOL     OW10885   6.108   5.451   5.891
 3329SOL    HW110886   6.168   5.419   5.964
 3329SOL    HW210887   6.142   5.538   5.856
 3330SOL     OW10888   6.596   2.754   2.304
 3330SOL    HW110889   6.571   2.840   2.348
 3330SOL    HW210890   6.545   2.745   2.218
 3331SOL     OW10891   1.187   1.940   1.382
 3331SOL    HW110892   1.229   2.029   1.395
 3331SOL    HW210893   1.107   1.949   1.322
 3332SOL     OW10894   5.732   4.339   0.253
 3332SOL    HW110895   5.805   4.299   0.198
 3332SOL    HW210896   5.768   4.369   0.341
 3333SOL     OW10897   4.205   5.018   6.039
 3333SOL    HW110898   4.163   4.976   6.120
 3333SOL    HW210899   4.146   5.002   5.959
 3334SOL     OW10900   3.292   3.616   1.536
 3334SOL    HW110901   3.339   3.660   1.612
 3334SOL    HW210902   3.291   3.678   1.457
 3335SOL     OW10903   5.013   4.504   5.826
 3335SOL    HW110904   4.973   4.540   5.741
 3335SOL    HW210905   5.086   4.565   5.856
 3336SOL     OW10906   3.493   5.372   6.013
 3336SOL    HW110907   3.501   5.436   6.090
 3336SOL    HW210908   3.426   5.302   6.036
 3337SOL     OW10909   3.550   2.582   1.446
 3337SOL    HW110910   3.648   2.567   1.433
 3337SOL    HW210911   3.528   2.573   1.543
 3338SOL     OW10912   0.204   3.935   1.232
 3338SOL    HW110913   0.121   3.909   1.183
 3338SOL    HW210914   0.214   4.035   1.229
 3339SOL     OW10915   6.550   5.814   6.903
 3339SOL    HW110916   6.463   5.840   6.946
 3339SOL    HW210917   6.564   5.716   6.913
 3340SOL     OW10918   3.248   6.712   2.243
 3340SOL    HW110919   3.181   6.704   2.317
 3340SOL    HW210920   3.224   6.648   2.170
 3341SOL     OW10921   0.555   0.255   2.782
 3341SOL    HW110922   0.485   0.266   2.711
 3341SOL    HW210923   0.532   0.177   2.840
 3342SOL     OW10924   1.941   0.045   4.161
 3342SOL    HW110925   2.009   0.098   4.211
 3342SOL    HW210926   1.962   6.970   4.169
 3343SOL     OW10927   4.905   2.905   0.894
 3343SOL    HW110928   4.844   2.950   0.960
 3343SOL    HW210929   4.861   2.903   0.804
 3344SOL     OW10930   5.769   3.519   5.536
 3344SOL    HW110931   5.780   3.618   5.522
 3344SOL    HW210932   5.763   3.473   5.447
 3345SOL     OW10933   2.957   3.743   5.895
 3345SOL    HW110934   3.051   3.773   5.879
 3345SOL    HW210935   2.923   3.696   5.813
 3346SOL     OW10936   0.186   0.495   2.059
 3346SOL    HW110937   0.092   0.488   2.026
 3346SOL    HW210938   0.218   0.589   2.050
 3347SOL     OW10939   5.938   3.998   4.859
 3347SOL    HW110940   5.950   4.071   4.792
 3347SOL    HW210941   5.888   4.033   4.938
 3348SOL     OW10942   3.658   3.440   3.947
 3348SOL    HW110943   3.576   3.470   3.898
 3348SOL    HW210944   3.708   3.375   3.890
 3349SOL     OW10945   6.751   3.753   4.323
 3349SOL    HW110946   6.828   3.694   4.347
 3349SOL    HW210947   6.666   3.703   4.334
 3350SOL     OW10948   1.640   0.945   0.225
 3350SOL    HW110949   1.555   0.998   0.227
 3350SOL    HW210950   1.687   0.961   0.139
 3351SOL     OW10951   5.766   1.410   0.946
 3351SOL    HW110952   5.671   1.379   0.942
 3351SOL    HW210953   5.800   1.425   0.854
 3352SOL     OW10954   0.841   4.010   1.341
 3352SOL    HW110955   0.893   4.082   1.387
 3352SOL    HW210956   0.891   3.980   1.260
 3353SOL     OW10957   1.435   6.940   6.359
 3353SOL    HW110958   1.380   6.901   6.286
 3353SOL    HW210959   1.497   6.871   6.395
 3354SOL     OW10960   6.739   2.330   3.757
 3354SOL    HW110961   6.697   2.400   3.815
 3354SOL    HW210962   6.839   2.340   3.760
 3355SOL     OW10963   0.482   1.495   1.614
 3355SOL    HW110964   0.574   1.460   1.598
 3355SOL    HW210965   0.460   1.488   1.711
 3356SOL     OW10966   2.991   3.447   6.976
 3356SOL    HW110967   3.067   3.450   6.912
 3356SOL    HW210968   2.908   3.482   6.931
 3357SOL     OW10969   3.073   5.161   1.659
 3357SOL    HW110970   3.065   5.171   1.560
 3357SOL    HW210971   3.142   5.225   1.694
 3358SOL     OW10972   4.843   6.365   2.328
 3358SOL    HW110973   4.899   6.378   2.411
 3358SOL    HW210974   4.902   6.341   2.252
 3359SOL     OW10975   1.135   0.470   2.644
 3359SOL    HW110976   1.086   0.536   2.702
 3359SOL    HW210977   1.224   0.508   2.619
 3360SOL     OW10978   0.577   0.794   0.596
 3360SOL    HW110979   0.507   0.844   0.646
 3360SOL    HW210980   0.574   0.821   0.499
 3361SOL     OW10981   6.186   5.843   3.335
 3361SOL    HW110982   6.153   5.868   3.244
 3361SOL    HW210983   6.109   5.816   3.392
 3362SOL     OW10984   2.557   1.473   4.895
 3362SOL    HW110985   2.492   1.504   4.965
 3362SOL    HW210986   2.533   1.513   4.807
 3363SOL     OW10987   0.208   1.858   0.093
 3363SOL    HW110988   0.265   1.895   0.166
 3363SOL    HW210989   0.228   1.906   0.008
 3364SOL     OW10990   1.565   5.617   6.027
 3364SOL    HW110991   1.595   5.712   6.014
 3364SOL    HW210992   1.479   5.616   6.077
 3365SOL     OW10993   0.312   2.682   4.635
 3365SOL    HW110994   0.319   2.747   4.712
 3365SOL    HW210995   0.333   2.729   4.550
 3366SOL     OW10996   5.046   0.084   5.584
 3366SOL    HW110997   5.122   0.068   5.521
 3366SOL    HW210998   5.012   7.019   5.617
 3367SOL     OW10999   1.406   2.355   2.666
 3367SOL    HW111000   1.326   2.415   2.660
 3367SOL    HW211001   1.383   2.273   2.718
 3368SOL     OW11002   6.459   5.457   6.533
 3368SOL    HW111003   6.471   5.548   6.573
 3368SOL    HW211004   6.545   5.428   6.491
 3369SOL     OW11005   3.718   0.419   7.010
 3369SOL    HW111006   3.697   0.339   0.044
 3369SOL    HW211007   3.815   0.419   6.987
 3370SOL     OW11008   6.536   6.331   5.070
 3370SOL    HW111009   6.527   6.280   4.984
 3370SOL    HW211010   6.620   6.385   5.068
 3371SOL     OW11011   1.112   4.810   1.730
 3371SOL    HW111012   1.112   4.910   1.738
 3371SOL    HW211013   1.054   4.771   1.801
 3372SOL     OW11014   1.038   0.896   2.355
 3372SOL    HW111015   1.133   0.892   2.325
 3372SOL    HW211016   0.998   0.805   2.355
 3373SOL     OW11017   5.912   1.720   4.891
 3373SOL    HW111018   5.983   1.723   4.821
 3373SOL    HW211019   5.822   1.719   4.848
 3374SOL     OW11020   3.108   6.394   5.563
 3374SOL    HW111021   3.182   6.366   5.624
 3374SOL    HW211022   3.028   6.337   5.580
 3375SOL     OW11023   4.598   4.343   4.967
 3375SOL    HW111024   4.516   4.343   5.025
 3375SOL    HW211025   4.594   4.422   4.905
 3376SOL     OW11026   3.173   3.011   2.390
 3376SOL    HW111027   3.083   3.016   2.347
 3376SOL    HW211028   3.234   2.957   2.332
 3377SOL     OW11029   0.796   6.468   4.906
 3377SOL    HW111030   0.813   6.371   4.888
 3377SOL    HW211031   0.871   6.522   4.869
 3378SOL     OW11032   6.522   1.344   1.565
 3378SOL    HW111033   6.441   1.381   1.611
 3378SOL    HW211034   6.493   1.283   1.491
 3379SOL     OW11035   0.452   4.822   5.723
 3379SOL    HW111036   0.483   4.728   5.710
 3379SOL    HW211037   0.513   4.884   5.674
 3380SOL     OW11038   0.217   4.625   0.012
 3380SOL    HW111039   0.317   4.617   0.006
 3380SOL    HW211040   0.181   4.657   6.947
 3381SOL     OW11041   3.314   2.720   0.562
 3381SOL    HW111042   3.410   2.723   0.588
 3381SOL    HW211043   3.307   2.704   0.463
 3382SOL     OW11044   6.731   2.055   0.600
 3382SOL    HW111045   6.669   2.040   0.524
 3382SOL    HW211046   6.775   1.969   0.626
 3383SOL     OW11047   5.824   4.478   3.019
 3383SOL    HW111048   5.917   4.443   3.015
 3383SOL    HW211049   5.819   4.554   3.084
 3384SOL     OW11050   3.318   2.975   4.742
 3384SOL    HW111051   3.279   2.955   4.652
 3384SOL    HW211052   3.400   2.919   4.756
 3385SOL     OW11053   6.386   3.693   3.450
 3385SOL    HW111054   6.420   3.602   3.473
 3385SOL    HW211055   6.391   3.752   3.531
 3386SOL     OW11056   6.095   4.873   4.405
 3386SOL    HW111057   6.106   4.871   4.505
 3386SOL    HW211058   6.019   4.814   4.379
 3387SOL     OW11059   2.536   2.491   3.126
 3387SOL    HW111060   2.481   2.572   3.109
 3387SOL    HW211061   2.603   2.479   3.053
 3388SOL     OW11062   5.596   2.107   1.305
 3388SOL    HW111063   5.515   2.049   1.314
 3388SOL    HW211064   5.577   2.197   1.343
 3389SOL     OW11065   4.695   4.220   3.890
 3389SOL    HW111066   4.655   4.135   3.924
 3389SOL    HW211067   4.741   4.202   3.803
 3390SOL     OW11068   5.125   3.020   5.974
 3390SOL    HW111069   5.054   3.028   5.904
 3390SOL    HW211070   5.092   2.964   6.049
 3391SOL     OW11071   3.818   1.653   4.761
 3391SOL    HW111072   3.894   1.670   4.824
 3391SOL    HW211073   3.814   1.555   4.739
 3392SOL     OW11074   2.217   0.800   3.886
 3392SOL    HW111075   2.227   0.893   3.921
 3392SOL    HW211076   2.207   0.803   3.786
 3393SOL     OW11077   6.597   6.428   0.031
 3393SOL    HW111078   6.545   6.390   0.108
 3393SOL    HW211079   6.579   6.373   6.972
 3394SOL     OW11080   5.937   2.367   0.809
 3394SOL    HW111081   5.932   2.412   0.898
 3394SOL    HW211082   5.848   2.370   0.765
 3395SOL     OW11083   0.698   3.313   4.170
 3395SOL    HW111084   0.624   3.337   4.233
 3395SOL    HW211085   0.772   3.269   4.221
 3396SOL     OW11086   0.179   3.398   3.289
 3396SOL    HW111087   0.230   3.362   3.368
 3396SOL    HW211088   0.113   3.466   3.321
 3397SOL     OW11089   3.987   0.045   5.955
 3397SOL    HW111090   4.054   0.063   5.884
 3397SOL    HW211091   3.895   0.055   5.918
 3398SOL     OW11092   1.106   0.247   4.345
 3398SOL    HW111093   1.138   0.167   4.294
 3398SOL    HW211094   1.122   0.330   4.292
 3399SOL     OW11095   4.664   5.369   4.134
 3399SOL    HW111096   4.606   5.404   4.208
 3399SOL    HW211097   4.753   5.344   4.170
 3400SOL     OW11098   4.566   2.127   6.639
 3400SOL    HW111099   4.649   2.079   6.669
 3400SOL    HW211100   4.535   2.189   6.711
 3401SOL     OW11101   6.689   3.471   0.479
 3401SOL    HW111102   6.599   3.427   0.482
 3401SOL    HW211103   6.677   3.568   0.458
 3402SOL     OW11104   5.366   5.799   1.390
 3402SOL    HW111105   5.349   5.878   1.449
 3402SOL    HW211106   5.349   5.823   1.295
 3403SOL     OW11107   3.610   0.119   4.856
 3403SOL    HW111108   3.706   0.093   4.847
 3403SOL    HW211109   3.561   0.094   4.772
 3404SOL     OW11110   4.252   1.477   1.014
 3404SOL    HW111111   4.198   1.539   1.071
 3404SOL    HW211112   4.219   1.480   0.920
 3405SOL     OW11113   6.085   3.930   6.496
 3405SOL    HW111114   6.025   3.880   6.434
 3405SOL    HW211115   6.109   4.018   6.455
 3406SOL     OW11116   2.516   4.585   1.867
 3406SOL    HW111117   2.474   4.495   1.884
 3406SOL    HW211118   2.595   4.596   1.926
 3407SOL     OW11119   1.197   5.675   1.788
 3407SOL    HW111120   1.267   5.639   1.727
 3407SOL    HW211121   1.230   5.673   1.882
 3408SOL     OW11122   4.775   3.954   3.020
 3408SOL    HW111123   4.828   3.878   3.058
 3408SOL    HW211124   4.767   4.027   3.088
 3409SOL     OW11125   3.980   0.328   5.854
 3409SOL    HW111126   3.960   0.275   5.771
 3409SOL    HW211127   3.896   0.341   5.906
 3410SOL     OW11128   5.986   5.659   0.115
 3410SOL    HW111129   5.954   5.637   0.023
 3410SOL    HW211130   6.083   5.637   0.123
 3411SOL     OW11131   4.869   2.171   2.089
 3411SOL    HW111132   4.909   2.092   2.043
 3411SOL    HW211133   4.868   2.155   2.188
 3412SOL     OW11134   3.960   3.711   0.017
 3412SOL    HW111135   3.977   3.639   6.972
 3412SOL    HW211136   4.044   3.764   0.031
 3413SOL     OW11137   3.849   1.425   2.996
 3413SOL    HW111138   3.821   1.493   3.063
 3413SOL    HW211139   3.783   1.423   2.921
 3414SOL     OW11140   3.086   1.691   4.951
 3414SOL    HW111141   3.044   1.782   4.958
 3414SOL    HW211142   3.014   1.622   4.940
 3415SOL     OW11143   0.876   5.053   4.249
 3415SOL    HW111144   0.867   4.997   4.166
 3415SOL    HW211145   0.946   5.123   4.235
 3416SOL     OW11146   0.287   4.469   5.854
 3416SOL    HW111147   0.372   4.443   5.809
 3416SOL    HW211148   0.237   4.533   5.797
 3417SOL     OW11149   7.002   6.404   2.719
 3417SOL    HW111150   0.056   6.383   2.780
 3417SOL    HW211151   6.973   6.499   2.735
 3418SOL     OW11152   2.765   1.285   4.904
 3418SOL    HW111153   2.696   1.355   4.885
 3418SOL    HW211154   2.779   1.278   5.003
 3419SOL     OW11155   4.468   4.715   6.795
 3419SOL    HW111156   4.455   4.762   6.708
 3419SOL    HW211157   4.516   4.629   6.778
 3420SOL     OW11158   4.826   1.792   4.129
 3420SOL    HW111159   4.744   1.740   4.104
 3420SOL    HW211160   4.826   1.880   4.082
 3421SOL     OW11161   6.867   0.023   5.394
 3421SOL    HW111162   6.880   0.018   5.295
 3421SOL    HW211163   6.837   0.115   5.419
 3422SOL     OW11164   3.343   7.007   1.238
 3422SOL    HW111165   3.397   0.069   1.240
 3422SOL    HW211166   3.285   7.007   1.156
 3423SOL     OW11167   2.384   0.528   0.404
 3423SOL    HW111168   2.451   0.602   0.412
 3423SOL    HW211169   2.343   0.511   0.493
 3424SOL     OW11170   4.024   1.070   2.442
 3424SOL    HW111171   3.933   1.065   2.403
 3424SOL    HW211172   4.093   1.069   2.369
 3425SOL     OW11173   4.726   4.180   2.277
 3425SOL    HW111174   4.631   4.194   2.250
 3425SOL    HW211175   4.751   4.247   2.347
 3426SOL     OW11176   3.381   3.252   0.560
 3426SOL    HW111177   3.454   3.193   0.524
 3426SOL    HW211178   3.341   3.209   0.641
 3427SOL     OW11179   6.687   0.261   0.207
 3427SOL    HW111180   6.762   0.298   0.262
 3427SOL    HW211181   6.613   0.232   0.267
 3428SOL     OW11182   3.818   5.154   2.222
 3428SOL    HW111183   3.765   5.140   2.138
 3428SOL    HW211184   3.837   5.065   2.264
 3429SOL     OW11185   1.062   2.545   0.050
 3429SOL    HW111186   0.986   2.601   0.017
 3429SOL    HW211187   1.029   2.452   0.068
 3430SOL     OW11188   1.403   6.701   7.009
 3430SOL    HW111189   1.315   6.747   7.000
 3430SOL    HW211190   1.474   6.755   6.963
 3431SOL     OW11191   1.470   6.128   1.179
 3431SOL    HW111192   1.398   6.153   1.243
 3431SOL    HW211193   1.528   6.207   1.160
 3432SOL     OW11194   2.742   2.270   5.203
 3432SOL    HW111195   2.829   2.276   5.252
 3432SOL    HW211196   2.710   2.362   5.181
 3433SOL     OW11197   3.564   1.150   6.202
 3433SOL    HW111198   3.497   1.214   6.166
 3433SOL    HW211199   3.651   1.197   6.217
 3434SOL     OW11200   4.185   2.637   1.153
 3434SOL    HW111201   4.187   2.714   1.089
 3434SOL    HW211202   4.167   2.552   1.102
 3435SOL     OW11203   0.237   2.827   1.692
 3435SOL    HW111204   0.299   2.765   1.740
 3435SOL    HW211205   0.152   2.835   1.744
 3436SOL     OW11206   4.135   6.575   4.521
 3436SOL    HW111207   4.046   6.620   4.525
 3436SOL    HW211208   4.205   6.637   4.556
 3437SOL     OW11209   4.315   0.536   5.336
 3437SOL    HW111210   4.231   0.529   5.389
 3437SOL    HW211211   4.325   0.455   5.278
 3438SOL     OW11212   1.968   2.705   6.739
 3438SOL    HW111213   1.886   2.660   6.775
 3438SOL    HW211214   1.977   2.795   6.782
 3439SOL     OW11215   2.564   6.571   5.171
 3439SOL    HW111216   2.606   6.594   5.083
 3439SOL    HW211217   2.622   6.603   5.245
 3440SOL     OW11218   4.369   3.804   0.881
 3440SOL    HW111219   4.368   3.876   0.812
 3440SOL    HW211220   4.380   3.844   0.972
 3441SOL     OW11221   3.930   0.019   4.018
 3441SOL    HW111222   3.909   7.002   4.108
 3441SOL    HW211223   3.995   6.982   3.970
 3442SOL     OW11224   1.949   5.322   3.657
 3442SOL    HW111225   1.959   5.296   3.753
 3442SOL    HW211226   1.911   5.245   3.606
 3443SOL     OW11227   5.906   1.871   3.138
 3443SOL    HW111228   5.982   1.813   3.167
 3443SOL    HW211229   5.884   1.936   3.212
 3444SOL     OW11230   5.070   5.832   6.525
 3444SOL    HW111231   4.980   5.872   6.512
 3444SOL    HW211232   5.077   5.794   6.617
 3445SOL     OW11233   6.734   4.022   4.364
 3445SOL    HW111234   6.748   3.927   4.336
 3445SOL    HW211235   6.823   4.068   4.372
 3446SOL     OW11236   3.939   0.720   3.101
 3446SOL    HW111237   3.903   0.632   3.132
 3446SOL    HW211238   3.913   0.734   3.005
 3447SOL     OW11239   5.741   5.686   0.259
 3447SOL    HW111240   5.831   5.650   0.234
 3447SOL    HW211241   5.753   5.766   0.318
 3448SOL     OW11242   3.324   0.539   0.751
 3448SOL    HW111243   3.399   0.502   0.695
 3448SOL    HW211244   3.321   0.492   0.839
 3449SOL     OW11245   6.140   6.952   1.550
 3449SOL    HW111246   6.072   6.973   1.479
 3449SOL    HW211247   6.128   6.857   1.581
 3450SOL     OW11248   0.834   1.736   1.360
 3450SOL    HW111249   0.780   1.705   1.282
 3450SOL    HW211250   0.920   1.684   1.364
 3451SOL     OW11251   0.599   5.687   3.421
 3451SOL    HW111252   0.661   5.760   3.390
 3451SOL    HW211253   0.651   5.615   3.467
 3452SOL     OW11254   6.864   1.152   6.515
 3452SOL    HW111255   6.804   1.082   6.475
 3452SOL    HW211256   6.811   1.207   6.580
 3453SOL     OW11257   5.388   5.808   4.689
 3453SOL    HW111258   5.425   5.725   4.731
 3453SOL    HW211259   5.453   5.883   4.699
 3454SOL     OW11260   1.615   1.492   0.092
 3454SOL    HW111261   1.714   1.475   0.083
 3454SOL    HW211262   1.598   1.590   0.091
 3455SOL     OW11263   1.388   2.989   4.308
 3455SOL    HW111264   1.366   3.087   4.309
 3455SOL    HW211265   1.415   2.960   4.400
 3456SOL     OW11266   5.725   6.399   1.852
 3456SOL    HW111267   5.733   6.406   1.753
 3456SOL    HW211268   5.814   6.373   1.891
 3457SOL     OW11269   2.722   5.283   4.055
 3457SOL    HW111270   2.653   5.215   4.078
 3457SOL    HW211271   2.785   5.245   3.988
 3458SOL     OW11272   6.220   6.726   0.217
 3458SOL    HW111273   6.185   6.640   0.254
 3458SOL    HW211274   6.319   6.720   0.207
 3459SOL     OW11275   0.300   3.605   3.151
 3459SOL    HW111276   0.349   3.580   3.068
 3459SOL    HW211277   0.266   3.522   3.197
 3460SOL     OW11278   2.809   2.954   0.135
 3460SOL    HW111279   2.836   3.046   0.106
 3460SOL    HW211280   2.758   2.960   0.221
 3461SOL     OW11281   3.852   5.234   4.005
 3461SOL    HW111282   3.924   5.242   4.073
 3461SOL    HW211283   3.775   5.183   4.044
 3462SOL     OW11284   6.044   2.700   2.869
 3462SOL    HW111285   6.025   2.664   2.778
 3462SOL    HW211286   5.962   2.746   2.904
 3463SOL     OW11287   1.237   3.127   2.133
 3463SOL    HW111288   1.192   3.052   2.085
 3463SOL    HW211289   1.170   3.200   2.152
 3464SOL     OW11290   5.867   2.467   6.650
 3464SOL    HW111291   5.778   2.477   6.696
 3464SOL    HW211292   5.853   2.465   6.551
 3465SOL     OW11293   2.156   3.466   1.704
 3465SOL    HW111294   2.192   3.499   1.791
 3465SOL    HW211295   2.226   3.411   1.657
 3466SOL     OW11296   5.502   4.306   5.556
 3466SOL    HW111297   5.506   4.394   5.510
 3466SOL    HW211298   5.528   4.317   5.652
 3467SOL     OW11299   3.665   1.813   1.100
 3467SOL    HW111300   3.570   1.782   1.092
 3467SOL    HW211301   3.726   1.734   1.104
 3468SOL     OW11302   4.546   1.627   1.860
 3468SOL    HW111303   4.641   1.657   1.868
 3468SOL    HW211304   4.486   1.700   1.891
 3469SOL     OW11305   4.616   0.319   5.916
 3469SOL    HW111306   4.519   0.344   5.927
 3469SOL    HW211307   4.643   0.333   5.821
 3470SOL     OW11308   0.195   3.074   0.883
 3470SOL    HW111309   0.159   2.985   0.909
 3470SOL    HW211310   0.156   3.144   0.942
 3471SOL     OW11311   4.623   4.377   3.579
 3471SOL    HW111312   4.636   4.382   3.480
 3471SOL    HW211313   4.657   4.460   3.622
 3472SOL     OW11314   4.474   2.168   2.733
 3472SOL    HW111315   4.462   2.182   2.831
 3472SOL    HW211316   4.558   2.115   2.717
 3473SOL     OW11317   0.018   3.544   3.811
 3473SOL    HW111318   0.097   3.585   3.765
 3473SOL    HW211319   6.958   3.597   3.789
 3474SOL     OW11320   0.374   4.272   4.043
 3474SOL    HW111321   0.339   4.341   3.980
 3474SOL    HW211322   0.343   4.181   4.015
 3475SOL     OW11323   0.220   4.985   4.089
 3475SOL    HW111324   0.202   4.905   4.031
 3475SOL    HW211325   0.146   4.994   4.156
 3476SOL     OW11326   2.027   1.454   3.875
 3476SOL    HW111327   1.966   1.479   3.951
 3476SOL    HW211328   2.085   1.532   3.853
 3477SOL     OW11329   0.413   3.346   0.918
 3477SOL    HW111330   0.371   3.302   0.839
 3477SOL    HW211331   0.509   3.319   0.924
 3478SOL     OW11332   2.245   6.696   0.362
 3478SOL    HW111333   2.320   6.713   0.426
 3478SOL    HW211334   2.184   6.627   0.399
 3479SOL     OW11335   0.636   2.746   3.620
 3479SOL    HW111336   0.716   2.804   3.607
 3479SOL    HW211337   0.632   2.678   3.547
 3480SOL     OW11338   0.737   6.230   6.782
 3480SOL    HW111339   0.688   6.253   6.867
 3480SOL    HW211340   0.675   6.239   6.704
 3481SOL     OW11341   5.378   0.811   0.032
 3481SOL    HW111342   5.447   0.875   7.020
 3481SOL    HW211343   5.373   0.731   6.995
 3482SOL     OW11344   6.355   2.388   3.937
 3482SOL    HW111345   6.266   2.349   3.914
 3482SOL    HW211346   6.348   2.488   3.937
 3483SOL     OW11347   5.161   2.435   3.022
 3483SOL    HW111348   5.195   2.508   3.081
 3483SOL    HW211349   5.079   2.395   3.062
 3484SOL     OW11350   1.982   3.955   6.723
 3484SOL    HW111351   1.917   3.994   6.657
 3484SOL    HW211352   1.962   3.990   6.814
 3485SOL     OW11353   6.971   2.255   5.535
 3485SOL    HW111354   6.915   2.280   5.455
 3485SOL    HW211355   6.934   2.172   5.576
 3486SOL     OW11356   1.789   6.917   3.932
 3486SOL    HW111357   1.832   6.875   3.852
 3486SOL    HW211358   1.816   7.013   3.939
 3487SOL     OW11359   6.628   1.665   6.961
 3487SOL    HW111360   6.552   1.611   6.996
 3487SOL    HW211361   6.704   1.662   0.003
 3488SOL     OW11362   5.569   0.227   5.078
 3488SOL    HW111363   5.496   0.265   5.135
 3488SOL    HW211364   5.578   0.129   5.097
 3489SOL     OW11365   3.263   6.784   1.393
 3489SOL    HW111366   3.318   6.861   1.362
 3489SOL    HW211367   3.313   6.698   1.380
 3490SOL     OW11368   3.610   5.032   1.224
 3490SOL    HW111369   3.550   4.968   1.177
 3490SOL    HW211370   3.606   5.017   1.322
 3491SOL     OW11371   4.878   4.397   6.574
 3491SOL    HW111372   4.928   4.335   6.635
 3491SOL    HW211373   4.859   4.483   6.622
 3492SOL     OW11374   7.008   3.866   2.008
 3492SOL    HW111375   0.057   3.934   1.995
 3492SOL    HW211376   6.938   3.878   1.938
 3493SOL     OW11377   6.361   3.993   4.164
 3493SOL    HW111378   6.295   4.057   4.122
 3493SOL    HW211379   6.343   3.987   4.262
 3494SOL     OW11380   3.455   1.674   2.346
 3494SOL    HW111381   3.383   1.721   2.296
 3494SOL    HW211382   3.439   1.575   2.342
 3495SOL     OW11383   0.723   3.983   2.239
 3495SOL    HW111384   0.643   4.014   2.289
 3495SOL    HW211385   0.697   3.963   2.144
 3496SOL     OW11386   5.649   4.357   1.019
 3496SOL    HW111387   5.665   4.448   1.057
 3496SOL    HW211388   5.566   4.318   1.059
 3497SOL     OW11389   3.333   1.155   3.889
 3497SOL    HW111390   3.245   1.170   3.935
 3497SOL    HW211391   3.389   1.238   3.897
 3498SOL     OW11392   2.662   1.985   2.429
 3498SOL    HW111393   2.676   1.910   2.365
 3498SOL    HW211394   2.708   2.067   2.394
 3499SOL     OW11395   5.978   6.053   5.470
 3499SOL    HW111396   5.991   6.051   5.569
 3499SOL    HW211397   5.976   6.148   5.438
 3500SOL     OW11398   1.824   2.363   4.360
 3500SOL    HW111399   1.859   2.308   4.284
 3500SOL    HW211400   1.848   2.459   4.346
 3501SOL     OW11401   2.452   6.434   6.631
 3501SOL    HW111402   2.525   6.501   6.641
 3501SOL    HW211403   2.364   6.481   6.624
 3502SOL     OW11404   5.907   3.415   2.032
 3502SOL    HW111405   5.918   3.506   1.991
 3502SOL    HW211406   5.834   3.419   2.101
 3503SOL     OW11407   6.872   5.895   6.341
 3503SOL    HW111408   6.929   5.926   6.417
 3503SOL    HW211409   6.924   5.831   6.284
 3504SOL     OW11410   2.264   0.653   2.203
 3504SOL    HW111411   2.333   0.603   2.151
 3504SOL    HW211412   2.181   0.598   2.209
 3505SOL     OW11413   5.389   5.776   5.481
 3505SOL    HW111414   5.369   5.874   5.479
 3505SOL    HW211415   5.320   5.727   5.428
 3506SOL     OW11416   6.033   4.694   4.620
 3506SOL    HW111417   6.030   4.655   4.712
 3506SOL    HW211418   5.963   4.652   4.563
 3507SOL     OW11419   2.384   6.463   0.853
 3507SOL    HW111420   2.350   6.555   0.834
 3507SOL    HW211421   2.307   6.399   0.854
 3508SOL     OW11422   3.288   2.519   6.256
 3508SOL    HW111423   3.371   2.554   6.299
 3508SOL    HW211424   3.235   2.467   6.322
 3509SOL     OW11425   5.618   6.846   0.030
 3509SOL    HW111426   5.687   6.804   0.089
 3509SOL    HW211427   5.554   6.775   7.021
 3510SOL     OW11428   2.071   0.853   1.259
 3510SOL    HW111429   2.040   0.931   1.204
 3510SOL    HW211430   2.169   0.838   1.244
 3511SOL     OW11431   1.962   4.901   1.569
 3511SOL    HW111432   1.973   4.815   1.619
 3511SOL    HW211433   1.874   4.901   1.521
 3512SOL     OW11434   0.873   3.823   0.778
 3512SOL    HW111435   0.824   3.881   0.844
 3512SOL    HW211436   0.819   3.741   0.759
 3513SOL     OW11437   6.042   2.459   1.429
 3513SOL    HW111438   6.141   2.448   1.434
 3513SOL    HW211439   6.003   2.385   1.373
 3514SOL     OW11440   5.593   1.016   2.617
 3514SOL    HW111441   5.533   1.096   2.615
 3514SOL    HW211442   5.688   1.045   2.625
 3515SOL     OW11443   5.257   6.114   3.949
 3515SOL    HW111444   5.201   6.119   4.032
 3515SOL    HW211445   5.354   6.119   3.973
 3516SOL     OW11446   5.153   6.493   1.237
 3516SOL    HW111447   5.233   6.435   1.251
 3516SOL    HW211448   5.121   6.484   1.143
 3517SOL     OW11449   0.362   1.042   1.222
 3517SOL    HW111450   0.391   0.991   1.303
 3517SOL    HW211451   0.276   1.089   1.242
 3518SOL     OW11452   5.171   2.184   4.837
 3518SOL    HW111453   5.234   2.120   4.883
 3518SOL    HW211454   5.139   2.251   4.903
 3519SOL     OW11455   2.301   1.084   6.621
 3519SOL    HW111456   2.215   1.105   6.668
 3519SOL    HW211457   2.370   1.151   6.647
 3520SOL     OW11458   3.749   6.554   0.021
 3520SOL    HW111459   3.731   6.486   0.092
 3520SOL    HW211460   3.846   6.555   7.021
 3521SOL     OW11461   3.598   2.561   6.641
 3521SOL    HW111462   3.527   2.509   6.689
 3521SOL    HW211463   3.568   2.581   6.548
 3522SOL     OW11464   6.459   4.816   6.769
 3522SOL    HW111465   6.407   4.805   6.854
 3522SOL    HW211466   6.401   4.794   6.691
 3523SOL     OW11467   1.012   4.374   5.572
 3523SOL    HW111468   1.058   4.460   5.551
 3523SOL    HW211469   1.056   4.300   5.522
 3524SOL     OW11470   4.940   1.882   2.404
 3524SOL    HW111471   4.988   1.970   2.410
 3524SOL    HW211472   4.924   1.859   2.308
 3525SOL     OW11473   6.069   3.485   4.185
 3525SOL    HW111474   5.999   3.467   4.254
 3525SOL    HW211475   6.147   3.424   4.200
 3526SOL     OW11476   2.166   6.327   3.277
 3526SOL    HW111477   2.145   6.424   3.289
 3526SOL    HW211478   2.163   6.280   3.365
 3527SOL     OW11479   6.245   3.068   6.213
 3527SOL    HW111480   6.205   3.127   6.143
 3527SOL    HW211481   6.186   2.988   6.227
 3528SOL     OW11482   2.365   6.399   4.770
 3528SOL    HW111483   2.379   6.387   4.671
 3528SOL    HW211484   2.436   6.350   4.820
 3529SOL     OW11485   4.225   6.742   6.965
 3529SOL    HW111486   4.325   6.740   6.978
 3529SOL    HW211487   4.187   6.817   7.019
 3530SOL     OW11488   6.993   4.823   1.543
 3530SOL    HW111489   6.948   4.869   1.619
 3530SOL    HW211490   0.066   4.850   1.540
 3531SOL     OW11491   5.705   2.354   1.664
 3531SOL    HW111492   5.750   2.265   1.667
 3531SOL    HW211493   5.704   2.394   1.755
 3532SOL     OW11494   2.437   0.988   1.809
 3532SOL    HW111495   2.507   0.953   1.748
 3532SOL    HW211496   2.480   1.042   1.881
 3533SOL     OW11497   0.843   1.826   2.596
 3533SOL    HW111498   0.855   1.808   2.498
 3533SOL    HW211499   0.799   1.915   2.608
 3534SOL     OW11500   0.735   1.987   1.768
 3534SOL    HW111501   0.776   1.909   1.815
 3534SOL    HW211502   0.659   1.955   1.711
 3535SOL     OW11503   2.846   5.409   5.546
 3535SOL    HW111504   2.791   5.378   5.623
 3535SOL    HW211505   2.786   5.448   5.475
 3536SOL     OW11506   3.261   1.854   3.207
 3536SOL    HW111507   3.285   1.831   3.301
 3536SOL    HW211508   3.305   1.788   3.145
 3537SOL     OW11509   1.534   5.453   1.921
 3537SOL    HW111510   1.477   5.420   1.847
 3537SOL    HW211511   1.522   5.394   2.001
 3538SOL     OW11512   3.182   5.483   5.946
 3538SOL    HW111513   3.266   5.531   5.920
 3538SOL    HW211514   3.143   5.439   5.865
 3539SOL     OW11515   3.638   3.494   4.373
 3539SOL    HW111516   3.682   3.526   4.290
 3539SOL    HW211517   3.685   3.532   4.453
 3540SOL     OW11518   2.331   2.274   4.550
 3540SOL    HW111519   2.423   2.301   4.577
 3540SOL    HW211520   2.321   2.283   4.451
 3541SOL     OW11521   2.894   2.853   5.387
 3541SOL    HW111522   2.809   2.841   5.335
 3541SOL    HW211523   2.965   2.793   5.350
 3542SOL     OW11524   1.595   5.138   2.893
 3542SOL    HW111525   1.513   5.089   2.862
 3542SOL    HW211526   1.644   5.082   2.959
 3543SOL     OW11527   6.039   3.020   3.804
 3543SOL    HW111528   5.988   2.958   3.745
 3543SOL    HW211529   5.979   3.054   3.876
 3544SOL     OW11530   2.251   4.328   6.854
 3544SOL    HW111531   2.169   4.292   6.810
 3544SOL    HW211532   2.332   4.286   6.812
 3545SOL     OW11533   4.154   6.321   6.116
 3545SOL    HW111534   4.061   6.331   6.151
 3545SOL    HW211535   4.152   6.305   6.017
 3546SOL     OW11536   0.496   5.301   3.345
 3546SOL    HW111537   0.439   5.221   3.327
 3546SOL    HW211538   0.507   5.312   3.444
 3547SOL     OW11539   4.477   5.113   3.679
 3547SOL    HW111540   4.544   5.132   3.751
 3547SOL    HW211541   4.524   5.084   3.596
 3548SOL     OW11542   4.988   2.006   5.716
 3548SOL    HW111543   4.948   1.942   5.781
 3548SOL    HW211544   5.076   2.040   5.751
 3549SOL     OW11545   6.786   4.782   4.091
 3549SOL    HW111546   6.800   4.684   4.104
 3549SOL    HW211547   6.868   4.832   4.121
 3550SOL     OW11548   5.317   2.352   2.800
 3550SOL    HW111549   5.228   2.364   2.756
 3550SOL    HW211550   5.310   2.377   2.896
 3551SOL     OW11551   3.680   6.283   3.026
 3551SOL    HW111552   3.702   6.351   2.956
 3551SOL    HW211553   3.762   6.229   3.047
 3552SOL     OW11554   4.897   5.941   2.248
 3552SOL    HW111555   4.970   5.949   2.316
 3552SOL    HW211556   4.809   5.939   2.295
 3553SOL     OW11557   6.006   2.882   2.326
 3553SOL    HW111558   5.978   2.864   2.231
 3553SOL    HW211559   6.097   2.843   2.341
 3554SOL     OW11560   4.035   3.475   0.275
 3554SOL    HW111561   3.998   3.568   0.278
 3554SOL    HW211562   4.094   3.461   0.355
 3555SOL     OW11563   0.579   3.411   2.940
 3555SOL    HW111564   0.491   3.418   2.987
 3555SOL    HW211565   0.605   3.501   2.904
 3556SOL     OW11566   3.581   0.227   5.264
 3556SOL    HW111567   3.569   0.157   5.194
 3556SOL    HW211568   3.492   0.258   5.297
 3557SOL     OW11569   0.875   0.255   4.524
 3557SOL    HW111570   0.795   0.229   4.470
 3557SOL    HW211571   0.953   0.272   4.463
 3558SOL     OW11572   7.001   5.719   1.389
 3558SOL    HW111573   0.020   5.731   1.299
 3558SOL    HW211574   0.030   5.770   1.457
 3559SOL     OW11575   0.347   0.298   4.661
 3559SOL    HW111576   0.388   0.337   4.744
 3559SOL    HW211577   0.308   0.209   4.682
 3560SOL     OW11578   1.281   5.993   1.030
 3560SOL    HW111579   1.357   6.017   1.090
 3560SOL    HW211580   1.295   5.901   0.993
 3561SOL     OW11581   5.176   4.768   5.840
 3561SOL    HW111582   5.124   4.829   5.780
 3561SOL    HW211583   5.234   4.823   5.900
 3562SOL     OW11584   4.854   0.719   4.073
 3562SOL    HW111585   4.799   0.773   4.010
 3562SOL    HW211586   4.908   0.652   4.022
 3563SOL     OW11587   5.448   0.958   1.540
 3563SOL    HW111588   5.472   0.997   1.629
 3563SOL    HW211589   5.410   1.030   1.482
 3564SOL     OW11590   1.116   4.422   4.204
 3564SOL    HW111591   1.138   4.370   4.287
 3564SOL    HW211592   1.077   4.510   4.231
 3565SOL     OW11593   3.174   6.201   5.144
 3565SOL    HW111594   3.197   6.110   5.177
 3565SOL    HW211595   3.250   6.237   5.090
 3566SOL     OW11596   6.761   3.666   5.882
 3566SOL    HW111597   6.826   3.696   5.952
 3566SOL    HW211598   6.690   3.735   5.871
 3567SOL     OW11599   1.275   2.419   0.328
 3567SOL    HW111600   1.205   2.489   0.314
 3567SOL    HW211601   1.308   2.387   0.239
 3568SOL     OW11602   5.315   5.072   2.480
 3568SOL    HW111603   5.260   5.017   2.417
 3568SOL    HW211604   5.286   5.053   2.574
 3569SOL     OW11605   2.989   3.162   5.199
 3569SOL    HW111606   2.996   3.253   5.239
 3569SOL    HW211607   3.002   3.168   5.100
 3570SOL     OW11608   5.866   0.912   5.353
 3570SOL    HW111609   5.859   0.884   5.449
 3570SOL    HW211610   5.839   1.007   5.343
 3571SOL     OW11611   1.783   0.917   5.084
 3571SOL    HW111612   1.731   1.001   5.103
 3571SOL    HW211613   1.745   0.842   5.139
 3572SOL     OW11614   5.012   4.267   2.859
 3572SOL    HW111615   4.939   4.220   2.809
 3572SOL    HW211616   5.002   4.249   2.957
 3573SOL     OW11617   6.589   4.769   2.280
 3573SOL    HW111618   6.524   4.777   2.355
 3573SOL    HW211619   6.562   4.692   2.221
 3574SOL     OW11620   2.401   3.059   6.670
 3574SOL    HW111621   2.373   3.035   6.577
 3574SOL    HW211622   2.344   3.135   6.703
 3575SOL     OW11623   4.910   5.317   0.668
 3575SOL    HW111624   4.964   5.397   0.694
 3575SOL    HW211625   4.964   5.234   0.682
 3576SOL     OW11626   0.388   2.485   0.252
 3576SOL    HW111627   0.402   2.387   0.238
 3576SOL    HW211628   0.303   2.513   0.208
 3577SOL     OW11629   2.407   2.892   5.779
 3577SOL    HW111630   2.385   2.884   5.682
 3577SOL    HW211631   2.485   2.833   5.801
 3578SOL     OW11632   3.016   3.129   0.984
 3578SOL    HW111633   3.009   3.053   1.048
 3578SOL    HW211634   2.987   3.099   0.893
 3579SOL     OW11635   0.482   3.787   2.482
 3579SOL    HW111636   0.581   3.773   2.482
 3579SOL    HW211637   0.450   3.795   2.576
 3580SOL     OW11638   0.289   3.320   1.252
 3580SOL    HW111639   0.337   3.393   1.203
 3580SOL    HW211640   0.355   3.265   1.303
 3581SOL     OW11641   0.711   0.248   3.266
 3581SOL    HW111642   0.750   0.156   3.257
 3581SOL    HW211643   0.727   0.282   3.359
 3582SOL     OW11644   3.314   4.372   5.982
 3582SOL    HW111645   3.278   4.370   5.889
 3582SOL    HW211646   3.253   4.426   6.040
 3583SOL     OW11647   0.500   4.286   0.992
 3583SOL    HW111648   0.426   4.330   1.042
 3583SOL    HW211649   0.586   4.298   1.042
 3584SOL     OW11650   6.073   4.375   5.445
 3584SOL    HW111651   6.034   4.379   5.537
 3584SOL    HW211652   6.125   4.458   5.427
 3585SOL     OW11653   2.703   1.783   4.677
 3585SOL    HW111654   2.771   1.720   4.640
 3585SOL    HW211655   2.612   1.754   4.651
 3586SOL     OW11656   6.412   3.196   3.707
 3586SOL    HW111657   6.367   3.112   3.679
 3586SOL    HW211658   6.353   3.248   3.769
 3587SOL     OW11659   3.840   6.476   6.690
 3587SOL    HW111660   3.905   6.422   6.742
 3587SOL    HW211661   3.747   6.445   6.710
 3588SOL     OW11662   6.401   4.380   4.112
 3588SOL    HW111663   6.409   4.304   4.178
 3588SOL    HW211664   6.427   4.347   4.021
 3589SOL     OW11665   0.180   6.748   5.629
 3589SOL    HW111666   0.116   6.822   5.610
 3589SOL    HW211667   0.137   6.680   5.689
 3590SOL     OW11668   0.202   4.388   0.689
 3590SOL    HW111669   0.260   4.437   0.624
 3590SOL    HW211670   0.208   4.432   0.778
 3591SOL     OW11671   5.373   3.021   6.689
 3591SOL    HW111672   5.460   3.016   6.640
 3591SOL    HW211673   5.372   3.102   6.747
 3592SOL     OW11674   1.410   0.370   2.022
 3592SOL    HW111675   1.339   0.317   1.977
 3592SOL    HW211676   1.438   0.323   2.106
 3593SOL     OW11677   6.680   4.074   5.190
 3593SOL    HW111678   6.757   4.034   5.240
 3593SOL    HW211679   6.636   4.143   5.248
 3594SOL     OW11680   4.343   5.713   5.038
 3594SOL    HW111681   4.406   5.759   5.101
 3594SOL    HW211682   4.289   5.781   4.989
 3595SOL     OW11683   5.669   5.791   7.018
 3595SOL    HW111684   5.682   5.737   0.078
 3595SOL    HW211685   5.610   5.741   6.954
 3596SOL     OW11686   4.456   1.994   3.431
 3596SOL    HW111687   4.539   1.947   3.400
 3596SOL    HW211688   4.391   1.927   3.467
 3597SOL     OW11689   2.034   3.199   5.257
 3597SOL    HW111690   2.106   3.198   5.326
 3597SOL    HW211691   2.023   3.108   5.218
 3598SOL     OW11692   1.477   5.923   5.455
 3598SOL    HW111693   1.470   5.831   5.415
 3598SOL    HW211694   1.540   5.978   5.401
 3599SOL     OW11695   4.511   1.907   6.499
 3599SOL    HW111696   4.532   1.980   6.564
 3599SOL    HW211697   4.529   1.939   6.406
 3600SOL     OW11698   2.393   3.676   0.719
 3600SOL    HW111699   2.400   3.659   0.620
 3600SOL    HW211700   2.361   3.593   0.765
 3601SOL     OW11701   5.271   1.478   4.967
 3601SOL    HW111702   5.190   1.422   4.984
 3601SOL    HW211703   5.327   1.435   4.896
 3602SOL     OW11704   1.923   3.023   1.609
 3602SOL    HW111705   1.858   3.001   1.537
 3602SOL    HW211706   1.908   2.962   1.687
 3603SOL     OW11707   3.140   0.716   6.203
 3603SOL    HW111708   3.203   0.677   6.137
 3603SOL    HW211709   3.046   0.694   6.176
 3604SOL     OW11710   0.144   0.654   3.389
 3604SOL    HW111711   0.107   0.611   3.472
 3604SOL    HW211712   0.105   0.745   3.379
 3605SOL     OW11713   0.951   5.265   3.431
 3605SOL    HW111714   1.011   5.206   3.485
 3605SOL    HW211715   0.876   5.211   3.393
 3606SOL     OW11716   1.548   6.355   1.834
 3606SOL    HW111717   1.524   6.260   1.812
 3606SOL    HW211718   1.602   6.357   1.919
 3607SOL     OW11719   5.230   2.626   2.675
 3607SOL    HW111720   5.165   2.701   2.661
 3607SOL    HW211721   5.181   2.545   2.706
 3608SOL     OW11722   4.354   1.932   3.845
 3608SOL    HW111723   4.297   1.971   3.772
 3608SOL    HW211724   4.346   1.988   3.927
 3609SOL     OW11725   2.504   6.439   4.226
 3609SOL    HW111726   2.474   6.534   4.227
 3609SOL    HW211727   2.441   6.385   4.171
 3610SOL     OW11728   1.906   0.136   5.458
 3610SOL    HW111729   1.860   0.167   5.374
 3610SOL    HW211730   1.839   0.129   5.531
 3611SOL     OW11731   4.774   4.623   4.474
 3611SOL    HW111732   4.757   4.648   4.379
 3611SOL    HW211733   4.871   4.600   4.485
 3612SOL     OW11734   6.170   1.049   6.601
 3612SOL    HW111735   6.225   0.971   6.632
 3612SOL    HW211736   6.148   1.039   6.505
 3613SOL     OW11737   3.390   5.417   1.190
 3613SOL    HW111738   3.404   5.319   1.174
 3613SOL    HW211739   3.469   5.455   1.237
 3614SOL     OW11740   3.468   3.849   6.823
 3614SOL    HW111741   3.465   3.937   6.871
 3614SOL    HW211742   3.551   3.800   6.849
 3615SOL     OW11743   5.771   2.960   5.900
 3615SOL    HW111744   5.855   2.910   5.879
 3615SOL    HW211745   5.789   3.058   5.895
 3616SOL     OW11746   2.227   2.009   6.717
 3616SOL    HW111747   2.229   2.046   6.810
 3616SOL    HW211748   2.171   2.069   6.659
 3617SOL     OW11749   4.189   6.806   5.626
 3617SOL    HW111750   4.129   6.807   5.546
 3617SOL    HW211751   4.203   6.712   5.656
 3618SOL     OW11752   1.797   3.838   4.748
 3618SOL    HW111753   1.830   3.746   4.729
 3618SOL    HW211754   1.785   3.849   4.847
 3619SOL     OW11755   6.016   2.728   0.786
 3619SOL    HW111756   5.948   2.750   0.855
 3619SOL    HW211757   5.971   2.715   0.698
 3620SOL     OW11758   6.069   6.245   4.436
 3620SOL    HW111759   6.085   6.191   4.519
 3620SOL    HW211760   6.157   6.263   4.391
 3621SOL     OW11761   3.677   3.248   4.185
 3621SOL    HW111762   3.669   3.322   4.119
 3621SOL    HW211763   3.644   3.280   4.274
 3622SOL     OW11764   0.698   0.257   0.961
 3622SOL    HW111765   0.724   0.180   0.902
 3622SOL    HW211766   0.675   0.222   1.052
 3623SOL     OW11767   1.288   5.834   6.150
 3623SOL    HW111768   1.368   5.890   6.174
 3623SOL    HW211769   1.282   5.824   6.051
 3624SOL     OW11770   3.032   0.718   1.652
 3624SOL    HW111771   3.076   0.703   1.563
 3624SOL    HW211772   3.058   0.645   1.715
 3625SOL     OW11773   6.481   2.716   6.692
 3625SOL    HW111774   6.526   2.796   6.652
 3625SOL    HW211775   6.516   2.633   6.647
 3626SOL     OW11776   0.408   3.471   4.823
 3626SOL    HW111777   0.345   3.457   4.748
 3626SOL    HW211778   0.383   3.412   4.900
 3627SOL     OW11779   4.722   2.949   1.092
 3627SOL    HW111780   4.724   2.979   1.187
 3627SOL    HW211781   4.651   2.880   1.080
 3628SOL     OW11782   1.246   1.610   1.910
 3628SOL    HW111783   1.284   1.519   1.923
 3628SOL    HW211784   1.270   1.643   1.819
 3629SOL     OW11785   0.538   1.467   4.230
 3629SOL    HW111786   0.517   1.560   4.259
 3629SOL    HW211787   0.610   1.429   4.288
 3630SOL     OW11788   6.781   2.938   3.442
 3630SOL    HW111789   6.858   2.886   3.477
 3630SOL    HW211790   6.726   2.881   3.382
 3631SOL     OW11791   1.727   6.510   2.686
 3631SOL    HW111792   1.682   6.516   2.776
 3631SOL    HW211793   1.779   6.424   2.681
 3632SOL     OW11794   4.102   3.737   0.540
 3632SOL    HW111795   4.061   3.646   0.542
 3632SOL    HW211796   4.193   3.732   0.499
 3633SOL     OW11797   3.768   2.440   5.969
 3633SOL    HW111798   3.705   2.423   5.892
 3633SOL    HW211799   3.862   2.440   5.935
 3634SOL     OW11800   2.923   5.849   6.066
 3634SOL    HW111801   2.876   5.934   6.090
 3634SOL    HW211802   2.868   5.771   6.094
 3635SOL     OW11803   2.551   0.655   1.882
 3635SOL    HW111804   2.634   0.601   1.872
 3635SOL    HW211805   2.566   0.729   1.948
 3636SOL     OW11806   0.765   5.565   0.202
 3636SOL    HW111807   0.861   5.585   0.222
 3636SOL    HW211808   0.752   5.558   0.103
 3637SOL     OW11809   0.474   2.800   6.778
 3637SOL    HW111810   0.537   2.735   6.820
 3637SOL    HW211811   0.436   2.860   6.848
 3638SOL     OW11812   5.821   4.383   2.470
 3638SOL    HW111813   5.901   4.443   2.476
 3638SOL    HW211814   5.835   4.301   2.526
 3639SOL     OW11815   4.029   3.814   4.933
 3639SOL    HW111816   3.958   3.884   4.934
 3639SOL    HW211817   3.992   3.728   4.968
 3640SOL     OW11818   5.439   2.767   0.371
 3640SOL    HW111819   5.531   2.766   0.409
 3640SOL    HW211820   5.443   2.760   0.272
 3641SOL     OW11821   6.595   3.824   1.539
 3641SOL    HW111822   6.504   3.820   1.580
 3641SOL    HW211823   6.623   3.732   1.511
 3642SOL     OW11824   5.899   2.024   6.559
 3642SOL    HW111825   5.806   2.012   6.595
 3642SOL    HW211826   5.938   2.109   6.595
 3643SOL     OW11827   4.603   5.894   6.140
 3643SOL    HW111828   4.657   5.978   6.148
 3643SOL    HW211829   4.506   5.917   6.148
 3644SOL     OW11830   3.274   0.927   1.880
 3644SOL    HW111831   3.181   0.951   1.853
 3644SOL    HW211832   3.303   0.987   1.955
 3645SOL     OW11833   1.552   3.958   4.533
 3645SOL    HW111834   1.530   3.991   4.625
 3645SOL    HW211835   1.645   3.984   4.509
 3646SOL     OW11836   2.644   4.794   4.837
 3646SOL    HW111837   2.718   4.756   4.892
 3646SOL    HW211838   2.570   4.727   4.831
 3647SOL     OW11839   1.852   0.004   0.187
 3647SOL    HW111840   1.769   6.975   0.171
 3647SOL    HW211841   1.900   6.990   0.266
 3648SOL     OW11842   5.141   5.562   3.283
 3648SOL    HW111843   5.077   5.589   3.355
 3648SOL    HW211844   5.159   5.639   3.222
 3649SOL     OW11845   5.154   3.699   0.562
 3649SOL    HW111846   5.177   3.788   0.522
 3649SOL    HW211847   5.072   3.664   0.518
 3650SOL     OW11848   4.955   4.533   0.680
 3650SOL    HW111849   5.013   4.508   0.602
 3650SOL    HW211850   4.967   4.630   0.700
 3651SOL     OW11851   1.248   2.490   6.008
 3651SOL    HW111852   1.273   2.494   6.104
 3651SOL    HW211853   1.260   2.579   5.966
 3652SOL     OW11854   4.902   1.285   2.097
 3652SOL    HW111855   4.917   1.288   1.998
 3652SOL    HW211856   4.846   1.364   2.124
 3653SOL     OW11857   0.818   1.211   2.068
 3653SOL    HW111858   0.849   1.228   2.161
 3653SOL    HW211859   0.897   1.204   2.007
 3654SOL     OW11860   5.044   0.356   0.888
 3654SOL    HW111861   4.990   0.273   0.878
 3654SOL    HW211862   5.140   0.335   0.868
 3655SOL     OW11863   1.687   1.550   3.949
 3655SOL    HW111864   1.593   1.580   3.968
 3655SOL    HW211865   1.738   1.545   4.034
 3656SOL     OW11866   0.464   5.521   1.707
 3656SOL    HW111867   0.383   5.463   1.714
 3656SOL    HW211868   0.443   5.612   1.742
 3657SOL     OW11869   4.730   6.273   4.930
 3657SOL    HW111870   4.669   6.349   4.953
 3657SOL    HW211871   4.812   6.309   4.886
 3658SOL     OW11872   1.079   5.647   6.312
 3658SOL    HW111873   1.002   5.624   6.252
 3658SOL    HW211874   1.111   5.740   6.290
 3659SOL     OW11875   6.981   1.787   6.291
 3659SOL    HW111876   6.922   1.816   6.215
 3659SOL    HW211877   0.016   1.711   6.262
 3660SOL     OW11878   5.558   5.600   5.904
 3660SOL    HW111879   5.507   5.668   5.957
 3660SOL    HW211880   5.652   5.595   5.938
 3661SOL     OW11881   6.709   1.791   5.250
 3661SOL    HW111882   6.790   1.820   5.300
 3661SOL    HW211883   6.722   1.697   5.217
 3662SOL     OW11884   3.571   1.102   5.881
 3662SOL    HW111885   3.554   1.108   5.980
 3662SOL    HW211886   3.598   1.008   5.858
 3663SOL     OW11887   2.551   3.035   6.896
 3663SOL    HW111888   2.466   3.044   6.843
 3663SOL    HW211889   2.586   2.942   6.887
 3664SOL     OW11890   3.998   1.874   2.370
 3664SOL    HW111891   3.989   1.777   2.393
 3664SOL    HW211892   3.921   1.925   2.409
 3665SOL     OW11893   0.276   5.920   5.760
 3665SOL    HW111894   0.352   5.859   5.784
 3665SOL    HW211895   0.290   5.956   5.668
 3666SOL     OW11896   2.151   2.053   4.514
 3666SOL    HW111897   2.201   2.139   4.521
 3666SOL    HW211898   2.062   2.070   4.472
 3667SOL     OW11899   2.157   1.089   2.567
 3667SOL    HW111900   2.251   1.077   2.537
 3667SOL    HW211901   2.148   1.176   2.614
 3668SOL     OW11902   0.671   0.114   1.873
 3668SOL    HW111903   0.761   0.073   1.863
 3668SOL    HW211904   0.681   0.210   1.900
 3669SOL     OW11905   6.927   1.792   4.123
 3669SOL    HW111906   6.932   1.724   4.049
 3669SOL    HW211907   6.902   1.746   4.208
 3670SOL     OW11908   3.140   5.280   1.376
 3670SOL    HW111909   3.226   5.257   1.423
 3670SOL    HW211910   3.132   5.379   1.367
 3671SOL     OW11911   0.084   0.368   3.543
 3671SOL    HW111912   0.082   0.376   3.443
 3671SOL    HW211913   0.051   0.277   3.569
 3672SOL     OW11914   4.303   0.983   3.186
 3672SOL    HW111915   4.311   0.945   3.278
 3672SOL    HW211916   4.272   1.078   3.193
 3673SOL     OW11917   5.127   6.211   0.723
 3673SOL    HW111918   5.190   6.285   0.745
 3673SOL    HW211919   5.076   6.186   0.805
 3674SOL     OW11920   1.325   5.614   5.575
 3674SOL    HW111921   1.344   5.632   5.478
 3674SOL    HW211922   1.410   5.593   5.622
 3675SOL     OW11923   6.902   1.684   4.377
 3675SOL    HW111924   6.946   1.712   4.462
 3675SOL    HW211925   6.803   1.700   4.384
 3676SOL     OW11926   4.809   1.904   2.983
 3676SOL    HW111927   4.769   1.813   2.970
 3676SOL    HW211928   4.795   1.934   3.077
 3677SOL     OW11929   2.080   0.393   4.113
 3677SOL    HW111930   1.987   0.426   4.097
 3677SOL    HW211931   2.105   0.327   4.042
 3678SOL     OW11932   1.515   0.410   3.907
 3678SOL    HW111933   1.418   0.388   3.918
 3678SOL    HW211934   1.570   0.332   3.937
 3679SOL     OW11935   4.952   0.988   2.459
 3679SOL    HW111936   4.991   1.033   2.379
 3679SOL    HW211937   4.856   1.015   2.470
 3680SOL     OW11938   3.909   1.303   4.069
 3680SOL    HW111939   3.972   1.363   4.020
 3680SOL    HW211940   3.922   1.314   4.168
 3681SOL     OW11941   1.319   0.251   5.112
 3681SOL    HW111942   1.223   0.230   5.132
 3681SOL    HW211943   1.341   0.217   5.021
 3682SOL     OW11944   5.729   2.082   1.039
 3682SOL    HW111945   5.669   2.147   0.993
 3682SOL    HW211946   5.709   2.081   1.137
 3683SOL     OW11947   0.195   0.930   5.761
 3683SOL    HW111948   0.168   1.010   5.708
 3683SOL    HW211949   0.114   0.874   5.781
 3684SOL     OW11950   1.675   6.957   5.444
 3684SOL    HW111951   1.587   6.918   5.420
 3684SOL    HW211952   1.717   6.903   5.517
 3685SOL     OW11953   1.999   5.543   5.643
 3685SOL    HW111954   2.072   5.508   5.584
 3685SOL    HW211955   2.013   5.641   5.659
 3686SOL     OW11956   6.781   4.081   3.675
 3686SOL    HW111957   6.779   4.147   3.600
 3686SOL    HW211958   6.851   4.012   3.657
 3687SOL     OW11959   4.799   5.932   3.444
 3687SOL    HW111960   4.813   5.964   3.351
 3687SOL    HW211961   4.714   5.880   3.449
 3688SOL     OW11962   5.777   3.332   0.257
 3688SOL    HW111963   5.694   3.371   0.297
 3688SOL    HW211964   5.753   3.267   0.185
 3689SOL     OW11965   1.620   0.266   5.600
 3689SOL    HW111966   1.623   0.336   5.672
 3689SOL    HW211967   1.579   0.304   5.518
 3690SOL     OW11968   5.184   4.941   1.130
 3690SOL    HW111969   5.102   4.885   1.118
 3690SOL    HW211970   5.255   4.910   1.066
 3691SOL     OW11971   2.047   1.992   0.104
 3691SOL    HW111972   2.069   1.895   0.113
 3691SOL    HW211973   1.976   2.017   0.170
 3692SOL     OW11974   0.543   3.419   6.192
 3692SOL    HW111975   0.546   3.439   6.094
 3692SOL    HW211976   0.551   3.504   6.243
 3693SOL     OW11977   0.866   1.841   3.000
 3693SOL    HW111978   0.881   1.747   2.968
 3693SOL    HW211979   0.876   1.905   2.924
 3694SOL     OW11980   6.877   0.179   1.934
 3694SOL    HW111981   6.897   0.113   1.861
 3694SOL    HW211982   6.902   0.139   2.022
 3695SOL     OW11983   6.587   2.936   3.028
 3695SOL    HW111984   6.594   2.837   3.028
 3695SOL    HW211985   6.525   2.966   2.956
 3696SOL     OW11986   4.994   0.895   4.771
 3696SOL    HW111987   4.930   0.849   4.832
 3696SOL    HW211988   4.946   0.921   4.687
 3697SOL     OW11989   6.585   6.685   3.504
 3697SOL    HW111990   6.527   6.666   3.583
 3697SOL    HW211991   6.620   6.599   3.467
 3698SOL     OW11992   2.173   0.550   2.832
 3698SOL    HW111993   2.155   0.541   2.733
 3698SOL    HW211994   2.098   0.508   2.883
 3699SOL     OW11995   2.484   2.173   3.890
 3699SOL    HW111996   2.494   2.207   3.984
 3699SOL    HW211997   2.461   2.250   3.829
 3700SOL     OW11998   1.139   4.857   5.209
 3700SOL    HW111999   1.133   4.945   5.163
 3700SOL    HW212000   1.063   4.799   5.180
 3701SOL     OW12001   1.306   0.117   3.027
 3701SOL    HW112002   1.272   0.182   3.095
 3701SOL    HW212003   1.301   0.158   2.936
 3702SOL     OW12004   5.038   4.343   3.629
 3702SOL    HW112005   5.051   4.346   3.728
 3702SOL    HW212006   5.079   4.424   3.587
 3703SOL     OW12007   1.077   1.937   5.542
 3703SOL    HW112008   1.015   1.987   5.481
 3703SOL    HW212009   1.168   1.933   5.501
 3704SOL     OW12010   6.938   1.960   1.306
 3704SOL    HW112011   0.009   1.930   1.291
 3704SOL    HW212012   6.891   1.894   1.364
 3705SOL     OW12013   5.098   4.908   3.620
 3705SOL    HW112014   5.013   4.955   3.596
 3705SOL    HW212015   5.152   4.966   3.681
 3706SOL     OW12016   1.170   3.509   0.244
 3706SOL    HW112017   1.167   3.534   0.147
 3706SOL    HW212018   1.194   3.589   0.298
 3707SOL     OW12019   1.842   4.822   3.859
 3707SOL    HW112020   1.742   4.816   3.861
 3707SOL    HW212021   1.879   4.738   3.819
 3708SOL     OW12022   3.935   6.883   0.809
 3708SOL    HW112023   3.846   6.929   0.809
 3708SOL    HW212024   4.006   6.948   0.780
 3709SOL     OW12025   2.005   0.805   2.929
 3709SOL    HW112026   1.942   0.818   2.852
 3709SOL    HW212027   2.075   0.739   2.903
 3710SOL     OW12028   0.182   5.461   5.424
 3710SOL    HW112029   0.218   5.374   5.389
 3710SOL    HW212030   0.108   5.443   5.488
 3711SOL     OW12031   1.794   6.045   4.434
 3711SOL    HW112032   1.734   6.005   4.364
 3711SOL    HW212033   1.739   6.098   4.499
 3712SOL     OW12034   1.771   5.167   5.138
 3712SOL    HW112035   1.695   5.219   5.099
 3712SOL    HW212036   1.774   5.182   5.237
 3713SOL     OW12037   6.588   6.583   5.309
 3713SOL    HW112038   6.577   6.663   5.250
 3713SOL    HW212039   6.679   6.543   5.294
 3714SOL     OW12040   1.148   4.833   0.333
 3714SOL    HW112041   1.198   4.783   0.262
 3714SOL    HW212042   1.206   4.843   0.414
 3715SOL     OW12043   6.600   6.076   3.441
 3715SOL    HW112044   6.665   6.152   3.450
 3715SOL    HW212045   6.603   6.040   3.348
 3716SOL     OW12046   5.304   5.655   3.690
 3716SOL    HW112047   5.368   5.579   3.679
 3716SOL    HW212048   5.271   5.657   3.785
 3717SOL     OW12049   4.086   1.125   1.253
 3717SOL    HW112050   4.168   1.178   1.231
 3717SOL    HW212051   4.072   1.125   1.353
 3718SOL     OW12052   0.151   6.806   5.995
 3718SOL    HW112053   0.155   6.748   6.077
 3718SOL    HW212054   0.165   6.750   5.914
 3719SOL     OW12055   4.279   3.443   6.366
 3719SOL    HW112056   4.250   3.527   6.412
 3719SOL    HW212057   4.198   3.391   6.338
 3720SOL     OW12058   6.997   3.018   1.563
 3720SOL    HW112059   7.001   2.963   1.646
 3720SOL    HW212060   0.045   3.089   1.567
 3721SOL     OW12061   6.790   4.432   6.565
 3721SOL    HW112062   6.846   4.403   6.487
 3721SOL    HW212063   6.849   4.467   6.638
 3722SOL     OW12064   4.030   0.110   2.689
 3722SOL    HW112065   4.113   0.095   2.742
 3722SOL    HW212066   3.963   0.160   2.745
 3723SOL     OW12067   4.513   5.099   6.487
 3723SOL    HW112068   4.569   5.131   6.564
 3723SOL    HW212069   4.512   4.999   6.487
 3724SOL     OW12070   1.390   4.891   4.991
 3724SOL    HW112071   1.477   4.842   4.978
 3724SOL    HW212072   1.389   4.933   5.082
 3725SOL     OW12073   0.470   6.985   6.568
 3725SOL    HW112074   0.436   6.902   6.525
 3725SOL    HW212075   0.570   6.989   6.560
 3726SOL     OW12076   5.573   3.512   3.764
 3726SOL    HW112077   5.586   3.558   3.852
 3726SOL    HW212078   5.650   3.452   3.745
 3727SOL     OW12079   0.247   3.000   4.321
 3727SOL    HW112080   0.191   3.076   4.287
 3727SOL    HW212081   0.321   2.982   4.255
 3728SOL     OW12082   3.386   3.611   0.093
 3728SOL    HW112083   3.322   3.587   0.165
 3728SOL    HW212084   3.472   3.641   0.133
 3729SOL     OW12085   0.897   0.072   5.585
 3729SOL    HW112086   0.950   0.060   5.669
 3729SOL    HW212087   0.882   7.006   5.542
 3730SOL     OW12088   3.973   5.939   5.999
 3730SOL    HW112089   4.072   5.930   5.987
 3730SOL    HW212090   3.944   5.887   6.079
 3731SOL     OW12091   0.343   2.144   6.040
 3731SOL    HW112092   0.316   2.240   6.046
 3731SOL    HW212093   0.330   2.101   6.130
 3732SOL     OW12094   2.745   2.002   6.861
 3732SOL    HW112095   2.779   1.997   6.955
 3732SOL    HW212096   2.646   2.016   6.862
 3733SOL     OW12097   1.691   2.130   3.650
 3733SOL    HW112098   1.775   2.130   3.704
 3733SOL    HW212099   1.680   2.041   3.605
 3734SOL     OW12100   4.251   0.315   1.493
 3734SOL    HW112101   4.268   0.369   1.411
 3734SOL    HW212102   4.333   0.314   1.551
 3735SOL     OW12103   4.505   0.137   2.574
 3735SOL    HW112104   4.470   0.231   2.581
 3735SOL    HW212105   4.443   0.075   2.623
 3736SOL     OW12106   6.761   1.153   1.598
 3736SOL    HW112107   6.666   1.181   1.608
 3736SOL    HW212108   6.816   1.230   1.566
 3737SOL     OW12109   0.487   2.503   3.552
 3737SOL    HW112110   0.399   2.501   3.505
 3737SOL    HW212111   0.476   2.471   3.646
 3738SOL     OW12112   6.587   6.195   0.729
 3738SOL    HW112113   6.495   6.214   0.694
 3738SOL    HW212114   6.586   6.201   0.829
 3739SOL     OW12115   2.992   4.945   0.918
 3739SOL    HW112116   3.081   4.938   0.874
 3739SOL    HW212117   2.956   5.037   0.906
 3740SOL     OW12118   5.622   5.106   0.008
 3740SOL    HW112119   5.692   5.073   6.969
 3740SOL    HW212120   5.664   5.147   0.089
 3741SOL     OW12121   5.299   2.596   0.568
 3741SOL    HW112122   5.334   2.689   0.557
 3741SOL    HW212123   5.305   2.547   0.481
 3742SOL     OW12124   3.578   5.769   0.267
 3742SOL    HW112125   3.564   5.755   0.365
 3742SOL    HW212126   3.670   5.805   0.250
 3743SOL     OW12127   4.096   3.594   1.294
 3743SOL    HW112128   4.121   3.542   1.376
 3743SOL    HW212129   4.172   3.592   1.229
 3744SOL     OW12130   0.393   6.453   2.274
 3744SOL    HW112131   0.378   6.417   2.182
 3744SOL    HW212132   0.422   6.549   2.268
 3745SOL     OW12133   4.851   3.768   2.614
 3745SOL    HW112134   4.761   3.753   2.653
 3745SOL    HW212135   4.847   3.758   2.514
 3746SOL     OW12136   6.830   0.465   3.735
 3746SOL    HW112137   6.865   0.557   3.749
 3746SOL    HW212138   6.735   0.469   3.703
 3747SOL     OW12139   4.383   6.470   6.164
 3747SOL    HW112140   4.345   6.546   6.217
 3747SOL    HW212141   4.310   6.405   6.141
 3748SOL     OW12142   5.458   1.240   2.608
 3748SOL    HW112143   5.485   1.329   2.571
 3748SOL    HW212144   5.455   1.245   2.707
 3749SOL     OW12145   0.066   5.720   3.059
 3749SOL    HW112146   7.000   5.676   3.075
 3749SOL    HW212147   0.103   5.752   3.146
 3750SOL     OW12148   5.795   4.027   6.929
 3750SOL    HW112149   5.831   4.017   6.836
 3750SOL    HW212150   5.729   4.102   6.931
 3751SOL     OW12151   1.720   3.189   1.473
 3751SOL    HW112152   1.717   3.157   1.378
 3751SOL    HW212153   1.796   3.253   1.484
 3752SOL     OW12154   0.609   0.419   6.204
 3752SOL    HW112155   0.554   0.452   6.281
 3752SOL    HW212156   0.705   0.443   6.220
 3753SOL     OW12157   6.905   6.150   4.594
 3753SOL    HW112158   6.890   6.052   4.596
 3753SOL    HW212159   6.974   6.175   4.662
 3754SOL     OW12160   5.742   6.255   1.256
 3754SOL    HW112161   5.736   6.170   1.308
 3754SOL    HW212162   5.808   6.245   1.182
 3755SOL     OW12163   5.167   4.169   3.915
 3755SOL    HW112164   5.076   4.166   3.955
 3755SOL    HW212165   5.211   4.256   3.937
 3756SOL     OW12166   1.664   2.069   6.025
 3756SOL    HW112167   1.566   2.059   6.006
 3756SOL    HW212168   1.679   2.152   6.078
 3757SOL     OW12169   3.196   5.755   6.777
 3757SOL    HW112170   3.140   5.743   6.695
 3757SOL    HW212171   3.192   5.850   6.807
 3758SOL     OW12172   2.073   1.081   4.158
 3758SOL    HW112173   2.036   1.165   4.197
 3758SOL    HW212174   2.171   1.092   4.144
 3759SOL     OW12175   5.243   4.343   5.907
 3759SOL    HW112176   5.237   4.254   5.862
 3759SOL    HW212177   5.163   4.398   5.883
 3760SOL     OW12178   1.525   2.614   4.491
 3760SOL    HW112179   1.585   2.663   4.554
 3760SOL    HW212180   1.540   2.647   4.397
 3761SOL     OW12181   0.523   6.243   4.844
 3761SOL    HW112182   0.580   6.325   4.838
 3761SOL    HW212183   0.567   6.167   4.796
 3762SOL     OW12184   0.718   4.288   0.133
 3762SOL    HW112185   0.656   4.366   0.137
 3762SOL    HW212186   0.666   4.203   0.130
 3763SOL     OW12187   6.107   2.836   6.436
 3763SOL    HW112188   6.160   2.811   6.518
 3763SOL    HW212189   6.010   2.825   6.456
 3764SOL     OW12190   2.538   0.328   4.044
 3764SOL    HW112191   2.528   0.406   4.107
 3764SOL    HW212192   2.578   0.359   3.958
 3765SOL     OW12193   5.240   0.591   3.336
 3765SOL    HW112194   5.155   0.630   3.372
 3765SOL    HW212195   5.317   0.649   3.362
 3766SOL     OW12196   0.172   1.176   4.177
 3766SOL    HW112197   0.205   1.237   4.105
 3766SOL    HW212198   0.072   1.184   4.185
 3767SOL     OW12199   1.427   4.915   6.579
 3767SOL    HW112200   1.469   4.963   6.502
 3767SOL    HW212201   1.413   4.819   6.555
 3768SOL     OW12202   4.796   6.715   6.857
 3768SOL    HW112203   4.889   6.681   6.872
 3768SOL    HW212204   4.784   6.740   6.761
 3769SOL     OW12205   5.305   6.285   5.102
 3769SOL    HW112206   5.219   6.331   5.122
 3769SOL    HW212207   5.374   6.313   5.169
 3770SOL     OW12208   2.238   1.241   6.378
 3770SOL    HW112209   2.171   1.168   6.362
 3770SOL    HW212210   2.210   1.295   6.458
 3771SOL     OW12211   5.221   2.335   6.955
 3771SOL    HW112212   5.248   2.301   6.865
 3771SOL    HW212213   5.134   2.294   6.983
 3772SOL     OW12214   5.903   0.812   1.429
 3772SOL    HW112215   5.895   0.883   1.358
 3772SOL    HW212216   5.837   0.830   1.502
 3773SOL     OW12217   5.996   2.807   5.810
 3773SOL    HW112218   5.977   2.807   5.711
 3773SOL    HW212219   6.015   2.713   5.840
 3774SOL     OW12220   0.569   0.798   7.007
 3774SOL    HW112221   0.479   0.755   6.998
 3774SOL    HW212222   0.635   0.731   0.019
 3775SOL     OW12223   5.200   3.588   3.509
 3775SOL    HW112224   5.262   3.510   3.516
 3775SOL    HW212225   5.253   3.670   3.485
 3776SOL     OW12226   1.908   2.714   1.389
 3776SOL    HW112227   1.931   2.649   1.462
 3776SOL    HW212228   1.992   2.759   1.358
 3777SOL     OW12229   2.755   5.283   4.346
 3777SOL    HW112230   2.736   5.274   4.248
 3777SOL    HW212231   2.836   5.229   4.369
 3778SOL     OW12232   2.901   5.731   1.850
 3778SOL    HW112233   2.822   5.791   1.834
 3778SOL    HW212234   2.898   5.696   1.944
 3779SOL     OW12235   2.516   4.595   6.809
 3779SOL    HW112236   2.587   4.628   6.871
 3779SOL    HW212237   2.555   4.527   6.746
 3780SOL     OW12238   3.036   6.026   5.442
 3780SOL    HW112239   3.013   5.948   5.500
 3780SOL    HW212240   3.124   6.009   5.397
 3781SOL     OW12241   3.515   6.725   4.401
 3781SOL    HW112242   3.428   6.677   4.389
 3781SOL    HW212243   3.571   6.711   4.319
 3782SOL     OW12244   2.078   1.585   4.289
 3782SOL    HW112245   2.171   1.570   4.257
 3782SOL    HW212246   2.073   1.568   4.387
 3783SOL     OW12247   5.457   6.566   4.930
 3783SOL    HW112248   5.373   6.588   4.979
 3783SOL    HW212249   5.528   6.633   4.954
 3784SOL     OW12250   5.592   1.164   3.138
 3784SOL    HW112251   5.582   1.249   3.190
 3784SOL    HW212252   5.555   1.088   3.191
 3785SOL     OW12253   2.497   2.120   0.916
 3785SOL    HW112254   2.544   2.190   0.969
 3785SOL    HW212255   2.551   2.035   0.919
 3786SOL     OW12256   2.649   5.180   3.194
 3786SOL    HW112257   2.740   5.150   3.165
 3786SOL    HW212258   2.616   5.120   3.267
 3787SOL     OW12259   4.855   1.120   3.945
 3787SOL    HW112260   4.835   1.161   4.034
 3787SOL    HW212261   4.954   1.118   3.931
 3788SOL     OW12262   6.391   3.111   2.893
 3788SOL    HW112263   6.312   3.083   2.838
 3788SOL    HW212264   6.453   3.166   2.836
 3789SOL     OW12265   1.574   4.811   3.912
 3789SOL    HW112266   1.599   4.882   3.978
 3789SOL    HW212267   1.484   4.774   3.936
 3790SOL     OW12268   2.025   3.369   4.530
 3790SOL    HW112269   1.938   3.324   4.509
 3790SOL    HW212270   2.071   3.318   4.603
 3791SOL     OW12271   5.635   6.886   1.525
 3791SOL    HW112272   5.622   6.847   1.616
 3791SOL    HW212273   5.596   6.824   1.456
 3792SOL     OW12274   6.140   6.386   5.060
 3792SOL    HW112275   6.210   6.456   5.053
 3792SOL    HW212276   6.178   6.304   5.102
 3793SOL     OW12277   1.989   1.542   2.146
 3793SOL    HW112278   1.909   1.493   2.112
 3793SOL    HW212279   1.961   1.601   2.222
 3794SOL     OW12280   4.443   6.285   1.858
 3794SOL    HW112281   4.534   6.326   1.867
 3794SOL    HW212282   4.377   6.338   1.910
 3795SOL     OW12283   4.782   0.884   6.735
 3795SOL    HW112284   4.725   0.812   6.695
 3795SOL    HW212285   4.878   0.869   6.711
 3796SOL     OW12286   1.260   2.137   1.785
 3796SOL    HW112287   1.246   2.050   1.737
 3796SOL    HW212288   1.192   2.147   1.857
 3797SOL     OW12289   0.952   5.240   2.283
 3797SOL    HW112290   0.865   5.230   2.331
 3797SOL    HW212291   1.010   5.161   2.303
 3798SOL     OW12292   2.487   4.848   2.596
 3798SOL    HW112293   2.449   4.873   2.507
 3798SOL    HW212294   2.477   4.925   2.659
 3799SOL     OW12295   1.861   1.635   5.311
 3799SOL    HW112296   1.800   1.710   5.284
 3799SOL    HW212297   1.886   1.581   5.231
 3800SOL     OW12298   5.351   2.358   4.666
 3800SOL    HW112299   5.290   2.298   4.718
 3800SOL    HW212300   5.446   2.341   4.691
 3801SOL     OW12301   6.927   5.909   6.044
 3801SOL    HW112302   6.840   5.859   6.038
 3801SOL    HW212303   6.971   5.909   5.955
 3802SOL     OW12304   0.926   1.879   4.863
 3802SOL    HW112305   0.963   1.902   4.953
 3802SOL    HW212306   0.999   1.881   4.795
 3803SOL     OW12307   4.060   0.034   1.365
 3803SOL    HW112308   4.099   0.120   1.400
 3803SOL    HW212309   3.975   0.015   1.413
 3804SOL     OW12310   4.314   2.192   4.359
 3804SOL    HW112311   4.343   2.271   4.414
 3804SOL    HW212312   4.339   2.108   4.406
 3805SOL     OW12313   2.986   4.175   1.774
 3805SOL    HW112314   2.941   4.257   1.809
 3805SOL    HW212315   2.941   4.144   1.691
 3806SOL     OW12316   2.777   2.825   0.568
 3806SOL    HW112317   2.764   2.902   0.630
 3806SOL    HW212318   2.874   2.817   0.546
 3807SOL     OW12319   0.762   6.664   4.181
 3807SOL    HW112320   0.859   6.661   4.207
 3807SOL    HW212321   0.735   6.576   4.144
 3808SOL     OW12322   3.551   6.884   1.692
 3808SOL    HW112323   3.625   6.940   1.731
 3808SOL    HW212324   3.566   6.788   1.715
 3809SOL     OW12325   5.867   1.608   0.001
 3809SOL    HW112326   5.898   1.602   0.096
 3809SOL    HW212327   5.926   1.551   6.967
 3810SOL     OW12328   3.333   3.250   5.486
 3810SOL    HW112329   3.275   3.173   5.458
 3810SOL    HW212330   3.388   3.280   5.408
 3811SOL     OW12331   0.621   4.974   4.661
 3811SOL    HW112332   0.644   4.877   4.666
 3811SOL    HW212333   0.525   4.987   4.688
 3812SOL     OW12334   6.305   1.619   5.495
 3812SOL    HW112335   6.305   1.618   5.595
 3812SOL    HW212336   6.327   1.710   5.463
 3813SOL     OW12337   3.252   5.546   0.458
 3813SOL    HW112338   3.264   5.542   0.359
 3813SOL    HW212339   3.157   5.527   0.481
 3814SOL     OW12340   6.720   5.952   2.067
 3814SOL    HW112341   6.665   5.923   1.988
 3814SOL    HW212342   6.808   5.986   2.034
 3815SOL     OW12343   5.271   2.092   1.578
 3815SOL    HW112344   5.246   2.189   1.580
 3815SOL    HW212345   5.368   2.082   1.558
 3816SOL     OW12346   0.104   6.623   1.976
 3816SOL    HW112347   0.093   6.624   1.876
 3816SOL    HW212348   0.183   6.567   2.001
 3817SOL     OW12349   4.804   2.075   4.264
 3817SOL    HW112350   4.759   2.135   4.330
 3817SOL    HW212351   4.783   1.979   4.286
 3818SOL     OW12352   4.661   5.946   2.378
 3818SOL    HW112353   4.639   6.036   2.416
 3818SOL    HW212354   4.656   5.877   2.451
 3819SOL     OW12355   5.194   4.952   0.548
 3819SOL    HW112356   5.139   4.999   0.617
 3819SOL    HW212357   5.254   4.885   0.593
 3820SOL     OW12358   4.765   5.871   3.750
 3820SOL    HW112359   4.789   5.963   3.719
 3820SOL    HW212360   4.789   5.862   3.847
 3821SOL     OW12361   1.551   3.447   1.766
 3821SOL    HW112362   1.590   3.385   1.698
 3821SOL    HW212363   1.470   3.406   1.807
 3822SOL     OW12364   2.678   5.189   1.202
 3822SOL    HW112365   2.674   5.159   1.297
 3822SOL    HW212366   2.771   5.178   1.167
 3823SOL     OW12367   3.788   2.753   5.891
 3823SOL    HW112368   3.830   2.747   5.801
 3823SOL    HW212369   3.707   2.694   5.894
 3824SOL     OW12370   6.287   1.871   6.080
 3824SOL    HW112371   6.228   1.840   6.155
 3824SOL    HW212372   6.231   1.901   6.003
 3825SOL     OW12373   0.443   6.696   5.639
 3825SOL    HW112374   0.345   6.718   5.637
 3825SOL    HW212375   0.495   6.776   5.609
 3826SOL     OW12376   6.722   3.577   1.491
 3826SOL    HW112377   6.668   3.509   1.440
 3826SOL    HW212378   6.819   3.560   1.475
 3827SOL     OW12379   3.412   3.611   0.876
 3827SOL    HW112380   3.316   3.636   0.873
 3827SOL    HW212381   3.465   3.686   0.916
 3828SOL     OW12382   4.386   2.514   1.789
 3828SOL    HW112383   4.408   2.500   1.692
 3828SOL    HW212384   4.455   2.574   1.830
 3829SOL     OW12385   2.639   5.180   3.692
 3829SOL    HW112386   2.657   5.267   3.737
 3829SOL    HW212387   2.599   5.116   3.758
 3830SOL     OW12388   2.559   0.380   5.141
 3830SOL    HW112389   2.621   0.399   5.066
 3830SOL    HW212390   2.592   0.301   5.193
 3831SOL     OW12391   4.243   1.763   2.801
 3831SOL    HW112392   4.261   1.836   2.735
 3831SOL    HW212393   4.314   1.693   2.792
 3832SOL     OW12394   6.682   0.802   1.663
 3832SOL    HW112395   6.714   0.874   1.601
 3832SOL    HW212396   6.589   0.775   1.638
 3833SOL     OW12397   0.810   4.958   1.014
 3833SOL    HW112398   0.890   4.901   1.033
 3833SOL    HW212399   0.780   5.003   1.098
 3834SOL     OW12400   2.875   1.605   0.662
 3834SOL    HW112401   2.945   1.671   0.689
 3834SOL    HW212402   2.789   1.628   0.706
 3835SOL     OW12403   3.870   5.776   6.257
 3835SOL    HW112404   3.856   5.678   6.250
 3835SOL    HW212405   3.785   5.824   6.238
 3836SOL     OW12406   1.501   3.948   6.173
 3836SOL    HW112407   1.595   3.943   6.206
 3836SOL    HW212408   1.477   4.044   6.156
 3837SOL     OW12409   4.361   3.743   0.442
 3837SOL    HW112410   4.402   3.768   0.354
 3837SOL    HW212411   4.430   3.699   0.500
 3838SOL     OW12412   5.924   2.302   4.411
 3838SOL    HW112413   6.005   2.284   4.467
 3838SOL    HW212414   5.848   2.246   4.443
 3839SOL     OW12415   5.447   6.442   5.805
 3839SOL    HW112416   5.473   6.497   5.726
 3839SOL    HW212417   5.384   6.370   5.776
 3840SOL     OW12418   1.797   1.212   3.586
 3840SOL    HW112419   1.742   1.135   3.553
 3840SOL    HW212420   1.739   1.273   3.641
 3841SOL     OW12421   0.879   4.199   5.104
 3841SOL    HW112422   0.962   4.144   5.094
 3841SOL    HW212423   0.856   4.240   5.016
 3842SOL     OW12424   1.110   5.108   0.180
 3842SOL    HW112425   1.114   5.012   0.208
 3842SOL    HW212426   1.034   5.153   0.227
 3843SOL     OW12427   6.127   3.140   0.714
 3843SOL    HW112428   6.135   3.236   0.739
 3843SOL    HW212429   6.037   3.105   0.740
 3844SOL     OW12430   2.122   4.837   5.992
 3844SOL    HW112431   2.130   4.771   5.917
 3844SOL    HW212432   2.031   4.880   5.988
 3845SOL     OW12433   3.565   3.855   3.298
 3845SOL    HW112434   3.602   3.799   3.224
 3845SOL    HW212435   3.581   3.952   3.278
 3846SOL     OW12436   0.247   4.524   4.357
 3846SOL    HW112437   0.215   4.518   4.451
 3846SOL    HW212438   0.222   4.614   4.319
 3847SOL     OW12439   0.042   0.588   6.006
 3847SOL    HW112440   0.006   0.675   6.039
 3847SOL    HW212441   7.009   0.513   6.041
 3848SOL     OW12442   2.744   5.077   1.460
 3848SOL    HW112443   2.719   4.981   1.478
 3848SOL    HW212444   2.842   5.088   1.474
 3849SOL     OW12445   0.932   2.319   5.604
 3849SOL    HW112446   0.851   2.377   5.594
 3849SOL    HW212447   0.990   2.354   5.677
 3850SOL     OW12448   3.387   4.061   1.928
 3850SOL    HW112449   3.474   4.109   1.940
 3850SOL    HW212450   3.326   4.117   1.871
 3851SOL     OW12451   1.812   3.225   2.935
 3851SOL    HW112452   1.881   3.273   2.881
 3851SOL    HW212453   1.738   3.193   2.875
 3852SOL     OW12454   4.163   0.735   4.669
 3852SOL    HW112455   4.153   0.808   4.603
 3852SOL    HW212456   4.099   0.661   4.648
 3853SOL     OW12457   1.166   3.770   2.295
 3853SOL    HW112458   1.231   3.760   2.370
 3853SOL    HW212459   1.205   3.731   2.212
 3854SOL     OW12460   0.750   3.649   4.362
 3854SOL    HW112461   0.789   3.722   4.306
 3854SOL    HW212462   0.700   3.689   4.439
 3855SOL     OW12463   6.156   3.462   5.786
 3855SOL    HW112464   6.203   3.549   5.771
 3855SOL    HW212465   6.205   3.408   5.855
 3856SOL     OW12466   0.223   6.179   5.835
 3856SOL    HW112467   0.235   6.080   5.826
 3856SOL    HW212468   0.290   6.226   5.778
 3857SOL     OW12469   1.126   6.467   4.631
 3857SOL    HW112470   1.096   6.377   4.662
 3857SOL    HW212471   1.090   6.537   4.693
 3858SOL     OW12472   2.387   5.889   6.663
 3858SOL    HW112473   2.374   5.933   6.574
 3858SOL    HW212474   2.399   5.960   6.733
 3859SOL     OW12475   0.230   3.417   2.423
 3859SOL    HW112476   0.300   3.462   2.367
 3859SOL    HW212477   0.217   3.468   2.508
 3860SOL     OW12478   2.427   6.640   5.815
 3860SOL    HW112479   2.500   6.679   5.872
 3860SOL    HW212480   2.466   6.606   5.730
 3861SOL     OW12481   4.782   4.386   1.070
 3861SOL    HW112482   4.850   4.400   0.998
 3861SOL    HW212483   4.732   4.301   1.053
 3862SOL     OW12484   1.342   5.840   5.891
 3862SOL    HW112485   1.427   5.863   5.843
 3862SOL    HW212486   1.265   5.888   5.847
 3863SOL     OW12487   3.242   4.150   1.338
 3863SOL    HW112488   3.273   4.095   1.416
 3863SOL    HW212489   3.158   4.111   1.300
 3864SOL     OW12490   2.847   1.954   0.085
 3864SOL    HW112491   2.866   2.001   0.171
 3864SOL    HW212492   2.831   1.857   0.103
 3865SOL     OW12493   4.957   0.593   2.293
 3865SOL    HW112494   5.031   0.593   2.225
 3865SOL    HW212495   4.994   0.618   2.382
 3866SOL     OW12496   3.640   0.073   0.034
 3866SOL    HW112497   3.710   0.107   6.995
 3866SOL    HW212498   3.571   0.144   0.049
 3867SOL     OW12499   2.073   3.481   3.277
 3867SOL    HW112500   2.062   3.409   3.345
 3867SOL    HW212501   2.099   3.566   3.322
 3868SOL     OW12502   2.235   6.568   2.699
 3868SOL    HW112503   2.189   6.482   2.725
 3868SOL    HW212504   2.302   6.592   2.769
 3869SOL     OW12505   0.663   3.309   3.277
 3869SOL    HW112506   0.691   3.371   3.204
 3869SOL    HW212507   0.719   3.325   3.358
 3870SOL     OW12508   2.509   4.641   0.354
 3870SOL    HW112509   2.558   4.627   0.268
 3870SOL    HW212510   2.510   4.557   0.407
 3871SOL     OW12511   2.368   0.403   3.121
 3871SOL    HW112512   2.293   0.349   3.081
 3871SOL    HW212513   2.375   0.491   3.074
 3872SOL     OW12514   3.933   4.288   0.661
 3872SOL    HW112515   3.912   4.232   0.740
 3872SOL    HW212516   3.971   4.231   0.588
 3873SOL     OW12517   5.641   4.638   2.088
 3873SOL    HW112518   5.720   4.649   2.149
 3873SOL    HW212519   5.564   4.692   2.123
 3874SOL     OW12520   4.597   0.611   6.718
 3874SOL    HW112521   4.691   0.589   6.689
 3874SOL    HW212522   4.599   0.646   6.811
 3875SOL     OW12523   1.519   5.144   1.012
 3875SOL    HW112524   1.511   5.238   1.045
 3875SOL    HW212525   1.456   5.130   0.935
 3876SOL     OW12526   4.996   3.687   3.717
 3876SOL    HW112527   5.016   3.675   3.620
 3876SOL    HW212528   4.963   3.780   3.733
 3877SOL     OW12529   6.259   0.762   2.470
 3877SOL    HW112530   6.160   0.749   2.460
 3877SOL    HW212531   6.306   0.723   2.390
 3878SOL     OW12532   3.502   6.363   6.141
 3878SOL    HW112533   3.413   6.328   6.168
 3878SOL    HW212534   3.503   6.379   6.042
 3879SOL     OW12535   3.977   6.175   2.052
 3879SOL    HW112536   3.970   6.205   1.957
 3879SOL    HW212537   3.948   6.079   2.059
 3880SOL     OW12538   5.172   3.044   3.839
 3880SOL    HW112539   5.270   3.045   3.818
 3880SOL    HW212540   5.156   3.098   3.922
 3881SOL     OW12541   1.392   3.562   0.662
 3881SOL    HW112542   1.403   3.641   0.723
 3881SOL    HW212543   1.295   3.553   0.636
 3882SOL     OW12544   0.408   0.482   5.658
 3882SOL    HW112545   0.346   0.465   5.581
 3882SOL    HW212546   0.431   0.579   5.662
 3883SOL     OW12547   3.619   0.606   5.743
 3883SOL    HW112548   3.604   0.594   5.841
 3883SOL    HW212549   3.658   0.523   5.704
 3884SOL     OW12550   1.859   5.312   6.193
 3884SOL    HW112551   1.952   5.341   6.172
 3884SOL    HW212552   1.794   5.379   6.156
 3885SOL     OW12553   6.661   1.155   4.489
 3885SOL    HW112554   6.694   1.232   4.543
 3885SOL    HW212555   6.619   1.189   4.405
 3886SOL     OW12556   6.857   6.457   5.735
 3886SOL    HW112557   6.880   6.539   5.788
 3886SOL    HW212558   6.933   6.433   5.675
 3887SOL     OW12559   4.279   2.258   5.860
 3887SOL    HW112560   4.266   2.355   5.881
 3887SOL    HW212561   4.219   2.203   5.919
 3888SOL     OW12562   6.711   1.842   0.815
 3888SOL    HW112563   6.619   1.879   0.818
 3888SOL    HW212564   6.763   1.876   0.894
 3889SOL     OW12565   0.879   6.250   5.895
 3889SOL    HW112566   0.909   6.255   5.800
 3889SOL    HW212567   0.895   6.159   5.931
 3890SOL     OW12568   5.242   4.059   3.206
 3890SOL    HW112569   5.162   4.108   3.241
 3890SOL    HW212570   5.213   3.969   3.172
 3891SOL     OW12571   5.363   4.707   5.578
 3891SOL    HW112572   5.444   4.656   5.608
 3891SOL    HW212573   5.282   4.650   5.589
 3892SOL     OW12574   4.913   6.755   2.939
 3892SOL    HW112575   4.844   6.827   2.932
 3892SOL    HW212576   4.982   6.767   2.868
 3893SOL     OW12577   3.241   5.789   3.665
 3893SOL    HW112578   3.172   5.816   3.598
 3893SOL    HW212579   3.253   5.862   3.732
 3894SOL     OW12580   5.193   3.993   6.903
 3894SOL    HW112581   5.272   4.054   6.896
 3894SOL    HW212582   5.213   3.919   6.967
 3895SOL     OW12583   2.747   2.196   5.580
 3895SOL    HW112584   2.705   2.113   5.617
 3895SOL    HW212585   2.774   2.256   5.655
 3896SOL     OW12586   6.523   2.937   5.785
 3896SOL    HW112587   6.507   2.962   5.880
 3896SOL    HW212588   6.436   2.922   5.739
 3897SOL     OW12589   3.611   6.595   2.092
 3897SOL    HW112590   3.680   6.543   2.143
 3897SOL    HW212591   3.525   6.544   2.090
 3898SOL     OW12592   3.858   3.987   4.484
 3898SOL    HW112593   3.917   3.920   4.529
 3898SOL    HW212594   3.794   4.025   4.550
 3899SOL     OW12595   4.673   1.786   5.119
 3899SOL    HW112596   4.767   1.810   5.095
 3899SOL    HW212597   4.640   1.848   5.190
 3900SOL     OW12598   6.477   2.790   3.541
 3900SOL    HW112599   6.528   2.704   3.535
 3900SOL    HW212600   6.519   2.857   3.481
 3901SOL     OW12601   2.103   5.972   5.218
 3901SOL    HW112602   2.015   6.015   5.200
 3901SOL    HW212603   2.106   5.942   5.314
 3902SOL     OW12604   4.290   5.041   1.460
 3902SOL    HW112605   4.359   4.969   1.467
 3902SOL    HW212606   4.305   5.093   1.376
 3903SOL     OW12607   4.466   2.526   6.010
 3903SOL    HW112608   4.369   2.513   5.990
 3903SOL    HW212609   4.518   2.526   5.924
 3904SOL     OW12610   1.904   6.184   1.293
 3904SOL    HW112611   1.869   6.218   1.205
 3904SOL    HW212612   1.841   6.211   1.366
 3905SOL     OW12613   6.628   0.553   5.280
 3905SOL    HW112614   6.629   0.460   5.245
 3905SOL    HW212615   6.661   0.616   5.209
 3906SOL     OW12616   0.458   5.682   4.419
 3906SOL    HW112617   0.379   5.632   4.382
 3906SOL    HW212618   0.457   5.776   4.384
 3907SOL     OW12619   0.820   1.141   4.603
 3907SOL    HW112620   0.863   1.065   4.653
 3907SOL    HW212621   0.728   1.157   4.638
 3908SOL     OW12622   1.207   0.363   4.570
 3908SOL    HW112623   1.164   0.303   4.502
 3908SOL    HW212624   1.175   0.457   4.555
 3909SOL     OW12625   6.072   1.960   6.793
 3909SOL    HW112626   6.032   1.869   6.795
 3909SOL    HW212627   6.037   2.010   6.714
 3910SOL     OW12628   3.587   2.739   0.314
 3910SOL    HW112629   3.490   2.726   0.295
 3910SOL    HW212630   3.641   2.677   0.257
 3911SOL     OW12631   0.061   0.984   0.943
 3911SOL    HW112632   0.152   0.960   0.979
 3911SOL    HW212633   7.016   0.974   1.015
 3912SOL     OW12634   3.889   2.223   0.319
 3912SOL    HW112635   3.793   2.203   0.341
 3912SOL    HW212636   3.944   2.218   0.401
 3913SOL     OW12637   4.850   5.357   1.401
 3913SOL    HW112638   4.885   5.319   1.315
 3913SOL    HW212639   4.857   5.457   1.399
 3914SOL     OW12640   0.174   1.265   0.230
 3914SOL    HW112641   0.134   1.349   0.195
 3914SOL    HW212642   0.218   1.215   0.154
 3915SOL     OW12643   4.877   5.787   6.240
 3915SOL    HW112644   4.875   5.860   6.171
 3915SOL    HW212645   4.789   5.740   6.242
 3916SOL     OW12646   2.375   1.989   2.368
 3916SOL    HW112647   2.474   2.002   2.371
 3916SOL    HW212648   2.352   1.895   2.394
 3917SOL     OW12649   3.278   4.613   1.267
 3917SOL    HW112650   3.254   4.611   1.364
 3917SOL    HW212651   3.202   4.653   1.215
 3918SOL     OW12652   5.415   0.932   0.309
 3918SOL    HW112653   5.342   0.998   0.330
 3918SOL    HW212654   5.400   0.896   0.217
 3919SOL     OW12655   4.048   0.121   2.413
 3919SOL    HW112656   3.949   0.123   2.396
 3919SOL    HW212657   4.065   0.134   2.510
 3920SOL     OW12658   2.993   1.711   5.513
 3920SOL    HW112659   2.982   1.698   5.612
 3920SOL    HW212660   2.917   1.766   5.478
 3921SOL     OW12661   6.800   3.133   6.179
 3921SOL    HW112662   6.885   3.138   6.231
 3921SOL    HW212663   6.806   3.061   6.110
 3922SOL     OW12664   4.764   4.448   3.020
 3922SOL    HW112665   4.804   4.528   2.975
 3922SOL    HW212666   4.791   4.366   2.970
 3923SOL     OW12667   5.396   1.176   1.389
 3923SOL    HW112668   5.309   1.170   1.341
 3923SOL    HW212669   5.471   1.176   1.323
 3924SOL     OW12670   5.372   5.380   4.457
 3924SOL    HW112671   5.296   5.427   4.412
 3924SOL    HW212672   5.458   5.420   4.426
 3925SOL     OW12673   5.418   3.689   0.836
 3925SOL    HW112674   5.448   3.771   0.885
 3925SOL    HW212675   5.319   3.686   0.833
 3926SOL     OW12676   0.292   6.083   6.107
 3926SOL    HW112677   0.375   6.035   6.137
 3926SOL    HW212678   0.311   6.130   6.020
 3927SOL     OW12679   5.311   2.201   6.075
 3927SOL    HW112680   5.306   2.151   6.162
 3927SOL    HW212681   5.249   2.160   6.009
 3928SOL     OW12682   3.124   5.907   2.037
 3928SOL    HW112683   3.085   5.902   1.945
 3928SOL    HW212684   3.075   5.976   2.091
 3929SOL     OW12685   0.303   2.723   4.908
 3929SOL    HW112686   0.369   2.649   4.921
 3929SOL    HW212687   0.213   2.693   4.939
 3930SOL     OW12688   1.909   4.640   3.684
 3930SOL    HW112689   1.998   4.652   3.640
 3930SOL    HW212690   1.860   4.566   3.638
 3931SOL     OW12691   2.269   2.078   1.612
 3931SOL    HW112692   2.289   2.175   1.599
 3931SOL    HW212693   2.300   2.049   1.702
 3932SOL     OW12694   2.415   5.043   3.910
 3932SOL    HW112695   2.452   4.971   3.850
 3932SOL    HW212696   2.454   5.032   4.002
 3933SOL     OW12697   2.286   5.578   1.469
 3933SOL    HW112698   2.303   5.567   1.371
 3933SOL    HW212699   2.197   5.620   1.484
 3934SOL     OW12700   6.934   0.845   1.499
 3934SOL    HW112701   6.918   0.831   1.596
 3934SOL    HW212702   7.016   0.794   1.471
 3935SOL     OW12703   6.630   3.608   6.300
 3935SOL    HW112704   6.685   3.525   6.296
 3935SOL    HW212705   6.556   3.603   6.233
 3936SOL     OW12706   6.660   4.680   5.415
 3936SOL    HW112707   6.686   4.775   5.433
 3936SOL    HW212708   6.646   4.633   5.502
 3937SOL     OW12709   7.014   6.294   1.729
 3937SOL    HW112710   0.073   6.241   1.750
 3937SOL    HW212711   7.022   6.335   1.638
 3938SOL     OW12712   1.228   3.415   2.407
 3938SOL    HW112713   1.268   3.486   2.351
 3938SOL    HW212714   1.160   3.364   2.354
 3939SOL     OW12715   1.339   1.106   2.360
 3939SOL    HW112716   1.338   1.007   2.378
 3939SOL    HW212717   1.301   1.154   2.439
 3940SOL     OW12718   3.153   5.788   0.984
 3940SOL    HW112719   3.082   5.821   1.046
 3940SOL    HW212720   3.242   5.794   1.030
 3941SOL     OW12721   5.604   5.915   3.108
 3941SOL    HW112722   5.557   6.001   3.086
 3941SOL    HW212723   5.658   5.927   3.191
 3942SOL     OW12724   6.667   5.943   5.679
 3942SOL    HW112725   6.590   6.008   5.673
 3942SOL    HW212726   6.752   5.994   5.689
 3943SOL     OW12727   1.500   2.585   0.341
 3943SOL    HW112728   1.419   2.534   0.371
 3943SOL    HW212729   1.548   2.533   0.270
 3944SOL     OW12730   5.196   2.873   6.822
 3944SOL    HW112731   5.193   2.783   6.777
 3944SOL    HW212732   5.261   2.932   6.774
 3945SOL     OW12733   5.722   0.544   3.570
 3945SOL    HW112734   5.691   0.485   3.494
 3945SOL    HW212735   5.644   0.562   3.631
 3946SOL     OW12736   0.986   3.023   0.301
 3946SOL    HW112737   1.005   3.114   0.265
 3946SOL    HW212738   1.056   2.999   0.368
 3947SOL     OW12739   5.980   5.321   1.899
 3947SOL    HW112740   6.018   5.310   1.807
 3947SOL    HW212741   5.934   5.237   1.927
 3948SOL     OW12742   1.415   2.707   5.871
 3948SOL    HW112743   1.398   2.745   5.961
 3948SOL    HW212744   1.426   2.781   5.804
 3949SOL     OW12745   6.535   7.011   1.193
 3949SOL    HW112746   6.594   6.989   1.271
 3949SOL    HW212747   6.459   0.045   1.223
 3950SOL     OW12748   3.071   4.668   1.754
 3950SOL    HW112749   3.031   4.581   1.781
 3950SOL    HW212750   3.014   4.743   1.788
 3951SOL     OW12751   1.205   2.257   4.547
 3951SOL    HW112752   1.124   2.312   4.527
 3951SOL    HW212753   1.193   2.165   4.509
 3952SOL     OW12754   5.732   3.802   6.726
 3952SOL    HW112755   5.831   3.818   6.725
 3952SOL    HW212756   5.691   3.840   6.643
 3953SOL     OW12757   3.255   3.898   5.997
 3953SOL    HW112758   3.239   3.800   6.006
 3953SOL    HW212759   3.212   3.947   6.073
 3954SOL     OW12760   7.010   2.920   5.296
 3954SOL    HW112761   0.007   2.848   5.362
 3954SOL    HW212762   6.927   2.897   5.246
 3955SOL     OW12763   0.322   4.240   0.253
 3955SOL    HW112764   0.318   4.152   0.206
 3955SOL    HW212765   0.304   4.227   0.350
 3956SOL     OW12766   0.300   3.241   5.545
 3956SOL    HW112767   0.263   3.306   5.611
 3956SOL    HW212768   0.362   3.177   5.592
 3957SOL     OW12769   0.912   1.724   3.464
 3957SOL    HW112770   0.963   1.677   3.393
 3957SOL    HW212771   0.968   1.732   3.546
 3958SOL     OW12772   5.855   5.964   6.466
 3958SOL    HW112773   5.810   5.963   6.377
 3958SOL    HW212774   5.865   5.870   6.499
 3959SOL     OW12775   2.401   5.248   0.581
 3959SOL    HW112776   2.376   5.202   0.666
 3959SOL    HW212777   2.466   5.322   0.602
 3960SOL     OW12778   4.944   3.342   0.615
 3960SOL    HW112779   4.892   3.394   0.547
 3960SOL    HW212780   5.031   3.314   0.575
 3961SOL     OW12781   5.781   0.707   2.177
 3961SOL    HW112782   5.842   0.786   2.168
 3961SOL    HW212783   5.835   0.626   2.200
 3962SOL     OW12784   0.916   6.649   5.706
 3962SOL    HW112785   0.924   6.719   5.777
 3962SOL    HW212786   0.933   6.690   5.617
 3963SOL     OW12787   4.406   5.717   3.195
 3963SOL    HW112788   4.412   5.759   3.286
 3963SOL    HW212789   4.315   5.677   3.182
 3964SOL     OW12790   5.580   6.648   5.643
 3964SOL    HW112791   5.613   6.636   5.736
 3964SOL    HW212792   5.620   6.730   5.603
 3965SOL     OW12793   4.058   3.156   0.444
 3965SOL    HW112794   3.993   3.225   0.410
 3965SOL    HW212795   4.148   3.174   0.406
 3966SOL     OW12796   6.136   4.355   4.959
 3966SOL    HW112797   6.054   4.359   5.016
 3966SOL    HW212798   6.179   4.265   4.968
 3967SOL     OW12799   1.659   5.975   6.748
 3967SOL    HW112800   1.563   6.001   6.736
 3967SOL    HW212801   1.666   5.902   6.817
 3968SOL     OW12802   5.849   0.500   1.696
 3968SOL    HW112803   5.892   0.582   1.734
 3968SOL    HW212804   5.775   0.471   1.756
 3969SOL     OW12805   0.436   5.813   1.803
 3969SOL    HW112806   0.497   5.814   1.882
 3969SOL    HW212807   0.459   5.889   1.743
 3970SOL     OW12808   4.612   4.518   3.914
 3970SOL    HW112809   4.595   4.554   4.006
 3970SOL    HW212810   4.613   4.418   3.917
 3971SOL     OW12811   1.793   6.095   3.792
 3971SOL    HW112812   1.856   6.154   3.843
 3971SOL    HW212813   1.798   6.002   3.828
 3972SOL     OW12814   1.076   6.996   0.309
 3972SOL    HW112815   0.982   7.014   0.280
 3972SOL    HW212816   1.122   0.059   0.331
 3973SOL     OW12817   3.745   3.022   2.938
 3973SOL    HW112818   3.708   3.070   2.859
 3973SOL    HW212819   3.670   2.990   2.996
 3974SOL     OW12820   6.101   0.940   6.337
 3974SOL    HW112821   6.002   0.945   6.350
 3974SOL    HW212822   6.121   0.927   6.240
 3975SOL     OW12823   6.443   6.631   5.624
 3975SOL    HW112824   6.403   6.576   5.697
 3975SOL    HW212825   6.521   6.682   5.659
 3976SOL     OW12826   1.019   3.044   6.597
 3976SOL    HW112827   0.963   2.969   6.631
 3976SOL    HW212828   1.053   3.098   6.675
 3977SOL     OW12829   4.246   6.679   6.306
 3977SOL    HW112830   4.181   6.627   6.360
 3977SOL    HW212831   4.255   6.771   6.344
 3978SOL     OW12832   6.002   3.344   6.830
 3978SOL    HW112833   5.990   3.419   6.764
 3978SOL    HW212834   6.078   3.366   6.891
 3979SOL     OW12835   1.534   6.904   3.125
 3979SOL    HW112836   1.481   6.987   3.107
 3979SOL    HW212837   1.471   6.827   3.141
 3980SOL     OW12838   4.935   3.395   4.795
 3980SOL    HW112839   5.019   3.445   4.817
 3980SOL    HW212840   4.869   3.405   4.870
 3981SOL     OW12841   6.077   1.622   5.339
 3981SOL    HW112842   6.049   1.561   5.265
 3981SOL    HW212843   6.167   1.595   5.373
 3982SOL     OW12844   3.688   1.725   3.786
 3982SOL    HW112845   3.614   1.699   3.724
 3982SOL    HW212846   3.750   1.647   3.797
 3983SOL     OW12847   3.685   6.529   3.885
 3983SOL    HW112848   3.629   6.612   3.884
 3983SOL    HW212849   3.632   6.453   3.848
 3984SOL     OW12850   1.258   6.543   1.740
 3984SOL    HW112851   1.240   6.627   1.790
 3984SOL    HW212852   1.350   6.547   1.701
 3985SOL     OW12853   1.570   3.702   1.679
 3985SOL    HW112854   1.572   3.615   1.727
 3985SOL    HW212855   1.637   3.764   1.720
 3986SOL     OW12856   1.268   3.015   2.457
 3986SOL    HW112857   1.262   2.960   2.373
 3986SOL    HW212858   1.267   3.112   2.433
 3987SOL     OW12859   2.763   4.755   6.367
 3987SOL    HW112860   2.809   4.713   6.289
 3987SOL    HW212861   2.776   4.855   6.363
 3988SOL     OW12862   4.248   2.181   0.118
 3988SOL    HW112863   4.293   2.100   0.081
 3988SOL    HW212864   4.149   2.169   0.114
 3989SOL     OW12865   4.249   1.181   6.408
 3989SOL    HW112866   4.278   1.086   6.401
 3989SOL    HW212867   4.238   1.206   6.504
 3990SOL     OW12868   0.989   3.307   3.810
 3990SOL    HW112869   0.981   3.281   3.907
 3990SOL    HW212870   0.975   3.226   3.753
 3991SOL     OW12871   6.620   1.683   4.368
 3991SOL    HW112872   6.622   1.744   4.447
 3991SOL    HW212873   6.603   1.589   4.398
 3992SOL     OW12874   5.090   3.967   6.122
 3992SOL    HW112875   5.163   4.011   6.176
 3992SOL    HW212876   5.127   3.886   6.077
 3993SOL     OW12877   1.713   1.511   3.236
 3993SOL    HW112878   1.683   1.530   3.143
 3993SOL    HW212879   1.703   1.413   3.255
 3994SOL     OW12880   2.507   1.849   3.852
 3994SOL    HW112881   2.582   1.796   3.892
 3994SOL    HW212882   2.527   1.947   3.861
 3995SOL     OW12883   1.675   3.796   2.172
 3995SOL    HW112884   1.660   3.697   2.162
 3995SOL    HW212885   1.751   3.824   2.114
 3996SOL     OW12886   5.419   6.861   3.157
 3996SOL    HW112887   5.326   6.825   3.156
 3996SOL    HW212888   5.475   6.810   3.222
 3997SOL     OW12889   5.642   3.613   3.047
 3997SOL    HW112890   5.695   3.689   3.085
 3997SOL    HW212891   5.701   3.556   2.990
 3998SOL     OW12892   6.578   2.446   3.296
 3998SOL    HW112893   6.595   2.474   3.390
 3998SOL    HW212894   6.484   2.470   3.271
 3999SOL     OW12895   5.151   2.355   1.353
 3999SOL    HW112896   5.108   2.445   1.345
 3999SOL    HW212897   5.204   2.351   1.437
 4000SOL     OW12898   3.301   5.627   2.403
 4000SOL    HW112899   3.309   5.629   2.304
 4000SOL    HW212900   3.240   5.701   2.433
 4001SOL     OW12901   2.183   4.423   4.712
 4001SOL    HW112902   2.089   4.390   4.712
 4001SOL    HW212903   2.232   4.384   4.790
 4002SOL     OW12904   3.560   3.788   3.842
 4002SOL    HW112905   3.515   3.876   3.832
 4002SOL    HW212906   3.541   3.731   3.761
 4003SOL     OW12907   3.147   0.985   5.243
 4003SOL    HW112908   3.174   1.062   5.185
 4003SOL    HW212909   3.073   0.934   5.199
 4004SOL     OW12910   0.893   3.962   3.318
 4004SOL    HW112911   0.944   3.891   3.367
 4004SOL    HW212912   0.825   4.003   3.379
 4005SOL     OW12913   5.224   2.981   0.863
 4005SOL    HW112914   5.132   3.020   0.869
 4005SOL    HW212915   5.218   2.881   0.868
 4006SOL     OW12916   5.154   5.229   3.645
 4006SOL    HW112917   5.125   5.175   3.566
 4006SOL    HW212918   5.074   5.270   3.690
 4007SOL     OW12919   6.874   1.335   3.213
 4007SOL    HW112920   6.843   1.324   3.119
 4007SOL    HW212921   6.900   1.430   3.229
 4008SOL     OW12922   3.210   0.128   0.968
 4008SOL    HW112923   3.251   0.066   0.901
 4008SOL    HW212924   3.251   0.219   0.959
 4009SOL     OW12925   4.368   2.048   0.764
 4009SOL    HW112926   4.289   1.993   0.792
 4009SOL    HW212927   4.452   2.003   0.794
 4010SOL     OW12928   2.341   5.133   1.643
 4010SOL    HW112929   2.272   5.165   1.708
 4010SOL    HW212930   2.416   5.089   1.692
 4011SOL     OW12931   5.427   5.852   6.844
 4011SOL    HW112932   5.494   5.909   6.892
 4011SOL    HW212933   5.458   5.757   6.845
 4012SOL     OW12934   4.146   0.450   2.549
 4012SOL    HW112935   4.101   0.496   2.626
 4012SOL    HW212936   4.223   0.396   2.582
 4013SOL     OW12937   0.366   1.244   6.351
 4013SOL    HW112938   0.446   1.185   6.358
 4013SOL    HW212939   0.287   1.190   6.321
 4014SOL     OW12940   3.067   4.903   2.414
 4014SOL    HW112941   3.167   4.905   2.412
 4014SOL    HW212942   3.030   4.950   2.334
 4015SOL     OW12943   3.964   4.624   6.094
 4015SOL    HW112944   3.924   4.564   6.163
 4015SOL    HW212945   3.958   4.581   6.004
 4016SOL     OW12946   4.257   5.876   5.916
 4016SOL    HW112947   4.227   5.781   5.928
 4016SOL    HW212948   4.293   5.888   5.823
 4017SOL     OW12949   0.633   4.823   6.013
 4017SOL    HW112950   0.584   4.737   6.024
 4017SOL    HW212951   0.658   4.834   5.917
 4018SOL     OW12952   4.652   6.456   1.825
 4018SOL    HW112953   4.612   6.542   1.791
 4018SOL    HW212954   4.738   6.476   1.872
 4019SOL     OW12955   5.165   3.180   3.494
 4019SOL    HW112956   5.210   3.175   3.405
 4019SOL    HW212957   5.221   3.232   3.558
 4020SOL     OW12958   6.347   4.770   4.244
 4020SOL    HW112959   6.287   4.832   4.296
 4020SOL    HW212960   6.426   4.746   4.300
 4021SOL     OW12961   3.913   3.383   6.084
 4021SOL    HW112962   3.874   3.451   6.022
 4021SOL    HW212963   3.851   3.306   6.092
 4022SOL     OW12964   2.478   0.633   1.415
 4022SOL    HW112965   2.517   0.722   1.437
 4022SOL    HW212966   2.442   0.634   1.321
 4023SOL     OW12967   0.615   2.529   5.360
 4023SOL    HW112968   0.517   2.526   5.337
 4023SOL    HW212969   0.657   2.441   5.336
 4024SOL     OW12970   0.654   5.020   4.382
 4024SOL    HW112971   0.745   5.020   4.340
 4024SOL    HW212972   0.663   5.004   4.480
 4025SOL     OW12973   0.707   6.107   4.273
 4025SOL    HW112974   0.779   6.052   4.316
 4025SOL    HW212975   0.721   6.203   4.295
 4026SOL     OW12976   6.488   6.382   3.632
 4026SOL    HW112977   6.422   6.318   3.672
 4026SOL    HW212978   6.480   6.471   3.677
 4027SOL     OW12979   2.740   4.021   5.475
 4027SOL    HW112980   2.657   4.003   5.528
 4027SOL    HW212981   2.817   4.036   5.537
 4028SOL     OW12982   4.705   1.594   2.724
 4028SOL    HW112983   4.737   1.665   2.661
 4028SOL    HW212984   4.706   1.630   2.817
 4029SOL     OW12985   2.468   5.374   6.403
 4029SOL    HW112986   2.421   5.291   6.372
 4029SOL    HW212987   2.457   5.383   6.502
 4030SOL     OW12988   0.654   1.114   2.959
 4030SOL    HW112989   0.631   1.065   3.042
 4030SOL    HW212990   0.572   1.127   2.904
 4031SOL     OW12991   5.627   6.835   1.229
 4031SOL    HW112992   5.722   6.819   1.200
 4031SOL    HW212993   5.570   6.759   1.199
 4032SOL     OW12994   6.062   0.222   1.100
 4032SOL    HW112995   6.088   0.173   1.017
 4032SOL    HW212996   5.984   0.282   1.081
 4033SOL     OW12997   2.687   2.310   2.632
 4033SOL    HW112998   2.630   2.349   2.560
 4033SOL    HW212999   2.783   2.307   2.601
 4034SOL     OW13000   0.261   3.314   5.001
 4034SOL    HW113001   0.221   3.233   5.044
 4034SOL    HW213002   0.205   3.394   5.020
 4035SOL     OW13003   5.739   1.863   1.697
 4035SOL    HW113004   5.792   1.784   1.727
 4035SOL    HW213005   5.679   1.837   1.622
 4036SOL     OW13006   2.688   5.425   3.803
 4036SOL    HW113007   2.777   5.443   3.762
 4036SOL    HW213008   2.699   5.404   3.900
 4037SOL     OW13009   2.464   0.773   6.009
 4037SOL    HW113010   2.541   0.831   5.981
 4037SOL    HW213011   2.412   0.820   6.080
 4038SOL     OW13012   3.621   4.495   5.962
 4038SOL    HW113013   3.670   4.440   5.895
 4038SOL    HW213014   3.532   4.453   5.981
 4039SOL     OW13015   5.994   4.712   1.556
 4039SOL    HW113016   6.044   4.719   1.470
 4039SOL    HW213017   5.903   4.750   1.544
 4040SOL     OW13018   3.639   5.498   5.380
 4040SOL    HW113019   3.631   5.432   5.306
 4040SOL    HW213020   3.736   5.522   5.392
 4041SOL     OW13021   2.286   6.175   1.028
 4041SOL    HW113022   2.378   6.210   1.047
 4041SOL    HW213023   2.223   6.207   1.099
 4042SOL     OW13024   6.126   0.256   3.740
 4042SOL    HW113025   6.063   0.326   3.707
 4042SOL    HW213026   6.211   0.261   3.689
 4043SOL     OW13027   5.371   3.613   6.747
 4043SOL    HW113028   5.414   3.523   6.738
 4043SOL    HW213029   5.437   3.684   6.727
 4044SOL     OW13030   4.068   5.092   3.482
 4044SOL    HW113031   4.123   5.034   3.423
 4044SOL    HW213032   4.035   5.039   3.561
 4045SOL     OW13033   5.043   6.938   6.064
 4045SOL    HW113034   5.019   0.003   6.022
 4045SOL    HW213035   5.049   6.868   5.993
 4046SOL     OW13036   6.937   1.705   3.000
 4046SOL    HW113037   0.004   1.674   2.971
 4046SOL    HW213038   6.869   1.677   2.932
 4047SOL     OW13039   2.643   2.994   6.509
 4047SOL    HW113040   2.702   3.073   6.529
 4047SOL    HW213041   2.582   2.979   6.587
 4048SOL     OW13042   4.485   1.255   1.966
 4048SOL    HW113043   4.479   1.158   1.985
 4048SOL    HW213044   4.473   1.271   1.868
 4049SOL     OW13045   4.271   5.141   6.347
 4049SOL    HW113046   4.277   5.208   6.273
 4049SOL    HW213047   4.326   5.172   6.425
 4050SOL     OW13048   0.079   5.504   2.748
 4050SOL    HW113049   0.041   5.596   2.754
 4050SOL    HW213050   0.069   5.469   2.655
 4051SOL     OW13051   5.079   1.195   5.976
 4051SOL    HW113052   5.059   1.207   5.878
 4051SOL    HW213053   5.024   1.120   6.012
 4052SOL     OW13054   6.179   1.947   3.694
 4052SOL    HW113055   6.226   1.891   3.762
 4052SOL    HW213056   6.240   2.020   3.662
 4053SOL     OW13057   1.139   5.524   4.902
 4053SOL    HW113058   1.123   5.621   4.881
 4053SOL    HW213059   1.210   5.517   4.972
 4054SOL     OW13060   4.958   4.134   0.993
 4054SOL    HW113061   4.961   4.109   1.090
 4054SOL    HW213062   4.983   4.230   0.983
 4055SOL     OW13063   1.334   3.882   1.841
 4055SOL    HW113064   1.343   3.819   1.765
 4055SOL    HW213065   1.404   3.953   1.834
 4056SOL     OW13066   4.766   3.232   0.811
 4056SOL    HW113067   4.764   3.280   0.899
 4056SOL    HW213068   4.832   3.276   0.751
 4057SOL     OW13069   6.457   3.625   6.511
 4057SOL    HW113070   6.526   3.632   6.439
 4057SOL    HW213071   6.415   3.534   6.509
 4058SOL     OW13072   2.791   5.864   5.355
 4058SOL    HW113073   2.836   5.934   5.300
 4058SOL    HW213074   2.844   5.850   5.439
 4059SOL     OW13075   0.993   1.478   4.066
 4059SOL    HW113076   1.019   1.571   4.093
 4059SOL    HW213077   0.949   1.481   3.976
 4060SOL     OW13078   6.538   5.760   5.325
 4060SOL    HW113079   6.572   5.772   5.232
 4060SOL    HW213080   6.480   5.679   5.329
 4061SOL     OW13081   2.671   5.521   2.163
 4061SOL    HW113082   2.640   5.494   2.072
 4061SOL    HW213083   2.656   5.445   2.227
 4062SOL     OW13084   2.055   1.911   1.829
 4062SOL    HW113085   2.135   1.967   1.810
 4062SOL    HW213086   2.084   1.822   1.866
 4063SOL     OW13087   5.542   1.007   0.976
 4063SOL    HW113088   5.450   0.967   0.977
 4063SOL    HW213089   5.588   0.982   0.891
 4064SOL     OW13090   2.034   1.961   4.793
 4064SOL    HW113091   1.956   2.023   4.783
 4064SOL    HW213092   2.063   1.928   4.703
 4065SOL     OW13093   1.904   6.919   0.523
 4065SOL    HW113094   1.968   6.903   0.448
 4065SOL    HW213095   1.876   7.015   0.521
 4066SOL     OW13096   0.063   4.171   3.510
 4066SOL    HW113097   0.159   4.167   3.484
 4066SOL    HW213098   0.052   4.137   3.603
 4067SOL     OW13099   5.828   4.690   2.277
 4067SOL    HW113100   5.890   4.769   2.275
 4067SOL    HW213101   5.881   4.606   2.263
 4068SOL     OW13102   1.921   2.438   5.595
 4068SOL    HW113103   2.016   2.468   5.602
 4068SOL    HW213104   1.897   2.383   5.675
 4069SOL     OW13105   3.975   0.409   6.569
 4069SOL    HW113106   3.952   0.321   6.610
 4069SOL    HW213107   4.060   0.443   6.609
 4070SOL     OW13108   1.585   3.093   3.173
 4070SOL    HW113109   1.571   3.155   3.096
 4070SOL    HW213110   1.580   3.145   3.259
 4071SOL     OW13111   0.768   0.411   4.050
 4071SOL    HW113112   0.718   0.325   4.061
 4071SOL    HW213113   0.710   0.488   4.078
 4072SOL     OW13114   1.431   5.710   3.952
 4072SOL    HW113115   1.354   5.684   3.894
 4072SOL    HW213116   1.454   5.806   3.935
 4073SOL     OW13117   2.757   5.284   0.416
 4073SOL    HW113118   2.699   5.203   0.405
 4073SOL    HW213119   2.837   5.260   0.471
 4074SOL     OW13120   1.173   5.637   2.434
 4074SOL    HW113121   1.117   5.572   2.484
 4074SOL    HW213122   1.201   5.711   2.494
 4075SOL     OW13123   4.844   0.256   0.395
 4075SOL    HW113124   4.822   0.258   0.493
 4075SOL    HW213125   4.843   0.162   0.363
 4076SOL     OW13126   3.050   3.374   5.544
 4076SOL    HW113127   3.130   3.318   5.565
 4076SOL    HW213128   3.076   3.443   5.476
 4077SOL     OW13129   3.947   1.991   1.615
 4077SOL    HW113130   4.020   2.060   1.617
 4077SOL    HW213131   3.871   2.020   1.674
 4078SOL     OW13132   3.053   4.910   2.986
 4078SOL    HW113133   3.022   4.886   2.894
 4078SOL    HW213134   3.136   4.858   3.008
 4079SOL     OW13135   1.443   2.637   4.048
 4079SOL    HW113136   1.486   2.659   3.960
 4079SOL    HW213137   1.350   2.673   4.050
 4080SOL     OW13138   5.358   1.734   4.894
 4080SOL    HW113139   5.365   1.725   4.795
 4080SOL    HW213140   5.311   1.654   4.932
 4081SOL     OW13141   1.513   3.498   3.607
 4081SOL    HW113142   1.607   3.519   3.579
 4081SOL    HW213143   1.513   3.464   3.701
 4082SOL     OW13144   1.592   3.117   0.969
 4082SOL    HW113145   1.512   3.125   1.029
 4082SOL    HW213146   1.578   3.044   0.903
 4083SOL     OW13147   5.172   2.626   3.790
 4083SOL    HW113148   5.158   2.545   3.734
 4083SOL    HW213149   5.159   2.708   3.734
 4084SOL     OW13150   6.410   2.006   4.564
 4084SOL    HW113151   6.319   2.011   4.522
 4084SOL    HW213152   6.477   1.981   4.494
 4085SOL     OW13153   3.709   5.797   0.599
 4085SOL    HW113154   3.795   5.785   0.550
 4085SOL    HW213155   3.693   5.718   0.657
 4086SOL     OW13156   1.790   5.711   1.443
 4086SOL    HW113157   1.737   5.759   1.373
 4086SOL    HW213158   1.729   5.689   1.520
 4087SOL     OW13159   2.454   2.173   3.078
 4087SOL    HW113160   2.437   2.268   3.056
 4087SOL    HW213161   2.533   2.140   3.026
 4088SOL     OW13162   6.279   1.858   1.388
 4088SOL    HW113163   6.203   1.879   1.450
 4088SOL    HW213164   6.366   1.874   1.436
 4089SOL     OW13165   0.687   1.230   3.952
 4089SOL    HW113166   0.680   1.266   4.045
 4089SOL    HW213167   0.685   1.131   3.954
 4090SOL     OW13168   2.544   4.210   6.256
 4090SOL    HW113169   2.614   4.271   6.221
 4090SOL    HW213170   2.566   4.116   6.232
 4091SOL     OW13171   5.005   6.639   0.346
 4091SOL    HW113172   4.980   6.559   0.291
 4091SOL    HW213173   5.090   6.620   0.396
 4092SOL     OW13174   0.424   2.983   4.982
 4092SOL    HW113175   0.372   2.923   4.921
 4092SOL    HW213176   0.438   2.937   5.070
 4093SOL     OW13177   5.734   0.841   3.461
 4093SOL    HW113178   5.739   0.755   3.511
 4093SOL    HW213179   5.824   0.862   3.423
 4094SOL     OW13180   1.838   4.268   5.214
 4094SOL    HW113181   1.932   4.266   5.249
 4094SOL    HW213182   1.783   4.201   5.264
 4095SOL     OW13183   1.245   3.172   5.987
 4095SOL    HW113184   1.243   3.271   5.974
 4095SOL    HW213185   1.336   3.144   6.018
 4096SOL     OW13186   4.703   4.987   0.007
 4096SOL    HW113187   4.726   5.080   0.037
 4096SOL    HW213188   4.616   4.960   0.049
 4097SOL     OW13189   3.346   3.601   5.921
 4097SOL    HW113190   3.323   3.685   5.871
 4097SOL    HW213191   3.271   3.536   5.912
 4098SOL     OW13192   0.463   2.798   2.750
 4098SOL    HW113193   0.406   2.824   2.671
 4098SOL    HW213194   0.412   2.814   2.834
 4099SOL     OW13195   3.136   6.111   1.789
 4099SOL    HW113196   3.181   6.045   1.729
 4099SOL    HW213197   3.132   6.200   1.743
 4100SOL     OW13198   4.912   6.103   3.618
 4100SOL    HW113199   4.878   6.041   3.547
 4100SOL    HW213200   4.886   6.197   3.596
 4101SOL     OW13201   6.064   1.389   6.859
 4101SOL    HW113202   6.146   1.405   6.804
 4101SOL    HW213203   6.016   1.308   6.825
 4102SOL     OW13204   6.017   0.504   0.737
 4102SOL    HW113205   5.945   0.481   0.802
 4102SOL    HW213206   5.994   0.590   0.691
 4103SOL     OW13207   0.612   0.772   1.858
 4103SOL    HW113208   0.580   0.718   1.936
 4103SOL    HW213209   0.685   0.833   1.887
 4104SOL     OW13210   1.736   4.183   2.363
 4104SOL    HW113211   1.688   4.127   2.296
 4104SOL    HW213212   1.680   4.192   2.445
 4105SOL     OW13213   4.195   5.647   0.480
 4105SOL    HW113214   4.215   5.734   0.525
 4105SOL    HW213215   4.222   5.652   0.383
 4106SOL     OW13216   0.222   3.913   4.877
 4106SOL    HW113217   0.264   3.833   4.919
 4106SOL    HW213218   0.173   3.966   4.946
 4107SOL     OW13219   7.018   6.207   1.142
 4107SOL    HW113220   0.082   6.227   1.097
 4107SOL    HW213221   6.943   6.248   1.090
 4108SOL     OW13222   0.426   4.315   6.592
 4108SOL    HW113223   0.341   4.369   6.590
 4108SOL    HW213224   0.445   4.280   6.501
 4109SOL     OW13225   3.978   6.627   3.859
 4109SOL    HW113226   3.978   6.727   3.863
 4109SOL    HW213227   3.887   6.593   3.885
 4110SOL     OW13228   4.165   3.417   5.943
 4110SOL    HW113229   4.103   3.358   5.995
 4110SOL    HW213230   4.112   3.489   5.897
 4111SOL     OW13231   3.691   3.008   6.981
 4111SOL    HW113232   3.762   3.048   0.017
 4111SOL    HW213233   3.723   3.008   6.886
 4112SOL     OW13234   4.581   1.505   5.099
 4112SOL    HW113235   4.488   1.482   5.070
 4112SOL    HW213236   4.590   1.604   5.105
 4113SOL     OW13237   3.387   5.700   5.851
 4113SOL    HW113238   3.465   5.745   5.894
 4113SOL    HW213239   3.419   5.640   5.778
 4114SOL     OW13240   3.679   1.112   4.486
 4114SOL    HW113241   3.718   1.021   4.472
 4114SOL    HW213242   3.674   1.159   4.398
 4115SOL     OW13243   4.833   5.865   1.994
 4115SOL    HW113244   4.901   5.823   1.933
 4115SOL    HW213245   4.878   5.896   2.078
 4116SOL     OW13246   3.725   2.114   1.690
 4116SOL    HW113247   3.720   2.182   1.763
 4116SOL    HW213248   3.634   2.076   1.673
 4117SOL     OW13249   1.128   5.429   0.960
 4117SOL    HW113250   1.030   5.442   0.944
 4117SOL    HW213251   1.180   5.488   0.897
 4118SOL     OW13252   1.076   6.697   1.268
 4118SOL    HW113253   1.173   6.720   1.275
 4118SOL    HW213254   1.065   6.598   1.262
 4119SOL     OW13255   3.440   1.423   4.314
 4119SOL    HW113256   3.388   1.338   4.307
 4119SOL    HW213257   3.406   1.488   4.245
 4120SOL     OW13258   4.299   6.662   2.096
 4120SOL    HW113259   4.285   6.739   2.035
 4120SOL    HW213260   4.290   6.576   2.044
 4121SOL     OW13261   6.666   2.396   4.743
 4121SOL    HW113262   6.641   2.476   4.798
 4121SOL    HW213263   6.713   2.427   4.660
 4122SOL     OW13264   0.413   6.660   5.058
 4122SOL    HW113265   0.328   6.708   5.036
 4122SOL    HW213266   0.455   6.702   5.138
 4123SOL     OW13267   5.781   4.119   6.062
 4123SOL    HW113268   5.816   4.032   6.028
 4123SOL    HW213269   5.686   4.108   6.090
 4124SOL     OW13270   5.484   6.600   3.653
 4124SOL    HW113271   5.388   6.617   3.677
 4124SOL    HW213272   5.539   6.681   3.675
 4125SOL     OW13273   4.721   1.085   1.531
 4125SOL    HW113274   4.629   1.077   1.492
 4125SOL    HW213275   4.782   1.019   1.487
 4126SOL     OW13276   1.425   4.283   4.764
 4126SOL    HW113277   1.439   4.314   4.669
 4126SOL    HW213278   1.444   4.359   4.826
 4127SOL     OW13279   5.189   3.470   4.940
 4127SOL    HW113280   5.271   3.423   4.909
 4127SOL    HW213281   5.152   3.424   5.021
 4128SOL     OW13282   1.752   3.570   2.504
 4128SOL    HW113283   1.740   3.552   2.602
 4128SOL    HW213284   1.847   3.548   2.479
 4129SOL     OW13285   5.953   2.109   6.260
 4129SOL    HW113286   5.889   2.075   6.329
 4129SOL    HW213287   6.030   2.046   6.252
 4130SOL     OW13288   6.730   3.875   6.274
 4130SOL    HW113289   6.707   3.782   6.301
 4130SOL    HW213290   6.674   3.902   6.195
 4131SOL     OW13291   6.993   5.741   3.670
 4131SOL    HW113292   6.990   5.642   3.683
 4131SOL    HW213293   0.053   5.778   3.712
 4132SOL     OW13294   5.481   3.022   3.463
 4132SOL    HW113295   5.523   3.112   3.478
 4132SOL    HW213296   5.452   3.014   3.368
 4133SOL     OW13297   2.948   0.681   0.531
 4133SOL    HW113298   2.990   0.592   0.515
 4133SOL    HW213299   3.020   0.748   0.553
 4134SOL     OW13300   2.197   1.970   0.964
 4134SOL    HW113301   2.257   2.012   0.896
 4134SOL    HW213302   2.211   1.871   0.964
 4135SOL     OW13303   1.964   0.461   2.415
 4135SOL    HW113304   1.948   0.365   2.437
 4135SOL    HW213305   1.962   0.473   2.315
 4136SOL     OW13306   0.411   2.422   3.816
 4136SOL    HW113307   0.506   2.411   3.846
 4136SOL    HW213308   0.349   2.397   3.890
 4137SOL     OW13309   3.401   4.036   0.034
 4137SOL    HW113310   3.466   4.104   0.070
 4137SOL    HW213311   3.373   3.975   0.108
 4138SOL     OW13312   4.872   4.884   4.546
 4138SOL    HW113313   4.834   4.796   4.518
 4138SOL    HW213314   4.853   4.899   4.644
 4139SOL     OW13315   1.695   2.324   6.087
 4139SOL    HW113316   1.696   2.423   6.081
 4139SOL    HW213317   1.712   2.284   5.997
 4140SOL     OW13318   3.974   1.330   5.489
 4140SOL    HW113319   3.889   1.362   5.447
 4140SOL    HW213320   4.019   1.407   5.535
 4141SOL     OW13321   5.223   5.351   1.763
 4141SOL    HW113322   5.213   5.440   1.717
 4141SOL    HW213323   5.145   5.293   1.741
 4142SOL     OW13324   6.643   4.748   0.836
 4142SOL    HW113325   6.612   4.819   0.899
 4142SOL    HW213326   6.665   4.665   0.888
 4143SOL     OW13327   6.892   2.942   0.745
 4143SOL    HW113328   6.872   2.978   0.654
 4143SOL    HW213329   6.819   2.880   0.774
 4144SOL     OW13330   5.432   1.584   1.659
 4144SOL    HW113331   5.477   1.646   1.595
 4144SOL    HW213332   5.438   1.623   1.751
 4145SOL     OW13333   0.226   6.236   1.479
 4145SOL    HW113334   0.133   6.246   1.445
 4145SOL    HW213335   0.245   6.307   1.546
 4146SOL     OW13336   5.547   0.076   6.376
 4146SOL    HW113337   5.512   0.077   6.470
 4146SOL    HW213338   5.643   0.103   6.375
 4147SOL     OW13339   3.464   1.889   6.628
 4147SOL    HW113340   3.553   1.844   6.634
 4147SOL    HW213341   3.392   1.825   6.658
 4148SOL     OW13342   0.433   0.699   4.088
 4148SOL    HW113343   0.465   0.785   4.049
 4148SOL    HW213344   0.333   0.694   4.082
 4149SOL     OW13345   5.915   2.622   0.538
 4149SOL    HW113346   5.870   2.533   0.546
 4149SOL    HW213347   6.008   2.609   0.504
 4150SOL     OW13348   5.529   0.342   6.247
 4150SOL    HW113349   5.491   0.366   6.336
 4150SOL    HW213350   5.572   0.253   6.252
 4151SOL     OW13351   6.074   6.026   0.282
 4151SOL    HW113352   6.070   5.969   0.364
 4151SOL    HW213353   6.020   5.984   0.210
 4152SOL     OW13354   4.002   4.799   2.125
 4152SOL    HW113355   3.964   4.817   2.215
 4152SOL    HW213356   3.947   4.729   2.079
 4153SOL     OW13357   5.557   5.378   6.601
 4153SOL    HW113358   5.656   5.368   6.589
 4153SOL    HW213359   5.522   5.447   6.538
 4154SOL     OW13360   6.400   3.728   4.700
 4154SOL    HW113361   6.305   3.744   4.726
 4154SOL    HW213362   6.427   3.636   4.728
 4155SOL     OW13363   0.808   3.650   2.587
 4155SOL    HW113364   0.853   3.691   2.508
 4155SOL    HW213365   0.820   3.551   2.584
 4156SOL     OW13366   5.893   6.939   5.287
 4156SOL    HW113367   5.861   6.845   5.272
 4156SOL    HW213368   5.989   6.945   5.259
 4157SOL     OW13369   4.071   0.365   4.160
 4157SOL    HW113370   3.974   0.363   4.187
 4157SOL    HW213371   4.090   0.451   4.112
 4158SOL     OW13372   0.565   5.526   3.189
 4158SOL    HW113373   0.579   5.568   3.279
 4158SOL    HW213374   0.536   5.431   3.201
 4159SOL     OW13375   1.579   2.865   3.615
 4159SOL    HW113376   1.552   2.935   3.680
 4159SOL    HW213377   1.654   2.899   3.558
 4160SOL     OW13378   6.375   0.378   0.450
 4160SOL    HW113379   6.375   0.410   0.355
 4160SOL    HW213380   6.425   0.443   0.507
 4161SOL     OW13381   1.358   0.674   6.392
 4161SOL    HW113382   1.407   0.660   6.479
 4161SOL    HW213383   1.265   0.637   6.400
 4162SOL     OW13384   6.260   6.753   4.822
 4162SOL    HW113385   6.360   6.764   4.820
 4162SOL    HW213386   6.228   6.762   4.917
 4163SOL     OW13387   5.467   1.378   3.257
 4163SOL    HW113388   5.400   1.408   3.188
 4163SOL    HW213389   5.502   1.457   3.305
 4164SOL     OW13390   1.645   0.636   6.261
 4164SOL    HW113391   1.588   0.708   6.300
 4164SOL    HW213392   1.589   0.555   6.244
 4165SOL     OW13393   3.962   6.448   0.961
 4165SOL    HW113394   3.892   6.487   1.020
 4165SOL    HW213395   4.051   6.487   0.985
 4166SOL     OW13396   4.295   2.727   0.507
 4166SOL    HW113397   4.261   2.675   0.585
 4166SOL    HW213398   4.237   2.708   0.427
 4167SOL     OW13399   2.035   2.391   1.510
 4167SOL    HW113400   2.043   2.373   1.412
 4167SOL    HW213401   2.114   2.352   1.557
 4168SOL     OW13402   0.057   5.232   1.568
 4168SOL    HW113403   0.064   5.132   1.562
 4168SOL    HW213404   6.998   5.256   1.621
 4169SOL     OW13405   4.999   3.733   4.056
 4169SOL    HW113406   5.007   3.702   4.151
 4169SOL    HW213407   4.990   3.653   3.996
 4170SOL     OW13408   3.938   2.479   5.590
 4170SOL    HW113409   3.918   2.404   5.527
 4170SOL    HW213410   4.029   2.515   5.571
 4171SOL     OW13411   5.356   3.470   1.274
 4171SOL    HW113412   5.344   3.420   1.189
 4171SOL    HW213413   5.454   3.475   1.297
 4172SOL     OW13414   6.881   1.847   0.461
 4172SOL    HW113415   6.852   1.752   0.473
 4172SOL    HW213416   6.978   1.855   0.485
 4173SOL     OW13417   5.728   2.563   5.274
 4173SOL    HW113418   5.697   2.645   5.226
 4173SOL    HW213419   5.661   2.537   5.344
 4174SOL     OW13420   5.015   0.300   3.816
 4174SOL    HW113421   4.952   0.238   3.863
 4174SOL    HW213422   5.087   0.247   3.772
 4175SOL     OW13423   3.146   0.369   3.826
 4175SOL    HW113424   3.067   0.314   3.800
 4175SOL    HW213425   3.206   0.380   3.746
 4176SOL     OW13426   4.830   0.517   2.692
 4176SOL    HW113427   4.755   0.480   2.747
 4176SOL    HW213428   4.841   0.615   2.711
 4177SOL     OW13429   0.310   5.556   4.118
 4177SOL    HW113430   0.402   5.546   4.080
 4177SOL    HW213431   0.279   5.650   4.108
 4178SOL     OW13432   3.014   1.556   6.101
 4178SOL    HW113433   2.960   1.586   6.022
 4178SOL    HW213434   2.960   1.492   6.156
 4179SOL     OW13435   5.663   3.479   5.244
 4179SOL    HW113436   5.664   3.439   5.153
 4179SOL    HW213437   5.732   3.551   5.250
 4180SOL     OW13438   5.218   4.322   1.590
 4180SOL    HW113439   5.141   4.301   1.650
 4180SOL    HW213440   5.232   4.422   1.586
 4181SOL     OW13441   0.799   1.705   6.399
 4181SOL    HW113442   0.793   1.786   6.341
 4181SOL    HW213443   0.785   1.623   6.344
 4182SOL     OW13444   0.238   0.298   2.272
 4182SOL    HW113445   0.239   0.332   2.366
 4182SOL    HW213446   0.210   0.371   2.210
 4183SOL     OW13447   2.929   1.516   1.976
 4183SOL    HW113448   2.924   1.613   1.950
 4183SOL    HW213449   2.892   1.460   1.902
 4184SOL     OW13450   3.915   5.250   0.407
 4184SOL    HW113451   3.886   5.330   0.354
 4184SOL    HW213452   3.836   5.214   0.456
 4185SOL     OW13453   0.341   0.013   3.206
 4185SOL    HW113454   0.287   6.958   3.239
 4185SOL    HW213455   0.407   0.040   3.276
 4186SOL     OW13456   2.449   3.974   0.670
 4186SOL    HW113457   2.436   3.882   0.634
 4186SOL    HW213458   2.386   3.990   0.746
 4187SOL     OW13459   3.609   3.260   6.533
 4187SOL    HW113460   3.677   3.322   6.494
 4187SOL    HW213461   3.588   3.188   6.467
 4188SOL     OW13462   5.065   0.132   4.157
 4188SOL    HW113463   5.152   0.145   4.108
 4188SOL    HW213464   5.072   0.053   4.218
 4189SOL     OW13465   2.402   1.553   4.026
 4189SOL    HW113466   2.358   1.549   3.937
 4189SOL    HW213467   2.347   1.503   4.093
 4190SOL     OW13468   3.038   0.284   6.791
 4190SOL    HW113469   3.048   0.204   6.850
 4190SOL    HW213470   3.111   0.284   6.722
 4191SOL     OW13471   6.448   2.938   3.290
 4191SOL    HW113472   6.426   3.000   3.215
 4191SOL    HW213473   6.420   2.846   3.267
 4192SOL     OW13474   5.758   1.464   3.134
 4192SOL    HW113475   5.663   1.460   3.103
 4192SOL    HW213476   5.769   1.406   3.215
 4193SOL     OW13477   2.468   6.771   2.354
 4193SOL    HW113478   2.392   6.827   2.388
 4193SOL    HW213479   2.494   6.803   2.263
 4194SOL     OW13480   6.730   1.908   4.516
 4194SOL    HW113481   6.786   1.886   4.596
 4194SOL    HW213482   6.760   1.995   4.477
 4195SOL     OW13483   5.317   0.292   1.225
 4195SOL    HW113484   5.385   0.268   1.294
 4195SOL    HW213485   5.272   0.378   1.250
 4196SOL     OW13486   5.219   2.795   4.098
 4196SOL    HW113487   5.151   2.729   4.131
 4196SOL    HW213488   5.216   2.798   3.998
 4197SOL     OW13489   5.444   4.377   4.732
 4197SOL    HW113490   5.384   4.332   4.797
 4197SOL    HW213491   5.537   4.340   4.741
 4198SOL     OW13492   6.019   3.818   6.752
 4198SOL    HW113493   6.066   3.882   6.813
 4198SOL    HW213494   6.035   3.844   6.657
 4199SOL     OW13495   3.072   3.430   5.241
 4199SOL    HW113496   3.162   3.430   5.196
 4199SOL    HW213497   3.012   3.495   5.195
 4200SOL     OW13498   2.371   6.902   6.386
 4200SOL    HW113499   2.307   6.919   6.311
 4200SOL    HW213500   2.344   6.955   6.466
 4201SOL     OW13501   5.919   6.920   3.625
 4201SOL    HW113502   5.927   6.823   3.648
 4201SOL    HW213503   5.974   6.974   3.687
 4202SOL     OW13504   5.497   4.971   5.637
 4202SOL    HW113505   5.437   5.049   5.617
 4202SOL    HW213506   5.450   4.886   5.613
 4203SOL     OW13507   5.191   5.528   2.901
 4203SOL    HW113508   5.115   5.592   2.915
 4203SOL    HW213509   5.160   5.453   2.843
 4204SOL     OW13510   3.360   3.326   1.112
 4204SOL    HW113511   3.396   3.417   1.132
 4204SOL    HW213512   3.423   3.277   1.050
 4205SOL     OW13513   3.124   5.236   4.898
 4205SOL    HW113514   3.049   5.251   4.963
 4205SOL    HW213515   3.159   5.143   4.907
 4206SOL     OW13516   5.175   0.295   4.845
 4206SOL    HW113517   5.152   0.316   4.940
 4206SOL    HW213518   5.143   0.203   4.823
 4207SOL     OW13519   1.316   0.877   1.601
 4207SOL    HW113520   1.361   0.896   1.514
 4207SOL    HW213521   1.224   0.842   1.585
 4208SOL     OW13522   1.126   2.608   0.941
 4208SOL    HW113523   1.160   2.516   0.921
 4208SOL    HW213524   1.036   2.601   0.985
 4209SOL     OW13525   2.155   0.243   4.851
 4209SOL    HW113526   2.205   0.247   4.937
 4209SOL    HW213527   2.217   0.213   4.778
 4210SOL     OW13528   3.584   3.167   0.977
 4210SOL    HW113529   3.621   3.210   1.059
 4210SOL    HW213530   3.589   3.231   0.900
 4211SOL     OW13531   4.902   4.282   4.411
 4211SOL    HW113532   4.868   4.189   4.417
 4211SOL    HW213533   4.887   4.329   4.497
 4212SOL     OW13534   6.081   0.917   3.086
 4212SOL    HW113535   6.039   0.947   3.000
 4212SOL    HW213536   6.170   0.962   3.097
 4213SOL     OW13537   1.571   0.803   2.239
 4213SOL    HW113538   1.580   0.822   2.336
 4213SOL    HW213539   1.642   0.852   2.188
 4214SOL     OW13540   1.092   3.515   5.275
 4214SOL    HW113541   1.088   3.431   5.221
 4214SOL    HW213542   1.041   3.587   5.229
 4215SOL     OW13543   0.728   5.525   4.830
 4215SOL    HW113544   0.801   5.457   4.844
 4215SOL    HW213545   0.640   5.478   4.823
 4216SOL     OW13546   1.266   2.458   4.212
 4216SOL    HW113547   1.361   2.441   4.188
 4216SOL    HW213548   1.225   2.374   4.248
 4217SOL     OW13549   0.504   0.602   2.778
 4217SOL    HW113550   0.554   0.679   2.817
 4217SOL    HW213551   0.562   0.520   2.780
 4218SOL     OW13552   4.694   0.426   2.015
 4218SOL    HW113553   4.724   0.521   2.005
 4218SOL    HW213554   4.728   0.388   2.100
 4219SOL     OW13555   4.167   5.204   4.776
 4219SOL    HW113556   4.080   5.208   4.726
 4219SOL    HW213557   4.227   5.278   4.744
 4220SOL     OW13558   6.624   3.525   3.748
 4220SOL    HW113559   6.587   3.498   3.837
 4220SOL    HW213560   6.694   3.595   3.760
 4221SOL     OW13561   5.012   5.315   6.395
 4221SOL    HW113562   5.009   5.361   6.484
 4221SOL    HW213563   5.104   5.278   6.380
 4222SOL     OW13564   5.404   2.382   1.878
 4222SOL    HW113565   5.439   2.305   1.932
 4222SOL    HW213566   5.342   2.436   1.935
 4223SOL     OW13567   3.219   4.096   2.657
 4223SOL    HW113568   3.206   4.189   2.622
 4223SOL    HW213569   3.313   4.067   2.642
 4224SOL     OW13570   4.491   2.508   4.780
 4224SOL    HW113571   4.549   2.587   4.761
 4224SOL    HW213572   4.437   2.525   4.863
 4225SOL     OW13573   6.146   0.185   4.545
 4225SOL    HW113574   6.156   0.086   4.554
 4225SOL    HW213575   6.237   0.226   4.536
 4226SOL     OW13576   0.857   1.889   3.791
 4226SOL    HW113577   0.814   1.918   3.706
 4226SOL    HW213578   0.788   1.885   3.863
 4227SOL     OW13579   3.774   4.552   6.863
 4227SOL    HW113580   3.677   4.548   6.887
 4227SOL    HW213581   3.793   4.486   6.790
 4228SOL     OW13582   6.369   5.560   3.249
 4228SOL    HW113583   6.332   5.645   3.288
 4228SOL    HW213584   6.349   5.484   3.309
 4229SOL     OW13585   4.581   4.566   5.836
 4229SOL    HW113586   4.567   4.664   5.822
 4229SOL    HW213587   4.602   4.549   5.932
 4230SOL     OW13588   3.508   0.879   5.463
 4230SOL    HW113589   3.457   0.961   5.436
 4230SOL    HW213590   3.605   0.899   5.466
 4231SOL     OW13591   4.570   6.798   4.960
 4231SOL    HW113592   4.575   6.841   4.870
 4231SOL    HW213593   4.595   6.865   5.030
 4232SOL     OW13594   1.971   4.915   2.933
 4232SOL    HW113595   1.961   4.876   2.842
 4232SOL    HW213596   1.880   4.931   2.972
 4233SOL     OW13597   6.657   6.992   6.593
 4233SOL    HW113598   6.628   6.910   6.642
 4233SOL    HW213599   6.750   6.980   6.559
 4234SOL     OW13600   3.089   5.212   6.174
 4234SOL    HW113601   3.066   5.191   6.079
 4234SOL    HW213602   3.078   5.310   6.190
 4235SOL     OW13603   6.394   3.601   5.412
 4235SOL    HW113604   6.469   3.616   5.347
 4235SOL    HW213605   6.430   3.604   5.505
 4236SOL     OW13606   0.889   2.990   4.438
 4236SOL    HW113607   0.984   2.965   4.415
 4236SOL    HW213608   0.884   3.012   4.536
 4237SOL     OW13609   5.244   3.732   5.055
 4237SOL    HW113610   5.220   3.725   5.152
 4237SOL    HW213611   5.243   3.640   5.014
 4238SOL     OW13612   4.018   5.257   4.245
 4238SOL    HW113613   4.059   5.348   4.243
 4238SOL    HW213614   4.086   5.190   4.274
 4239SOL     OW13615   4.424   6.564   5.764
 4239SOL    HW113616   4.446   6.603   5.853
 4239SOL    HW213617   4.327   6.579   5.745
 4240SOL     OW13618   2.828   4.648   6.635
 4240SOL    HW113619   2.807   4.553   6.615
 4240SOL    HW213620   2.837   4.699   6.549
 4241SOL     OW13621   4.761   0.284   0.660
 4241SOL    HW113622   4.675   0.325   0.688
 4241SOL    HW213623   4.793   0.221   0.730
 4242SOL     OW13624   2.137   0.099   2.536
 4242SOL    HW113625   2.043   0.130   2.522
 4242SOL    HW213626   2.168   0.126   2.627
 4243SOL     OW13627   0.887   3.753   2.334
 4243SOL    HW113628   0.845   3.811   2.264
 4243SOL    HW213629   0.986   3.758   2.326
 4244SOL     OW13630   4.639   6.714   1.105
 4244SOL    HW113631   4.733   6.696   1.136
 4244SOL    HW213632   4.620   6.660   1.023
 4245SOL     OW13633   6.761   3.047   0.954
 4245SOL    HW113634   6.836   3.033   0.890
 4245SOL    HW213635   6.679   3.076   0.904
 4246SOL     OW13636   4.944   2.322   3.119
 4246SOL    HW113637   4.895   2.375   3.188
 4246SOL    HW213638   4.888   2.315   3.037
 4247SOL     OW13639   1.721   4.902   5.207
 4247SOL    HW113640   1.750   4.997   5.200
 4247SOL    HW213641   1.626   4.897   5.238
 4248SOL     OW13642   1.694   0.807   2.759
 4248SOL    HW113643   1.640   0.768   2.833
 4248SOL    HW213644   1.773   0.748   2.741
 4249SOL     OW13645   0.206   0.615   5.159
 4249SOL    HW113646   0.213   0.560   5.075
 4249SOL    HW213647   0.120   0.665   5.159
 4250SOL     OW13648   6.972   5.725   4.019
 4250SOL    HW113649   0.031   5.703   4.073
 4250SOL    HW213650   6.969   5.824   4.003
 4251SOL     OW13651   6.142   1.912   6.345
 4251SOL    HW113652   6.178   1.994   6.390
 4251SOL    HW213653   6.174   1.831   6.393
 4252SOL     OW13654   6.579   6.007   6.718
 4252SOL    HW113655   6.562   5.943   6.793
 4252SOL    HW213656   6.522   5.983   6.639
 4253SOL     OW13657   4.399   5.605   2.786
 4253SOL    HW113658   4.448   5.588   2.872
 4253SOL    HW213659   4.446   5.676   2.734
 4254SOL     OW13660   2.065   3.180   6.893
 4254SOL    HW113661   2.120   3.261   6.873
 4254SOL    HW213662   2.022   3.190   6.982
 4255SOL     OW13663   0.550   3.977   2.836
 4255SOL    HW113664   0.520   4.071   2.852
 4255SOL    HW213665   0.609   3.948   2.911
 4256SOL     OW13666   0.485   5.238   2.214
 4256SOL    HW113667   0.517   5.332   2.202
 4256SOL    HW213668   0.386   5.234   2.197
 4257SOL     OW13669   6.411   0.700   5.402
 4257SOL    HW113670   6.351   0.653   5.467
 4257SOL    HW213671   6.473   0.633   5.360
 4258SOL     OW13672   3.967   5.601   6.967
 4258SOL    HW113673   3.885   5.626   7.018
 4258SOL    HW213674   4.031   5.678   6.966
 4259SOL     OW13675   0.907   6.700   2.341
 4259SOL    HW113676   0.886   6.602   2.339
 4259SOL    HW213677   0.900   6.734   2.434
 4260SOL     OW13678   5.039   0.050   4.747
 4260SOL    HW113679   4.965   0.103   4.705
 4260SOL    HW213680   5.080   7.013   4.678
 4261SOL     OW13681   1.749   0.132   3.382
 4261SOL    HW113682   1.795   0.062   3.435
 4261SOL    HW213683   1.782   0.130   3.288
 4262SOL     OW13684   1.769   4.237   6.632
 4262SOL    HW113685   1.780   4.180   6.551
 4262SOL    HW213686   1.859   4.264   6.666
 4263SOL     OW13687   2.811   2.273   4.012
 4263SOL    HW113688   2.820   2.372   4.022
 4263SOL    HW213689   2.766   2.252   3.925
 4264SOL     OW13690   5.367   1.384   4.155
 4264SOL    HW113691   5.289   1.446   4.151
 4264SOL    HW213692   5.391   1.355   4.063
 4265SOL     OW13693   2.962   1.082   0.828
 4265SOL    HW113694   2.973   1.083   0.728
 4265SOL    HW213695   3.036   1.029   0.869
 4266SOL     OW13696   1.656   6.780   0.599
 4266SOL    HW113697   1.637   6.688   0.564
 4266SOL    HW213698   1.749   6.807   0.575
 4267SOL     OW13699   1.930   4.303   4.725
 4267SOL    HW113700   1.902   4.314   4.820
 4267SOL    HW213701   1.908   4.210   4.694
 4268SOL     OW13702   1.745   4.540   5.750
 4268SOL    HW113703   1.787   4.567   5.837
 4268SOL    HW213704   1.718   4.444   5.754
 4269SOL     OW13705   3.099   1.348   4.250
 4269SOL    HW113706   3.150   1.339   4.335
 4269SOL    HW213707   3.096   1.444   4.222
 4270SOL     OW13708   3.641   2.349   0.651
 4270SOL    HW113709   3.652   2.255   0.618
 4270SOL    HW213710   3.731   2.392   0.658
 4271SOL     OW13711   6.834   0.632   1.100
 4271SOL    HW113712   6.775   0.708   1.072
 4271SOL    HW213713   6.790   0.581   1.174
 4272SOL     OW13714   6.558   1.982   5.942
 4272SOL    HW113715   6.589   2.069   5.903
 4272SOL    HW213716   6.521   1.998   6.034
 4273SOL     OW13717   3.590   5.139   4.889
 4273SOL    HW113718   3.520   5.189   4.837
 4273SOL    HW213719   3.670   5.198   4.902
 4274SOL     OW13720   6.709   1.021   1.882
 4274SOL    HW113721   6.632   1.084   1.881
 4274SOL    HW213722   6.764   1.034   1.800
 4275SOL     OW13723   0.707   2.883   3.181
 4275SOL    HW113724   0.776   2.937   3.229
 4275SOL    HW213725   0.628   2.941   3.161
 4276SOL     OW13726   2.725   6.281   3.866
 4276SOL    HW113727   2.821   6.269   3.891
 4276SOL    HW213728   2.670   6.209   3.909
 4277SOL     OW13729   6.253   5.456   3.501
 4277SOL    HW113730   6.259   5.515   3.581
 4277SOL    HW213731   6.318   5.380   3.509
 4278SOL     OW13732   1.253   6.806   2.217
 4278SOL    HW113733   1.237   6.712   2.187
 4278SOL    HW213734   1.168   6.858   2.212
 4279SOL     OW13735   2.108   2.361   3.444
 4279SOL    HW113736   2.088   2.458   3.450
 4279SOL    HW213737   2.192   2.347   3.393
 4280SOL     OW13738   0.493   0.321   5.998
 4280SOL    HW113739   0.532   0.345   6.087
 4280SOL    HW213740   0.427   0.391   5.971
 4281SOL     OW13741   4.277   5.424   3.800
 4281SOL    HW113742   4.368   5.450   3.767
 4281SOL    HW213743   4.217   5.409   3.721
 4282SOL     OW13744   3.559   4.267   1.222
 4282SOL    HW113745   3.535   4.328   1.297
 4282SOL    HW213746   3.576   4.175   1.258
 4283SOL     OW13747   5.109   1.243   3.955
 4283SOL    HW113748   5.059   1.329   3.956
 4283SOL    HW213749   5.144   1.223   4.046
 4284SOL     OW13750   4.775   5.987   6.505
 4284SOL    HW113751   4.836   6.065   6.519
 4284SOL    HW213752   4.681   6.016   6.522
 4285SOL     OW13753   2.902   0.262   5.740
 4285SOL    HW113754   2.973   0.327   5.765
 4285SOL    HW213755   2.925   0.219   5.653
 4286SOL     OW13756   5.630   1.051   6.299
 4286SOL    HW113757   5.661   1.142   6.328
 4286SOL    HW213758   5.572   1.060   6.218
 4287SOL     OW13759   4.710   0.399   6.984
 4287SOL    HW113760   4.796   0.351   6.968
 4287SOL    HW213761   4.727   0.498   6.988
 4288SOL     OW13762   6.689   6.500   2.361
 4288SOL    HW113763   6.651   6.566   2.297
 4288SOL    HW213764   6.647   6.513   2.451
 4289SOL     OW13765   0.664   3.503   4.685
 4289SOL    HW113766   0.578   3.509   4.737
 4289SOL    HW213767   0.644   3.511   4.587
 4290SOL     OW13768   0.338   1.391   2.971
 4290SOL    HW113769   0.423   1.444   2.973
 4290SOL    HW213770   0.361   1.294   2.961
 4291SOL     OW13771   5.399   3.302   6.258
 4291SOL    HW113772   5.497   3.322   6.264
 4291SOL    HW213773   5.383   3.236   6.184
 4292SOL     OW13774   5.955   1.958   1.108
 4292SOL    HW113775   6.040   2.004   1.084
 4292SOL    HW213776   5.877   2.017   1.087
 4293SOL     OW13777   4.198   4.258   0.107
 4293SOL    HW113778   4.211   4.341   0.052
 4293SOL    HW213779   4.157   4.187   0.050
 4294SOL     OW13780   2.161   2.142   6.312
 4294SOL    HW113781   2.185   2.229   6.269
 4294SOL    HW213782   2.104   2.088   6.250
 4295SOL     OW13783   4.500   6.515   3.096
 4295SOL    HW113784   4.549   6.428   3.104
 4295SOL    HW213785   4.523   6.573   3.174
 4296SOL     OW13786   2.562   6.297   1.879
 4296SOL    HW113787   2.494   6.251   1.937
 4296SOL    HW213788   2.516   6.363   1.820
 4297SOL     OW13789   5.874   4.931   0.853
 4297SOL    HW113790   5.780   4.902   0.835
 4297SOL    HW213791   5.886   5.026   0.824
 4298SOL     OW13792   3.572   6.488   0.685
 4298SOL    HW113793   3.612   6.579   0.673
 4298SOL    HW213794   3.644   6.419   0.676
 4299SOL     OW13795   1.115   2.868   0.459
 4299SOL    HW113796   1.138   2.808   0.383
 4299SOL    HW213797   1.119   2.817   0.545
 4300SOL     OW13798   3.186   0.781   0.672
 4300SOL    HW113799   3.149   0.826   0.753
 4300SOL    HW213800   3.238   0.700   0.700
 4301SOL     OW13801   3.153   0.092   1.532
 4301SOL    HW113802   3.224   0.091   1.461
 4301SOL    HW213803   3.189   0.051   1.616
 4302SOL     OW13804   1.658   5.425   5.893
 4302SOL    HW113805   1.757   5.420   5.907
 4302SOL    HW213806   1.618   5.485   5.963
 4303SOL     OW13807   5.854   4.105   3.714
 4303SOL    HW113808   5.937   4.160   3.710
 4303SOL    HW213809   5.861   4.039   3.789
 4304SOL     OW13810   3.317   3.695   1.276
 4304SOL    HW113811   3.226   3.675   1.240
 4304SOL    HW213812   3.384   3.638   1.229
 4305SOL     OW13813   1.458   0.479   5.450
 4305SOL    HW113814   1.511   0.544   5.396
 4305SOL    HW213815   1.369   0.519   5.472
 4306SOL     OW13816   5.482   3.641   5.337
 4306SOL    HW113817   5.551   3.577   5.302
 4306SOL    HW213818   5.393   3.596   5.339
 4307SOL     OW13819   6.549   2.128   5.500
 4307SOL    HW113820   6.560   2.030   5.516
 4307SOL    HW213821   6.606   2.156   5.424
 4308SOL     OW13822   5.074   4.715   0.409
 4308SOL    HW113823   4.982   4.748   0.386
 4308SOL    HW213824   5.136   4.793   0.414
 4309SOL     OW13825   1.521   3.330   0.593
 4309SOL    HW113826   1.465   3.303   0.516
 4309SOL    HW213827   1.510   3.428   0.610
 4310SOL     OW13828   0.171   1.764   2.445
 4310SOL    HW113829   0.079   1.792   2.417
 4310SOL    HW213830   0.196   1.811   2.530
 4311SOL     OW13831   0.702   6.456   2.615
 4311SOL    HW113832   0.611   6.488   2.644
 4311SOL    HW213833   0.706   6.457   2.515
 4312SOL     OW13834   0.187   4.787   2.444
 4312SOL    HW113835   0.210   4.822   2.353
 4312SOL    HW213836   0.088   4.792   2.457
 4313SOL     OW13837   6.313   1.867   0.521
 4313SOL    HW113838   6.252   1.946   0.525
 4313SOL    HW213839   6.307   1.816   0.607
 4314SOL     OW13840   6.586   2.540   5.467
 4314SOL    HW113841   6.495   2.571   5.438
 4314SOL    HW213842   6.576   2.465   5.533
 4315SOL     OW13843   2.565   1.366   3.891
 4315SOL    HW113844   2.480   1.314   3.882
 4315SOL    HW213845   2.551   1.443   3.953
 4316SOL     OW13846   5.175   6.965   1.970
 4316SOL    HW113847   5.172   0.038   1.940
 4316SOL    HW213848   5.177   6.961   2.070
 4317SOL     OW13849   4.590   0.910   6.220
 4317SOL    HW113850   4.550   0.831   6.268
 4317SOL    HW213851   4.533   0.934   6.142
 4318SOL     OW13852   0.661   1.879   3.963
 4318SOL    HW113853   0.633   1.783   3.964
 4318SOL    HW213854   0.603   1.929   3.898
 4319SOL     OW13855   0.984   4.827   2.148
 4319SOL    HW113856   0.926   4.765   2.200
 4319SOL    HW213857   0.949   4.833   2.054
 4320SOL     OW13858   3.745   5.352   0.106
 4320SOL    HW113859   3.781   5.267   0.145
 4320SOL    HW213860   3.717   5.336   0.011
 4321SOL     OW13861   6.173   0.400   2.387
 4321SOL    HW113862   6.079   0.432   2.376
 4321SOL    HW213863   6.175   0.300   2.388
 4322SOL     OW13864   1.298   3.153   5.232
 4322SOL    HW113865   1.226   3.209   5.192
 4322SOL    HW213866   1.382   3.207   5.239
 4323SOL     OW13867   3.891   5.380   6.735
 4323SOL    HW113868   3.960   5.359   6.804
 4323SOL    HW213869   3.800   5.377   6.777
 4324SOL     OW13870   7.014   4.211   5.808
 4324SOL    HW113871   7.009   4.200   5.709
 4324SOL    HW213872   0.083   4.186   5.840
 4325SOL     OW13873   3.086   0.727   2.429
 4325SOL    HW113874   3.139   0.805   2.397
 4325SOL    HW213875   3.053   0.674   2.351
 4326SOL     OW13876   4.781   2.330   2.900
 4326SOL    HW113877   4.839   2.324   2.819
 4326SOL    HW213878   4.723   2.411   2.894
 4327SOL     OW13879   3.509   5.888   3.851
 4327SOL    HW113880   3.587   5.917   3.907
 4327SOL    HW213881   3.498   5.789   3.858
 4328SOL     OW13882   5.683   6.063   5.045
 4328SOL    HW113883   5.652   6.056   5.140
 4328SOL    HW213884   5.657   6.152   5.008
 4329SOL     OW13885   6.180   2.154   5.725
 4329SOL    HW113886   6.197   2.235   5.781
 4329SOL    HW213887   6.236   2.078   5.758
 4330SOL     OW13888   3.020   4.819   4.996
 4330SOL    HW113889   2.956   4.746   5.016
 4330SOL    HW213890   3.056   4.807   4.903
 4331SOL     OW13891   6.376   0.811   1.612
 4331SOL    HW113892   6.323   0.870   1.674
 4331SOL    HW213893   6.380   0.853   1.521
 4332SOL     OW13894   6.944   4.829   2.470
 4332SOL    HW113895   6.918   4.891   2.396
 4332SOL    HW213896   6.919   4.871   2.558
 4333SOL     OW13897   3.781   2.029   5.480
 4333SOL    HW113898   3.804   2.088   5.557
 4333SOL    HW213899   3.778   1.934   5.511
 4334SOL     OW13900   0.899   2.653   3.778
 4334SOL    HW113901   0.991   2.618   3.794
 4334SOL    HW213902   0.848   2.587   3.722
 4335SOL     OW13903   2.966   3.440   0.725
 4335SOL    HW113904   3.020   3.357   0.714
 4335SOL    HW213905   2.874   3.426   0.688
 4336SOL     OW13906   2.707   5.560   6.096
 4336SOL    HW113907   2.746   5.540   6.006
 4336SOL    HW213908   2.613   5.526   6.100
 4337SOL     OW13909   1.390   5.188   3.503
 4337SOL    HW113910   1.449   5.255   3.547
 4337SOL    HW213911   1.385   5.208   3.405
 4338SOL     OW13912   4.481   1.067   6.000
 4338SOL    HW113913   4.401   1.123   6.021
 4338SOL    HW213914   4.563   1.125   6.002
 4339SOL     OW13915   4.270   2.893   6.133
 4339SOL    HW113916   4.301   2.986   6.156
 4339SOL    HW213917   4.192   2.899   6.071
 4340SOL     OW13918   0.026   3.275   0.575
 4340SOL    HW113919   0.112   3.261   0.624
 4340SOL    HW213920   6.994   3.345   0.621
 4341SOL     OW13921   0.204   6.447   2.491
 4341SOL    HW113922   0.256   6.430   2.407
 4341SOL    HW213923   0.117   6.397   2.487
 4342SOL     OW13924   5.408   4.126   2.977
 4342SOL    HW113925   5.383   4.115   3.073
 4342SOL    HW213926   5.354   4.064   2.921
 4343SOL     OW13927   4.240   0.656   5.786
 4343SOL    HW113928   4.152   0.608   5.789
 4343SOL    HW213929   4.230   0.741   5.736
 4344SOL     OW13930   0.198   2.755   3.921
 4344SOL    HW113931   0.241   2.760   3.831
 4344SOL    HW213932   0.099   2.740   3.911
 4345SOL     OW13933   2.836   3.529   2.498
 4345SOL    HW113934   2.878   3.582   2.425
 4345SOL    HW213935   2.738   3.524   2.483
 4346SOL     OW13936   1.754   3.847   1.806
 4346SOL    HW113937   1.806   3.910   1.863
 4346SOL    HW213938   1.796   3.757   1.808
 4347SOL     OW13939   5.919   4.967   1.285
 4347SOL    HW113940   5.872   4.921   1.360
 4347SOL    HW213941   5.856   5.031   1.240
 4348SOL     OW13942   5.556   6.153   4.269
 4348SOL    HW113943   5.534   6.060   4.238
 4348SOL    HW213944   5.654   6.160   4.288
 4349SOL     OW13945   0.270   3.397   4.219
 4349SOL    HW113946   0.240   3.346   4.300
 4349SOL    HW213947   0.333   3.469   4.246
 4350SOL     OW13948   4.713   1.117   4.830
 4350SOL    HW113949   4.725   1.213   4.804
 4350SOL    HW213950   4.692   1.111   4.927
 4351SOL     OW13951   0.758   6.323   0.853
 4351SOL    HW113952   0.802   6.234   0.844
 4351SOL    HW213953   0.823   6.395   0.827
 4352SOL     OW13954   3.985   3.730   0.977
 4352SOL    HW113955   4.076   3.691   0.991
 4352SOL    HW213956   3.962   3.789   1.054
 4353SOL     OW13957   3.237   2.560   0.767
 4353SOL    HW113958   3.251   2.628   0.696
 4353SOL    HW213959   3.140   2.536   0.773
 4354SOL     OW13960   5.696   6.941   4.122
 4354SOL    HW113961   5.712   6.843   4.111
 4354SOL    HW213962   5.598   6.957   4.134
 4355SOL     OW13963   1.101   6.328   3.675
 4355SOL    HW113964   1.112   6.244   3.622
 4355SOL    HW213965   1.171   6.394   3.648
 4356SOL     OW13966   5.402   2.484   6.666
 4356SOL    HW113967   5.472   2.432   6.715
 4356SOL    HW213968   5.421   2.480   6.567
 4357SOL     OW13969   6.812   1.047   2.120
 4357SOL    HW113970   6.752   0.994   2.060
 4357SOL    HW213971   6.856   1.119   2.066
 4358SOL     OW13972   1.372   6.995   0.034
 4358SOL    HW113973   1.305   6.936   0.079
 4358SOL    HW213974   1.463   6.975   0.072
 4359SOL     OW13975   1.881   1.522   0.010
 4359SOL    HW113976   1.945   1.490   0.080
 4359SOL    HW213977   1.892   1.620   7.019
 4360SOL     OW13978   1.123   3.410   3.599
 4360SOL    HW113979   1.080   3.395   3.688
 4360SOL    HW213980   1.190   3.338   3.581
 4361SOL     OW13981   0.292   0.868   1.003
 4361SOL    HW113982   0.287   0.770   1.018
 4361SOL    HW213983   0.333   0.913   1.083
 4362SOL     OW13984   0.843   5.884   4.020
 4362SOL    HW113985   0.766   5.943   3.992
 4362SOL    HW213986   0.808   5.805   4.070
 4363SOL     OW13987   4.618   1.378   2.169
 4363SOL    HW113988   4.571   1.342   2.088
 4363SOL    HW213989   4.682   1.449   2.141
 4364SOL     OW13990   3.873   3.971   2.936
 4364SOL    HW113991   3.773   3.968   2.948
 4364SOL    HW213992   3.917   3.977   3.026
 4365SOL     OW13993   3.005   2.220   1.791
 4365SOL    HW113994   2.953   2.291   1.838
 4365SOL    HW213995   2.944   2.167   1.731
 4366SOL     OW13996   4.523   6.441   4.568
 4366SOL    HW113997   4.487   6.471   4.479
 4366SOL    HW213998   4.623   6.446   4.567
 4367SOL     OW13999   2.808   5.707   3.872
 4367SOL    HW114000   2.736   5.704   3.803
 4367SOL    HW214001   2.775   5.667   3.958
 4368SOL     OW14002   4.519   4.519   2.521
 4368SOL    HW114003   4.528   4.478   2.430
 4368SOL    HW214004   4.568   4.464   2.588
 4369SOL     OW14005   4.342   4.926   3.148
 4369SOL    HW114006   4.362   4.833   3.119
 4369SOL    HW214007   4.346   4.932   3.247
 4370SOL     OW14008   3.673   4.943   1.458
 4370SOL    HW114009   3.652   4.936   1.556
 4370SOL    HW214010   3.748   4.882   1.436
 4371SOL     OW14011   3.236   0.945   1.507
 4371SOL    HW114012   3.187   0.877   1.563
 4371SOL    HW214013   3.320   0.971   1.554
 4372SOL     OW14014   2.120   3.215   4.721
 4372SOL    HW114015   2.148   3.198   4.815
 4372SOL    HW214016   2.151   3.140   4.662
 4373SOL     OW14017   4.712   1.100   5.395
 4373SOL    HW114018   4.683   1.178   5.340
 4373SOL    HW214019   4.676   1.109   5.488
 4374SOL     OW14020   2.608   1.495   1.333
 4374SOL    HW114021   2.531   1.545   1.373
 4374SOL    HW214022   2.691   1.515   1.384
 4375SOL     OW14023   3.893   0.759   3.719
 4375SOL    HW114024   3.826   0.819   3.762
 4375SOL    HW214025   3.971   0.812   3.688
 4376SOL     OW14026   6.471   6.667   1.143
 4376SOL    HW114027   6.399   6.721   1.186
 4376SOL    HW214028   6.491   6.587   1.199
 4377SOL     OW14029   5.884   6.431   6.262
 4377SOL    HW114030   5.806   6.425   6.325
 4377SOL    HW214031   5.905   6.340   6.226
 4378SOL     OW14032   1.680   5.550   2.344
 4378SOL    HW114033   1.595   5.603   2.342
 4378SOL    HW214034   1.662   5.457   2.311
 4379SOL     OW14035   1.228   0.491   1.750
 4379SOL    HW114036   1.254   0.574   1.798
 4379SOL    HW214037   1.200   0.513   1.657
 4380SOL     OW14038   1.493   6.110   5.202
 4380SOL    HW114039   1.493   6.014   5.176
 4380SOL    HW214040   1.399   6.144   5.202
 4381SOL     OW14041   3.632   6.566   5.056
 4381SOL    HW114042   3.539   6.555   5.021
 4381SOL    HW214043   3.693   6.499   5.012
 4382SOL     OW14044   4.982   3.628   4.303
 4382SOL    HW114045   5.074   3.656   4.332
 4382SOL    HW214046   4.944   3.565   4.371
 4383SOL     OW14047   0.926   3.037   5.831
 4383SOL    HW114048   0.980   3.061   5.912
 4383SOL    HW214049   0.987   3.027   5.752
 4384SOL     OW14050   3.721   6.242   0.671
 4384SOL    HW114051   3.669   6.157   0.672
 4384SOL    HW214052   3.769   6.252   0.758
 4385SOL     OW14053   0.304   2.342   2.349
 4385SOL    HW114054   0.333   2.379   2.261
 4385SOL    HW214055   0.210   2.307   2.340
 4386SOL     OW14056   0.740   3.009   6.840
 4386SOL    HW114057   0.671   2.961   6.894
 4386SOL    HW214058   0.782   3.080   6.896
 4387SOL     OW14059   0.018   3.426   1.780
 4387SOL    HW114060   0.037   3.480   1.862
 4387SOL    HW214061   0.104   3.398   1.737
 4388SOL     OW14062   3.771   0.962   6.236
 4388SOL    HW114063   3.742   0.869   6.256
 4388SOL    HW214064   3.690   1.019   6.218
 4389SOL     OW14065   5.661   2.636   2.680
 4389SOL    HW114066   5.580   2.622   2.736
 4389SOL    HW214067   5.683   2.734   2.677
 4390SOL     OW14068   4.805   2.923   2.272
 4390SOL    HW114069   4.898   2.895   2.252
 4390SOL    HW214070   4.761   2.957   2.189
 4391SOL     OW14071   1.098   5.430   0.224
 4391SOL    HW114072   1.085   5.529   0.231
 4391SOL    HW214073   1.171   5.410   0.159
 4392SOL     OW14074   4.831   2.984   4.443
 4392SOL    HW114075   4.891   3.056   4.478
 4392SOL    HW214076   4.830   2.987   4.343
 4393SOL     OW14077   4.781   6.871   3.174
 4393SOL    HW114078   4.833   6.808   3.116
 4393SOL    HW214079   4.742   6.944   3.118
 4394SOL     OW14080   5.084   0.388   2.535
 4394SOL    HW114081   5.034   0.422   2.455
 4394SOL    HW214082   5.063   0.445   2.614
 4395SOL     OW14083   5.071   1.589   1.449
 4395SOL    HW114084   5.046   1.493   1.449
 4395SOL    HW214085   4.999   1.643   1.494
 4396SOL     OW14086   0.758   0.918   4.257
 4396SOL    HW114087   0.719   1.008   4.243
 4396SOL    HW214088   0.702   0.866   4.321
 4397SOL     OW14089   6.869   0.643   4.704
 4397SOL    HW114090   6.873   0.627   4.605
 4397SOL    HW214091   6.953   0.689   4.734
 4398SOL     OW14092   0.061   4.713   4.244
 4398SOL    HW114093   0.072   4.666   4.156
 4398SOL    HW214094   0.027   4.806   4.228
 4399SOL     OW14095   1.929   1.453   0.881
 4399SOL    HW114096   1.975   1.534   0.845
 4399SOL    HW214097   1.887   1.476   0.969
 4400SOL     OW14098   3.493   6.529   4.724
 4400SOL    HW114099   3.418   6.552   4.663
 4400SOL    HW214100   3.456   6.501   4.813
 4401SOL     OW14101   5.649   5.715   4.220
 4401SOL    HW114102   5.726   5.776   4.239
 4401SOL    HW214103   5.649   5.641   4.287
 4402SOL     OW14104   0.699   6.216   2.963
 4402SOL    HW114105   0.677   6.311   2.942
 4402SOL    HW214106   0.623   6.157   2.937
 4403SOL     OW14107   0.708   0.478   2.905
 4403SOL    HW114108   0.658   0.501   2.989
 4403SOL    HW214109   0.698   0.381   2.886
 4404SOL     OW14110   0.493   3.774   3.234
 4404SOL    HW114111   0.588   3.743   3.244
 4404SOL    HW214112   0.440   3.703   3.187
 4405SOL     OW14113   3.488   4.490   5.608
 4405SOL    HW114114   3.560   4.455   5.668
 4405SOL    HW214115   3.516   4.579   5.572
 4406SOL     OW14116   5.934   3.772   1.329
 4406SOL    HW114117   5.885   3.710   1.390
 4406SOL    HW214118   6.026   3.738   1.313
 4407SOL     OW14119   6.717   0.400   6.991
 4407SOL    HW114120   6.716   0.348   0.053
 4407SOL    HW214121   6.721   0.336   6.913
 4408SOL     OW14122   4.670   0.103   6.634
 4408SOL    HW114123   4.598   0.137   6.693
 4408SOL    HW214124   4.636   0.096   6.540
 4409SOL     OW14125   3.532   0.328   2.119
 4409SOL    HW114126   3.589   0.310   2.199
 4409SOL    HW214127   3.466   0.253   2.107
 4410SOL     OW14128   2.138   5.039   1.411
 4410SOL    HW114129   2.075   4.969   1.444
 4410SOL    HW214130   2.168   5.096   1.488
 4411SOL     OW14131   3.754   3.613   2.452
 4411SOL    HW114132   3.787   3.525   2.421
 4411SOL    HW214133   3.823   3.684   2.433
 4412SOL     OW14134   3.950   1.603   6.548
 4412SOL    HW114135   4.045   1.606   6.581
 4412SOL    HW214136   3.950   1.588   6.449
 4413SOL     OW14137   4.418   6.158   4.234
 4413SOL    HW114138   4.351   6.186   4.164
 4413SOL    HW214139   4.447   6.064   4.217
 4414SOL     OW14140   4.041   4.708   1.842
 4414SOL    HW114141   4.005   4.635   1.784
 4414SOL    HW214142   4.135   4.686   1.868
 4415SOL     OW14143   4.940   3.072   6.497
 4415SOL    HW114144   4.889   2.989   6.517
 4415SOL    HW214145   4.930   3.137   6.572
 4416SOL     OW14146   3.323   0.413   4.677
 4416SOL    HW114147   3.338   0.314   4.687
 4416SOL    HW214148   3.389   0.462   4.734
 4417SOL     OW14149   6.886   5.522   2.016
 4417SOL    HW114150   6.834   5.598   2.057
 4417SOL    HW214151   6.895   5.448   2.082
 4418SOL     OW14152   4.102   6.813   3.483
 4418SOL    HW114153   4.033   6.751   3.522
 4418SOL    HW214154   4.116   6.890   3.545
 4419SOL     OW14155   0.511   5.465   6.989
 4419SOL    HW114156   0.523   5.401   0.042
 4419SOL    HW214157   0.474   5.417   6.910
 4420SOL     OW14158   5.045   1.783   6.959
 4420SOL    HW114159   5.008   1.855   7.018
 4420SOL    HW214160   5.097   1.718   7.016
 4421SOL     OW14161   1.639   2.157   2.991
 4421SOL    HW114162   1.647   2.129   3.087
 4421SOL    HW214163   1.560   2.217   2.981
 4422SOL     OW14164   2.276   4.316   6.306
 4422SOL    HW114165   2.370   4.283   6.305
 4422SOL    HW214166   2.235   4.303   6.215
 4423SOL     OW14167   1.398   2.215   6.374
 4423SOL    HW114168   1.347   2.260   6.300
 4423SOL    HW214169   1.404   2.117   6.355
 4424SOL     OW14170   6.172   6.559   2.909
 4424SOL    HW114171   6.225   6.503   2.972
 4424SOL    HW214172   6.147   6.645   2.953
 4425SOL     OW14173   3.728   4.614   6.454
 4425SOL    HW114174   3.667   4.690   6.429
 4425SOL    HW214175   3.755   4.564   6.372
 4426SOL     OW14176   0.443   0.710   5.253
 4426SOL    HW114177   0.461   0.800   5.291
 4426SOL    HW214178   0.347   0.705   5.223
 4427SOL     OW14179   1.259   0.508   3.112
 4427SOL    HW114180   1.208   0.430   3.075
 4427SOL    HW214181   1.275   0.495   3.210
 4428SOL     OW14182   2.008   5.776   4.016
 4428SOL    HW114183   2.045   5.711   3.950
 4428SOL    HW214184   1.910   5.790   3.997
 4429SOL     OW14185   3.440   0.059   3.617
 4429SOL    HW114186   3.443   0.031   3.712
 4429SOL    HW214187   3.467   7.005   3.558
 4430SOL     OW14188   2.689   0.674   2.528
 4430SOL    HW114189   2.703   0.648   2.433
 4430SOL    HW214190   2.642   0.762   2.533
 4431SOL     OW14191   3.100   1.849   3.686
 4431SOL    HW114192   3.077   1.922   3.621
 4431SOL    HW214193   3.056   1.764   3.657
 4432SOL     OW14194   2.964   3.409   2.708
 4432SOL    HW114195   2.941   3.312   2.702
 4432SOL    HW214196   2.913   3.460   2.639
 4433SOL     OW14197   6.136   0.125   2.364
 4433SOL    HW114198   6.049   0.076   2.350
 4433SOL    HW214199   6.193   0.073   2.428
 4434SOL     OW14200   6.114   2.272   3.901
 4434SOL    HW114201   6.014   2.273   3.893
 4434SOL    HW214202   6.142   2.197   3.960
 4435SOL     OW14203   3.664   2.870   1.950
 4435SOL    HW114204   3.760   2.900   1.955
 4435SOL    HW214205   3.604   2.949   1.965
 4436SOL     OW14206   4.601   1.809   0.123
 4436SOL    HW114207   4.547   1.751   0.063
 4436SOL    HW214208   4.614   1.899   0.081
 4437SOL     OW14209   3.733   0.709   4.544
 4437SOL    HW114210   3.739   0.621   4.592
 4437SOL    HW214211   3.744   0.783   4.611
 4438SOL     OW14212   4.323   3.050   6.669
 4438SOL    HW114213   4.350   2.956   6.649
 4438SOL    HW214214   4.387   3.090   6.735
 4439SOL     OW14215   1.411   5.597   2.803
 4439SOL    HW114216   1.429   5.695   2.804
 4439SOL    HW214217   1.438   5.559   2.715
 4440SOL     OW14218   1.122   6.459   6.339
 4440SOL    HW114219   1.170   6.390   6.286
 4440SOL    HW214220   1.139   6.444   6.436
 4441SOL     OW14221   5.236   2.612   2.357
 4441SOL    HW114222   5.145   2.587   2.323
 4441SOL    HW214223   5.232   2.627   2.455
 4442SOL     OW14224   3.839   5.752   3.798
 4442SOL    HW114225   3.895   5.677   3.832
 4442SOL    HW214226   3.777   5.718   3.728
 4443SOL     OW14227   2.912   2.052   6.045
 4443SOL    HW114228   2.948   1.968   6.088
 4443SOL    HW214229   2.940   2.131   6.099
 4444SOL     OW14230   5.114   6.977   0.552
 4444SOL    HW114231   5.138   0.051   0.557
 4444SOL    HW214232   5.194   6.922   0.573
 4445SOL     OW14233   1.190   0.790   6.120
 4445SOL    HW114234   1.203   0.791   6.021
 4445SOL    HW214235   1.187   0.696   6.152
 4446SOL     OW14236   6.191   0.182   3.071
 4446SOL    HW114237   6.145   0.227   2.994
 4446SOL    HW214238   6.233   0.251   3.129
 4447SOL     OW14239   5.459   2.218   5.710
 4447SOL    HW114240   5.480   2.304   5.757
 4447SOL    HW214241   5.395   2.236   5.635
 4448SOL     OW14242   2.489   3.561   6.891
 4448SOL    HW114243   2.547   3.486   6.923
 4448SOL    HW214244   2.497   3.569   6.791
 4449SOL     OW14245   2.207   1.181   4.855
 4449SOL    HW114246   2.127   1.236   4.828
 4449SOL    HW214247   2.197   1.088   4.820
 4450SOL     OW14248   3.836   2.964   3.225
 4450SOL    HW114249   3.877   2.982   3.136
 4450SOL    HW214250   3.739   2.986   3.223
 4451SOL     OW14251   6.653   4.852   2.554
 4451SOL    HW114252   6.725   4.803   2.505
 4451SOL    HW214253   6.568   4.799   2.549
 4452SOL     OW14254   6.282   6.343   6.566
 4452SOL    HW114255   6.352   6.294   6.514
 4452SOL    HW214256   6.228   6.278   6.619
 4453SOL     OW14257   5.050   2.104   1.237
 4453SOL    HW114258   5.109   2.029   1.205
 4453SOL    HW214259   5.107   2.179   1.269
 4454SOL     OW14260   5.409   2.527   1.242
 4454SOL    HW114261   5.376   2.602   1.300
 4454SOL    HW214262   5.337   2.458   1.233
 4455SOL     OW14263   3.733   0.870   2.620
 4455SOL    HW114264   3.769   0.810   2.548
 4455SOL    HW214265   3.644   0.906   2.592
 4456SOL     OW14266   1.119   5.105   3.554
 4456SOL    HW114267   1.062   5.118   3.635
 4456SOL    HW214268   1.210   5.145   3.570
 4457SOL     OW14269   5.277   2.266   6.570
 4457SOL    HW114270   5.178   2.260   6.559
 4457SOL    HW214271   5.302   2.354   6.609
 4458SOL     OW14272   3.127   2.371   6.435
 4458SOL    HW114273   3.114   2.416   6.524
 4458SOL    HW214274   3.119   2.272   6.446
 4459SOL     OW14275   4.833   6.730   4.921
 4459SOL    HW114276   4.736   6.743   4.942
 4459SOL    HW214277   4.844   6.705   4.825
 4460SOL     OW14278   2.664   2.570   6.274
 4460SOL    HW114279   2.753   2.528   6.293
 4460SOL    HW214280   2.622   2.524   6.196
 4461SOL     OW14281   2.250   6.862   2.473
 4461SOL    HW114282   2.277   6.829   2.564
 4461SOL    HW214283   2.194   6.944   2.483
 4462SOL     OW14284   6.746   5.757   0.683
 4462SOL    HW114285   6.748   5.672   0.630
 4462SOL    HW214286   6.822   5.815   0.655
 4463SOL     OW14287   1.481   3.426   6.335
 4463SOL    HW114288   1.565   3.441   6.283
 4463SOL    HW214289   1.502   3.372   6.416
 4464SOL     OW14290   6.023   3.230   6.124
 4464SOL    HW114291   5.987   3.181   6.045
 4464SOL    HW214292   5.967   3.210   6.204
 4465SOL     OW14293   1.455   6.115   1.738
 4465SOL    HW114294   1.372   6.112   1.683
 4465SOL    HW214295   1.483   6.023   1.763
 4466SOL     OW14296   1.308   1.779   2.742
 4466SOL    HW114297   1.384   1.844   2.752
 4466SOL    HW214298   1.222   1.828   2.750
 4467SOL     OW14299   1.487   6.468   3.182
 4467SOL    HW114300   1.425   6.545   3.203
 4467SOL    HW214301   1.445   6.383   3.212
 4468SOL     OW14302   1.149   2.710   0.665
 4468SOL    HW114303   1.104   2.690   0.752
 4468SOL    HW214304   1.217   2.639   0.646
 4469SOL     OW14305   4.037   0.213   0.845
 4469SOL    HW114306   4.032   0.153   0.765
 4469SOL    HW214307   4.128   0.208   0.885
 4470SOL     OW14308   4.791   3.678   1.458
 4470SOL    HW114309   4.780   3.633   1.369
 4470SOL    HW214310   4.876   3.648   1.500
 4471SOL     OW14311   6.898   2.525   1.663
 4471SOL    HW114312   6.881   2.572   1.576
 4471SOL    HW214313   6.869   2.583   1.739
 4472SOL     OW14314   1.746   3.888   2.492
 4472SOL    HW114315   1.719   3.922   2.402
 4472SOL    HW214316   1.772   3.792   2.484
 4473SOL     OW14317   6.550   6.646   4.431
 4473SOL    HW114318   6.577   6.592   4.351
 4473SOL    HW214319   6.494   6.724   4.402
 4474SOL     OW14320   4.416   0.386   2.615
 4474SOL    HW114321   4.467   0.409   2.532
 4474SOL    HW214322   4.406   0.468   2.671
 4475SOL     OW14323   1.821   4.573   0.350
 4475SOL    HW114324   1.733   4.528   0.368
 4475SOL    HW214325   1.803   4.668   0.322
 4476SOL     OW14326   5.146   6.650   2.097
 4476SOL    HW114327   5.150   6.748   2.117
 4476SOL    HW214328   5.074   6.633   2.028
 4477SOL     OW14329   1.396   1.078   0.210
 4477SOL    HW114330   1.310   1.027   0.218
 4477SOL    HW214331   1.385   1.168   0.253
 4478SOL     OW14332   2.349   6.522   2.397
 4478SOL    HW114333   2.279   6.554   2.461
 4478SOL    HW214334   2.405   6.600   2.368
 4479SOL     OW14335   1.160   0.448   5.931
 4479SOL    HW114336   1.187   0.361   5.971
 4479SOL    HW214337   1.065   0.442   5.900
 4480SOL     OW14338   1.030   5.027   4.822
 4480SOL    HW114339   1.035   4.998   4.726
 4480SOL    HW214340   1.117   5.006   4.867
 4481SOL     OW14341   0.690   6.114   3.997
 4481SOL    HW114342   0.781   6.150   3.976
 4481SOL    HW214343   0.680   6.106   4.096
 4482SOL     OW14344   0.200   4.452   3.801
 4482SOL    HW114345   0.156   4.497   3.724
 4482SOL    HW214346   0.290   4.419   3.772
 4483SOL     OW14347   5.288   3.189   1.910
 4483SOL    HW114348   5.262   3.111   1.854
 4483SOL    HW214349   5.388   3.194   1.915
 4484SOL     OW14350   3.530   2.216   5.573
 4484SOL    HW114351   3.529   2.150   5.648
 4484SOL    HW214352   3.436   2.244   5.551
 4485SOL     OW14353   4.996   1.435   6.635
 4485SOL    HW114354   4.974   1.531   6.613
 4485SOL    HW214355   5.081   1.431   6.686
 4486SOL     OW14356   6.434   3.473   4.799
 4486SOL    HW114357   6.378   3.459   4.881
 4486SOL    HW214358   6.403   3.410   4.727
 4487SOL     OW14359   3.002   3.312   6.178
 4487SOL    HW114360   2.989   3.411   6.181
 4487SOL    HW214361   2.915   3.268   6.153
 4488SOL     OW14362   6.433   1.849   5.230
 4488SOL    HW114363   6.532   1.848   5.240
 4488SOL    HW214364   6.405   1.779   5.164
 4489SOL     OW14365   5.779   5.991   4.500
 4489SOL    HW114366   5.698   5.996   4.557
 4489SOL    HW214367   5.814   5.897   4.500
 4490SOL     OW14368   6.719   1.970   2.993
 4490SOL    HW114369   6.728   2.070   2.989
 4490SOL    HW214370   6.741   1.932   2.903
 4491SOL     OW14371   0.975   3.810   2.755
 4491SOL    HW114372   0.989   3.762   2.842
 4491SOL    HW214373   0.940   3.745   2.687
 4492SOL     OW14374   4.615   2.669   0.249
 4492SOL    HW114375   4.516   2.657   0.244
 4492SOL    HW214376   4.643   2.746   0.191
 4493SOL     OW14377   5.385   5.520   4.848
 4493SOL    HW114378   5.369   5.433   4.893
 4493SOL    HW214379   5.436   5.581   4.909
 4494SOL     OW14380   0.267   4.126   5.208
 4494SOL    HW114381   0.294   4.153   5.116
 4494SOL    HW214382   0.204   4.049   5.203
 4495SOL     OW14383   4.795   6.828   1.751
 4495SOL    HW114384   4.887   6.798   1.776
 4495SOL    HW214385   4.781   6.923   1.781
 4496SOL     OW14386   5.485   3.773   5.602
 4496SOL    HW114387   5.484   3.674   5.592
 4496SOL    HW214388   5.397   3.810   5.573
 4497SOL     OW14389   6.133   5.043   0.107
 4497SOL    HW114390   6.067   4.968   0.109
 4497SOL    HW214391   6.112   5.108   0.180
 4498SOL     OW14392   0.135   3.464   6.795
 4498SOL    HW114393   0.131   3.534   6.725
 4498SOL    HW214394   0.058   3.401   6.784
 4499SOL     OW14395   6.952   3.498   5.755
 4499SOL    HW114396   6.914   3.408   5.776
 4499SOL    HW214397   6.900   3.568   5.804
 4500SOL     OW14398   2.920   3.665   4.395
 4500SOL    HW114399   2.999   3.605   4.389
 4500SOL    HW214400   2.846   3.628   4.338
 4501SOL     OW14401   0.271   4.731   5.217
 4501SOL    HW114402   0.365   4.714   5.185
 4501SOL    HW214403   0.273   4.771   5.308
 4502SOL     OW14404   1.466   2.591   6.991
 4502SOL    HW114405   1.435   2.680   0.003
 4502SOL    HW214406   1.559   2.573   7.023
 4503SOL     OW14407   1.644   1.417   3.715
 4503SOL    HW114408   1.673   1.468   3.796
 4503SOL    HW214409   1.572   1.351   3.741
 4504SOL     OW14410   5.653   2.771   5.122
 4504SOL    HW114411   5.590   2.798   5.194
 4504SOL    HW214412   5.634   2.823   5.039
 4505SOL     OW14413   1.749   6.383   5.134
 4505SOL    HW114414   1.802   6.332   5.202
 4505SOL    HW214415   1.790   6.473   5.120
 4506SOL     OW14416   3.772   0.978   5.339
 4506SOL    HW114417   3.804   1.065   5.301
 4506SOL    HW214418   3.787   0.905   5.272
 4507SOL     OW14419   5.074   4.192   0.563
 4507SOL    HW114420   5.118   4.188   0.653
 4507SOL    HW214421   5.076   4.287   0.530
 4508SOL     OW14422   1.414   3.623   6.973
 4508SOL    HW114423   1.316   3.606   6.963
 4508SOL    HW214424   1.460   3.602   6.886
 4509SOL     OW14425   3.093   1.626   4.177
 4509SOL    HW114426   3.114   1.708   4.230
 4509SOL    HW214427   3.107   1.645   4.080
 4510SOL     OW14428   5.248   0.055   5.086
 4510SOL    HW114429   5.161   0.019   5.053
 4510SOL    HW214430   5.323   0.011   5.035
 4511SOL     OW14431   6.201   2.398   0.550
 4511SOL    HW114432   6.174   2.448   0.633
 4511SOL    HW214433   6.271   2.330   0.574
 4512SOL     OW14434   2.455   6.043   6.440
 4512SOL    HW114435   2.499   5.966   6.395
 4512SOL    HW214436   2.486   6.128   6.398
 4513SOL     OW14437   5.357   0.264   2.006
 4513SOL    HW114438   5.317   0.291   2.094
 4513SOL    HW214439   5.400   0.343   1.963
 4514SOL     OW14440   3.217   1.269   5.133
 4514SOL    HW114441   3.299   1.322   5.111
 4514SOL    HW214442   3.140   1.304   5.080
 4515SOL     OW14443   0.054   4.931   0.717
 4515SOL    HW114444   6.991   4.888   0.743
 4515SOL    HW214445   0.118   4.861   0.684
 4516SOL     OW14446   1.233   1.534   5.327
 4516SOL    HW114447   1.147   1.555   5.374
 4516SOL    HW214448   1.254   1.437   5.338
 4517SOL     OW14449   3.706   6.980   5.960
 4517SOL    HW114450   3.773   6.922   6.007
 4517SOL    HW214451   3.626   6.993   6.018
 4518SOL     OW14452   1.164   2.214   3.710
 4518SOL    HW114453   1.230   2.208   3.635
 4518SOL    HW214454   1.193   2.286   3.774
 4519SOL     OW14455   0.343   3.189   3.585
 4519SOL    HW114456   0.361   3.154   3.677
 4519SOL    HW214457   0.388   3.277   3.574
 4520SOL     OW14458   0.091   4.903   3.022
 4520SOL    HW114459   0.074   4.819   2.970
 4520SOL    HW214460   0.005   4.944   3.051
 4521SOL     OW14461   4.872   2.741   6.838
 4521SOL    HW114462   4.916   2.821   6.798
 4521SOL    HW214463   4.933   2.662   6.828
 4522SOL     OW14464   6.529   6.961   3.428
 4522SOL    HW114465   6.588   0.001   3.478
 4522SOL    HW214466   6.564   6.868   3.438
 4523SOL     OW14467   3.299   4.320   0.062
 4523SOL    HW114468   3.380   4.309   0.119
 4523SOL    HW214469   3.222   4.272   0.103
 4524SOL     OW14470   5.420   0.880   4.959
 4524SOL    HW114471   5.378   0.925   5.038
 4524SOL    HW214472   5.474   0.802   4.990
 4525SOL     OW14473   6.199   1.485   4.969
 4525SOL    HW114474   6.131   1.434   4.916
 4525SOL    HW214475   6.209   1.443   5.059
 4526SOL     OW14476   4.727   6.772   0.411
 4526SOL    HW114477   4.673   6.854   0.394
 4526SOL    HW214478   4.809   6.796   0.462
 4527SOL     OW14479   4.922   1.034   2.851
 4527SOL    HW114480   4.979   1.116   2.866
 4527SOL    HW214481   4.826   1.061   2.849
 4528SOL     OW14482   5.601   0.307   0.311
 4528SOL    HW114483   5.551   0.390   0.286
 4528SOL    HW214484   5.698   0.329   0.322
 4529SOL     OW14485   3.071   0.081   3.261
 4529SOL    HW114486   3.025   0.166   3.288
 4529SOL    HW214487   3.091   0.083   3.163
 4530SOL     OW14488   0.268   3.349   5.302
 4530SOL    HW114489   0.285   3.297   5.386
 4530SOL    HW214490   0.234   3.287   5.231
 4531SOL     OW14491   0.517   3.170   3.799
 4531SOL    HW114492   0.609   3.175   3.838
 4531SOL    HW214493   0.450   3.152   3.872
 4532SOL     OW14494   6.005   1.145   0.908
 4532SOL    HW114495   5.964   1.221   0.959
 4532SOL    HW214496   6.104   1.154   0.906
 4533SOL     OW14497   1.757   5.986   3.015
 4533SOL    HW114498   1.816   6.060   3.049
 4533SOL    HW214499   1.810   5.927   2.954
 4534SOL     OW14500   6.607   3.884   4.875
 4534SOL    HW114501   6.555   3.827   4.811
 4534SOL    HW214502   6.645   3.962   4.825
 4535SOL     OW14503   4.970   3.137   2.168
 4535SOL    HW114504   4.931   3.141   2.260
 4535SOL    HW214505   4.915   3.077   2.111
 4536SOL     OW14506   5.924   1.394   4.873
 4536SOL    HW114507   5.840   1.447   4.860
 4536SOL    HW214508   5.913   1.332   4.951
 4537SOL     OW14509   4.153   2.964   6.905
 4537SOL    HW114510   4.098   2.889   6.868
 4537SOL    HW214511   4.206   3.006   6.831
 4538SOL     OW14512   2.899   1.715   3.117
 4538SOL    HW114513   2.889   1.694   3.020
 4538SOL    HW214514   2.966   1.653   3.158
 4539SOL     OW14515   2.296   1.957   3.163
 4539SOL    HW114516   2.354   2.024   3.117
 4539SOL    HW214517   2.328   1.865   3.139
 4540SOL     OW14518   3.635   3.050   4.526
 4540SOL    HW114519   3.624   2.999   4.611
 4540SOL    HW214520   3.722   3.027   4.483
 4541SOL     OW14521   5.188   1.875   1.142
 4541SOL    HW114522   5.137   1.802   1.098
 4541SOL    HW214523   5.242   1.924   1.073
 4542SOL     OW14524   5.992   6.479   2.102
 4542SOL    HW114525   6.029   6.531   2.025
 4542SOL    HW214526   6.059   6.410   2.129
 4543SOL     OW14527   5.557   1.770   0.979
 4543SOL    HW114528   5.618   1.728   1.046
 4543SOL    HW214529   5.490   1.702   0.949
 4544SOL     OW14530   3.436   5.772   6.617
 4544SOL    HW114531   3.364   5.763   6.686
 4544SOL    HW214532   3.524   5.785   6.663
 4545SOL     OW14533   4.014   2.187   5.470
 4545SOL    HW114534   4.091   2.241   5.435
 4545SOL    HW214535   4.047   2.122   5.539
 4546SOL     OW14536   0.399   6.756   6.404
 4546SOL    HW114537   0.311   6.768   6.359
 4546SOL    HW214538   0.457   6.697   6.348
 4547SOL     OW14539   5.514   2.318   1.455
 4547SOL    HW114540   5.483   2.407   1.422
 4547SOL    HW214541   5.577   2.331   1.531
 4548SOL     OW14542   0.348   4.134   3.527
 4548SOL    HW114543   0.392   4.222   3.512
 4548SOL    HW214544   0.388   4.065   3.465
 4549SOL     OW14545   6.803   3.479   3.107
 4549SOL    HW114546   6.727   3.420   3.079
 4549SOL    HW214547   6.887   3.425   3.111
 4550SOL     OW14548   0.961   5.993   3.351
 4550SOL    HW114549   0.976   5.904   3.308
 4550SOL    HW214550   0.874   5.992   3.400
 4551SOL     OW14551   0.827   3.176   5.123
 4551SOL    HW114552   0.735   3.203   5.095
 4551SOL    HW214553   0.822   3.102   5.191
 4552SOL     OW14554   0.878   3.097   4.686
 4552SOL    HW114555   0.864   3.196   4.698
 4552SOL    HW214556   0.865   3.051   4.774
 4553SOL     OW14557   4.420   5.267   0.540
 4553SOL    HW114558   4.391   5.188   0.485
 4553SOL    HW214559   4.432   5.346   0.481
 4554SOL     OW14560   4.258   0.080   2.820
 4554SOL    HW114561   4.346   0.120   2.845
 4554SOL    HW214562   4.273   0.006   2.753
 4555SOL     OW14563   4.952   2.217   6.932
 4555SOL    HW114564   4.949   2.177   0.000
 4555SOL    HW214565   4.895   2.299   6.930
 4556SOL     OW14566   4.573   0.397   3.877
 4556SOL    HW114567   4.655   0.409   3.820
 4556SOL    HW214568   4.549   0.485   3.918
 4557SOL     OW14569   5.791   0.175   6.379
 4557SOL    HW114570   5.848   0.109   6.427
 4557SOL    HW214571   5.839   0.263   6.374
 4558SOL     OW14572   6.338   3.376   6.875
 4558SOL    HW114573   6.324   3.295   6.818
 4558SOL    HW214574   6.262   3.384   6.939
 4559SOL     OW14575   1.739   6.305   1.455
 4559SOL    HW114576   1.797   6.378   1.492
 4559SOL    HW214577   1.673   6.345   1.391
 4560SOL     OW14578   5.365   3.091   3.232
 4560SOL    HW114579   5.294   3.060   3.169
 4560SOL    HW214580   5.345   3.184   3.261
 4561SOL     OW14581   3.642   0.510   6.416
 4561SOL    HW114582   3.721   0.564   6.447
 4561SOL    HW214583   3.674   0.427   6.371
 4562SOL     OW14584   2.879   5.878   6.865
 4562SOL    HW114585   2.901   5.862   6.769
 4562SOL    HW214586   2.794   5.830   6.889
 4563SOL     OW14587   5.490   1.802   0.035
 4563SOL    HW114588   5.555   1.840   0.101
 4563SOL    HW214589   5.447   1.876   7.006
 4564SOL     OW14590   1.205   5.998   0.140
 4564SOL    HW114591   1.158   5.969   0.224
 4564SOL    HW214592   1.213   6.097   0.139
 4565SOL     OW14593   1.092   1.033   5.387
 4565SOL    HW114594   1.056   1.063   5.476
 4565SOL    HW214595   1.079   1.106   5.320
 4566SOL     OW14596   0.200   1.056   6.720
 4566SOL    HW114597   0.133   1.119   6.681
 4566SOL    HW214598   0.278   1.107   6.755
 4567SOL     OW14599   6.534   1.629   0.739
 4567SOL    HW114600   6.627   1.649   0.767
 4567SOL    HW214601   6.482   1.714   0.730
 4568SOL     OW14602   3.243   4.384   5.718
 4568SOL    HW114603   3.288   4.473   5.707
 4568SOL    HW214604   3.298   4.314   5.672
 4569SOL     OW14605   1.093   1.723   4.162
 4569SOL    HW114606   1.190   1.738   4.144
 4569SOL    HW214607   1.041   1.805   4.137
 4570SOL     OW14608   6.931   5.837   3.402
 4570SOL    HW114609   6.954   5.934   3.405
 4570SOL    HW214610   6.926   5.801   3.496
 4571SOL     OW14611   3.241   3.354   4.685
 4571SOL    HW114612   3.297   3.310   4.755
 4571SOL    HW214613   3.296   3.372   4.604
 4572SOL     OW14614   1.347   6.660   1.106
 4572SOL    HW114615   1.310   6.568   1.121
 4572SOL    HW214616   1.385   6.695   1.191
 4573SOL     OW14617   5.711   5.556   1.152
 4573SOL    HW114618   5.630   5.564   1.211
 4573SOL    HW214619   5.781   5.502   1.198
 4574SOL     OW14620   6.983   4.179   2.182
 4574SOL    HW114621   6.919   4.104   2.168
 4574SOL    HW214622   0.028   4.180   2.109
 4575SOL     OW14623   6.509   1.587   1.238
 4575SOL    HW114624   6.562   1.519   1.187
 4575SOL    HW214625   6.527   1.678   1.201
 4576SOL     OW14626   3.137   6.020   6.879
 4576SOL    HW114627   3.129   5.960   6.958
 4576SOL    HW214628   3.052   6.018   6.827
 4577SOL     OW14629   1.048   3.805   3.514
 4577SOL    HW114630   1.127   3.745   3.529
 4577SOL    HW214631   1.025   3.851   3.600
 4578SOL     OW14632   0.125   3.892   3.871
 4578SOL    HW114633   0.195   3.841   3.822
 4578SOL    HW214634   0.119   3.857   3.965
 4579SOL     OW14635   5.167   2.106   3.061
 4579SOL    HW114636   5.092   2.170   3.044
 4579SOL    HW214637   5.239   2.152   3.114
 4580SOL     OW14638   5.794   5.777   0.601
 4580SOL    HW114639   5.727   5.817   0.664
 4580SOL    HW214640   5.763   5.685   0.574
 4581SOL     OW14641   3.476   5.587   3.391
 4581SOL    HW114642   3.518   5.498   3.376
 4581SOL    HW214643   3.399   5.578   3.454
 4582SOL     OW14644   5.194   6.422   2.786
 4582SOL    HW114645   5.244   6.342   2.817
 4582SOL    HW214646   5.102   6.395   2.758
 4583SOL     OW14647   2.993   2.158   5.481
 4583SOL    HW114648   2.907   2.187   5.523
 4583SOL    HW214649   3.043   2.098   5.544
 4584SOL     OW14650   0.711   5.485   5.763
 4584SOL    HW114651   0.656   5.436   5.830
 4584SOL    HW214652   0.797   5.435   5.749
 4585SOL     OW14653   2.996   5.831   3.172
 4585SOL    HW114654   3.083   5.881   3.174
 4585SOL    HW214655   2.974   5.806   3.078
 4586SOL     OW14656   3.852   5.537   1.994
 4586SOL    HW114657   3.758   5.508   2.014
 4586SOL    HW214658   3.856   5.637   1.991
 4587SOL     OW14659   2.758   3.038   1.138
 4587SOL    HW114660   2.847   2.993   1.143
 4587SOL    HW214661   2.745   3.076   1.046
 4588SOL     OW14662   4.026   3.648   5.527
 4588SOL    HW114663   4.099   3.588   5.493
 4588SOL    HW214664   4.017   3.726   5.465
 4589SOL     OW14665   6.180   2.233   3.626
 4589SOL    HW114666   6.166   2.233   3.725
 4589SOL    HW214667   6.217   2.322   3.598
 4590SOL     OW14668   4.815   4.961   2.520
 4590SOL    HW114669   4.768   5.039   2.480
 4590SOL    HW214670   4.748   4.900   2.563
 4591SOL     OW14671   5.865   5.628   5.415
 4591SOL    HW114672   5.822   5.537   5.414
 4591SOL    HW214673   5.800   5.695   5.452
 4592SOL     OW14674   3.876   2.442   0.167
 4592SOL    HW114675   3.872   2.350   0.205
 4592SOL    HW214676   3.927   2.440   0.081
 4593SOL     OW14677   3.785   6.427   2.779
 4593SOL    HW114678   3.801   6.523   2.758
 4593SOL    HW214679   3.716   6.390   2.717
 4594SOL     OW14680   2.650   1.668   1.789
 4594SOL    HW114681   2.582   1.715   1.733
 4594SOL    HW214682   2.706   1.735   1.838
 4595SOL     OW14683   4.085   3.076   6.549
 4595SOL    HW114684   4.052   2.988   6.514
 4595SOL    HW214685   4.173   3.062   6.595
 4596SOL     OW14686   5.887   6.799   2.138
 4596SOL    HW114687   5.980   6.835   2.140
 4596SOL    HW214688   5.853   6.788   2.232
 4597SOL     OW14689   5.276   4.077   6.280
 4597SOL    HW114690   5.269   4.174   6.259
 4597SOL    HW214691   5.283   4.064   6.379
 4598SOL     OW14692   2.116   5.315   6.586
 4598SOL    HW114693   2.214   5.326   6.573
 4598SOL    HW214694   2.096   5.222   6.615
 4599SOL     OW14695   1.479   4.763   1.357
 4599SOL    HW114696   1.579   4.770   1.365
 4599SOL    HW214697   1.437   4.796   1.441
 4600SOL     OW14698   3.211   5.872   0.619
 4600SOL    HW114699   3.141   5.876   0.547
 4600SOL    HW214700   3.289   5.819   0.587
 4601SOL     OW14701   2.084   0.549   5.017
 4601SOL    HW114702   2.173   0.537   5.061
 4601SOL    HW214703   2.043   0.459   5.001
 4602SOL     OW14704   1.899   0.073   2.176
 4602SOL    HW114705   1.921   0.033   2.088
 4602SOL    HW214706   1.943   0.163   2.184
 4603SOL     OW14707   3.305   7.020   1.785
 4603SOL    HW114708   3.336   0.051   1.864
 4603SOL    HW214709   3.381   6.967   1.749
 4604SOL     OW14710   3.570   0.244   2.550
 4604SOL    HW114711   3.510   0.318   2.518
 4604SOL    HW214712   3.542   0.216   2.642
 4605SOL     OW14713   5.267   0.789   4.757
 4605SOL    HW114714   5.296   0.836   4.840
 4605SOL    HW214715   5.168   0.774   4.760
 4606SOL     OW14716   6.406   6.125   4.873
 4606SOL    HW114717   6.364   6.199   4.821
 4606SOL    HW214718   6.373   6.037   4.838
 4607SOL     OW14719   3.117   1.229   1.781
 4607SOL    HW114720   3.066   1.144   1.771
 4607SOL    HW214721   3.215   1.211   1.771
 4608SOL     OW14722   1.863   4.740   5.027
 4608SOL    HW114723   1.793   4.709   4.962
 4608SOL    HW214724   1.821   4.804   5.092
 4609SOL     OW14725   4.934   6.854   0.159
 4609SOL    HW114726   4.894   6.830   0.071
 4609SOL    HW214727   4.921   6.778   0.223
 4610SOL     OW14728   0.401   2.611   6.583
 4610SOL    HW114729   0.448   2.690   6.623
 4610SOL    HW214730   0.332   2.577   6.647
 4611SOL     OW14731   0.603   4.025   0.145
 4611SOL    HW114732   0.506   4.010   0.166
 4611SOL    HW214733   0.636   3.950   0.087
 4612SOL     OW14734   1.989   6.328   6.233
 4612SOL    HW114735   1.910   6.346   6.292
 4612SOL    HW214736   2.068   6.379   6.266
 4613SOL     OW14737   3.319   5.480   2.803
 4613SOL    HW114738   3.253   5.414   2.770
 4613SOL    HW214739   3.324   5.476   2.903
 4614SOL     OW14740   1.796   5.566   0.183
 4614SOL    HW114741   1.785   5.649   0.238
 4614SOL    HW214742   1.888   5.528   0.197
 4615SOL     OW14743   1.556   1.757   0.166
 4615SOL    HW114744   1.495   1.757   0.086
 4615SOL    HW214745   1.527   1.829   0.229
 4616SOL     OW14746   6.073   0.709   6.529
 4616SOL    HW114747   5.997   0.654   6.493
 4616SOL    HW214748   6.078   0.794   6.477
 4617SOL     OW14749   1.050   3.012   1.793
 4617SOL    HW114750   1.145   2.987   1.777
 4617SOL    HW214751   1.031   3.011   1.891
 4618SOL     OW14752   1.035   2.731   5.867
 4618SOL    HW114753   1.087   2.809   5.833
 4618SOL    HW214754   0.959   2.764   5.924
 4619SOL     OW14755   4.543   0.682   3.938
 4619SOL    HW114756   4.632   0.710   3.904
 4619SOL    HW214757   4.473   0.704   3.870
 4620SOL     OW14758   2.957   4.289   6.662
 4620SOL    HW114759   3.049   4.251   6.673
 4620SOL    HW214760   2.950   4.333   6.572
 4621SOL     OW14761   0.522   0.850   5.037
 4621SOL    HW114762   0.500   0.787   5.111
 4621SOL    HW214763   0.540   0.799   4.953
 4622SOL     OW14764   1.980   3.125   0.381
 4622SOL    HW114765   1.964   3.026   0.377
 4622SOL    HW214766   1.906   3.168   0.432
 4623SOL     OW14767   6.834   4.859   1.295
 4623SOL    HW114768   6.778   4.786   1.258
 4623SOL    HW214769   6.916   4.820   1.337
 4624SOL     OW14770   4.738   0.586   4.268
 4624SOL    HW114771   4.813   0.524   4.294
 4624SOL    HW214772   4.762   0.632   4.182
 4625SOL     OW14773   0.950   3.834   6.771
 4625SOL    HW114774   1.030   3.884   6.802
 4625SOL    HW214775   0.868   3.889   6.786
 4626SOL     OW14776   6.263   4.973   1.590
 4626SOL    HW114777   6.213   4.900   1.543
 4626SOL    HW214778   6.269   4.952   1.688
 4627SOL     OW14779   3.425   6.195   5.472
 4627SOL    HW114780   3.423   6.226   5.567
 4627SOL    HW214781   3.386   6.266   5.413
 4628SOL     OW14782   6.232   4.894   2.140
 4628SOL    HW114783   6.262   4.984   2.171
 4628SOL    HW214784   6.283   4.823   2.188
 4629SOL     OW14785   2.157   4.652   5.576
 4629SOL    HW114786   2.105   4.567   5.565
 4629SOL    HW214787   2.104   4.729   5.541
 4630SOL     OW14788   2.105   5.528   3.302
 4630SOL    HW114789   2.030   5.567   3.354
 4630SOL    HW214790   2.150   5.458   3.358
 4631SOL     OW14791   2.998   6.551   2.823
 4631SOL    HW114792   3.008   6.453   2.840
 4631SOL    HW214793   2.906   6.580   2.850
 4632SOL     OW14794   4.588   5.681   4.376
 4632SOL    HW114795   4.564   5.585   4.360
 4632SOL    HW214796   4.665   5.707   4.317
 4633SOL     OW14797   6.609   2.186   5.061
 4633SOL    HW114798   6.574   2.243   4.986
 4633SOL    HW214799   6.549   2.195   5.140
 4634SOL     OW14800   2.492   4.887   0.661
 4634SOL    HW114801   2.411   4.855   0.711
 4634SOL    HW214802   2.525   4.971   0.702
 4635SOL     OW14803   5.036   3.239   2.556
 4635SOL    HW114804   4.955   3.181   2.548
 4635SOL    HW214805   5.117   3.189   2.527
 4636SOL     OW14806   2.998   5.909   0.429
 4636SOL    HW114807   2.910   5.895   0.384
 4636SOL    HW214808   3.062   5.953   0.365
 4637SOL     OW14809   1.116   0.913   5.752
 4637SOL    HW114810   1.121   0.984   5.823
 4637SOL    HW214811   1.025   0.915   5.710
 4638SOL     OW14812   4.536   3.058   5.953
 4638SOL    HW114813   4.606   3.128   5.939
 4638SOL    HW214814   4.569   2.989   6.017
 4639SOL     OW14815   0.761   3.870   6.040
 4639SOL    HW114816   0.705   3.887   6.121
 4639SOL    HW214817   0.791   3.775   6.039
 4640SOL     OW14818   5.105   4.408   3.275
 4640SOL    HW114819   5.182   4.390   3.336
 4640SOL    HW214820   5.093   4.507   3.265
 4641SOL     OW14821   2.795   4.733   4.610
 4641SOL    HW114822   2.740   4.657   4.578
 4641SOL    HW214823   2.743   4.787   4.676
 4642SOL     OW14824   6.417   5.692   4.509
 4642SOL    HW114825   6.414   5.696   4.409
 4642SOL    HW214826   6.419   5.785   4.546
 4643SOL     OW14827   3.826   2.361   1.629
 4643SOL    HW114828   3.813   2.265   1.606
 4643SOL    HW214829   3.771   2.384   1.710
 4644SOL     OW14830   1.374   6.161   4.543
 4644SOL    HW114831   1.303   6.113   4.595
 4644SOL    HW214832   1.331   6.213   4.469
 4645SOL     OW14833   1.961   6.534   4.539
 4645SOL    HW114834   1.927   6.627   4.555
 4645SOL    HW214835   1.954   6.481   4.624
 4646SOL     OW14836   3.170   0.501   2.150
 4646SOL    HW114837   3.175   0.402   2.140
 4646SOL    HW214838   3.261   0.538   2.170
 4647SOL     OW14839   6.472   0.418   3.862
 4647SOL    HW114840   6.519   0.439   3.776
 4647SOL    HW214841   6.388   0.471   3.868
 4648SOL     OW14842   2.450   5.668   2.325
 4648SOL    HW114843   2.369   5.658   2.267
 4648SOL    HW214844   2.529   5.691   2.268
 4649SOL     OW14845   4.946   0.822   5.576
 4649SOL    HW114846   5.030   0.804   5.628
 4649SOL    HW214847   4.958   0.904   5.521
 4650SOL     OW14848   5.047   5.181   2.495
 4650SOL    HW114849   5.023   5.092   2.534
 4650SOL    HW214850   5.146   5.186   2.482
 4651SOL     OW14851   0.254   2.018   1.537
 4651SOL    HW114852   0.231   1.979   1.448
 4651SOL    HW214853   0.345   1.986   1.565
 4652SOL     OW14854   6.775   0.429   4.835
 4652SOL    HW114855   6.753   0.456   4.929
 4652SOL    HW214856   6.818   0.506   4.787
 4653SOL     OW14857   6.942   6.547   6.915
 4653SOL    HW114858   0.017   6.552   6.898
 4653SOL    HW214859   6.905   6.639   6.924
 4654SOL     OW14860   0.837   0.112   0.235
 4654SOL    HW114861   0.810   0.032   0.182
 4654SOL    HW214862   0.808   0.195   0.186
 4655SOL     OW14863   0.293   4.570   3.204
 4655SOL    HW114864   0.205   4.600   3.168
 4655SOL    HW214865   0.314   4.621   3.287
 4656SOL     OW14866   0.909   0.730   3.771
 4656SOL    HW114867   0.988   0.670   3.775
 4656SOL    HW214868   0.927   0.814   3.824
 4657SOL     OW14869   5.218   6.712   1.517
 4657SOL    HW114870   5.212   6.812   1.509
 4657SOL    HW214871   5.314   6.684   1.510
 4658SOL     OW14872   4.521   0.629   3.100
 4658SOL    HW114873   4.519   0.557   3.169
 4658SOL    HW214874   4.428   0.661   3.083
 4659SOL     OW14875   2.343   2.503   4.972
 4659SOL    HW114876   2.320   2.527   4.878
 4659SOL    HW214877   2.265   2.459   5.016
 4660SOL     OW14878   0.551   1.584   5.823
 4660SOL    HW114879   0.538   1.486   5.809
 4660SOL    HW214880   0.463   1.626   5.844
 4661SOL     OW14881   3.627   4.107   4.591
 4661SOL    HW114882   3.601   4.124   4.496
 4661SOL    HW214883   3.557   4.050   4.635
 4662SOL     OW14884   4.957   0.573   5.388
 4662SOL    HW114885   4.971   0.502   5.456
 4662SOL    HW214886   4.967   0.663   5.431
 4663SOL     OW14887   7.005   2.653   2.626
 4663SOL    HW114888   0.017   2.639   2.718
 4663SOL    HW214889   6.999   2.751   2.607
 4664SOL     OW14890   2.989   2.510   0.091
 4664SOL    HW114891   2.898   2.485   0.060
 4664SOL    HW214892   3.052   2.433   0.078
 4665SOL     OW14893   4.975   0.270   6.981
 4665SOL    HW114894   4.999   0.185   0.005
 4665SOL    HW214895   4.995   0.348   0.017
 4666SOL     OW14896   1.973   1.678   0.661
 4666SOL    HW114897   2.052   1.737   0.645
 4666SOL    HW214898   1.923   1.711   0.741
 4667SOL     OW14899   0.294   4.931   7.017
 4667SOL    HW114900   0.271   4.835   0.011
 4667SOL    HW214901   0.291   4.982   0.079
 4668SOL     OW14902   6.540   1.770   4.699
 4668SOL    HW114903   6.580   1.857   4.671
 4668SOL    HW214904   6.527   1.769   4.798
 4669SOL     OW14905   1.113   6.748   0.416
 4669SOL    HW114906   1.120   6.843   0.386
 4669SOL    HW214907   1.114   6.745   0.516
 4670SOL     OW14908   2.161   2.188   4.916
 4670SOL    HW114909   2.101   2.114   4.883
 4670SOL    HW214910   2.257   2.161   4.904
 4671SOL     OW14911   5.977   3.076   1.656
 4671SOL    HW114912   5.971   3.108   1.750
 4671SOL    HW214913   5.893   3.026   1.632
 4672SOL     OW14914   2.130   3.884   6.360
 4672SOL    HW114915   2.152   3.976   6.393
 4672SOL    HW214916   2.125   3.821   6.437
 4673SOL     OW14917   3.022   1.057   2.249
 4673SOL    HW114918   3.081   1.069   2.329
 4673SOL    HW214919   2.960   1.135   2.242
 4674SOL     OW14920   4.517   5.866   5.183
 4674SOL    HW114921   4.470   5.943   5.226
 4674SOL    HW214922   4.604   5.898   5.144
 4675SOL     OW14923   1.203   4.220   7.015
 4675SOL    HW114924   1.301   4.226   6.994
 4675SOL    HW214925   1.191   4.183   0.084
 4676SOL     OW14926   1.347   5.551   3.482
 4676SOL    HW114927   1.285   5.536   3.405
 4676SOL    HW214928   1.415   5.477   3.485
 4677SOL     OW14929   1.705   2.539   0.082
 4677SOL    HW114930   1.776   2.589   0.132
 4677SOL    HW214931   1.729   2.442   0.079
 4678SOL     OW14932   1.699   4.410   3.132
 4678SOL    HW114933   1.653   4.478   3.076
 4678SOL    HW214934   1.726   4.333   3.076
 4679SOL     OW14935   5.309   6.738   1.231
 4679SOL    HW114936   5.240   6.670   1.257
 4679SOL    HW214937   5.266   6.828   1.224
 4680SOL     OW14938   2.782   1.580   1.532
 4680SOL    HW114939   2.771   1.571   1.631
 4680SOL    HW214940   2.875   1.552   1.506
 4681SOL     OW14941   5.557   3.844   1.228
 4681SOL    HW114942   5.619   3.776   1.189
 4681SOL    HW214943   5.584   3.863   1.322
 4682SOL     OW14944   4.962   3.661   6.274
 4682SOL    HW114945   5.060   3.653   6.256
 4682SOL    HW214946   4.943   3.628   6.367
 4683SOL     OW14947   6.000   4.152   4.075
 4683SOL    HW114948   5.978   4.248   4.057
 4683SOL    HW214949   5.916   4.098   4.072
 4684SOL     OW14950   4.840   6.478   0.122
 4684SOL    HW114951   4.754   6.528   0.132
 4684SOL    HW214952   4.831   6.387   0.162
 4685SOL     OW14953   2.366   3.479   5.845
 4685SOL    HW114954   2.439   3.481   5.913
 4685SOL    HW214955   2.324   3.570   5.839
 4686SOL     OW14956   3.452   5.748   0.513
 4686SOL    HW114957   3.521   5.714   0.577
 4686SOL    HW214958   3.395   5.671   0.482
 4687SOL     OW14959   3.021   0.894   2.692
 4687SOL    HW114960   3.096   0.848   2.644
 4687SOL    HW214961   2.976   0.829   2.753
 4688SOL     OW14962   5.371   2.831   5.902
 4688SOL    HW114963   5.291   2.780   5.871
 4688SOL    HW214964   5.349   2.928   5.907
 4689SOL     OW14965   5.603   0.781   0.467
 4689SOL    HW114966   5.694   0.780   0.427
 4689SOL    HW214967   5.545   0.844   0.416
 4690SOL     OW14968   2.128   1.411   0.508
 4690SOL    HW114969   2.150   1.410   0.606
 4690SOL    HW214970   2.074   1.330   0.486
 4691SOL     OW14971   5.792   4.439   0.579
 4691SOL    HW114972   5.802   4.355   0.633
 4691SOL    HW214973   5.879   4.488   0.579
 4692SOL     OW14974   6.618   4.551   3.290
 4692SOL    HW114975   6.533   4.551   3.343
 4692SOL    HW214976   6.613   4.480   3.220
 4693SOL     OW14977   1.768   0.770   3.566
 4693SOL    HW114978   1.719   0.689   3.599
 4693SOL    HW214979   1.842   0.742   3.506
 4694SOL     OW14980   2.587   1.042   0.443
 4694SOL    HW114981   2.573   1.111   0.515
 4694SOL    HW214982   2.685   1.023   0.434
 4695SOL     OW14983   1.269   5.834   0.527
 4695SOL    HW114984   1.341   5.771   0.496
 4695SOL    HW214985   1.297   5.928   0.510
 4696SOL     OW14986   1.275   5.386   5.978
 4696SOL    HW114987   1.227   5.318   6.032
 4696SOL    HW214988   1.317   5.454   6.038
 4697SOL     OW14989   2.334   4.479   0.868
 4697SOL    HW114990   2.359   4.508   0.961
 4697SOL    HW214991   2.392   4.526   0.802
 4698SOL     OW14992   4.823   0.489   3.789
 4698SOL    HW114993   4.903   0.431   3.802
 4698SOL    HW214994   4.852   0.582   3.767
 4699SOL     OW14995   0.905   0.648   2.038
 4699SOL    HW114996   0.824   0.610   2.084
 4699SOL    HW214997   0.897   0.747   2.033
 4700SOL     OW14998   6.104   2.285   2.820
 4700SOL    HW114999   6.019   2.246   2.855
 4700SOL    HW215000   6.087   2.327   2.731
 4701SOL     OW15001   3.433   2.063   2.101
 4701SOL    HW115002   3.473   2.139   2.050
 4701SOL    HW215003   3.487   1.980   2.086
 4702SOL     OW15004   4.759   4.889   6.510
 4702SOL    HW115005   4.810   4.919   6.430
 4702SOL    HW215006   4.793   4.936   6.592
 4703SOL     OW15007   1.078   4.675   2.759
 4703SOL    HW115008   1.159   4.621   2.783
 4703SOL    HW215009   0.999   4.614   2.750
 4704SOL     OW15010   0.012   5.913   5.807
 4704SOL    HW115011   0.101   5.907   5.763
 4704SOL    HW215012   6.977   5.977   5.757
 4705SOL     OW15013   2.981   2.771   1.370
 4705SOL    HW115014   3.053   2.707   1.395
 4705SOL    HW215015   2.935   2.803   1.454
 4706SOL     OW15016   1.200   0.226   0.357
 4706SOL    HW115017   1.188   0.320   0.323
 4706SOL    HW215018   1.239   0.229   0.449
 4707SOL     OW15019   1.371   6.534   1.403
 4707SOL    HW115020   1.432   6.528   1.481
 4707SOL    HW215021   1.346   6.630   1.387
 4708SOL     OW15022   0.989   2.405   3.992
 4708SOL    HW115023   1.067   2.424   4.051
 4708SOL    HW215024   1.020   2.390   3.898
 4709SOL     OW15025   4.930   3.973   4.951
 4709SOL    HW115026   4.865   4.012   4.886
 4709SOL    HW215027   4.950   3.878   4.925
 4710SOL     OW15028   5.711   6.604   4.205
 4710SOL    HW115029   5.651   6.528   4.179
 4710SOL    HW215030   5.687   6.635   4.297
 4711SOL     OW15031   6.115   3.392   2.970
 4711SOL    HW115032   6.102   3.293   2.979
 4711SOL    HW215033   6.188   3.422   3.031
 4712SOL     OW15034   4.664   4.140   5.144
 4712SOL    HW115035   4.746   4.083   5.148
 4712SOL    HW215036   4.681   4.218   5.084
 4713SOL     OW15037   5.515   3.950   0.971
 4713SOL    HW115038   5.537   3.944   1.069
 4713SOL    HW215039   5.455   4.028   0.955
 4714SOL     OW15040   6.459   1.374   6.406
 4714SOL    HW115041   6.410   1.296   6.368
 4714SOL    HW215042   6.502   1.348   6.492
 4715SOL     OW15043   6.275   1.932   2.610
 4715SOL    HW115044   6.224   1.884   2.681
 4715SOL    HW215045   6.224   2.012   2.580
 4716SOL     OW15046   3.922   5.054   5.535
 4716SOL    HW115047   3.997   5.116   5.557
 4716SOL    HW215048   3.868   5.036   5.618
 4717SOL     OW15049   3.097   5.352   5.704
 4717SOL    HW115050   3.179   5.300   5.680
 4717SOL    HW215051   3.037   5.358   5.625
 4718SOL     OW15052   5.495   3.197   0.953
 4718SOL    HW115053   5.429   3.148   0.896
 4718SOL    HW215054   5.477   3.177   1.050
 4719SOL     OW15055   6.182   3.502   3.804
 4719SOL    HW115056   6.174   3.428   3.871
 4719SOL    HW215057   6.131   3.479   3.722
 4720SOL     OW15058   2.988   4.767   6.835
 4720SOL    HW115059   3.035   4.855   6.835
 4720SOL    HW215060   2.957   4.745   6.743
 4721SOL     OW15061   6.311   3.384   2.640
 4721SOL    HW115062   6.286   3.453   2.571
 4721SOL    HW215063   6.370   3.425   2.709
 4722SOL     OW15064   1.084   4.252   6.181
 4722SOL    HW115065   1.131   4.166   6.162
 4722SOL    HW215066   1.149   4.328   6.174
 4723SOL     OW15067   3.779   4.043   6.064
 4723SOL    HW115068   3.691   4.066   6.022
 4723SOL    HW215069   3.830   3.983   6.002
 4724SOL     OW15070   0.375   6.329   4.143
 4724SOL    HW115071   0.299   6.300   4.084
 4724SOL    HW215072   0.359   6.300   4.237
 4725SOL     OW15073   5.599   5.020   0.405
 4725SOL    HW115074   5.612   5.119   0.397
 4725SOL    HW215075   5.509   4.995   0.369
 4726SOL     OW15076   1.960   3.005   5.981
 4726SOL    HW115077   1.931   2.970   6.070
 4726SOL    HW215078   2.060   3.010   5.979
 4727SOL     OW15079   0.916   6.042   0.826
 4727SOL    HW115080   0.898   5.945   0.839
 4727SOL    HW215081   0.991   6.070   0.885
 4728SOL     OW15082   6.285   1.058   3.619
 4728SOL    HW115083   6.284   1.139   3.559
 4728SOL    HW215084   6.201   1.005   3.604
 4729SOL     OW15085   6.340   0.722   0.187
 4729SOL    HW115086   6.284   0.742   0.107
 4729SOL    HW215087   6.427   0.681   0.157
 4730SOL     OW15088   3.380   6.474   4.974
 4730SOL    HW115089   3.280   6.470   4.966
 4730SOL    HW215090   3.416   6.381   4.979
 4731SOL     OW15091   2.938   0.170   0.743
 4731SOL    HW115092   2.851   0.141   0.701
 4731SOL    HW215093   3.003   0.193   0.670
 4732SOL     OW15094   0.442   3.603   4.343
 4732SOL    HW115095   0.475   3.515   4.379
 4732SOL    HW215096   0.464   3.676   4.408
 4733SOL     OW15097   2.076   3.535   2.998
 4733SOL    HW115098   2.095   3.517   3.095
 4733SOL    HW215099   2.083   3.450   2.946
 4734SOL     OW15100   5.384   3.723   6.266
 4734SOL    HW115101   5.418   3.776   6.344
 4734SOL    HW215102   5.461   3.673   6.225
 4735SOL     OW15103   6.854   6.463   5.038
 4735SOL    HW115104   6.910   6.456   5.120
 4735SOL    HW215105   6.863   6.554   4.998
 4736SOL     OW15106   6.649   2.127   3.520
 4736SOL    HW115107   6.724   2.063   3.531
 4736SOL    HW215108   6.623   2.164   3.609
 4737SOL     OW15109   1.772   5.066   1.297
 4737SOL    HW115110   1.727   5.042   1.383
 4737SOL    HW215111   1.766   5.164   1.283
 4738SOL     OW15112   2.285   0.389   3.596
 4738SOL    HW115113   2.201   0.444   3.602
 4738SOL    HW215114   2.356   0.432   3.651
 4739SOL     OW15115   6.278   3.431   5.019
 4739SOL    HW115116   6.221   3.392   5.092
 4739SOL    HW215117   6.233   3.513   4.982
 4740SOL     OW15118   0.395   1.169   1.924
 4740SOL    HW115119   0.321   1.164   1.991
 4740SOL    HW215120   0.378   1.105   1.850
 4741SOL     OW15121   4.177   4.772   1.374
 4741SOL    HW115122   4.178   4.871   1.387
 4741SOL    HW215123   4.207   4.751   1.282
 4742SOL     OW15124   2.881   6.399   1.006
 4742SOL    HW115125   2.980   6.409   1.001
 4742SOL    HW215126   2.837   6.471   0.952
 4743SOL     OW15127   2.332   1.917   6.489
 4743SOL    HW115128   2.287   1.937   6.576
 4743SOL    HW215129   2.269   1.937   6.414
 4744SOL     OW15130   2.103   3.592   5.429
 4744SOL    HW115131   2.158   3.554   5.355
 4744SOL    HW215132   2.021   3.536   5.442
 4745SOL     OW15133   3.361   5.249   5.096
 4745SOL    HW115134   3.459   5.265   5.110
 4745SOL    HW215135   3.347   5.211   5.004
 4746SOL     OW15136   6.040   5.886   0.515
 4746SOL    HW115137   6.057   5.961   0.579
 4746SOL    HW215138   5.945   5.855   0.525
 4747SOL     OW15139   6.968   2.171   0.521
 4747SOL    HW115140   0.023   2.117   0.552
 4747SOL    HW215141   6.883   2.127   0.551
 4748SOL     OW15142   1.150   0.531   1.494
 4748SOL    HW115143   1.071   0.471   1.484
 4748SOL    HW215144   1.219   0.508   1.426
 4749SOL     OW15145   2.270   6.337   6.906
 4749SOL    HW115146   2.200   6.378   6.847
 4749SOL    HW215147   2.310   6.408   6.965
 4750SOL     OW15148   6.973   1.324   4.491
 4750SOL    HW115149   6.937   1.268   4.417
 4750SOL    HW215150   6.908   1.324   4.567
 4751SOL     OW15151   1.536   4.652   6.354
 4751SOL    HW115152   1.513   4.735   6.304
 4751SOL    HW215153   1.486   4.650   6.441
 4752SOL     OW15154   2.765   6.719   1.564
 4752SOL    HW115155   2.672   6.691   1.588
 4752SOL    HW215156   2.763   6.812   1.527
 4753SOL     OW15157   5.546   6.728   5.286
 4753SOL    HW115158   5.506   6.665   5.353
 4753SOL    HW215159   5.475   6.786   5.248
 4754SOL     OW15160   0.397   6.918   6.119
 4754SOL    HW115161   0.304   6.885   6.105
 4754SOL    HW215162   0.457   6.840   6.139
 4755SOL     OW15163   2.306   1.721   6.177
 4755SOL    HW115164   2.350   1.664   6.246
 4755SOL    HW215165   2.208   1.727   6.197
 4756SOL     OW15166   4.374   2.807   1.480
 4756SOL    HW115167   4.392   2.723   1.428
 4756SOL    HW215168   4.449   2.822   1.545
 4757SOL     OW15169   2.400   2.302   1.843
 4757SOL    HW115170   2.379   2.333   1.935
 4757SOL    HW215171   2.468   2.229   1.847
 4758SOL     OW15172   4.971   4.773   5.455
 4758SOL    HW115173   4.989   4.676   5.468
 4758SOL    HW215174   5.033   4.827   5.512
 4759SOL     OW15175   5.491   6.029   5.964
 4759SOL    HW115176   5.488   5.964   6.040
 4759SOL    HW215177   5.439   5.992   5.886
 4760SOL     OW15178   1.996   1.066   1.604
 4760SOL    HW115179   2.096   1.071   1.611
 4760SOL    HW215180   1.967   0.970   1.603
 4761SOL     OW15181   6.732   0.208   6.258
 4761SOL    HW115182   6.765   0.121   6.295
 4761SOL    HW215183   6.651   0.192   6.202
 4762SOL     OW15184   3.018   5.073   2.183
 4762SOL    HW115185   2.990   5.160   2.141
 4762SOL    HW215186   2.967   4.998   2.141
 4763SOL     OW15187   5.794   6.379   3.072
 4763SOL    HW115188   5.806   6.302   3.134
 4763SOL    HW215189   5.708   6.370   3.022
 4764SOL     OW15190   4.460   3.713   5.297
 4764SOL    HW115191   4.390   3.754   5.238
 4764SOL    HW215192   4.546   3.706   5.247
 4765SOL     OW15193   4.392   6.111   5.255
 4765SOL    HW115194   4.328   6.156   5.192
 4765SOL    HW215195   4.475   6.166   5.263
 4766SOL     OW15196   2.652   0.313   3.310
 4766SOL    HW115197   2.597   0.231   3.293
 4766SOL    HW215198   2.617   0.388   3.254
 4767SOL     OW15199   4.082   6.832   0.481
 4767SOL    HW115200   4.162   6.802   0.428
 4767SOL    HW215201   4.034   6.752   0.517
 4768SOL     OW15202   5.776   0.692   4.509
 4768SOL    HW115203   5.779   0.783   4.467
 4768SOL    HW215204   5.700   0.688   4.574
 4769SOL     OW15205   4.022   5.969   1.735
 4769SOL    HW115206   4.115   5.943   1.710
 4769SOL    HW215207   3.957   5.904   1.694
 4770SOL     OW15208   2.354   0.562   3.339
 4770SOL    HW115209   2.323   0.510   3.419
 4770SOL    HW215210   2.380   0.499   3.267
 4771SOL     OW15211   3.661   4.462   6.236
 4771SOL    HW115212   3.573   4.499   6.267
 4771SOL    HW215213   3.661   4.456   6.136
 4772SOL     OW15214   2.939   0.913   1.392
 4772SOL    HW115215   2.880   0.994   1.393
 4772SOL    HW215216   2.884   0.831   1.405
 4773SOL     OW15217   0.203   5.808   3.781
 4773SOL    HW115218   0.287   5.817   3.727
 4773SOL    HW215219   0.206   5.870   3.859
 4774SOL     OW15220   1.059   3.701   2.022
 4774SOL    HW115221   1.036   3.740   1.932
 4774SOL    HW215222   1.157   3.711   2.039
 4775SOL     OW15223   4.469   0.432   3.294
 4775SOL    HW115224   4.508   0.344   3.320
 4775SOL    HW215225   4.455   0.488   3.375
 4776SOL     OW15226   3.066   6.150   2.573
 4776SOL    HW115227   3.043   6.179   2.480
 4776SOL    HW215228   2.983   6.141   2.627
 4777SOL     OW15229   2.384   4.518   1.116
 4777SOL    HW115230   2.477   4.526   1.152
 4777SOL    HW215231   2.320   4.566   1.176
 4778SOL     OW15232   4.823   3.582   1.798
 4778SOL    HW115233   4.743   3.573   1.739
 4778SOL    HW215234   4.824   3.507   1.864
 4779SOL     OW15235   6.574   0.471   3.039
 4779SOL    HW115236   6.561   0.372   3.036
 4779SOL    HW215237   6.578   0.508   2.946
 4780SOL     OW15238   1.068   6.746   5.964
 4780SOL    HW115239   1.015   6.681   6.019
 4780SOL    HW215240   1.158   6.706   5.943
 4781SOL     OW15241   2.264   5.300   1.298
 4781SOL    HW115242   2.337   5.330   1.360
 4781SOL    HW215243   2.225   5.215   1.332
 4782SOL     OW15244   5.328   6.859   6.587
 4782SOL    HW115245   5.349   6.816   6.499
 4782SOL    HW215246   5.233   6.841   6.611
 4783SOL     OW15247   5.249   3.838   1.186
 4783SOL    HW115248   5.188   3.778   1.239
 4783SOL    HW215249   5.343   3.826   1.218
 4784SOL     OW15250   5.738   4.941   5.503
 4784SOL    HW115251   5.656   4.950   5.559
 4784SOL    HW215252   5.727   4.862   5.442
 4785SOL     OW15253   6.721   6.484   0.692
 4785SOL    HW115254   6.700   6.456   0.598
 4785SOL    HW215255   6.640   6.473   0.749
 4786SOL     OW15256   2.000   3.103   2.123
 4786SOL    HW115257   2.017   3.081   2.219
 4786SOL    HW215258   1.988   3.019   2.070
 4787SOL     OW15259   3.118   2.185   3.686
 4787SOL    HW115260   3.132   2.114   3.617
 4787SOL    HW215261   3.031   2.232   3.668
 4788SOL     OW15262   1.205   5.152   5.151
 4788SOL    HW115263   1.243   5.196   5.070
 4788SOL    HW215264   1.142   5.216   5.197
 4789SOL     OW15265   5.642   0.503   6.728
 4789SOL    HW115266   5.658   0.602   6.735
 4789SOL    HW215267   5.709   0.454   6.783
 4790SOL     OW15268   5.649   2.205   6.661
 4790SOL    HW115269   5.652   2.277   6.731
 4790SOL    HW215270   5.688   2.121   6.698
 4791SOL     OW15271   5.570   6.871   2.187
 4791SOL    HW115272   5.661   6.880   2.228
 4791SOL    HW215273   5.502   6.860   2.260
 4792SOL     OW15274   2.279   2.676   3.109
 4792SOL    HW115275   2.215   2.608   3.145
 4792SOL    HW215276   2.250   2.706   3.019
 4793SOL     OW15277   1.210   0.185   6.375
 4793SOL    HW115278   1.237   0.245   6.450
 4793SOL    HW215279   1.192   0.094   6.410
 4794SOL     OW15280   2.417   6.383   3.187
 4794SOL    HW115281   2.443   6.469   3.230
 4794SOL    HW215282   2.325   6.358   3.216
 4795SOL     OW15283   6.350   3.233   4.640
 4795SOL    HW115284   6.256   3.200   4.652
 4795SOL    HW215285   6.405   3.162   4.595
 4796SOL     OW15286   5.542   3.479   0.243
 4796SOL    HW115287   5.573   3.571   0.219
 4796SOL    HW215288   5.450   3.484   0.283
 4797SOL     OW15289   0.890   4.692   5.783
 4797SOL    HW115290   0.989   4.679   5.786
 4797SOL    HW215291   0.846   4.626   5.844
 4798SOL     OW15292   0.071   4.349   4.197
 4798SOL    HW115293   0.167   4.370   4.212
 4798SOL    HW215294   0.059   4.312   4.104
 4799SOL     OW15295   4.977   1.260   5.005
 4799SOL    HW115296   4.898   1.314   4.978
 4799SOL    HW215297   5.040   1.250   4.927
 4800SOL     OW15298   2.723   2.902   5.715
 4800SOL    HW115299   2.678   2.832   5.659
 4800SOL    HW215300   2.787   2.954   5.658
 4801SOL     OW15301   1.631   1.429   0.650
 4801SOL    HW115302   1.645   1.333   0.674
 4801SOL    HW215303   1.698   1.457   0.582
 4802SOL     OW15304   2.860   7.005   1.518
 4802SOL    HW115305   2.954   7.007   1.483
 4802SOL    HW215306   2.798   0.020   1.448
 4803SOL     OW15307   0.633   6.850   0.569
 4803SOL    HW115308   0.684   6.785   0.624
 4803SOL    HW215309   0.613   6.811   0.479
 4804SOL     OW15310   4.361   4.875   6.321
 4804SOL    HW115311   4.291   4.826   6.268
 4804SOL    HW215312   4.338   4.972   6.326
 4805SOL     OW15313   0.073   1.525   0.207
 4805SOL    HW115314   0.056   1.483   0.118
 4805SOL    HW215315   0.045   1.621   0.205
 4806SOL     OW15316   0.247   4.271   3.283
 4806SOL    HW115317   0.326   4.211   3.280
 4806SOL    HW215318   0.275   4.360   3.319
 4807SOL     OW15319   0.653   5.695   1.548
 4807SOL    HW115320   0.596   5.717   1.469
 4807SOL    HW215321   0.596   5.655   1.620
 4808SOL     OW15322   5.242   3.418   1.695
 4808SOL    HW115323   5.219   3.383   1.604
 4808SOL    HW215324   5.205   3.357   1.765
 4809SOL     OW15325   3.271   5.187   0.021
 4809SOL    HW115326   3.352   5.213   0.072
 4809SOL    HW215327   3.259   5.249   6.966
 4810SOL     OW15328   0.838   5.541   1.402
 4810SOL    HW115329   0.780   5.610   1.445
 4810SOL    HW215330   0.927   5.539   1.447
 4811SOL     OW15331   3.585   5.330   2.028
 4811SOL    HW115332   3.562   5.294   2.119
 4811SOL    HW215333   3.667   5.284   1.993
 4812SOL     OW15334   0.092   5.318   3.950
 4812SOL    HW115335   0.018   5.356   4.005
 4812SOL    HW215336   0.178   5.322   4.002
 4813SOL     OW15337   4.808   1.571   2.149
 4813SOL    HW115338   4.770   1.661   2.171
 4813SOL    HW215339   4.847   1.530   2.232
 4814SOL     OW15340   6.992   3.818   1.114
 4814SOL    HW115341   6.964   3.732   1.070
 4814SOL    HW215342   6.922   3.888   1.098
 4815SOL     OW15343   4.437   5.561   1.585
 4815SOL    HW115344   4.476   5.473   1.615
 4815SOL    HW215345   4.504   5.634   1.601
 4816SOL     OW15346   5.581   5.080   2.552
 4816SOL    HW115347   5.482   5.087   2.540
 4816SOL    HW215348   5.626   5.098   2.464
 4817SOL     OW15349   1.413   2.502   5.677
 4817SOL    HW115350   1.341   2.440   5.708
 4817SOL    HW215351   1.424   2.576   5.744
 4818SOL     OW15352   0.021   7.019   3.827
 4818SOL    HW115353   7.002   0.075   3.874
 4818SOL    HW215354   0.010   0.007   3.728
 4819SOL     OW15355   1.458   3.096   6.848
 4819SOL    HW115356   1.528   3.167   6.838
 4819SOL    HW215357   1.495   3.009   6.815
 4820SOL     OW15358   6.771   3.495   2.462
 4820SOL    HW115359   6.683   3.514   2.416
 4820SOL    HW215360   6.844   3.492   2.394
 4821SOL     OW15361   6.810   6.051   2.320
 4821SOL    HW115362   6.779   5.996   2.242
 4821SOL    HW215363   6.744   6.124   2.337
 4822SOL     OW15364   1.213   4.016   4.145
 4822SOL    HW115365   1.126   4.018   4.195
 4822SOL    HW215366   1.282   3.971   4.201
 4823SOL     OW15367   1.615   2.743   2.049
 4823SOL    HW115368   1.624   2.644   2.037
 4823SOL    HW215369   1.652   2.770   2.138
 4824SOL     OW15370   5.353   0.207   5.270
 4824SOL    HW115371   5.313   0.285   5.319
 4824SOL    HW215372   5.281   0.154   5.226
 4825SOL     OW15373   1.183   0.633   4.526
 4825SOL    HW115374   1.113   0.674   4.467
 4825SOL    HW215375   1.263   0.693   4.530
 4826SOL     OW15376   4.518   0.343   1.584
 4826SOL    HW115377   4.592   0.325   1.649
 4826SOL    HW215378   4.557   0.365   1.495
 4827SOL     OW15379   6.920   1.884   1.042
 4827SOL    HW115380   6.934   1.970   0.993
 4827SOL    HW215381   6.920   1.901   1.140
 4828SOL     OW15382   4.692   0.645   2.342
 4828SOL    HW115383   4.663   0.677   2.432
 4828SOL    HW215384   4.792   0.642   2.339
 4829SOL     OW15385   3.630   6.884   5.724
 4829SOL    HW115386   3.665   6.932   5.806
 4829SOL    HW215387   3.675   6.922   5.643
 4830SOL     OW15388   3.357   5.544   3.661
 4830SOL    HW115389   3.304   5.629   3.658
 4830SOL    HW215390   3.303   5.474   3.708
 4831SOL     OW15391   3.559   5.058   6.123
 4831SOL    HW115392   3.531   5.137   6.177
 4831SOL    HW215393   3.483   5.026   6.067
 4832SOL     OW15394   2.987   3.407   4.653
 4832SOL    HW115395   3.084   3.388   4.671
 4832SOL    HW215396   2.954   3.347   4.580
 4833SOL     OW15397   6.234   2.797   4.777
 4833SOL    HW115398   6.216   2.719   4.838
 4833SOL    HW215399   6.224   2.882   4.828
 4834SOL     OW15400   2.085   5.607   1.822
 4834SOL    HW115401   1.997   5.625   1.866
 4834SOL    HW215402   2.074   5.607   1.723
 4835SOL     OW15403   0.082   3.152   5.144
 4835SOL    HW115404   0.100   3.067   5.192
 4835SOL    HW215405   0.002   3.197   5.184
 4836SOL     OW15406   5.130   1.155   4.763
 4836SOL    HW115407   5.091   1.062   4.763
 4836SOL    HW215408   5.189   1.166   4.683
 4837SOL     OW15409   6.964   3.594   4.379
 4837SOL    HW115410   6.969   3.527   4.452
 4837SOL    HW215411   0.008   3.571   4.308
 4838SOL     OW15412   1.247   4.477   6.138
 4838SOL    HW115413   1.198   4.561   6.162
 4838SOL    HW215414   1.313   4.455   6.209
 4839SOL     OW15415   2.320   2.157   0.739
 4839SOL    HW115416   2.250   2.196   0.799
 4839SOL    HW215417   2.405   2.146   0.789
 4840SOL     OW15418   5.546   3.051   5.453
 4840SOL    HW115419   5.518   3.051   5.357
 4840SOL    HW215420   5.641   3.022   5.460
 4841SOL     OW15421   2.999   5.373   3.214
 4841SOL    HW115422   3.085   5.411   3.247
 4841SOL    HW215423   2.925   5.398   3.277
 4842SOL     OW15424   2.637   5.418   3.019
 4842SOL    HW115425   2.552   5.465   2.994
 4842SOL    HW215426   2.620   5.357   3.096
 4843SOL     OW15427   0.384   2.503   2.560
 4843SOL    HW115428   0.341   2.593   2.564
 4843SOL    HW215429   0.347   2.451   2.483
 4844SOL     OW15430   1.141   5.498   5.263
 4844SOL    HW115431   1.201   5.538   5.194
 4844SOL    HW215432   1.053   5.546   5.263
 4845SOL     OW15433   4.748   4.132   4.777
 4845SOL    HW115434   4.655   4.154   4.806
 4845SOL    HW215435   4.799   4.216   4.760
 4846SOL     OW15436   6.914   3.704   5.262
 4846SOL    HW115437   6.943   3.707   5.166
 4846SOL    HW215438   6.968   3.636   5.312
 4847SOL     OW15439   2.607   6.180   5.918
 4847SOL    HW115440   2.539   6.137   5.858
 4847SOL    HW215441   2.585   6.158   6.013
 4848SOL     OW15442   2.646   0.797   4.077
 4848SOL    HW115443   2.697   0.733   4.020
 4848SOL    HW215444   2.629   0.881   4.026
 4849SOL     OW15445   1.892   6.521   1.532
 4849SOL    HW115446   1.875   6.619   1.528
 4849SOL    HW215447   1.932   6.498   1.621
 4850SOL     OW15448   4.862   0.754   0.527
 4850SOL    HW115449   4.941   0.704   0.564
 4850SOL    HW215450   4.839   0.830   0.587
 4851SOL     OW15451   3.687   5.682   6.802
 4851SOL    HW115452   3.761   5.651   6.744
 4851SOL    HW215453   3.710   5.667   6.898
 4852SOL     OW15454   4.508   5.105   5.138
 4852SOL    HW115455   4.437   5.101   5.069
 4852SOL    HW215456   4.575   5.175   5.113
 4853SOL     OW15457   4.087   1.169   3.229
 4853SOL    HW115458   4.030   1.121   3.162
 4853SOL    HW215459   4.120   1.255   3.190
 4854SOL     OW15460   6.188   6.256   1.560
 4854SOL    HW115461   6.230   6.181   1.612
 4854SOL    HW215462   6.090   6.258   1.578
 4855SOL     OW15463   6.382   4.956   4.477
 4855SOL    HW115464   6.370   4.868   4.523
 4855SOL    HW215465   6.475   4.962   4.439
 4856SOL     OW15466   0.076   3.780   3.174
 4856SOL    HW115467   0.092   3.878   3.162
 4856SOL    HW215468   0.163   3.732   3.182
 4857SOL     OW15469   2.656   1.935   4.230
 4857SOL    HW115470   2.751   1.963   4.248
 4857SOL    HW215471   2.631   1.862   4.293
 4858SOL     OW15472   0.371   6.142   4.626
 4858SOL    HW115473   0.467   6.139   4.598
 4858SOL    HW215474   0.362   6.196   4.709
 4859SOL     OW15475   0.685   6.035   2.320
 4859SOL    HW115476   0.671   5.968   2.246
 4859SOL    HW215477   0.597   6.060   2.360
 4860SOL     OW15478   5.030   5.555   0.726
 4860SOL    HW115479   4.956   5.623   0.722
 4860SOL    HW215480   5.093   5.580   0.799
 4861SOL     OW15481   0.578   4.761   6.587
 4861SOL    HW115482   0.618   4.736   6.675
 4861SOL    HW215483   0.644   4.743   6.514
 4862SOL     OW15484   2.863   4.725   5.339
 4862SOL    HW115485   2.909   4.665   5.275
 4862SOL    HW215486   2.820   4.671   5.411
 4863SOL     OW15487   4.362   2.355   2.956
 4863SOL    HW115488   4.455   2.331   2.987
 4863SOL    HW215489   4.295   2.303   3.010
 4864SOL     OW15490   2.719   1.068   1.899
 4864SOL    HW115491   2.808   1.070   1.853
 4864SOL    HW215492   2.693   1.162   1.924
 4865SOL     OW15493   3.746   5.826   5.486
 4865SOL    HW115494   3.793   5.743   5.455
 4865SOL    HW215495   3.720   5.815   5.582
 4866SOL     OW15496   5.729   4.534   1.241
 4866SOL    HW115497   5.724   4.633   1.230
 4866SOL    HW215498   5.807   4.511   1.299
 4867SOL     OW15499   5.071   5.926   2.467
 4867SOL    HW115500   5.026   5.875   2.540
 4867SOL    HW215501   5.106   6.013   2.504
 4868SOL     OW15502   0.293   5.652   1.136
 4868SOL    HW115503   0.326   5.650   1.230
 4868SOL    HW215504   0.200   5.690   1.134
 4869SOL     OW15505   0.046   1.430   6.977
 4869SOL    HW115506   0.113   1.424   6.904
 4869SOL    HW215507   7.015   1.346   6.980
 4870SOL     OW15508   5.564   6.602   2.318
 4870SOL    HW115509   5.580   6.521   2.374
 4870SOL    HW215510   5.595   6.585   2.225
 4871SOL     OW15511   1.392   3.241   3.802
 4871SOL    HW115512   1.374   3.316   3.866
 4871SOL    HW215513   1.333   3.251   3.722
 4872SOL     OW15514   1.401   0.512   2.574
 4872SOL    HW115515   1.495   0.514   2.540
 4872SOL    HW215516   1.368   0.605   2.588
 4873SOL     OW15517   7.012   5.625   5.253
 4873SOL    HW115518   0.066   5.677   5.216
 4873SOL    HW215519   0.024   5.547   5.307
 4874SOL     OW15520   5.343   3.337   3.294
 4874SOL    HW115521   5.429   3.380   3.267
 4874SOL    HW215522   5.267   3.398   3.271
 4875SOL     OW15523   5.777   1.905   0.824
 4875SOL    HW115524   5.851   1.921   0.889
 4875SOL    HW215525   5.692   1.888   0.874
 4876SOL     OW15526   0.369   1.537   0.061
 4876SOL    HW115527   0.354   1.535   6.985
 4876SOL    HW215528   0.342   1.627   0.096
 4877SOL     OW15529   6.298   0.953   1.377
 4877SOL    HW115530   6.227   1.023   1.382
 4877SOL    HW215531   6.259   0.868   1.341
 4878SOL     OW15532   6.733   1.866   1.879
 4878SOL    HW115533   6.736   1.769   1.854
 4878SOL    HW215534   6.809   1.887   1.940
 4879SOL     OW15535   4.481   5.395   3.510
 4879SOL    HW115536   4.426   5.319   3.544
 4879SOL    HW215537   4.529   5.367   3.426
 4880SOL     OW15538   5.850   1.574   6.543
 4880SOL    HW115539   5.851   1.652   6.481
 4880SOL    HW215540   5.913   1.503   6.509
 4881SOL     OW15541   3.729   6.188   6.443
 4881SOL    HW115542   3.629   6.188   6.444
 4881SOL    HW215543   3.763   6.126   6.513
 4882SOL     OW15544   5.761   0.579   5.715
 4882SOL    HW115545   5.693   0.564   5.643
 4882SOL    HW215546   5.841   0.522   5.698
 4883SOL     OW15547   6.724   4.518   1.883
 4883SOL    HW115548   6.706   4.617   1.882
 4883SOL    HW215549   6.798   4.498   1.947
 4884SOL     OW15550   3.500   6.337   1.860
 4884SOL    HW115551   3.417   6.339   1.804
 4884SOL    HW215552   3.475   6.351   1.956
 4885SOL     OW15553   1.822   6.799   1.529
 4885SOL    HW115554   1.818   6.830   1.624
 4885SOL    HW215555   1.896   6.846   1.482
 4886SOL     OW15556   6.571   0.609   0.059
 4886SOL    HW115557   6.620   0.532   0.019
 4886SOL    HW215558   6.632   0.659   0.120
 4887SOL     OW15559   0.223   2.304   3.627
 4887SOL    HW115560   0.298   2.331   3.687
 4887SOL    HW215561   0.251   2.224   3.574
 4888SOL     OW15562   2.384   5.859   2.728
 4888SOL    HW115563   2.346   5.813   2.648
 4888SOL    HW215564   2.385   5.795   2.805
 4889SOL     OW15565   1.143   1.787   0.393
 4889SOL    HW115566   1.204   1.718   0.430
 4889SOL    HW215567   1.196   1.855   0.342
 4890SOL     OW15568   1.300   0.906   4.570
 4890SOL    HW115569   1.396   0.915   4.545
 4890SOL    HW215570   1.258   0.997   4.577
 4891SOL     OW15571   0.814   4.889   0.531
 4891SOL    HW115572   0.834   4.969   0.475
 4891SOL    HW215573   0.899   4.840   0.552
 4892SOL     OW15574   0.587   5.735   0.774
 4892SOL    HW115575   0.551   5.761   0.685
 4892SOL    HW215576   0.534   5.780   0.846
 4893SOL     OW15577   0.650   3.267   6.422
 4893SOL    HW115578   0.629   3.324   6.342
 4893SOL    HW215579   0.740   3.293   6.458
 4894SOL     OW15580   2.167   1.285   3.282
 4894SOL    HW115581   2.084   1.312   3.331
 4894SOL    HW215582   2.149   1.202   3.229
 4895SOL     OW15583   0.870   2.788   0.197
 4895SOL    HW115584   0.899   2.710   0.252
 4895SOL    HW215585   0.907   2.872   0.237
 4896SOL     OW15586   3.545   4.909   5.110
 4896SOL    HW115587   3.449   4.882   5.111
 4896SOL    HW215588   3.562   4.968   5.031
 4897SOL     OW15589   3.883   5.757   6.510
 4897SOL    HW115590   3.860   5.659   6.513
 4897SOL    HW215591   3.910   5.781   6.417
 4898SOL     OW15592   5.381   1.749   5.201
 4898SOL    HW115593   5.412   1.758   5.106
 4898SOL    HW215594   5.358   1.840   5.237
 4899SOL     OW15595   5.927   4.463   3.691
 4899SOL    HW115596   5.856   4.407   3.733
 4899SOL    HW215597   5.970   4.413   3.616
 4900SOL     OW15598   0.958   6.834   5.453
 4900SOL    HW115599   0.979   6.777   5.374
 4900SOL    HW215600   1.038   6.888   5.478
 4901SOL     OW15601   0.847   6.741   3.925
 4901SOL    HW115602   0.926   6.802   3.920
 4901SOL    HW215603   0.811   6.740   4.019
 4902SOL     OW15604   2.098   4.686   1.675
 4902SOL    HW115605   2.137   4.634   1.599
 4902SOL    HW215606   2.172   4.723   1.731
 4903SOL     OW15607   4.909   0.257   6.722
 4903SOL    HW115608   4.929   0.241   6.819
 4903SOL    HW215609   4.825   0.209   6.697
 4904SOL     OW15610   2.600   6.050   4.238
 4904SOL    HW115611   2.557   6.068   4.327
 4904SOL    HW215612   2.697   6.071   4.243
 4905SOL     OW15613   4.819   3.178   1.731
 4905SOL    HW115614   4.745   3.123   1.769
 4905SOL    HW215615   4.879   3.208   1.805
 4906SOL     OW15616   4.831   0.458   0.198
 4906SOL    HW115617   4.847   0.391   0.271
 4906SOL    HW215618   4.778   0.414   0.125
 4907SOL     OW15619   3.427   0.828   3.795
 4907SOL    HW115620   3.420   0.734   3.761
 4907SOL    HW215621   3.380   0.836   3.883
 4908SOL     OW15622   3.527   6.539   6.899
 4908SOL    HW115623   3.599   6.553   6.966
 4908SOL    HW215624   3.549   6.459   6.843
 4909SOL     OW15625   6.336   6.490   5.374
 4909SOL    HW115626   6.430   6.523   5.372
 4909SOL    HW215627   6.331   6.400   5.330
 4910SOL     OW15628   5.696   0.376   4.897
 4910SOL    HW115629   5.659   0.359   4.806
 4910SOL    HW215630   5.651   0.317   4.963
 4911SOL     OW15631   6.851   2.699   6.124
 4911SOL    HW115632   6.779   2.721   6.190
 4911SOL    HW215633   6.940   2.714   6.165
 4912SOL     OW15634   3.172   2.158   2.385
 4912SOL    HW115635   3.105   2.122   2.320
 4912SOL    HW215636   3.264   2.147   2.348
 4913SOL     OW15637   3.491   4.173   3.215
 4913SOL    HW115638   3.528   4.144   3.303
 4913SOL    HW215639   3.563   4.170   3.146
 4914SOL     OW15640   2.521   6.491   3.486
 4914SOL    HW115641   2.510   6.565   3.420
 4914SOL    HW215642   2.616   6.484   3.513
 4915SOL     OW15643   3.698   5.898   4.031
 4915SOL    HW115644   3.645   5.838   4.091
 4915SOL    HW215645   3.774   5.847   3.991
 4916SOL     OW15646   2.167   1.594   2.601
 4916SOL    HW115647   2.197   1.650   2.679
 4916SOL    HW215648   2.192   1.640   2.516
 4917SOL     OW15649   1.966   4.781   1.153
 4917SOL    HW115650   1.989   4.684   1.165
 4917SOL    HW215651   2.051   4.835   1.153
 4918SOL     OW15652   2.428   0.319   2.198
 4918SOL    HW115653   2.478   0.235   2.178
 4918SOL    HW215654   2.414   0.370   2.113
 4919SOL     OW15655   2.390   2.648   1.938
 4919SOL    HW115656   2.478   2.623   1.899
 4919SOL    HW215657   2.333   2.566   1.948
 4920SOL     OW15658   4.344   0.665   0.582
 4920SOL    HW115659   4.322   0.628   0.672
 4920SOL    HW215660   4.302   0.756   0.573
 4921SOL     OW15661   1.188   4.558   1.662
 4921SOL    HW115662   1.180   4.657   1.657
 4921SOL    HW215663   1.142   4.525   1.744
 4922SOL     OW15664   1.749   2.943   5.123
 4922SOL    HW115665   1.802   3.006   5.065
 4922SOL    HW215666   1.775   2.957   5.219
 4923SOL     OW15667   4.900   0.914   1.408
 4923SOL    HW115668   4.889   0.830   1.355
 4923SOL    HW215669   4.980   0.906   1.468
 4924SOL     OW15670   0.673   4.160   4.677
 4924SOL    HW115671   0.710   4.068   4.675
 4924SOL    HW215672   0.573   4.155   4.683
 4925SOL     OW15673   4.900   6.214   6.880
 4925SOL    HW115674   4.872   6.309   6.893
 4925SOL    HW215675   4.994   6.202   6.914
 4926SOL     OW15676   4.819   2.671   1.770
 4926SOL    HW115677   4.753   2.652   1.843
 4926SOL    HW215678   4.772   2.669   1.682
 4927SOL     OW15679   3.407   2.878   3.474
 4927SOL    HW115680   3.399   2.819   3.555
 4927SOL    HW215681   3.503   2.889   3.451
 4928SOL     OW15682   0.472   5.927   6.931
 4928SOL    HW115683   0.437   5.870   7.006
 4928SOL    HW215684   0.526   5.870   6.869
 4929SOL     OW15685   1.036   5.281   4.308
 4929SOL    HW115686   1.057   5.326   4.221
 4929SOL    HW215687   1.117   5.283   4.367
 4930SOL     OW15688   0.481   2.080   0.872
 4930SOL    HW115689   0.486   2.051   0.967
 4930SOL    HW215690   0.542   2.158   0.857
 4931SOL     OW15691   0.387   0.890   0.302
 4931SOL    HW115692   0.303   0.887   0.248
 4931SOL    HW215693   0.458   0.938   0.251
 4932SOL     OW15694   2.647   2.180   1.470
 4932SOL    HW115695   2.744   2.203   1.480
 4932SOL    HW215696   2.592   2.262   1.490
 4933SOL     OW15697   2.640   1.050   4.001
 4933SOL    HW115698   2.637   1.095   4.090
 4933SOL    HW215699   2.646   1.119   3.929
 4934SOL     OW15700   1.025   6.176   4.488
 4934SOL    HW115701   0.980   6.110   4.426
 4934SOL    HW215702   0.957   6.212   4.552
 4935SOL     OW15703   1.216   0.807   6.959
 4935SOL    HW115704   1.273   0.888   6.973
 4935SOL    HW215705   1.120   0.833   6.964
 4936SOL     OW15706   3.851   5.483   1.081
 4936SOL    HW115707   3.761   5.472   1.123
 4936SOL    HW215708   3.885   5.394   1.051
 4937SOL     OW15709   0.793   2.765   5.974
 4937SOL    HW115710   0.792   2.802   5.881
 4937SOL    HW215711   0.761   2.835   6.038
 4938SOL     OW15712   3.370   4.476   1.682
 4938SOL    HW115713   3.410   4.550   1.736
 4938SOL    HW215714   3.328   4.514   1.599
 4939SOL     OW15715   1.477   1.930   1.477
 4939SOL    HW115716   1.484   1.872   1.396
 4939SOL    HW215717   1.463   2.025   1.449
 4940SOL     OW15718   0.454   2.992   4.147
 4940SOL    HW115719   0.440   2.897   4.120
 4940SOL    HW215720   0.551   3.007   4.169
 4941SOL     OW15721   3.876   2.438   5.299
 4941SOL    HW115722   3.812   2.515   5.296
 4941SOL    HW215723   3.954   2.457   5.240
 4942SOL     OW15724   5.845   2.117   3.908
 4942SOL    HW115725   5.843   2.173   3.825
 4942SOL    HW215726   5.864   2.022   3.885
 4943SOL     OW15727   5.616   3.000   6.530
 4943SOL    HW115728   5.635   3.061   6.453
 4943SOL    HW215729   5.664   2.914   6.517
 4944SOL     OW15730   1.604   5.562   1.181
 4944SOL    HW115731   1.505   5.569   1.191
 4944SOL    HW215732   1.646   5.653   1.187
 4945SOL     OW15733   2.187   0.805   5.362
 4945SOL    HW115734   2.258   0.777   5.297
 4945SOL    HW215735   2.132   0.878   5.322
 4946SOL     OW15736   1.938   5.233   0.341
 4946SOL    HW115737   1.973   5.311   0.289
 4946SOL    HW215738   1.971   5.238   0.435
 4947SOL     OW15739   1.832   0.745   1.361
 4947SOL    HW115740   1.910   0.792   1.319
 4947SOL    HW215741   1.791   0.803   1.430
 4948SOL     OW15742   1.544   2.511   1.691
 4948SOL    HW115743   1.488   2.569   1.631
 4948SOL    HW215744   1.636   2.505   1.655
 4949SOL     OW15745   6.789   3.578   6.944
 4949SOL    HW115746   6.794   3.478   6.940
 4949SOL    HW215747   6.724   3.610   6.875
 4950SOL     OW15748   2.081   4.220   5.356
 4950SOL    HW115749   2.160   4.280   5.372
 4950SOL    HW215750   2.114   4.130   5.327
 4951SOL     OW15751   5.284   5.796   3.463
 4951SOL    HW115752   5.340   5.763   3.387
 4951SOL    HW215753   5.278   5.725   3.533
 4952SOL     OW15754   0.765   6.423   5.590
 4952SOL    HW115755   0.675   6.438   5.550
 4952SOL    HW215756   0.781   6.489   5.665
 4953SOL     OW15757   1.387   2.256   4.745
 4953SOL    HW115758   1.308   2.281   4.689
 4953SOL    HW215759   1.445   2.192   4.694
 4954SOL     OW15760   3.098   4.052   4.822
 4954SOL    HW115761   3.063   4.145   4.824
 4954SOL    HW215762   3.027   3.988   4.854
 4955SOL     OW15763   3.147   5.869   0.140
 4955SOL    HW115764   3.082   5.795   0.153
 4955SOL    HW215765   3.203   5.879   0.223
 4956SOL     OW15766   2.420   7.022   4.981
 4956SOL    HW115767   2.385   0.085   5.017
 4956SOL    HW215768   2.480   0.018   4.902
 4957SOL     OW15769   6.485   4.349   6.992
 4957SOL    HW115770   6.523   4.341   0.061
 4957SOL    HW215771   6.551   4.396   6.933
 4958SOL     OW15772   2.696   6.730   0.328
 4958SOL    HW115773   2.669   6.665   0.257
 4958SOL    HW215774   2.776   6.781   0.299
 4959SOL     OW15775   0.436   3.287   2.105
 4959SOL    HW115776   0.395   3.202   2.071
 4959SOL    HW215777   0.503   3.320   2.039
 4960SOL     OW15778   3.985   5.586   4.560
 4960SOL    HW115779   4.000   5.588   4.659
 4960SOL    HW215780   4.065   5.624   4.513
 4961SOL     OW15781   3.749   1.136   0.683
 4961SOL    HW115782   3.653   1.116   0.661
 4961SOL    HW215783   3.780   1.075   0.755
 4962SOL     OW15784   1.040   4.204   1.413
 4962SOL    HW115785   1.081   4.294   1.431
 4962SOL    HW215786   1.076   4.167   1.328
 4963SOL     OW15787   0.911   3.885   6.320
 4963SOL    HW115788   0.977   3.908   6.249
 4963SOL    HW215789   0.822   3.925   6.298
 4964SOL     OW15790   2.799   6.775   4.713
 4964SOL    HW115791   2.700   6.774   4.723
 4964SOL    HW215792   2.840   6.825   4.789
 4965SOL     OW15793   1.435   6.283   2.887
 4965SOL    HW115794   1.438   6.222   2.966
 4965SOL    HW215795   1.491   6.363   2.904
 4966SOL     OW15796   3.722   6.053   4.269
 4966SOL    HW115797   3.707   5.995   4.188
 4966SOL    HW215798   3.729   5.995   4.350
 4967SOL     OW15799   4.074   4.692   5.610
 4967SOL    HW115800   4.137   4.754   5.656
 4967SOL    HW215801   4.026   4.741   5.538
 4968SOL     OW15802   0.280   1.682   4.092
 4968SOL    HW115803   0.232   1.660   4.177
 4968SOL    HW215804   0.372   1.714   4.114
 4969SOL     OW15805   0.498   6.021   2.906
 4969SOL    HW115806   0.516   5.935   2.954
 4969SOL    HW215807   0.409   6.057   2.934
 4970SOL     OW15808   1.567   1.445   1.676
 4970SOL    HW115809   1.562   1.347   1.696
 4970SOL    HW215810   1.656   1.480   1.702
 4971SOL     OW15811   6.421   6.377   2.851
 4971SOL    HW115812   6.481   6.445   2.809
 4971SOL    HW215813   6.442   6.370   2.949
 4972SOL     OW15814   1.561   3.982   1.230
 4972SOL    HW115815   1.488   4.003   1.295
 4972SOL    HW215816   1.589   3.887   1.241
 4973SOL     OW15817   0.124   0.612   1.133
 4973SOL    HW115818   0.221   0.628   1.154
 4973SOL    HW215819   0.116   0.554   1.052
 4974SOL     OW15820   3.837   4.875   5.147
 4974SOL    HW115821   3.738   4.881   5.134
 4974SOL    HW215822   3.879   4.959   5.114
 4975SOL     OW15823   6.210   3.152   0.445
 4975SOL    HW115824   6.196   3.140   0.543
 4975SOL    HW215825   6.143   3.217   0.410
 4976SOL     OW15826   1.436   6.687   4.317
 4976SOL    HW115827   1.483   6.635   4.246
 4976SOL    HW215828   1.370   6.749   4.275
 4977SOL     OW15829   2.553   5.036   6.395
 4977SOL    HW115830   2.648   5.067   6.392
 4977SOL    HW215831   2.535   4.977   6.316
 4978SOL     OW15832   5.259   4.242   4.876
 4978SOL    HW115833   5.207   4.294   4.944
 4978SOL    HW215834   5.246   4.145   4.892
 4979SOL     OW15835   1.551   6.706   6.482
 4979SOL    HW115836   1.641   6.703   6.438
 4979SOL    HW215837   1.559   6.676   6.577
 4980SOL     OW15838   6.177   4.159   2.867
 4980SOL    HW115839   6.118   4.102   2.809
 4980SOL    HW215840   6.235   4.100   2.923
 4981SOL     OW15841   3.757   5.030   1.964
 4981SOL    HW115842   3.849   5.029   1.924
 4981SOL    HW215843   3.723   4.937   1.973
 4982SOL     OW15844   4.532   1.056   6.707
 4982SOL    HW115845   4.488   1.037   6.620
 4982SOL    HW215846   4.589   1.137   6.699
 4983SOL     OW15847   6.571   5.763   2.988
 4983SOL    HW115848   6.620   5.692   2.936
 4983SOL    HW215849   6.488   5.789   2.938
 4984SOL     OW15850   4.857   4.641   2.573
 4984SOL    HW115851   4.927   4.632   2.644
 4984SOL    HW215852   4.774   4.681   2.613
 4985SOL     OW15853   5.900   5.337   2.882
 4985SOL    HW115854   5.885   5.305   2.976
 4985SOL    HW215855   5.811   5.353   2.838
 4986SOL     OW15856   0.958   5.143   2.014
 4986SOL    HW115857   1.000   5.208   2.077
 4986SOL    HW215858   0.888   5.090   2.061
 4987SOL     OW15859   0.975   0.359   2.204
 4987SOL    HW115860   1.064   0.399   2.226
 4987SOL    HW215861   0.910   0.432   2.181
 4988SOL     OW15862   6.048   6.778   3.073
 4988SOL    HW115863   5.980   6.723   3.121
 4988SOL    HW215864   6.094   6.838   3.139
 4989SOL     OW15865   4.376   1.341   2.282
 4989SOL    HW115866   4.472   1.336   2.255
 4989SOL    HW215867   4.369   1.319   2.380
 4990SOL     OW15868   4.842   1.499   5.427
 4990SOL    HW115869   4.911   1.544   5.371
 4990SOL    HW215870   4.879   1.483   5.519
 4991SOL     OW15871   0.609   5.662   5.064
 4991SOL    HW115872   0.630   5.584   5.005
 4991SOL    HW215873   0.538   5.637   5.129
 4992SOL     OW15874   6.857   1.592   3.343
 4992SOL    HW115875   6.933   1.622   3.401
 4992SOL    HW215876   6.771   1.627   3.380
 4993SOL     OW15877   4.520   5.967   4.801
 4993SOL    HW115878   4.548   5.872   4.786
 4993SOL    HW215879   4.459   5.996   4.728
 4994SOL     OW15880   3.029   5.138   5.871
 4994SOL    HW115881   3.122   5.175   5.872
 4994SOL    HW215882   3.000   5.124   5.776
 4995SOL     OW15883   0.627   0.788   4.742
 4995SOL    HW115884   0.681   0.719   4.789
 4995SOL    HW215885   0.619   0.764   4.646
 4996SOL     OW15886   6.762   1.333   4.661
 4996SOL    HW115887   6.756   1.264   4.733
 4996SOL    HW215888   6.757   1.424   4.702
 4997SOL     OW15889   3.172   1.923   1.496
 4997SOL    HW115890   3.210   1.880   1.414
 4997SOL    HW215891   3.178   2.023   1.487
 4998SOL     OW15892   1.292   2.903   4.065
 4998SOL    HW115893   1.326   2.963   4.138
 4998SOL    HW215894   1.259   2.959   3.989
 4999SOL     OW15895   0.804   3.935   4.747
 4999SOL    HW115896   0.783   3.924   4.844
 4999SOL    HW215897   0.864   3.860   4.717
 5000SOL     OW15898   2.980   5.892   3.510
 5000SOL    HW115899   2.976   5.976   3.456
 5000SOL    HW215900   2.960   5.813   3.451
 5001SOL     OW15901   0.968   5.532   2.867
 5001SOL    HW115902   1.063   5.523   2.896
 5001SOL    HW215903   0.909   5.484   2.932
 5002SOL     OW15904   0.746   3.856   3.032
 5002SOL    HW115905   0.824   3.917   3.022
 5002SOL    HW215906   0.756   3.803   3.117
 5003SOL     OW15907   4.171   6.012   3.636
 5003SOL    HW115908   4.089   6.011   3.693
 5003SOL    HW215909   4.180   6.101   3.593
 5004SOL     OW15910   2.846   6.301   6.263
 5004SOL    HW115911   2.830   6.360   6.184
 5004SOL    HW215912   2.945   6.289   6.276
 5005SOL     OW15913   2.809   3.120   6.114
 5005SOL    HW115914   2.755   3.117   6.030
 5005SOL    HW215915   2.880   3.049   6.111
 5006SOL     OW15916   5.295   1.744   1.898
 5006SOL    HW115917   5.230   1.729   1.972
 5006SOL    HW215918   5.256   1.809   1.833
 5007SOL     OW15919   6.289   0.322   1.462
 5007SOL    HW115920   6.198   0.360   1.473
 5007SOL    HW215921   6.357   0.388   1.492
 5008SOL     OW15922   6.274   6.708   1.430
 5008SOL    HW115923   6.305   6.801   1.411
 5008SOL    HW215924   6.345   6.643   1.404
 5009SOL     OW15925   1.319   2.441   0.612
 5009SOL    HW115926   1.412   2.478   0.610
 5009SOL    HW215927   1.293   2.412   0.520
 5010SOL     OW15928   3.727   2.936   0.457
 5010SOL    HW115929   3.810   2.887   0.483
 5010SOL    HW215930   3.672   2.879   0.397
 5011SOL     OW15931   2.253   3.790   0.154
 5011SOL    HW115932   2.349   3.782   0.128
 5011SOL    HW215933   2.232   3.885   0.176
 5012SOL     OW15934   5.886   1.870   5.580
 5012SOL    HW115935   5.819   1.822   5.523
 5012SOL    HW215936   5.951   1.803   5.618
 5013SOL     OW15937   6.309   0.198   5.671
 5013SOL    HW115938   6.266   0.109   5.655
 5013SOL    HW215939   6.407   0.192   5.653
 5014SOL     OW15940   6.544   3.152   1.651
 5014SOL    HW115941   6.619   3.159   1.585
 5014SOL    HW215942   6.456   3.150   1.602
 5015SOL     OW15943   6.050   0.414   4.306
 5015SOL    HW115944   6.046   0.480   4.231
 5015SOL    HW215945   6.014   0.457   4.389
 5016SOL     OW15946   1.299   3.396   4.790
 5016SOL    HW115947   1.276   3.320   4.730
 5016SOL    HW215948   1.344   3.468   4.738
 5017SOL     OW15949   0.717   2.287   1.066
 5017SOL    HW115950   0.778   2.364   1.084
 5017SOL    HW215951   0.638   2.291   1.128
 5018SOL     OW15952   0.643   5.238   1.694
 5018SOL    HW115953   0.603   5.330   1.696
 5018SOL    HW215954   0.583   5.175   1.743
 5019SOL     OW15955   1.425   5.318   5.328
 5019SOL    HW115956   1.495   5.309   5.399
 5019SOL    HW215957   1.335   5.307   5.368
 5020SOL     OW15958   0.207   6.711   4.480
 5020SOL    HW115959   0.221   6.807   4.453
 5020SOL    HW215960   0.194   6.655   4.399
 5021SOL     OW15961   2.046   0.884   0.863
 5021SOL    HW115962   2.084   0.940   0.789
 5021SOL    HW215963   2.110   0.810   0.884
 5022SOL     OW15964   0.460   3.192   1.438
 5022SOL    HW115965   0.416   3.112   1.480
 5022SOL    HW215966   0.544   3.163   1.393
 5023SOL     OW15967   0.573   4.264   1.998
 5023SOL    HW115968   0.555   4.356   1.964
 5023SOL    HW215969   0.671   4.252   2.014
 5024SOL     OW15970   5.214   3.769   1.577
 5024SOL    HW115971   5.181   3.718   1.498
 5024SOL    HW215972   5.308   3.742   1.597
 5025SOL     OW15973   4.062   1.521   3.926
 5025SOL    HW115974   4.136   1.551   3.987
 5025SOL    HW215975   4.038   1.597   3.865
 5026SOL     OW15976   5.917   5.929   5.009
 5026SOL    HW115977   5.834   5.984   5.017
 5026SOL    HW215978   5.973   5.941   5.092
 5027SOL     OW15979   4.800   0.742   0.254
 5027SOL    HW115980   4.807   0.751   0.353
 5027SOL    HW215981   4.825   0.649   0.227
 5028SOL     OW15982   0.096   2.305   2.626
 5028SOL    HW115983   0.186   2.346   2.641
 5028SOL    HW215984   0.051   2.351   2.549
 5029SOL     OW15985   6.362   2.484   1.995
 5029SOL    HW115986   6.387   2.581   2.006
 5029SOL    HW215987   6.272   2.478   1.954
 5030SOL     OW15988   0.043   5.312   6.510
 5030SOL    HW115989   0.025   5.273   6.420
 5030SOL    HW215990   7.005   5.390   6.526
 5031SOL     OW15991   0.028   0.920   5.246
 5031SOL    HW115992   0.030   1.002   5.188
 5031SOL    HW215993   0.007   0.840   5.190
 5032SOL     OW15994   3.657   2.412   5.713
 5032SOL    HW115995   3.617   2.350   5.646
 5032SOL    HW215996   3.751   2.435   5.686
 5033SOL     OW15997   2.042   1.237   0.717
 5033SOL    HW115998   1.962   1.291   0.746
 5033SOL    HW215999   2.011   1.159   0.664
 5034SOL     OW16000   4.620   6.214   4.043
 5034SOL    HW116001   4.553   6.195   4.115
 5034SOL    HW216002   4.574   6.216   3.955
 5035SOL     OW16003   0.452   4.427   4.598
 5035SOL    HW116004   0.479   4.426   4.502
 5035SOL    HW216005   0.352   4.423   4.605
 5036SOL     OW16006   6.300   3.967   5.294
 5036SOL    HW116007   6.377   3.939   5.238
 5036SOL    HW216008   6.217   3.921   5.263
 5037SOL     OW16009   4.142   4.360   1.352
 5037SOL    HW116010   4.177   4.357   1.446
 5037SOL    HW216011   4.045   4.336   1.352
 5038SOL     OW16012   3.393   3.370   4.454
 5038SOL    HW116013   3.467   3.437   4.449
 5038SOL    HW216014   3.410   3.297   4.388
 5039SOL     OW16015   2.128   3.272   6.236
 5039SOL    HW116016   2.226   3.292   6.240
 5039SOL    HW216017   2.090   3.310   6.152
 5040SOL     OW16018   1.190   4.730   5.451
 5040SOL    HW116019   1.258   4.772   5.511
 5040SOL    HW216020   1.192   4.775   5.362
 5041SOL     OW16021   0.659   3.418   1.949
 5041SOL    HW116022   0.724   3.450   2.016
 5041SOL    HW216023   0.700   3.346   1.893
 5042SOL     OW16024   0.154   3.950   6.296
 5042SOL    HW116025   0.163   3.998   6.209
 5042SOL    HW216026   0.178   4.013   6.371
 5043SOL     OW16027   4.008   0.752   0.588
 5043SOL    HW116028   4.094   0.800   0.567
 5043SOL    HW216029   3.999   0.742   0.687
 5044SOL     OW16030   6.819   5.527   0.531
 5044SOL    HW116031   6.866   5.448   0.493
 5044SOL    HW216032   6.741   5.551   0.473
 5045SOL     OW16033   6.141   4.230   6.397
 5045SOL    HW116034   6.122   4.322   6.432
 5045SOL    HW216035   6.240   4.217   6.390
 5046SOL     OW16036   3.470   3.476   3.712
 5046SOL    HW116037   3.386   3.432   3.679
 5046SOL    HW216038   3.486   3.560   3.660
 5047SOL     OW16039   1.763   3.559   3.025
 5047SOL    HW116040   1.774   3.655   3.049
 5047SOL    HW216041   1.833   3.505   3.071
 5048SOL     OW16042   1.933   1.059   5.411
 5048SOL    HW116043   1.957   1.069   5.507
 5048SOL    HW216044   1.833   1.058   5.401
 5049SOL     OW16045   6.130   0.885   6.031
 5049SOL    HW116046   6.081   0.970   6.012
 5049SOL    HW216047   6.071   0.807   6.010
 5050SOL     OW16048   2.067   1.049   0.114
 5050SOL    HW116049   1.985   1.030   0.168
 5050SOL    HW216050   2.055   1.135   0.064
 5051SOL     OW16051   3.543   4.571   1.383
 5051SOL    HW116052   3.449   4.593   1.357
 5051SOL    HW216053   3.604   4.587   1.306
 5052SOL     OW16054   3.244   2.051   5.548
 5052SOL    HW116055   3.323   1.990   5.558
 5052SOL    HW216056   3.245   2.091   5.456
 5053SOL     OW16057   0.504   5.189   2.496
 5053SOL    HW116058   0.499   5.232   2.406
 5053SOL    HW216059   0.443   5.111   2.500
 5054SOL     OW16060   3.844   4.405   5.587
 5054SOL    HW116061   3.922   4.354   5.552
 5054SOL    HW216062   3.767   4.342   5.602
 5055SOL     OW16063   6.934   3.533   6.335
 5055SOL    HW116064   7.009   3.504   6.275
 5055SOL    HW216065   6.948   3.628   6.363
 5056SOL     OW16066   5.242   3.976   4.930
 5056SOL    HW116067   5.236   3.888   4.976
 5056SOL    HW216068   5.338   3.996   4.907
 5057SOL     OW16069   0.988   6.953   2.223
 5057SOL    HW116070   0.935   6.871   2.247
 5057SOL    HW216071   0.998   7.010   2.304
 5058SOL     OW16072   3.258   5.005   6.667
 5058SOL    HW116073   3.316   4.967   6.738
 5058SOL    HW216074   3.313   5.021   6.584
 5059SOL     OW16075   0.182   6.893   2.697
 5059SOL    HW116076   0.202   6.861   2.790
 5059SOL    HW216077   0.150   6.816   2.642
 5060SOL     OW16078   6.461   2.059   6.194
 5060SOL    HW116079   6.492   2.044   6.287
 5060SOL    HW216080   6.415   1.977   6.159
 5061SOL     OW16081   4.506   2.977   0.107
 5061SOL    HW116082   4.505   3.062   0.159
 5061SOL    HW216083   4.415   2.936   0.109
 5062SOL     OW16084   0.574   0.082   1.620
 5062SOL    HW116085   0.482   0.122   1.616
 5062SOL    HW216086   0.609   0.088   1.713
 5063SOL     OW16087   0.643   6.709   2.063
 5063SOL    HW116088   0.630   6.697   2.162
 5063SOL    HW216089   0.610   6.800   2.036
 5064SOL     OW16090   4.696   2.989   0.699
 5064SOL    HW116091   4.654   3.003   0.609
 5064SOL    HW216092   4.706   3.077   0.746
 5065SOL     OW16093   2.675   6.951   5.359
 5065SOL    HW116094   2.614   6.873   5.357
 5065SOL    HW216095   2.769   6.921   5.339
 5066SOL     OW16096   5.582   3.944   1.506
 5066SOL    HW116097   5.484   3.966   1.504
 5066SOL    HW216098   5.623   3.978   1.590
 5067SOL     OW16099   5.212   1.306   0.016
 5067SOL    HW116100   5.300   1.281   7.000
 5067SOL    HW216101   5.226   1.371   0.091
 5068SOL     OW16102   3.061   4.612   0.620
 5068SOL    HW116103   3.035   4.546   0.550
 5068SOL    HW216104   2.980   4.665   0.648
 5069SOL     OW16105   0.894   4.634   3.018
 5069SOL    HW116106   0.939   4.628   2.929
 5069SOL    HW216107   0.822   4.564   3.024
 5070SOL     OW16108   4.920   3.314   4.138
 5070SOL    HW116109   4.921   3.359   4.228
 5070SOL    HW216110   4.882   3.377   4.071
 5071SOL     OW16111   4.337   2.039   5.345
 5071SOL    HW116112   4.401   1.964   5.328
 5071SOL    HW216113   4.334   2.058   5.443
 5072SOL     OW16114   0.008   4.571   0.911
 5072SOL    HW116115   7.018   4.483   0.865
 5072SOL    HW216116   0.003   4.645   0.844
 5073SOL     OW16117   6.569   6.889   1.943
 5073SOL    HW116118   6.547   6.856   2.035
 5073SOL    HW216119   6.500   6.854   1.878
 5074SOL     OW16120   3.202   4.096   6.769
 5074SOL    HW116121   3.133   4.092   6.841
 5074SOL    HW216122   3.216   4.004   6.732
 5075SOL     OW16123   0.074   6.415   5.638
 5075SOL    HW116124   0.122   6.440   5.554
 5075SOL    HW216125   0.096   6.321   5.662
 5076SOL     OW16126   3.122   0.476   0.536
 5076SOL    HW116127   3.131   0.379   0.515
 5076SOL    HW216128   3.181   0.499   0.614
 5077SOL     OW16129   1.397   2.482   3.774
 5077SOL    HW116130   1.455   2.549   3.821
 5077SOL    HW216131   1.423   2.478   3.678
 5078SOL     OW16132   1.562   1.775   4.376
 5078SOL    HW116133   1.654   1.759   4.412
 5078SOL    HW216134   1.495   1.763   4.449
 5079SOL     OW16135   3.302   5.168   5.854
 5079SOL    HW116136   3.308   5.069   5.865
 5079SOL    HW216137   3.334   5.193   5.763
 5080SOL     OW16138   5.802   6.688   5.228
 5080SOL    HW116139   5.702   6.682   5.230
 5080SOL    HW216140   5.840   6.606   5.187
 5081SOL     OW16141   3.309   3.487   3.393
 5081SOL    HW116142   3.325   3.542   3.311
 5081SOL    HW216143   3.305   3.548   3.473
 5082SOL     OW16144   5.312   5.944   5.754
 5082SOL    HW116145   5.305   5.853   5.796
 5082SOL    HW216146   5.221   5.984   5.747
 5083SOL     OW16147   1.395   6.461   2.072
 5083SOL    HW116148   1.310   6.486   2.119
 5083SOL    HW216149   1.374   6.436   1.977
 5084SOL     OW16150   1.210   5.292   3.768
 5084SOL    HW116151   1.235   5.199   3.792
 5084SOL    HW216152   1.291   5.351   3.772
 5085SOL     OW16153   5.696   1.346   6.824
 5085SOL    HW116154   5.742   1.296   6.750
 5085SOL    HW216155   5.748   1.427   6.848
 5086SOL     OW16156   6.588   4.739   3.586
 5086SOL    HW116157   6.601   4.763   3.682
 5086SOL    HW216158   6.498   4.696   3.574
 5087SOL     OW16159   6.659   5.632   4.790
 5087SOL    HW116160   6.563   5.616   4.772
 5087SOL    HW216161   6.678   5.731   4.784
 5088SOL     OW16162   6.089   0.632   5.641
 5088SOL    HW116163   6.075   0.558   5.707
 5088SOL    HW216164   6.010   0.694   5.642
 5089SOL     OW16165   6.169   2.987   2.740
 5089SOL    HW116166   6.238   2.916   2.753
 5089SOL    HW216167   6.188   3.037   2.655
 5090SOL     OW16168   2.239   4.893   1.198
 5090SOL    HW116169   2.211   4.953   1.273
 5090SOL    HW216170   2.229   4.798   1.227
 5091SOL     OW16171   1.280   6.305   2.596
 5091SOL    HW116172   1.304   6.234   2.530
 5091SOL    HW216173   1.324   6.391   2.570
 5092SOL     OW16174   3.540   1.992   0.785
 5092SOL    HW116175   3.601   2.013   0.862
 5092SOL    HW216176   3.570   2.043   0.704
 5093SOL     OW16177   1.253   1.773   2.149
 5093SOL    HW116178   1.299   1.823   2.076
 5093SOL    HW216179   1.180   1.717   2.110
 5094SOL     OW16180   0.801   6.161   4.938
 5094SOL    HW116181   0.828   6.159   5.034
 5094SOL    HW216182   0.720   6.104   4.925
 5095SOL     OW16183   1.934   0.332   4.952
 5095SOL    HW116184   2.023   0.299   4.921
 5095SOL    HW216185   1.868   0.325   4.878
 5096SOL     OW16186   5.038   3.479   1.060
 5096SOL    HW116187   4.942   3.506   1.049
 5096SOL    HW216188   5.092   3.514   0.984
 5097SOL     OW16189   1.805   6.904   5.678
 5097SOL    HW116190   1.837   6.993   5.708
 5097SOL    HW216191   1.775   6.850   5.757
 5098SOL     OW16192   0.583   1.593   2.504
 5098SOL    HW116193   0.484   1.591   2.519
 5098SOL    HW216194   0.630   1.586   2.591
 5099SOL     OW16195   1.088   0.083   5.131
 5099SOL    HW116196   1.040   0.122   5.210
 5099SOL    HW216197   1.138   0.001   5.159
 5100SOL     OW16198   5.812   6.368   7.007
 5100SOL    HW116199   5.855   6.285   6.972
 5100SOL    HW216200   5.857   6.448   6.967
 5101SOL     OW16201   4.439   6.471   0.004
 5101SOL    HW116202   4.483   6.528   0.074
 5101SOL    HW216203   4.493   6.474   6.943
 5102SOL     OW16204   4.674   0.361   5.136
 5102SOL    HW116205   4.695   0.451   5.172
 5102SOL    HW216206   4.577   0.340   5.153
 5103SOL     OW16207   0.531   0.948   4.012
 5103SOL    HW116208   0.569   1.016   4.074
 5103SOL    HW216209   0.595   0.931   3.937
 5104SOL     OW16210   1.752   1.026   1.902
 5104SOL    HW116211   1.764   1.110   1.849
 5104SOL    HW216212   1.799   1.035   1.989
 5105SOL     OW16213   3.773   3.945   6.659
 5105SOL    HW116214   3.833   4.024   6.642
 5105SOL    HW216215   3.679   3.978   6.675
 5106SOL     OW16216   3.538   0.138   2.828
 5106SOL    HW116217   3.539   0.134   2.928
 5106SOL    HW216218   3.455   0.095   2.794
 5107SOL     OW16219   2.807   6.980   6.268
 5107SOL    HW116220   2.871   7.009   6.197
 5107SOL    HW216221   2.722   0.009   6.260
 5108SOL     OW16222   2.871   3.543   4.070
 5108SOL    HW116223   2.799   3.545   4.000
 5108SOL    HW216224   2.948   3.599   4.039
 5109SOL     OW16225   0.584   0.860   1.099
 5109SOL    HW116226   0.570   0.896   1.007
 5109SOL    HW216227   0.668   0.899   1.137
 5110SOL     OW16228   1.656   6.131   5.406
 5110SOL    HW116229   1.732   6.196   5.401
 5110SOL    HW216230   1.601   6.137   5.324
 5111SOL     OW16231   1.611   1.210   6.558
 5111SOL    HW116232   1.603   1.168   6.468
 5111SOL    HW216233   1.542   1.282   6.568
 5112SOL     OW16234   0.454   6.125   3.867
 5112SOL    HW116235   0.544   6.119   3.910
 5112SOL    HW216236   0.383   6.099   3.933
 5113SOL     OW16237   1.152   0.422   0.036
 5113SOL    HW116238   1.228   0.483   0.015
 5113SOL    HW216239   1.180   0.327   0.020
 5114SOL     OW16240   3.593   5.071   6.804
 5114SOL    HW116241   3.632   5.031   6.721
 5114SOL    HW216242   3.508   5.022   6.827
 5115SOL     OW16243   1.403   3.748   5.747
 5115SOL    HW116244   1.343   3.667   5.748
 5115SOL    HW216245   1.363   3.820   5.803
 5116SOL     OW16246   5.940   4.806   0.091
 5116SOL    HW116247   5.884   4.864   0.032
 5116SOL    HW216248   5.936   4.711   0.058
 5117SOL     OW16249   2.467   4.575   4.768
 5117SOL    HW116250   2.415   4.490   4.781
 5117SOL    HW216251   2.504   4.577   4.676
 5118SOL     OW16252   4.054   5.920   6.993
 5118SOL    HW116253   4.090   5.873   6.913
 5118SOL    HW216254   4.118   5.991   7.022
 5119SOL     OW16255   5.971   0.890   2.062
 5119SOL    HW116256   6.014   0.974   2.097
 5119SOL    HW216257   6.027   0.811   2.088
 5120SOL     OW16258   5.090   1.408   2.566
 5120SOL    HW116259   5.122   1.314   2.565
 5120SOL    HW216260   5.015   1.419   2.501
 5121SOL     OW16261   0.197   3.425   5.732
 5121SOL    HW116262   0.226   3.520   5.727
 5121SOL    HW216263   0.097   3.420   5.744
 5122SOL     OW16264   1.948   0.023   3.532
 5122SOL    HW116265   2.007   0.090   3.487
 5122SOL    HW216266   2.003   6.969   3.565
 5123SOL     OW16267   4.616   4.386   2.746
 5123SOL    HW116268   4.637   4.291   2.769
 5123SOL    HW216269   4.582   4.433   2.827
 5124SOL     OW16270   3.210   6.712   6.924
 5124SOL    HW116271   3.260   6.651   6.985
 5124SOL    HW216272   3.198   6.668   6.835
 5125SOL     OW16273   0.032   3.270   4.131
 5125SOL    HW116274   0.066   3.205   4.064
 5125SOL    HW216275   0.095   3.347   4.140
 5126SOL     OW16276   6.158   4.940   5.903
 5126SOL    HW116277   6.210   4.855   5.905
 5126SOL    HW216278   6.212   5.012   5.860
 5127SOL     OW16279   5.324   3.217   6.864
 5127SOL    HW116280   5.231   3.206   6.898
 5127SOL    HW216281   5.377   3.272   6.929
 5128SOL     OW16282   0.347   1.004   6.485
 5128SOL    HW116283   0.433   0.955   6.498
 5128SOL    HW216284   0.292   0.999   6.569
 5129SOL     OW16285   4.389   1.578   2.130
 5129SOL    HW116286   4.460   1.582   2.060
 5129SOL    HW216287   4.371   1.483   2.155
 5130SOL     OW16288   1.138   5.120   4.066
 5130SOL    HW116289   1.101   5.041   4.017
 5130SOL    HW216290   1.238   5.121   4.058
 5131SOL     OW16291   2.916   5.120   3.162
 5131SOL    HW116292   2.963   5.199   3.202
 5131SOL    HW216293   2.955   5.099   3.073
 5132SOL     OW16294   3.780   1.637   0.016
 5132SOL    HW116295   3.848   1.566   0.037
 5132SOL    HW216296   3.688   1.600   0.029
 5133SOL     OW16297   4.176   4.657   6.467
 5133SOL    HW116298   4.257   4.616   6.508
 5133SOL    HW216299   4.109   4.677   6.538
 5134SOL     OW16300   6.504   6.333   1.514
 5134SOL    HW116301   6.541   6.343   1.606
 5134SOL    HW216302   6.435   6.261   1.514
 5135SOL     OW16303   6.167   3.149   1.962
 5135SOL    HW116304   6.073   3.114   1.964
 5135SOL    HW216305   6.226   3.092   2.018
 5136SOL     OW16306   0.759   0.809   5.867
 5136SOL    HW116307   0.817   0.738   5.828
 5136SOL    HW216308   0.663   0.790   5.844
 5137SOL     OW16309   5.437   1.531   5.555
 5137SOL    HW116310   5.375   1.530   5.477
 5137SOL    HW216311   5.407   1.466   5.624
 5138SOL     OW16312   3.471   2.912   4.373
 5138SOL    HW116313   3.405   2.864   4.431
 5138SOL    HW216314   3.515   2.984   4.425
 5139SOL     OW16315   1.459   0.231   4.592
 5139SOL    HW116316   1.380   0.291   4.584
 5139SOL    HW216317   1.457   0.162   4.520
 5140SOL     OW16318   4.504   2.476   6.305
 5140SOL    HW116319   4.414   2.465   6.346
 5140SOL    HW216320   4.496   2.494   6.207
 5141SOL     OW16321   6.541   2.914   1.848
 5141SOL    HW116322   6.562   2.992   1.789
 5141SOL    HW216323   6.573   2.933   1.941
 5142SOL     OW16324   6.820   0.201   3.010
 5142SOL    HW116325   6.743   0.194   2.947
 5142SOL    HW216326   6.872   0.284   2.990
 5143SOL     OW16327   0.407   4.948   4.328
 5143SOL    HW116328   0.385   4.971   4.233
 5143SOL    HW216329   0.504   4.964   4.345
 5144SOL     OW16330   2.165   3.568   6.155
 5144SOL    HW116331   2.166   3.645   6.091
 5144SOL    HW216332   2.220   3.493   6.117
 5145SOL     OW16333   2.849   6.336   7.003
 5145SOL    HW116334   2.790   6.392   6.946
 5145SOL    HW216335   2.938   6.381   7.014
 5146SOL     OW16336   5.326   4.946   6.031
 5146SOL    HW116337   5.381   4.985   5.957
 5146SOL    HW216338   5.382   4.881   6.083
 5147SOL     OW16339   4.629   2.708   3.394
 5147SOL    HW116340   4.583   2.757   3.468
 5147SOL    HW216341   4.575   2.628   3.368
 5148SOL     OW16342   0.498   6.655   1.324
 5148SOL    HW116343   0.493   6.750   1.355
 5148SOL    HW216344   0.546   6.600   1.392
 5149SOL     OW16345   5.498   4.533   3.182
 5149SOL    HW116346   5.595   4.544   3.161
 5149SOL    HW216347   5.443   4.562   3.103
 5150SOL     OW16348   0.869   5.583   4.167
 5150SOL    HW116349   0.920   5.549   4.088
 5150SOL    HW216350   0.932   5.604   4.242
 5151SOL     OW16351   5.770   4.868   1.486
 5151SOL    HW116352   5.673   4.845   1.481
 5151SOL    HW216353   5.782   4.951   1.540
 5152SOL     OW16354   1.099   1.255   6.184
 5152SOL    HW116355   1.182   1.205   6.210
 5152SOL    HW216356   1.108   1.290   6.091
 5153SOL     OW16357   1.062   1.567   1.013
 5153SOL    HW116358   1.137   1.530   0.959
 5153SOL    HW216359   0.983   1.584   0.954
 5154SOL     OW16360   0.263   2.493   6.792
 5154SOL    HW116361   0.276   2.425   6.863
 5154SOL    HW216362   0.187   2.554   6.817
 5155SOL     OW16363   1.759   1.252   0.912
 5155SOL    HW116364   1.689   1.280   0.978
 5155SOL    HW216365   1.830   1.322   0.908
 5156SOL     OW16366   5.287   5.114   5.503
 5156SOL    HW116367   5.346   5.068   5.436
 5156SOL    HW216368   5.248   5.197   5.463
 5157SOL     OW16369   4.280   0.393   2.028
 5157SOL    HW116370   4.260   0.402   2.125
 5157SOL    HW216371   4.352   0.324   2.015
 5158SOL     OW16372   3.035   1.539   2.676
 5158SOL    HW116373   3.080   1.627   2.692
 5158SOL    HW216374   3.079   1.468   2.731
 5159SOL     OW16375   6.307   2.890   5.618
 5159SOL    HW116376   6.213   2.919   5.634
 5159SOL    HW216377   6.310   2.834   5.535
 5160SOL     OW16378   6.729   6.373   3.503
 5160SOL    HW116379   6.801   6.435   3.533
 5160SOL    HW216380   6.653   6.376   3.567
 5161SOL     OW16381   0.947   3.366   0.191
 5161SOL    HW116382   0.884   3.404   0.259
 5161SOL    HW216383   1.038   3.405   0.205
 5162SOL     OW16384   6.953   6.480   3.125
 5162SOL    HW116385   6.953   6.398   3.181
 5162SOL    HW216386   0.005   6.476   3.059
 5163SOL     OW16387   3.194   0.001   2.506
 5163SOL    HW116388   3.212   7.014   2.604
 5163SOL    HW216389   3.163   6.937   2.469
 5164SOL     OW16390   3.199   3.880   1.010
 5164SOL    HW116391   3.109   3.910   1.040
 5164SOL    HW216392   3.191   3.790   0.967
 5165SOL     OW16393   1.309   4.748   6.893
 5165SOL    HW116394   1.234   4.700   6.846
 5165SOL    HW216395   1.397   4.714   6.860
 5166SOL     OW16396   1.666   5.632   1.686
 5166SOL    HW116397   1.582   5.668   1.726
 5166SOL    HW216398   1.677   5.536   1.712
 5167SOL     OW16399   4.852   2.304   5.040
 5167SOL    HW116400   4.943   2.345   5.034
 5167SOL    HW216401   4.788   2.356   4.982
 5168SOL     OW16402   4.543   2.174   2.299
 5168SOL    HW116403   4.486   2.215   2.370
 5168SOL    HW216404   4.517   2.211   2.210
 5169SOL     OW16405   4.089   6.907   3.239
 5169SOL    HW116406   4.051   6.851   3.165
 5169SOL    HW216407   4.082   6.858   3.325
 5170SOL     OW16408   1.034   3.306   6.185
 5170SOL    HW116409   1.104   3.378   6.188
 5170SOL    HW216410   1.058   3.234   6.250
 5171SOL     OW16411   2.184   5.772   5.052
 5171SOL    HW116412   2.147   5.862   5.074
 5171SOL    HW216413   2.181   5.757   4.953
 5172SOL     OW16414   6.891   5.451   3.620
 5172SOL    HW116415   6.978   5.475   3.576
 5172SOL    HW216416   6.819   5.449   3.550
 5173SOL     OW16417   4.764   3.848   5.804
 5173SOL    HW116418   4.771   3.801   5.716
 5173SOL    HW216419   4.729   3.941   5.790
 5174SOL     OW16420   2.850   6.467   3.377
 5174SOL    HW116421   2.899   6.442   3.293
 5174SOL    HW216422   2.803   6.387   3.414
 5175SOL     OW16423   2.777   4.350   6.864
 5175SOL    HW116424   2.810   4.437   6.902
 5175SOL    HW216425   2.839   4.319   6.792
 5176SOL     OW16426   5.477   5.399   0.551
 5176SOL    HW116427   5.467   5.498   0.555
 5176SOL    HW216428   5.518   5.372   0.464
 5177SOL     OW16429   5.167   0.906   6.914
 5177SOL    HW116430   5.261   0.894   6.947
 5177SOL    HW216431   5.103   0.888   6.988
 5178SOL     OW16432   1.094   3.997   2.018
 5178SOL    HW116433   1.189   3.971   2.034
 5178SOL    HW216434   1.066   3.967   1.927
 5179SOL     OW16435   6.077   4.391   2.996
 5179SOL    HW116436   6.105   4.312   2.940
 5179SOL    HW216437   6.158   4.439   3.028
 5180SOL     OW16438   2.228   0.044   2.016
 5180SOL    HW116439   2.316   0.000   1.996
 5180SOL    HW216440   2.226   0.072   2.112
 5181SOL     OW16441   0.736   0.174   5.859
 5181SOL    HW116442   0.782   0.085   5.869
 5181SOL    HW216443   0.657   0.177   5.920
 5182SOL     OW16444   3.868   5.493   3.254
 5182SOL    HW116445   3.821   5.436   3.186
 5182SOL    HW216446   3.858   5.451   3.345
 5183SOL     OW16447   4.508   1.655   3.662
 5183SOL    HW116448   4.534   1.564   3.695
 5183SOL    HW216449   4.536   1.724   3.729
 5184SOL     OW16450   2.349   1.057   4.064
 5184SOL    HW116451   2.345   0.998   4.145
 5184SOL    HW216452   2.439   1.051   4.022
 5185SOL     OW16453   6.140   1.157   1.837
 5185SOL    HW116454   6.136   1.061   1.808
 5185SOL    HW216455   6.222   1.172   1.893
 5186SOL     OW16456   6.868   3.383   6.027
 5186SOL    HW116457   6.819   3.297   6.044
 5186SOL    HW216458   6.822   3.458   6.073
 5187SOL     OW16459   2.010   5.027   5.111
 5187SOL    HW116460   2.034   4.995   5.020
 5187SOL    HW216461   1.917   5.064   5.110
 5188SOL     OW16462   6.545   6.875   2.405
 5188SOL    HW116463   6.583   6.823   2.328
 5188SOL    HW216464   6.539   6.972   2.381
 5189SOL     OW16465   4.881   0.206   6.257
 5189SOL    HW116466   4.916   0.157   6.177
 5189SOL    HW216467   4.941   0.189   6.335
 5190SOL     OW16468   1.594   3.705   1.235
 5190SOL    HW116469   1.622   3.661   1.320
 5190SOL    HW216470   1.534   3.644   1.184
 5191SOL     OW16471   3.512   5.186   2.296
 5191SOL    HW116472   3.414   5.193   2.314
 5191SOL    HW216473   3.533   5.097   2.255
 5192SOL     OW16474   2.392   5.000   2.381
 5192SOL    HW116475   2.333   5.055   2.322
 5192SOL    HW216476   2.486   5.034   2.376
 5193SOL     OW16477   6.104   0.610   6.791
 5193SOL    HW116478   6.088   0.656   6.703
 5193SOL    HW216479   6.027   0.628   6.852
 5194SOL     OW16480   4.740   2.416   6.859
 5194SOL    HW116481   4.674   2.442   6.788
 5194SOL    HW216482   4.825   2.466   6.844
 5195SOL     OW16483   6.602   0.702   4.728
 5195SOL    HW116484   6.697   0.670   4.738
 5195SOL    HW216485   6.540   0.625   4.735
 5196SOL     OW16486   5.465   6.197   2.726
 5196SOL    HW116487   5.411   6.114   2.708
 5196SOL    HW216488   5.466   6.254   2.644
 5197SOL     OW16489   1.073   4.207   5.799
 5197SOL    HW116490   1.060   4.198   5.701
 5197SOL    HW216491   0.994   4.170   5.848
 5198SOL     OW16492   5.362   5.305   2.328
 5198SOL    HW116493   5.344   5.217   2.372
 5198SOL    HW216494   5.357   5.295   2.229
 5199SOL     OW16495   6.535   4.918   1.100
 5199SOL    HW116496   6.498   5.006   1.132
 5199SOL    HW216497   6.459   4.858   1.074
 5200SOL     OW16498   0.458   3.741   5.514
 5200SOL    HW116499   0.455   3.841   5.510
 5200SOL    HW216500   0.458   3.712   5.610
 5201SOL     OW16501   1.671   5.303   4.086
 5201SOL    HW116502   1.718   5.332   4.170
 5201SOL    HW216503   1.626   5.383   4.045
 5202SOL     OW16504   6.688   3.781   0.438
 5202SOL    HW116505   6.772   3.790   0.384
 5202SOL    HW216506   6.611   3.818   0.386
 5203SOL     OW16507   0.891   2.376   6.613
 5203SOL    HW116508   0.935   2.367   6.524
 5203SOL    HW216509   0.908   2.467   6.650
 5204SOL     OW16510   4.304   5.078   0.361
 5204SOL    HW116511   4.277   5.010   0.293
 5204SOL    HW216512   4.292   5.170   0.323
 5205SOL     OW16513   1.867   0.124   1.833
 5205SOL    HW116514   1.927   0.199   1.805
 5205SOL    HW216515   1.778   0.161   1.861
 5206SOL     OW16516   0.648   4.421   6.714
 5206SOL    HW116517   0.577   4.380   6.659
 5206SOL    HW216518   0.702   4.350   6.759
 5207SOL     OW16519   1.337   5.285   4.287
 5207SOL    HW116520   1.379   5.231   4.215
 5207SOL    HW216521   1.407   5.315   4.352
 5208SOL     OW16522   3.619   0.882   0.351
 5208SOL    HW116523   3.701   0.908   0.403
 5208SOL    HW216524   3.646   0.847   0.262
 5209SOL     OW16525   5.957   5.808   3.498
 5209SOL    HW116526   6.025   5.813   3.570
 5209SOL    HW216527   5.888   5.739   3.522
 5210SOL     OW16528   5.058   4.474   3.907
 5210SOL    HW116529   5.037   4.561   3.862
 5210SOL    HW216530   4.978   4.442   3.958
 5211SOL     OW16531   3.506   3.205   3.735
 5211SOL    HW116532   3.417   3.226   3.695
 5211SOL    HW216533   3.550   3.290   3.763
 5212SOL     OW16534   0.745   2.193   0.826
 5212SOL    HW116535   0.836   2.221   0.794
 5212SOL    HW216536   0.732   2.225   0.920
 5213SOL     OW16537   5.093   2.682   5.831
 5213SOL    HW116538   5.108   2.585   5.816
 5213SOL    HW216539   4.996   2.703   5.821
 5214SOL     OW16540   5.645   1.728   5.774
 5214SOL    HW116541   5.642   1.817   5.820
 5214SOL    HW216542   5.584   1.730   5.694
 5215SOL     OW16543   4.882   4.885   3.330
 5215SOL    HW116544   4.843   4.920   3.245
 5215SOL    HW216545   4.840   4.797   3.352
 5216SOL     OW16546   5.030   5.081   0.745
 5216SOL    HW116547   5.048   5.099   0.842
 5216SOL    HW216548   4.949   5.025   0.736
 5217SOL     OW16549   3.213   5.287   3.780
 5217SOL    HW116550   3.184   5.305   3.874
 5217SOL    HW216551   3.135   5.256   3.726
 5218SOL     OW16552   1.276   6.502   3.573
 5218SOL    HW116553   1.373   6.505   3.550
 5218SOL    HW216554   1.249   6.590   3.612
 5219SOL     OW16555   3.469   7.023   6.545
 5219SOL    HW116556   3.483   6.975   6.631
 5219SOL    HW216557   3.375   0.033   6.540
 5220SOL     OW16558   0.428   6.191   2.705
 5220SOL    HW116559   0.457   6.170   2.612
 5220SOL    HW216560   0.480   6.134   2.769
 5221SOL     OW16561   5.681   1.002   4.467
 5221SOL    HW116562   5.603   0.995   4.529
 5221SOL    HW216563   5.665   1.077   4.402
 5222SOL     OW16564   1.807   0.346   3.546
 5222SOL    HW116565   1.884   0.403   3.519
 5222SOL    HW216566   1.784   0.283   3.471
 5223SOL     OW16567   5.138   0.868   1.527
 5223SOL    HW116568   5.225   0.819   1.516
 5223SOL    HW216569   5.130   0.899   1.622
 5224SOL     OW16570   6.499   1.843   2.703
 5224SOL    HW116571   6.576   1.874   2.648
 5224SOL    HW216572   6.414   1.879   2.665
 5225SOL     OW16573   6.089   6.158   4.101
 5225SOL    HW116574   6.052   6.088   4.041
 5225SOL    HW216575   6.017   6.225   4.123
 5226SOL     OW16576   0.659   6.418   4.081
 5226SOL    HW116577   0.566   6.381   4.076
 5226SOL    HW216578   0.686   6.450   3.990
 5227SOL     OW16579   6.490   4.957   3.141
 5227SOL    HW116580   6.487   5.043   3.091
 5227SOL    HW216581   6.549   4.892   3.093
 5228SOL     OW16582   5.563   1.597   0.632
 5228SOL    HW116583   5.632   1.543   0.681
 5228SOL    HW216584   5.566   1.575   0.535
 5229SOL     OW16585   1.296   3.777   6.204
 5229SOL    HW116586   1.333   3.688   6.230
 5229SOL    HW216587   1.371   3.840   6.185
 5230SOL     OW16588   0.261   0.372   0.332
 5230SOL    HW116589   0.219   0.363   0.422
 5230SOL    HW216590   0.300   0.463   0.322
 5231SOL     OW16591   4.035   3.145   4.062
 5231SOL    HW116592   4.064   3.084   3.989
 5231SOL    HW216593   3.990   3.092   4.134
 5232SOL     OW16594   4.421   2.293   0.286
 5232SOL    HW116595   4.355   2.246   0.227
 5232SOL    HW216596   4.442   2.235   0.364
 5233SOL     OW16597   6.979   6.040   2.017
 5233SOL    HW116598   7.004   6.098   2.095
 5233SOL    HW216599   0.039   6.015   1.967
 5234SOL     OW16600   3.371   6.769   0.549
 5234SOL    HW116601   3.467   6.781   0.576
 5234SOL    HW216602   3.358   6.804   0.457
 5235SOL     OW16603   1.835   3.505   0.783
 5235SOL    HW116604   1.759   3.555   0.740
 5235SOL    HW216605   1.807   3.410   0.799
 5236SOL     OW16606   5.130   3.600   1.333
 5236SOL    HW116607   5.214   3.548   1.319
 5236SOL    HW216608   5.054   3.554   1.287
 5237SOL     OW16609   2.323   1.996   5.277
 5237SOL    HW116610   2.362   1.992   5.185
 5237SOL    HW216611   2.341   1.911   5.325
 5238SOL     OW16612   1.603   5.105   0.612
 5238SOL    HW116613   1.584   5.007   0.621
 5238SOL    HW216614   1.676   5.130   0.676
 5239SOL     OW16615   3.280   2.930   4.054
 5239SOL    HW116616   3.379   2.919   4.063
 5239SOL    HW216617   3.256   2.934   3.957
 5240SOL     OW16618   3.407   2.209   5.153
 5240SOL    HW116619   3.356   2.124   5.167
 5240SOL    HW216620   3.350   2.287   5.175
 5241SOL     OW16621   1.254   6.258   6.246
 5241SOL    HW116622   1.292   6.244   6.338
 5241SOL    HW216623   1.262   6.174   6.194
 5242SOL     OW16624   5.947   1.275   5.793
 5242SOL    HW116625   5.894   1.358   5.810
 5242SOL    HW216626   5.886   1.203   5.760
 5243SOL     OW16627   0.996   5.722   0.900
 5243SOL    HW116628   0.928   5.670   0.849
 5243SOL    HW216629   1.084   5.715   0.853
 5244SOL     OW16630   4.304   4.267   5.781
 5244SOL    HW116631   4.270   4.264   5.875
 5244SOL    HW216632   4.261   4.342   5.731
 5245SOL     OW16633   4.080   3.854   6.407
 5245SOL    HW116634   3.984   3.854   6.381
 5245SOL    HW216635   4.118   3.762   6.395
 5246SOL     OW16636   0.854   3.393   2.532
 5246SOL    HW116637   0.926   3.333   2.566
 5246SOL    HW216638   0.791   3.340   2.476
 5247SOL     OW16639   0.155   5.163   0.845
 5247SOL    HW116640   0.129   5.079   0.797
 5247SOL    HW216641   0.085   5.185   0.913
 5248SOL     OW16642   5.390   1.075   6.134
 5248SOL    HW116643   5.358   0.991   6.179
 5248SOL    HW216644   5.346   1.084   6.045
 5249SOL     OW16645   0.739   4.874   5.250
 5249SOL    HW116646   0.791   4.908   5.173
 5249SOL    HW216647   0.797   4.873   5.332
 5250SOL     OW16648   0.240   2.074   5.743
 5250SOL    HW116649   0.227   2.173   5.738
 5250SOL    HW216650   0.305   2.046   5.672
 5251SOL     OW16651   6.587   3.383   1.371
 5251SOL    HW116652   6.573   3.364   1.274
 5251SOL    HW216653   6.585   3.297   1.423
 5252SOL     OW16654   3.346   6.550   1.286
 5252SOL    HW116655   3.437   6.591   1.276
 5252SOL    HW216656   3.339   6.469   1.228
 5253SOL     OW16657   5.640   3.629   4.528
 5253SOL    HW116658   5.597   3.539   4.519
 5253SOL    HW216659   5.644   3.654   4.625
 5254SOL     OW16660   4.475   1.215   4.139
 5254SOL    HW116661   4.507   1.232   4.232
 5254SOL    HW216662   4.509   1.287   4.079
 5255SOL     OW16663   3.227   6.593   5.199
 5255SOL    HW116664   3.302   6.652   5.170
 5255SOL    HW216665   3.264   6.513   5.247
 5256SOL     OW16666   4.917   0.810   3.698
 5256SOL    HW116667   4.976   0.810   3.778
 5256SOL    HW216668   4.930   0.896   3.648
 5257SOL     OW16669   3.809   6.643   0.308
 5257SOL    HW116670   3.760   6.727   0.285
 5257SOL    HW216671   3.773   6.567   0.253
 5258SOL     OW16672   4.796   4.363   2.548
 5258SOL    HW116673   4.729   4.356   2.622
 5258SOL    HW216674   4.813   4.459   2.528
 5259SOL     OW16675   4.426   6.390   2.589
 5259SOL    HW116676   4.471   6.479   2.592
 5259SOL    HW216677   4.475   6.329   2.527
 5260SOL     OW16678   6.029   3.351   0.975
 5260SOL    HW116679   5.940   3.311   0.951
 5260SOL    HW216680   6.014   3.431   1.032
 5261SOL     OW16681   0.124   2.967   4.577
 5261SOL    HW116682   0.191   3.010   4.637
 5261SOL    HW216683   0.161   2.962   4.484
 5262SOL     OW16684   2.757   6.665   2.255
 5262SOL    HW116685   2.686   6.734   2.270
 5262SOL    HW216686   2.798   6.677   2.165
 5263SOL     OW16687   1.570   6.865   5.993
 5263SOL    HW116688   1.642   6.800   5.970
 5263SOL    HW216689   1.604   6.958   5.983
 5264SOL     OW16690   6.643   1.599   1.503
 5264SOL    HW116691   6.633   1.506   1.539
 5264SOL    HW216692   6.572   1.616   1.434
 5265SOL     OW16693   5.505   4.878   2.297
 5265SOL    HW116694   5.548   4.827   2.372
 5265SOL    HW216695   5.475   4.967   2.332
 5266SOL     OW16696   1.170   6.322   1.898
 5266SOL    HW116697   1.084   6.359   1.935
 5266SOL    HW216698   1.198   6.377   1.819
 5267SOL     OW16699   4.759   5.328   5.499
 5267SOL    HW116700   4.825   5.342   5.425
 5267SOL    HW216701   4.758   5.231   5.525
 5268SOL     OW16702   6.708   5.151   5.660
 5268SOL    HW116703   6.709   5.172   5.758
 5268SOL    HW216704   6.727   5.235   5.608
 5269SOL     OW16705   1.520   5.507   4.344
 5269SOL    HW116706   1.607   5.461   4.361
 5269SOL    HW216707   1.537   5.598   4.307
 5270SOL     OW16708   5.732   2.972   1.582
 5270SOL    HW116709   5.649   2.945   1.630
 5270SOL    HW216710   5.740   2.919   1.498
 5271SOL     OW16711   4.886   4.891   4.841
 5271SOL    HW116712   4.852   4.960   4.905
 5271SOL    HW216713   4.969   4.850   4.878
 5272SOL     OW16714   6.930   5.876   4.599
 5272SOL    HW116715   6.958   5.857   4.693
 5272SOL    HW216716   6.900   5.791   4.555
 5273SOL     OW16717   0.670   2.302   3.860
 5273SOL    HW116718   0.740   2.241   3.822
 5273SOL    HW216719   0.707   2.348   3.941
 5274SOL     OW16720   0.023   4.563   3.991
 5274SOL    HW116721   0.088   4.528   3.923
 5274SOL    HW216722   6.970   4.499   4.000
 5275SOL     OW16723   2.513   6.826   6.143
 5275SOL    HW116724   2.496   6.777   6.228
 5275SOL    HW216725   2.426   6.862   6.107
 5276SOL     OW16726   6.901   6.802   1.602
 5276SOL    HW116727   6.991   6.812   1.560
 5276SOL    HW216728   6.868   6.709   1.588
 5277SOL     OW16729   1.364   1.514   3.412
 5277SOL    HW116730   1.265   1.502   3.410
 5277SOL    HW216731   1.408   1.426   3.429
 5278SOL     OW16732   0.466   6.273   5.753
 5278SOL    HW116733   0.469   6.233   5.661
 5278SOL    HW216734   0.501   6.207   5.819
 5279SOL     OW16735   1.308   5.866   6.484
 5279SOL    HW116736   1.354   5.784   6.518
 5279SOL    HW216737   1.231   5.889   6.543
 5280SOL     OW16738   3.691   6.437   4.534
 5280SOL    HW116739   3.673   6.345   4.499
 5280SOL    HW216740   3.617   6.463   4.596
 5281SOL     OW16741   1.315   1.026   4.172
 5281SOL    HW116742   1.231   1.070   4.204
 5281SOL    HW216743   1.392   1.057   4.228
 5282SOL     OW16744   1.611   0.222   2.588
 5282SOL    HW116745   1.615   0.123   2.573
 5282SOL    HW216746   1.536   0.243   2.651
 5283SOL     OW16747   0.346   0.756   3.668
 5283SOL    HW116748   0.303   0.672   3.702
 5283SOL    HW216749   0.349   0.824   3.742
 5284SOL     OW16750   5.120   1.727   2.130
 5284SOL    HW116751   5.104   1.661   2.203
 5284SOL    HW216752   5.209   1.771   2.143
 5285SOL     OW16753   0.916   3.028   3.317
 5285SOL    HW116754   0.890   2.987   3.404
 5285SOL    HW216755   0.927   3.127   3.328
 5286SOL     OW16756   6.490   2.985   0.654
 5286SOL    HW116757   6.484   3.016   0.559
 5286SOL    HW216758   6.401   2.950   0.684
 5287SOL     OW16759   3.492   5.378   1.689
 5287SOL    HW116760   3.434   5.356   1.768
 5287SOL    HW216761   3.454   5.457   1.641
 5288SOL     OW16762   5.337   0.156   1.587
 5288SOL    HW116763   5.380   0.200   1.508
 5288SOL    HW216764   5.407   0.127   1.652
 5289SOL     OW16765   1.706   5.430   6.644
 5289SOL    HW116766   1.730   5.360   6.576
 5289SOL    HW216767   1.788   5.464   6.689
 5290SOL     OW16768   1.931   3.980   5.927
 5290SOL    HW116769   1.996   3.911   5.960
 5290SOL    HW216770   1.954   4.004   5.832
 5291SOL     OW16771   3.091   3.799   5.486
 5291SOL    HW116772   3.020   3.732   5.467
 5291SOL    HW216773   3.141   3.820   5.402
 5292SOL     OW16774   0.176   4.449   6.575
 5292SOL    HW116775   0.160   4.528   6.517
 5292SOL    HW216776   0.123   4.457   6.660
 5293SOL     OW16777   2.348   5.342   4.420
 5293SOL    HW116778   2.285   5.355   4.497
 5293SOL    HW216779   2.442   5.341   4.454
 5294SOL     OW16780   4.319   0.776   5.153
 5294SOL    HW116781   4.283   0.864   5.183
 5294SOL    HW216782   4.313   0.710   5.228
 5295SOL     OW16783   3.128   0.836   3.027
 5295SOL    HW116784   3.032   0.863   3.019
 5295SOL    HW216785   3.146   0.808   3.122
 5296SOL     OW16786   3.732   4.510   0.794
 5296SOL    HW116787   3.716   4.420   0.754
 5296SOL    HW216788   3.797   4.561   0.737
 5297SOL     OW16789   2.708   3.723   0.363
 5297SOL    HW116790   2.714   3.725   0.463
 5297SOL    HW216791   2.776   3.786   0.325
 5298SOL     OW16792   2.619   6.560   0.123
 5298SOL    HW116793   2.638   6.563   0.025
 5298SOL    HW216794   2.598   6.467   0.151
 5299SOL     OW16795   2.888   2.083   0.772
 5299SOL    HW116796   2.924   2.150   0.837
 5299SOL    HW216797   2.870   2.129   0.684
 5300SOL     OW16798   1.247   4.519   0.520
 5300SOL    HW116799   1.167   4.527   0.461
 5300SOL    HW216800   1.238   4.437   0.577
 5301SOL     OW16801   4.422   0.636   0.045
 5301SOL    HW116802   4.479   0.716   0.063
 5301SOL    HW216803   4.394   0.594   0.131
 5302SOL     OW16804   4.584   5.789   3.500
 5302SOL    HW116805   4.565   5.811   3.595
 5302SOL    HW216806   4.507   5.738   3.461
 5303SOL     OW16807   6.652   5.119   6.556
 5303SOL    HW116808   6.661   5.207   6.510
 5303SOL    HW216809   6.628   5.049   6.488
 5304SOL     OW16810   5.858   1.277   1.157
 5304SOL    HW116811   5.946   1.310   1.191
 5304SOL    HW216812   5.827   1.335   1.082
 5305SOL     OW16813   1.212   5.479   2.942
 5305SOL    HW116814   1.202   5.380   2.939
 5305SOL    HW216815   1.284   5.507   2.879
 5306SOL     OW16816   0.194   4.376   6.079
 5306SOL    HW116817   0.233   4.397   5.989
 5306SOL    HW216818   0.134   4.451   6.107
 5307SOL     OW16819   4.698   2.373   0.405
 5307SOL    HW116820   4.613   2.324   0.384
 5307SOL    HW216821   4.694   2.465   0.365
 5308SOL     OW16822   1.335   4.817   2.658
 5308SOL    HW116823   1.341   4.742   2.724
 5308SOL    HW216824   1.408   4.808   2.590
 5309SOL     OW16825   4.005   6.077   2.654
 5309SOL    HW116826   4.071   6.003   2.644
 5309SOL    HW216827   3.960   6.071   2.743
 5310SOL     OW16828   6.040   3.155   2.369
 5310SOL    HW116829   6.057   3.213   2.289
 5310SOL    HW216830   5.993   3.072   2.341
 5311SOL     OW16831   5.918   0.206   6.935
 5311SOL    HW116832   5.834   0.174   6.978
 5311SOL    HW216833   5.901   0.218   6.837
 5312SOL     OW16834   0.019   5.941   1.550
 5312SOL    HW116835   7.019   6.016   1.488
 5312SOL    HW216836   7.009   5.963   1.642
 5313SOL     OW16837   6.924   4.661   5.562
 5313SOL    HW116838   6.944   4.641   5.466
 5313SOL    HW216839   6.939   4.758   5.579
 5314SOL     OW16840   5.393   6.847   0.542
 5314SOL    HW116841   5.476   6.839   0.597
 5314SOL    HW216842   5.414   6.823   0.447
 5315SOL     OW16843   4.459   2.210   3.272
 5315SOL    HW116844   4.459   2.129   3.329
 5315SOL    HW216845   4.483   2.185   3.178
 5316SOL     OW16846   0.925   3.740   5.224
 5316SOL    HW116847   0.915   3.779   5.132
 5316SOL    HW216848   0.834   3.718   5.261
 5317SOL     OW16849   6.862   1.196   5.690
 5317SOL    HW116850   6.885   1.163   5.599
 5317SOL    HW216851   6.807   1.279   5.683
 5318SOL     OW16852   0.229   2.806   0.425
 5318SOL    HW116853   0.264   2.787   0.517
 5318SOL    HW216854   0.148   2.863   0.431
 5319SOL     OW16855   4.715   6.191   0.838
 5319SOL    HW116856   4.638   6.248   0.868
 5319SOL    HW216857   4.726   6.199   0.739
 5320SOL     OW16858   4.059   5.954   1.274
 5320SOL    HW116859   3.970   5.983   1.308
 5320SOL    HW216860   4.058   5.855   1.257
 5321SOL     OW16861   1.852   4.357   4.976
 5321SOL    HW116862   1.825   4.450   4.951
 5321SOL    HW216863   1.833   4.341   5.073
 5322SOL     OW16864   5.472   0.273   0.569
 5322SOL    HW116865   5.522   0.292   0.485
 5322SOL    HW216866   5.529   0.219   0.630
 5323SOL     OW16867   4.395   1.360   5.758
 5323SOL    HW116868   4.375   1.274   5.805
 5323SOL    HW216869   4.459   1.414   5.812
 5324SOL     OW16870   2.843   2.260   6.683
 5324SOL    HW116871   2.756   2.309   6.676
 5324SOL    HW216872   2.830   2.165   6.657
 5325SOL     OW16873   2.674   1.748   5.208
 5325SOL    HW116874   2.672   1.648   5.212
 5325SOL    HW216875   2.681   1.778   5.113
 5326SOL     OW16876   6.391   5.933   3.532
 5326SOL    HW116877   6.477   5.964   3.492
 5326SOL    HW216878   6.336   5.889   3.461
 5327SOL     OW16879   5.906   2.482   4.746
 5327SOL    HW116880   5.904   2.479   4.846
 5327SOL    HW216881   5.985   2.431   4.712
 5328SOL     OW16882   3.929   3.842   5.940
 5328SOL    HW116883   4.026   3.820   5.937
 5328SOL    HW216884   3.876   3.757   5.938
 5329SOL     OW16885   1.095   5.377   6.397
 5329SOL    HW116886   1.084   5.475   6.377
 5329SOL    HW216887   1.065   5.359   6.491
 5330SOL     OW16888   3.871   4.193   0.328
 5330SOL    HW116889   3.905   4.177   0.235
 5330SOL    HW216890   3.934   4.152   0.394
 5331SOL     OW16891   6.330   1.902   6.669
 5331SOL    HW116892   6.238   1.907   6.708
 5331SOL    HW216893   6.396   1.882   6.742
 5332SOL     OW16894   1.695   4.058   1.493
 5332SOL    HW116895   1.654   4.025   1.578
 5332SOL    HW216896   1.642   4.024   1.415
 5333SOL     OW16897   1.135   0.958   3.031
 5333SOL    HW116898   1.231   0.986   3.031
 5333SOL    HW216899   1.123   0.881   3.094
 5334SOL     OW16900   3.233   0.584   5.259
 5334SOL    HW116901   3.146   0.633   5.251
 5334SOL    HW216902   3.293   0.612   5.184
 5335SOL     OW16903   6.101   5.973   0.792
 5335SOL    HW116904   6.056   5.960   0.881
 5335SOL    HW216905   6.161   5.895   0.773
 5336SOL     OW16906   1.719   3.262   2.353
 5336SOL    HW116907   1.742   3.332   2.420
 5336SOL    HW216908   1.761   3.285   2.265
 5337SOL     OW16909   4.597   3.832   1.536
 5337SOL    HW116910   4.671   3.781   1.494
 5337SOL    HW216911   4.628   3.873   1.622
 5338SOL     OW16912   6.032   1.699   6.813
 5338SOL    HW116913   6.000   1.663   6.725
 5338SOL    HW216914   5.958   1.694   6.881
 5339SOL     OW16915   6.606   1.767   3.895
 5339SOL    HW116916   6.568   1.727   3.811
 5339SOL    HW216917   6.609   1.698   3.967
 5340SOL     OW16918   5.982   2.953   0.348
 5340SOL    HW116919   5.899   2.986   0.392
 5340SOL    HW216920   6.049   2.927   0.418
 5341SOL     OW16921   3.984   2.371   5.825
 5341SOL    HW116922   3.970   2.421   5.739
 5341SOL    HW216923   3.942   2.281   5.818
 5342SOL     OW16924   3.807   0.725   5.152
 5342SOL    HW116925   3.882   0.694   5.211
 5342SOL    HW216926   3.819   0.685   5.061
 5343SOL     OW16927   3.505   3.707   3.540
 5343SOL    HW116928   3.520   3.774   3.466
 5343SOL    HW216929   3.410   3.714   3.571
 5344SOL     OW16930   1.518   2.734   2.527
 5344SOL    HW116931   1.574   2.682   2.591
 5344SOL    HW216932   1.434   2.763   2.571
 5345SOL     OW16933   4.575   5.897   0.832
 5345SOL    HW116934   4.492   5.953   0.838
 5345SOL    HW216935   4.553   5.810   0.786
 5346SOL     OW16936   3.292   6.408   3.551
 5346SOL    HW116937   3.196   6.420   3.577
 5346SOL    HW216938   3.306   6.314   3.518
 5347SOL     OW16939   6.832   2.197   2.266
 5347SOL    HW116940   6.763   2.182   2.337
 5347SOL    HW216941   6.807   2.278   2.212
 5348SOL     OW16942   0.829   1.524   0.475
 5348SOL    HW116943   0.888   1.561   0.547
 5348SOL    HW216944   0.802   1.430   0.499
 5349SOL     OW16945   0.911   2.462   0.609
 5349SOL    HW116946   0.828   2.405   0.605
 5349SOL    HW216947   0.984   2.412   0.655
 5350SOL     OW16948   2.595   0.380   6.075
 5350SOL    HW116949   2.526   0.314   6.105
 5350SOL    HW216950   2.550   0.460   6.036
 5351SOL     OW16951   4.805   5.673   1.435
 5351SOL    HW116952   4.759   5.683   1.347
 5351SOL    HW216953   4.737   5.674   1.508
 5352SOL     OW16954   2.189   6.160   3.785
 5352SOL    HW116955   2.251   6.238   3.788
 5352SOL    HW216956   2.213   6.095   3.858
 5353SOL     OW16957   4.403   6.016   4.497
 5353SOL    HW116958   4.371   6.081   4.428
 5353SOL    HW216959   4.498   5.992   4.478
 5354SOL     OW16960   2.527   4.574   2.607
 5354SOL    HW116961   2.592   4.583   2.682
 5354SOL    HW216962   2.510   4.664   2.566
 5355SOL     OW16963   4.677   2.088   3.589
 5355SOL    HW116964   4.767   2.073   3.547
 5355SOL    HW216965   4.606   2.073   3.521
 5356SOL     OW16966   5.872   3.813   1.624
 5356SOL    HW116967   5.836   3.876   1.693
 5356SOL    HW216968   5.799   3.787   1.561
 5357SOL     OW16969   3.351   1.297   0.987
 5357SOL    HW116970   3.413   1.232   0.944
 5357SOL    HW216971   3.286   1.247   1.045
 5358SOL     OW16972   4.153   2.596   0.694
 5358SOL    HW116973   4.218   2.528   0.726
 5358SOL    HW216974   4.088   2.617   0.767
 5359SOL     OW16975   2.330   1.610   0.737
 5359SOL    HW116976   2.391   1.545   0.782
 5359SOL    HW216977   2.383   1.679   0.688
 5360SOL     OW16978   3.961   6.817   4.955
 5360SOL    HW116979   3.990   6.873   5.032
 5360SOL    HW216980   4.033   6.752   4.931
 5361SOL     OW16981   2.641   1.072   4.690
 5361SOL    HW116982   2.636   1.078   4.790
 5361SOL    HW216983   2.687   1.153   4.654
 5362SOL     OW16984   5.127   4.581   3.533
 5362SOL    HW116985   5.137   4.642   3.454
 5362SOL    HW216986   5.127   4.636   3.617
 5363SOL     OW16987   1.053   6.005   6.077
 5363SOL    HW116988   1.070   6.058   5.994
 5363SOL    HW216989   1.138   5.961   6.107
 5364SOL     OW16990   6.162   5.292   1.016
 5364SOL    HW116991   6.260   5.288   1.037
 5364SOL    HW216992   6.140   5.382   0.980
 5365SOL     OW16993   4.534   3.045   6.408
 5365SOL    HW116994   4.447   3.087   6.434
 5365SOL    HW216995   4.577   3.100   6.337
 5366SOL     OW16996   5.012   4.781   1.006
 5366SOL    HW116997   4.938   4.773   0.939
 5366SOL    HW216998   5.065   4.697   1.007
 5367SOL     OW16999   0.466   5.077   0.661
 5367SOL    HW117000   0.545   5.040   0.711
 5367SOL    HW217001   0.384   5.067   0.716
 5368SOL     OW17002   5.249   1.640   3.008
 5368SOL    HW117003   5.326   1.663   2.949
 5368SOL    HW217004   5.265   1.553   3.053
 5369SOL     OW17005   2.634   5.854   3.465
 5369SOL    HW117006   2.659   5.892   3.554
 5369SOL    HW217007   2.551   5.900   3.432
 5370SOL     OW17008   3.987   2.993   1.721
 5370SOL    HW117009   3.920   3.037   1.661
 5370SOL    HW217010   4.079   3.019   1.694
 5371SOL     OW17011   2.208   4.459   4.437
 5371SOL    HW117012   2.119   4.493   4.406
 5371SOL    HW217013   2.210   4.457   4.537
 5372SOL     OW17014   2.927   5.615   2.092
 5372SOL    HW117015   2.963   5.664   2.172
 5372SOL    HW217016   2.834   5.583   2.112
 5373SOL     OW17017   2.933   4.807   4.383
 5373SOL    HW117018   2.882   4.810   4.297
 5373SOL    HW217019   2.879   4.758   4.452
 5374SOL     OW17020   1.155   3.389   6.755
 5374SOL    HW117021   1.170   3.291   6.773
 5374SOL    HW217022   1.185   3.411   6.662
 5375SOL     OW17023   1.016   4.662   5.041
 5375SOL    HW117024   0.926   4.663   4.998
 5375SOL    HW217025   1.018   4.594   5.114
 5376SOL     OW17026   1.450   3.304   1.457
 5376SOL    HW117027   1.549   3.288   1.455
 5376SOL    HW217028   1.431   3.388   1.506
 5377SOL     OW17029   6.667   0.299   1.782
 5377SOL    HW117030   6.709   0.270   1.867
 5377SOL    HW217031   6.665   0.223   1.717
 5378SOL     OW17032   6.652   0.830   1.078
 5378SOL    HW117033   6.663   0.929   1.087
 5378SOL    HW217034   6.560   0.804   1.104
 5379SOL     OW17035   0.519   5.193   3.923
 5379SOL    HW117036   0.613   5.227   3.922
 5379SOL    HW217037   0.489   5.182   4.018
 5380SOL     OW17038   1.953   1.081   3.361
 5380SOL    HW117039   1.862   1.086   3.400
 5380SOL    HW217040   1.947   1.059   3.263
 5381SOL     OW17041   6.727   3.644   0.778
 5381SOL    HW117042   6.656   3.714   0.771
 5381SOL    HW217043   6.808   3.673   0.726
 5382SOL     OW17044   3.057   0.347   1.499
 5382SOL    HW117045   3.095   0.255   1.504
 5382SOL    HW217046   3.046   0.373   1.403
 5383SOL     OW17047   2.980   2.381   5.326
 5383SOL    HW117048   2.979   2.317   5.403
 5383SOL    HW217049   3.065   2.372   5.275
 5384SOL     OW17050   6.010   0.031   3.846
 5384SOL    HW117051   5.950   0.056   3.923
 5384SOL    HW217052   6.070   0.108   3.825
 5385SOL     OW17053   2.888   3.757   3.137
 5385SOL    HW117054   2.889   3.700   3.055
 5385SOL    HW217055   2.958   3.828   3.131
 5386SOL     OW17056   4.780   6.281   4.343
 5386SOL    HW117057   4.747   6.325   4.260
 5386SOL    HW217058   4.775   6.182   4.332
 5387SOL     OW17059   2.006   5.903   2.884
 5387SOL    HW117060   2.039   5.887   2.791
 5387SOL    HW217061   2.064   5.851   2.948
 5388SOL     OW17062   5.368   5.945   2.633
 5388SOL    HW117063   5.353   5.919   2.728
 5388SOL    HW217064   5.396   5.865   2.580
 5389SOL     OW17065   5.569   0.628   1.698
 5389SOL    HW117066   5.537   0.617   1.604
 5389SOL    HW217067   5.665   0.659   1.696
 5390SOL     OW17068   4.479   5.202   4.005
 5390SOL    HW117069   4.510   5.259   4.081
 5390SOL    HW217070   4.447   5.114   4.040
 5391SOL     OW17071   2.416   3.370   0.540
 5391SOL    HW117072   2.428   3.421   0.455
 5391SOL    HW217073   2.342   3.304   0.530
 5392SOL     OW17074   6.527   3.283   1.125
 5392SOL    HW117075   6.599   3.269   1.057
 5392SOL    HW217076   6.438   3.265   1.084
 5393SOL     OW17077   6.663   6.949   6.955
 5393SOL    HW117078   6.610   6.987   0.008
 5393SOL    HW217079   6.608   6.879   6.909
 5394SOL     OW17080   0.342   3.557   6.534
 5394SOL    HW117081   0.436   3.580   6.562
 5394SOL    HW217082   0.332   3.457   6.532
 5395SOL     OW17083   4.877   0.669   1.290
 5395SOL    HW117084   4.880   0.597   1.220
 5395SOL    HW217085   4.820   0.639   1.366
 5396SOL     OW17086   5.311   3.400   2.894
 5396SOL    HW117087   5.345   3.410   2.800
 5396SOL    HW217088   5.317   3.488   2.941
 5397SOL     OW17089   7.020   3.238   2.197
 5397SOL    HW117090   6.931   3.214   2.235
 5397SOL    HW217091   0.046   3.154   2.172
 5398SOL     OW17092   3.132   2.529   1.452
 5398SOL    HW117093   3.137   2.568   1.544
 5398SOL    HW217094   3.199   2.455   1.444
 5399SOL     OW17095   2.413   6.531   1.110
 5399SOL    HW117096   2.432   6.505   1.015
 5399SOL    HW217097   2.355   6.461   1.153
 5400SOL     OW17098   2.813   4.325   0.804
 5400SOL    HW117099   2.814   4.424   0.801
 5400SOL    HW217100   2.738   4.290   0.748
 5401SOL     OW17101   5.598   3.242   2.164
 5401SOL    HW117102   5.668   3.312   2.178
 5401SOL    HW217103   5.586   3.189   2.248
 5402SOL     OW17104   2.192   5.982   2.042
 5402SOL    HW117105   2.110   6.020   1.999
 5402SOL    HW217106   2.257   6.055   2.061
 5403SOL     OW17107   6.817   3.360   6.522
 5403SOL    HW117108   6.873   3.393   6.446
 5403SOL    HW217109   6.723   3.345   6.489
 5404SOL     OW17110   1.150   2.618   3.486
 5404SOL    HW117111   1.194   2.707   3.472
 5404SOL    HW217112   1.092   2.596   3.407
 5405SOL     OW17113   6.749   5.100   0.014
 5405SOL    HW117114   6.723   5.090   6.941
 5405SOL    HW217115   6.846   5.121   0.021
 5406SOL     OW17116   2.361   1.567   6.744
 5406SOL    HW117117   2.305   1.633   6.794
 5406SOL    HW217118   2.454   1.566   6.782
 5407SOL     OW17119   4.315   3.314   0.427
 5407SOL    HW117120   4.382   3.251   0.468
 5407SOL    HW217121   4.358   3.365   0.353
 5408SOL     OW17122   2.795   1.043   5.225
 5408SOL    HW117123   2.820   0.974   5.156
 5408SOL    HW217124   2.717   1.010   5.278
 5409SOL     OW17125   5.199   0.256   2.847
 5409SOL    HW117126   5.213   0.355   2.851
 5409SOL    HW217127   5.111   0.236   2.805
 5410SOL     OW17128   2.614   2.532   1.853
 5410SOL    HW117129   2.600   2.514   1.755
 5410SOL    HW217130   2.698   2.487   1.883
 5411SOL     OW17131   6.281   4.976   6.309
 5411SOL    HW117132   6.242   5.052   6.361
 5411SOL    HW217133   6.232   4.966   6.223
 5412SOL     OW17134   4.981   2.840   0.459
 5412SOL    HW117135   4.932   2.926   0.470
 5412SOL    HW217136   4.969   2.807   0.365
 5413SOL     OW17137   2.870   1.154   1.579
 5413SOL    HW117138   2.901   1.062   1.600
 5413SOL    HW217139   2.906   1.182   1.490
 5414SOL     OW17140   5.200   1.852   4.495
 5414SOL    HW117141   5.226   1.886   4.404
 5414SOL    HW217142   5.146   1.923   4.541
 5415SOL     OW17143   0.451   5.764   1.327
 5415SOL    HW117144   0.430   5.840   1.389
 5415SOL    HW217145   0.511   5.796   1.254
 5416SOL     OW17146   4.279   5.254   5.315
 5416SOL    HW117147   4.259   5.332   5.255
 5416SOL    HW217148   4.377   5.247   5.329
 5417SOL     OW17149   3.541   6.458   5.880
 5417SOL    HW117150   3.481   6.536   5.899
 5417SOL    HW217151   3.607   6.484   5.809
 5418SOL     OW17152   3.438   0.193   3.341
 5418SOL    HW117153   3.437   0.145   3.429
 5418SOL    HW217154   3.385   0.277   3.348
 5419SOL     OW17155   3.568   4.940   0.254
 5419SOL    HW117156   3.645   4.907   0.309
 5419SOL    HW217157   3.580   4.912   0.159
 5420SOL     OW17158   1.849   3.242   3.214
 5420SOL    HW117159   1.829   3.239   3.116
 5420SOL    HW217160   1.946   3.264   3.227
 5421SOL     OW17161   1.718   3.595   1.466
 5421SOL    HW117162   1.817   3.590   1.480
 5421SOL    HW217163   1.678   3.656   1.535
 5422SOL     OW17164   0.546   4.918   0.913
 5422SOL    HW117165   0.488   4.994   0.940
 5422SOL    HW217166   0.641   4.937   0.940
 5423SOL     OW17167   6.339   2.922   0.033
 5423SOL    HW117168   6.417   2.982   0.011
 5423SOL    HW217169   6.271   2.974   0.084
 5424SOL     OW17170   5.298   2.973   4.330
 5424SOL    HW117171   5.274   2.959   4.234
 5424SOL    HW217172   5.279   3.068   4.355
 5425SOL     OW17173   4.202   1.024   4.887
 5425SOL    HW117174   4.106   1.049   4.884
 5425SOL    HW217175   4.251   1.068   4.812
 5426SOL     OW17176   5.839   6.386   4.543
 5426SOL    HW117177   5.825   6.325   4.465
 5426SOL    HW217178   5.933   6.375   4.577
 5427SOL     OW17179   4.524   5.538   6.609
 5427SOL    HW117180   4.453   5.605   6.587
 5427SOL    HW217181   4.614   5.579   6.591
 5428SOL     OW17182   0.109   6.901   1.146
 5428SOL    HW117183   0.192   6.938   1.188
 5428SOL    HW217184   0.108   6.925   1.049
 5429SOL     OW17185   1.911   2.039   6.816
 5429SOL    HW117186   1.907   2.134   6.845
 5429SOL    HW217187   1.918   2.034   6.716
 5430SOL     OW17188   0.317   2.477   5.538
 5430SOL    HW117189   0.324   2.483   5.637
 5430SOL    HW217190   0.319   2.569   5.498
 5431SOL     OW17191   3.405   5.964   0.035
 5431SOL    HW117192   3.432   5.879   0.080
 5431SOL    HW217193   3.306   5.973   0.037
 5432SOL     OW17194   5.411   0.366   6.534
 5432SOL    HW117195   5.420   0.275   6.574
 5432SOL    HW217196   5.467   0.431   6.584
 5433SOL     OW17197   0.495   1.969   4.547
 5433SOL    HW117198   0.468   1.955   4.451
 5433SOL    HW217199   0.511   2.067   4.563
 5434SOL     OW17200   3.099   0.401   5.853
 5434SOL    HW117201   3.040   0.460   5.907
 5434SOL    HW217202   3.170   0.456   5.808
 5435SOL     OW17203   5.901   0.117   1.945
 5435SOL    HW117204   5.949   0.139   2.030
 5435SOL    HW217205   5.848   0.196   1.916
 5436SOL     OW17206   4.790   3.930   3.986
 5436SOL    HW117207   4.799   3.993   4.063
 5436SOL    HW217208   4.836   3.844   4.009
 5437SOL     OW17209   2.719   4.171   0.368
 5437SOL    HW117210   2.689   4.251   0.316
 5437SOL    HW217211   2.810   4.143   0.337
 5438SOL     OW17212   6.865   2.254   1.802
 5438SOL    HW117213   6.927   2.208   1.738
 5438SOL    HW217214   6.830   2.337   1.760
 5439SOL     OW17215   1.279   1.682   1.406
 5439SOL    HW117216   1.233   1.770   1.397
 5439SOL    HW217217   1.366   1.695   1.453
 5440SOL     OW17218   1.393   1.070   1.028
 5440SOL    HW117219   1.441   1.158   1.034
 5440SOL    HW217220   1.370   1.038   1.120
 5441SOL     OW17221   4.056   1.790   3.893
 5441SOL    HW117222   3.980   1.829   3.946
 5441SOL    HW217223   4.120   1.863   3.869
 5442SOL     OW17224   4.320   6.899   2.660
 5442SOL    HW117225   4.340   6.913   2.563
 5442SOL    HW217226   4.277   6.810   2.673
 5443SOL     OW17227   3.669   6.827   5.059
 5443SOL    HW117228   3.647   6.853   4.965
 5443SOL    HW217229   3.653   6.729   5.071
 5444SOL     OW17230   0.849   0.896   4.020
 5444SOL    HW117231   0.946   0.916   4.009
 5444SOL    HW217232   0.823   0.907   4.116
 5445SOL     OW17233   6.392   4.049   3.503
 5445SOL    HW117234   6.314   3.988   3.493
 5445SOL    HW217235   6.476   4.000   3.479
 5446SOL     OW17236   6.389   5.583   4.791
 5446SOL    HW117237   6.384   5.632   4.704
 5446SOL    HW217238   6.300   5.544   4.813
 5447SOL     OW17239   2.782   2.481   6.962
 5447SOL    HW117240   2.766   2.563   6.907
 5447SOL    HW217241   2.794   2.402   6.902
 5448SOL     OW17242   4.178   2.591   5.484
 5448SOL    HW117243   4.164   2.599   5.385
 5448SOL    HW217244   4.245   2.520   5.503
 5449SOL     OW17245   1.289   2.509   6.272
 5449SOL    HW117246   1.355   2.569   6.316
 5449SOL    HW217247   1.207   2.502   6.329
 5450SOL     OW17248   2.063   0.747   1.645
 5450SOL    HW117249   2.162   0.757   1.653
 5450SOL    HW217250   2.041   0.690   1.566
 5451SOL     OW17251   1.838   6.142   3.453
 5451SOL    HW117252   1.799   6.169   3.365
 5451SOL    HW217253   1.791   6.191   3.527
 5452SOL     OW17254   2.309   4.813   6.916
 5452SOL    HW117255   2.290   4.738   6.853
 5452SOL    HW217256   2.378   4.874   6.877
 5453SOL     OW17257   6.510   3.811   0.670
 5453SOL    HW117258   6.553   3.898   0.696
 5453SOL    HW217259   6.502   3.806   0.570
 5454SOL     OW17260   0.242   4.155   6.987
 5454SOL    HW117261   0.260   4.100   0.046
 5454SOL    HW217262   0.210   4.246   7.014
 5455SOL     OW17263   6.440   3.000   0.358
 5455SOL    HW117264   6.438   2.900   0.356
 5455SOL    HW217265   6.347   3.035   0.373
 5456SOL     OW17266   3.644   0.005   6.360
 5456SOL    HW117267   3.579   7.011   6.434
 5456SOL    HW217268   3.698   6.945   6.344
 5457SOL     OW17269   5.322   2.159   1.112
 5457SOL    HW117270   5.301   2.256   1.098
 5457SOL    HW217271   5.337   2.115   1.024
 5458SOL     OW17272   0.937   4.721   6.928
 5458SOL    HW117273   1.012   4.672   6.884
 5458SOL    HW217274   0.935   4.698   0.003
 5459SOL     OW17275   1.776   5.436   0.630
 5459SOL    HW117276   1.717   5.380   0.572
 5459SOL    HW217277   1.738   5.439   0.723
 5460SOL     OW17278   3.395   0.111   2.046
 5460SOL    HW117279   3.308   0.078   2.081
 5460SOL    HW217280   3.467   0.044   2.065
 5461SOL     OW17281   5.824   6.410   5.095
 5461SOL    HW117282   5.759   6.420   5.020
 5461SOL    HW217283   5.915   6.392   5.059
 5462SOL     OW17284   1.837   0.533   0.636
 5462SOL    HW117285   1.926   0.488   0.647
 5462SOL    HW217286   1.766   0.478   0.679
 5463SOL     OW17287   6.150   2.051   0.589
 5463SOL    HW117288   6.180   2.110   0.664
 5463SOL    HW217289   6.118   2.107   0.513
 5464SOL     OW17290   1.146   0.490   4.210
 5464SOL    HW117291   1.080   0.561   4.186
 5464SOL    HW217292   1.220   0.529   4.265
 5465SOL     OW17293   3.542   6.919   3.419
 5465SOL    HW117294   3.617   6.959   3.367
 5465SOL    HW217295   3.459   6.917   3.362
 5466SOL     OW17296   5.619   4.772   4.770
 5466SOL    HW117297   5.553   4.829   4.721
 5466SOL    HW217298   5.712   4.800   4.747
 5467SOL     OW17299   5.050   1.980   2.852
 5467SOL    HW117300   5.105   2.020   2.925
 5467SOL    HW217301   4.964   1.945   2.890
 5468SOL     OW17302   4.945   1.629   4.379
 5468SOL    HW117303   4.957   1.653   4.476
 5468SOL    HW217304   4.901   1.705   4.332
 5469SOL     OW17305   3.563   4.816   6.321
 5469SOL    HW117306   3.497   4.746   6.293
 5469SOL    HW217307   3.605   4.855   6.239
 5470SOL     OW17308   1.770   5.140   3.523
 5470SOL    HW117309   1.764   5.041   3.535
 5470SOL    HW217310   1.715   5.167   3.444
 5471SOL     OW17311   5.716   6.632   1.024
 5471SOL    HW117312   5.760   6.599   1.107
 5471SOL    HW217313   5.636   6.576   1.003
 5472SOL     OW17314   4.613   4.089   6.123
 5472SOL    HW117315   4.687   4.094   6.190
 5472SOL    HW217316   4.541   4.155   6.147
 5473SOL     OW17317   0.748   3.646   3.264
 5473SOL    HW117318   0.728   3.636   3.362
 5473SOL    HW217319   0.840   3.613   3.246
 5474SOL     OW17320   1.356   4.665   4.276
 5474SOL    HW117321   1.276   4.662   4.337
 5474SOL    HW217322   1.325   4.672   4.181
 5475SOL     OW17323   3.546   2.763   1.234
 5475SOL    HW117324   3.464   2.816   1.254
 5475SOL    HW217325   3.580   2.720   1.319
 5476SOL     OW17326   2.430   3.489   6.448
 5476SOL    HW117327   2.448   3.575   6.401
 5476SOL    HW217328   2.411   3.418   6.380
 5477SOL     OW17329   2.111   3.773   3.488
 5477SOL    HW117330   2.144   3.816   3.572
 5477SOL    HW217331   2.011   3.774   3.487
 5478SOL     OW17332   5.666   5.649   6.263
 5478SOL    HW117333   5.684   5.551   6.255
 5478SOL    HW217334   5.753   5.699   6.264
 5479SOL     OW17335   4.767   1.107   5.089
 5479SOL    HW117336   4.762   1.073   5.183
 5479SOL    HW217337   4.858   1.146   5.073
 5480SOL     OW17338   1.146   3.758   4.292
 5480SOL    HW117339   1.078   3.832   4.292
 5480SOL    HW217340   1.102   3.672   4.266
 5481SOL     OW17341   2.929   0.266   4.581
 5481SOL    HW117342   2.830   0.274   4.580
 5481SOL    HW217343   2.956   0.178   4.618
 5482SOL     OW17344   3.711   4.598   1.600
 5482SOL    HW117345   3.651   4.624   1.675
 5482SOL    HW217346   3.661   4.602   1.514
 5483SOL     OW17347   0.787   3.241   5.567
 5483SOL    HW117348   0.866   3.184   5.546
 5483SOL    HW217349   0.730   3.251   5.485
 5484SOL     OW17350   4.418   0.618   4.896
 5484SOL    HW117351   4.433   0.618   4.995
 5484SOL    HW217352   4.459   0.699   4.856
 5485SOL     OW17353   2.703   6.626   5.395
 5485SOL    HW117354   2.699   6.689   5.473
 5485SOL    HW217355   2.797   6.591   5.385
 5486SOL     OW17356   2.440   5.662   5.172
 5486SOL    HW117357   2.470   5.572   5.139
 5486SOL    HW217358   2.363   5.693   5.116
 5487SOL     OW17359   3.028   4.277   5.938
 5487SOL    HW117360   3.096   4.205   5.924
 5487SOL    HW217361   3.032   4.343   5.863
 5488SOL     OW17362   6.545   1.138   0.427
 5488SOL    HW117363   6.531   1.204   0.353
 5488SOL    HW217364   6.536   1.184   0.515
 5489SOL     OW17365   6.488   3.214   2.239
 5489SOL    HW117366   6.587   3.227   2.245
 5489SOL    HW217367   6.446   3.295   2.197
 5490SOL     OW17368   1.205   6.785   2.512
 5490SOL    HW117369   1.115   6.827   2.518
 5490SOL    HW217370   1.250   6.814   2.427
 5491SOL     OW17371   6.870   3.090   0.515
 5491SOL    HW117372   6.949   3.143   0.548
 5491SOL    HW217373   6.813   3.147   0.457
 5492SOL     OW17374   0.953   3.050   5.496
 5492SOL    HW117375   1.048   3.026   5.473
 5492SOL    HW217376   0.891   2.999   5.437
 5493SOL     OW17377   4.163   3.686   1.822
 5493SOL    HW117378   4.163   3.684   1.922
 5493SOL    HW217379   4.143   3.594   1.787
 5494SOL     OW17380   6.018   4.588   4.859
 5494SOL    HW117381   6.078   4.527   4.912
 5494SOL    HW217382   5.946   4.623   4.919
 5495SOL     OW17383   6.412   0.566   0.674
 5495SOL    HW117384   6.320   0.573   0.713
 5495SOL    HW217385   6.477   0.612   0.733
 5496SOL     OW17386   4.589   0.528   4.477
 5496SOL    HW117387   4.549   0.439   4.456
 5496SOL    HW217388   4.636   0.564   4.397
 5497SOL     OW17389   0.314   0.752   5.580
 5497SOL    HW117390   0.310   0.828   5.516
 5497SOL    HW217391   0.255   0.771   5.659
 5498SOL     OW17392   0.288   4.643   1.803
 5498SOL    HW117393   0.290   4.742   1.820
 5498SOL    HW217394   0.200   4.607   1.834
 5499SOL     OW17395   6.919   0.438   4.213
 5499SOL    HW117396   6.944   0.529   4.180
 5499SOL    HW217397   6.840   0.404   4.162
 5500SOL     OW17398   1.859   0.581   0.118
 5500SOL    HW117399   1.762   0.605   0.129
 5500SOL    HW217400   1.900   0.570   0.209
 5501SOL     OW17401   4.075   1.876   0.228
 5501SOL    HW117402   3.995   1.817   0.236
 5501SOL    HW217403   4.158   1.820   0.220
 5502SOL     OW17404   5.152   3.650   6.553
 5502SOL    HW117405   5.223   3.643   6.623
 5502SOL    HW217406   5.188   3.700   6.474
 5503SOL     OW17407   0.240   3.707   0.154
 5503SOL    HW117408   0.266   3.624   0.203
 5503SOL    HW217409   0.148   3.694   0.115
 5504SOL     OW17410   4.016   1.380   6.708
 5504SOL    HW117411   3.985   1.471   6.734
 5504SOL    HW217412   3.950   1.338   6.645
 5505SOL     OW17413   2.349   4.252   4.116
 5505SOL    HW117414   2.290   4.190   4.063
 5505SOL    HW217415   2.356   4.340   4.069
 5506SOL     OW17416   0.314   3.565   6.051
 5506SOL    HW117417   0.310   3.625   6.131
 5506SOL    HW217418   0.238   3.501   6.054
 5507SOL     OW17419   3.180   0.201   6.240
 5507SOL    HW117420   3.139   0.290   6.260
 5507SOL    HW217421   3.169   0.140   6.318
 5508SOL     OW17422   0.848   1.002   6.682
 5508SOL    HW117423   0.925   1.022   6.621
 5508SOL    HW217424   0.884   0.965   6.768
 5509SOL     OW17425   6.984   5.212   1.044
 5509SOL    HW117426   0.015   5.183   1.124
 5509SOL    HW217427   6.903   5.155   1.038
 5510SOL     OW17428   4.461   5.730   0.292
 5510SOL    HW117429   4.561   5.739   0.299
 5510SOL    HW217430   4.436   5.711   0.197
 5511SOL     OW17431   0.699   1.644   5.351
 5511SOL    HW117432   0.654   1.561   5.316
 5511SOL    HW217433   0.646   1.680   5.429
 5512SOL     OW17434   3.817   1.018   2.281
 5512SOL    HW117435   3.760   1.065   2.214
 5512SOL    HW217436   3.761   0.954   2.334
 5513SOL     OW17437   4.383   4.479   6.529
 5513SOL    HW117438   4.406   4.411   6.459
 5513SOL    HW217439   4.466   4.503   6.580
 5514SOL     OW17440   2.985   6.567   5.369
 5514SOL    HW117441   3.049   6.577   5.292
 5514SOL    HW217442   3.032   6.523   5.446
 5515SOL     OW17443   1.800   5.665   2.108
 5515SOL    HW117444   1.741   5.648   2.187
 5515SOL    HW217445   1.818   5.578   2.061
 5516SOL     OW17446   2.628   2.785   5.330
 5516SOL    HW117447   2.596   2.782   5.424
 5516SOL    HW217448   2.597   2.869   5.286
 5517SOL     OW17449   1.888   3.954   2.722
 5517SOL    HW117450   1.806   3.944   2.666
 5517SOL    HW217451   1.908   3.868   2.768
 5518SOL     OW17452   4.892   4.669   5.123
 5518SOL    HW117453   4.916   4.581   5.165
 5518SOL    HW217454   4.829   4.718   5.184
 5519SOL     OW17455   4.462   2.448   3.595
 5519SOL    HW117456   4.493   2.474   3.503
 5519SOL    HW217457   4.411   2.362   3.590
 5520SOL     OW17458   5.398   6.821   2.388
 5520SOL    HW117459   5.439   6.730   2.383
 5520SOL    HW217460   5.388   6.847   2.484
 5521SOL     OW17461   5.612   5.285   2.009
 5521SOL    HW117462   5.688   5.266   2.072
 5521SOL    HW217463   5.527   5.253   2.049
 5522SOL     OW17464   5.594   5.088   0.906
 5522SOL    HW117465   5.583   5.187   0.908
 5522SOL    HW217466   5.580   5.055   0.812
 5523SOL     OW17467   6.103   1.384   2.487
 5523SOL    HW117468   6.038   1.320   2.447
 5523SOL    HW217469   6.176   1.404   2.421
 5524SOL     OW17470   3.296   0.761   4.821
 5524SOL    HW117471   3.297   0.858   4.844
 5524SOL    HW217472   3.373   0.739   4.762
 5525SOL     OW17473   6.862   2.619   1.403
 5525SOL    HW117474   6.885   2.546   1.339
 5525SOL    HW217475   6.765   2.641   1.395
 5526SOL     OW17476   4.612   4.776   3.302
 5526SOL    HW117477   4.631   4.752   3.207
 5526SOL    HW217478   4.611   4.693   3.358
 5527SOL     OW17479   5.326   2.406   4.144
 5527SOL    HW117480   5.377   2.455   4.073
 5527SOL    HW217481   5.388   2.383   4.219
 5528SOL     OW17482   1.045   1.579   1.335
 5528SOL    HW117483   1.056   1.484   1.307
 5528SOL    HW217484   1.135   1.623   1.341
 5529SOL     OW17485   3.303   0.581   2.688
 5529SOL    HW117486   3.211   0.567   2.651
 5529SOL    HW217487   3.317   0.678   2.706
 5530SOL     OW17488   6.583   2.150   1.455
 5530SOL    HW117489   6.510   2.084   1.438
 5530SOL    HW217490   6.656   2.108   1.509
 5531SOL     OW17491   3.803   3.876   1.218
 5531SOL    HW117492   3.893   3.889   1.260
 5531SOL    HW217493   3.745   3.823   1.280
 5532SOL     OW17494   1.716   2.921   1.393
 5532SOL    HW117495   1.700   2.937   1.491
 5532SOL    HW217496   1.797   2.864   1.382
 5533SOL     OW17497   4.105   1.908   4.199
 5533SOL    HW117498   4.159   1.991   4.187
 5533SOL    HW217499   4.090   1.892   4.297
 5534SOL     OW17500   0.998   1.711   5.672
 5534SOL    HW117501   0.913   1.722   5.724
 5534SOL    HW217502   1.024   1.799   5.632
 5535SOL     OW17503   1.025   2.037   3.479
 5535SOL    HW117504   1.005   1.985   3.395
 5535SOL    HW217505   0.940   2.074   3.517
 5536SOL     OW17506   3.112   0.722   4.610
 5536SOL    HW117507   3.193   0.704   4.665
 5536SOL    HW217508   3.071   0.809   4.637
 5537SOL     OW17509   2.723   1.048   2.941
 5537SOL    HW117510   2.796   0.981   2.950
 5537SOL    HW217511   2.637   1.001   2.921
 5538SOL     OW17512   4.867   5.845   5.002
 5538SOL    HW117513   4.932   5.864   4.928
 5538SOL    HW217514   4.811   5.926   5.018
 5539SOL     OW17515   2.576   2.613   1.275
 5539SOL    HW117516   2.561   2.538   1.339
 5539SOL    HW217517   2.672   2.613   1.246
 5540SOL     OW17518   4.873   4.662   2.902
 5540SOL    HW117519   4.796   4.700   2.851
 5540SOL    HW217520   4.906   4.729   2.968
 5541SOL     OW17521   4.909   1.269   5.714
 5541SOL    HW117522   4.860   1.195   5.760
 5541SOL    HW217523   4.958   1.232   5.635
 5542SOL     OW17524   3.971   4.459   6.314
 5542SOL    HW117525   4.007   4.509   6.392
 5542SOL    HW217526   4.037   4.390   6.285
 5543SOL     OW17527   6.492   2.730   6.223
 5543SOL    HW117528   6.534   2.676   6.296
 5543SOL    HW217529   6.421   2.677   6.178
 5544SOL     OW17530   5.885   0.837   5.667
 5544SOL    HW117531   5.865   0.764   5.732
 5544SOL    HW217532   5.887   0.925   5.714
 5545SOL     OW17533   3.426   2.072   2.367
 5545SOL    HW117534   3.427   2.081   2.267
 5545SOL    HW217535   3.506   2.020   2.397
 5546SOL     OW17536   1.927   4.915   5.786
 5546SOL    HW117537   1.952   5.010   5.801
 5546SOL    HW217538   1.906   4.900   5.689
 5547SOL     OW17539   3.203   5.300   5.300
 5547SOL    HW117540   3.237   5.274   5.210
 5547SOL    HW217541   3.118   5.353   5.289
 5548SOL     OW17542   6.612   3.708   5.267
 5548SOL    HW117543   6.709   3.723   5.285
 5548SOL    HW217544   6.577   3.780   5.207
 5549SOL     OW17545   2.796   5.040   6.979
 5549SOL    HW117546   2.818   5.022   6.883
 5549SOL    HW217547   2.861   5.106   7.016
 5550SOL     OW17548   4.366   6.649   1.133
 5550SOL    HW117549   4.310   6.725   1.167
 5550SOL    HW217550   4.460   6.660   1.165
 5551SOL     OW17551   1.142   1.652   3.251
 5551SOL    HW117552   1.227   1.662   3.198
 5551SOL    HW217553   1.091   1.738   3.248
 5552SOL     OW17554   0.126   2.465   1.529
 5552SOL    HW117555   0.120   2.517   1.444
 5552SOL    HW217556   0.051   2.492   1.590
 5553SOL     OW17557   5.394   6.097   0.909
 5553SOL    HW117558   5.358   6.018   0.860
 5553SOL    HW217559   5.479   6.072   0.956
 5554SOL     OW17560   3.004   1.949   4.873
 5554SOL    HW117561   2.943   2.025   4.895
 5554SOL    HW217562   3.093   1.986   4.846
 5555SOL     OW17563   0.087   5.516   3.463
 5555SOL    HW117564   0.146   5.523   3.543
 5555SOL    HW217565   0.141   5.492   3.382
 5556SOL     OW17566   0.340   1.939   4.967
 5556SOL    HW117567   0.375   1.870   5.031
 5556SOL    HW217568   0.347   2.030   5.009
 5557SOL     OW17569   2.242   0.138   3.760
 5557SOL    HW117570   2.267   0.224   3.716
 5557SOL    HW217571   2.142   0.128   3.760
 5558SOL     OW17572   5.097   3.319   5.137
 5558SOL    HW117573   5.102   3.236   5.080
 5558SOL    HW217574   5.003   3.333   5.168
 5559SOL     OW17575   2.022   0.373   1.199
 5559SOL    HW117576   1.943   0.332   1.153
 5559SOL    HW217577   2.049   0.457   1.151
 5560SOL     OW17578   0.221   1.269   3.873
 5560SOL    HW117579   0.249   1.308   3.785
 5560SOL    HW217580   0.266   1.319   3.947
 5561SOL     OW17581   1.413   2.754   3.452
 5561SOL    HW117582   1.478   2.800   3.512
 5561SOL    HW217583   1.462   2.696   3.387
 5562SOL     OW17584   2.549   2.867   6.284
 5562SOL    HW117585   2.571   2.885   6.380
 5562SOL    HW217586   2.587   2.778   6.257
 5563SOL     OW17587   4.533   5.969   1.716
 5563SOL    HW117588   4.566   6.060   1.689
 5563SOL    HW217589   4.448   5.979   1.768
 5564SOL     OW17590   5.520   3.963   1.980
 5564SOL    HW117591   5.489   4.056   1.962
 5564SOL    HW217592   5.457   3.919   2.045
 5565SOL     OW17593   3.511   3.126   5.689
 5565SOL    HW117594   3.575   3.169   5.625
 5565SOL    HW217595   3.426   3.178   5.691
 5566SOL     OW17596   1.737   4.790   1.299
 5566SOL    HW117597   1.723   4.883   1.268
 5566SOL    HW217598   1.820   4.752   1.257
 5567SOL     OW17599   1.358   5.423   1.716
 5567SOL    HW117600   1.259   5.408   1.724
 5567SOL    HW217601   1.394   5.368   1.641
 5568SOL     OW17602   3.221   2.182   1.495
 5568SOL    HW117603   3.272   2.236   1.428
 5568SOL    HW217604   3.225   2.227   1.584
 5569SOL     OW17605   5.137   1.638   0.156
 5569SOL    HW117606   5.076   1.656   0.233
 5569SOL    HW217607   5.198   1.562   0.178
 5570SOL     OW17608   6.917   4.525   5.824
 5570SOL    HW117609   6.887   4.433   5.849
 5570SOL    HW217610   6.922   4.534   5.725
 5571SOL     OW17611   6.940   4.943   6.248
 5571SOL    HW117612   6.911   4.903   6.335
 5571SOL    HW217613   7.012   4.886   6.207
 5572SOL     OW17614   5.154   2.507   6.362
 5572SOL    HW117615   5.147   2.604   6.341
 5572SOL    HW217616   5.248   2.486   6.392
 5573SOL     OW17617   0.879   3.949   0.521
 5573SOL    HW117618   0.919   3.885   0.456
 5573SOL    HW217619   0.894   3.917   0.614
 5574SOL     OW17620   0.657   5.916   4.973
 5574SOL    HW117621   0.623   5.829   5.007
 5574SOL    HW217622   0.716   5.900   4.894
 5575SOL     OW17623   1.802   0.771   0.794
 5575SOL    HW117624   1.844   0.701   0.737
 5575SOL    HW217625   1.873   0.833   0.828
 5576SOL     OW17626   6.111   5.881   6.856
 5576SOL    HW117627   6.083   5.975   6.836
 5576SOL    HW217628   6.031   5.822   6.860
 5577SOL     OW17629   2.078   3.874   5.475
 5577SOL    HW117630   2.107   3.778   5.473
 5577SOL    HW217631   2.114   3.922   5.395
 5578SOL     OW17632   3.761   2.682   6.825
 5578SOL    HW117633   3.774   2.780   6.810
 5578SOL    HW217634   3.714   2.642   6.746
 5579SOL     OW17635   5.106   4.293   0.081
 5579SOL    HW117636   5.034   4.264   0.018
 5579SOL    HW217637   5.092   4.249   0.170
 5580SOL     OW17638   6.106   1.460   0.494
 5580SOL    HW117639   6.061   1.378   0.460
 5580SOL    HW217640   6.152   1.440   0.580
 5581SOL     OW17641   2.238   2.102   6.980
 5581SOL    HW117642   2.159   2.077   0.012
 5581SOL    HW217643   2.277   2.188   7.014
 5582SOL     OW17644   3.881   3.540   3.268
 5582SOL    HW117645   3.808   3.546   3.336
 5582SOL    HW217646   3.947   3.471   3.297
 5583SOL     OW17647   4.406   0.063   1.199
 5583SOL    HW117648   4.365   0.029   1.284
 5583SOL    HW217649   4.498   0.025   1.189
 5584SOL     OW17650   6.498   3.181   3.405
 5584SOL    HW117651   6.595   3.191   3.384
 5584SOL    HW217652   6.469   3.087   3.385
 5585SOL     OW17653   6.078   0.065   4.326
 5585SOL    HW117654   6.143   0.054   4.250
 5585SOL    HW217655   6.106   0.143   4.382
 5586SOL     OW17656   2.049   1.062   6.337
 5586SOL    HW117657   2.005   1.049   6.426
 5586SOL    HW217658   1.980   1.075   6.266
 5587SOL     OW17659   3.463   0.142   4.203
 5587SOL    HW117660   3.464   0.138   4.103
 5587SOL    HW217661   3.480   0.236   4.232
 5588SOL     OW17662   3.967   0.368   6.198
 5588SOL    HW117663   3.868   0.368   6.190
 5588SOL    HW217664   4.005   0.287   6.154
 5589SOL     OW17665   4.489   3.132   6.865
 5589SOL    HW117666   4.582   3.104   6.844
 5589SOL    HW217667   4.477   3.137   6.964
 5590SOL     OW17668   0.299   6.444   3.410
 5590SOL    HW117669   0.397   6.447   3.390
 5590SOL    HW217670   0.256   6.369   3.359
 5591SOL     OW17671   4.704   1.109   0.084
 5591SOL    HW117672   4.618   1.110   0.034
 5591SOL    HW217673   4.778   1.081   0.023
 5592SOL     OW17674   1.826   2.605   2.451
 5592SOL    HW117675   1.743   2.595   2.505
 5592SOL    HW217676   1.890   2.531   2.474
 5593SOL     OW17677   1.770   3.238   5.715
 5593SOL    HW117678   1.760   3.155   5.770
 5593SOL    HW217679   1.867   3.261   5.709
 5594SOL     OW17680   2.363   0.593   6.943
 5594SOL    HW117681   2.274   0.556   6.917
 5594SOL    HW217682   2.408   0.631   6.862
 5595SOL     OW17683   6.737   2.184   5.872
 5595SOL    HW117684   6.773   2.156   5.962
 5595SOL    HW217685   6.789   2.139   5.800
 5596SOL     OW17686   5.044   1.225   3.362
 5596SOL    HW117687   5.110   1.285   3.406
 5596SOL    HW217688   5.022   1.260   3.271
 5597SOL     OW17689   0.239   1.221   5.999
 5597SOL    HW117690   0.200   1.291   6.058
 5597SOL    HW217691   0.169   1.153   5.976
 5598SOL     OW17692   6.846   2.211   4.183
 5598SOL    HW117693   6.821   2.175   4.273
 5598SOL    HW217694   6.802   2.157   4.112
 5599SOL     OW17695   5.131   2.779   3.387
 5599SOL    HW117696   5.143   2.787   3.486
 5599SOL    HW217697   5.034   2.785   3.365
 5600SOL     OW17698   2.720   1.553   2.190
 5600SOL    HW117699   2.804   1.535   2.138
 5600SOL    HW217700   2.679   1.466   2.217
 5601SOL     OW17701   5.667   2.845   5.611
 5601SOL    HW117702   5.698   2.754   5.636
 5601SOL    HW217703   5.710   2.913   5.671
 5602SOL     OW17704   6.479   2.302   2.606
 5602SOL    HW117705   6.520   2.377   2.553
 5602SOL    HW217706   6.536   2.220   2.597
 5603SOL     OW17707   4.298   1.476   5.270
 5603SOL    HW117708   4.208   1.463   5.229
 5603SOL    HW217709   4.339   1.387   5.289
 5604SOL     OW17710   0.868   0.631   4.389
 5604SOL    HW117711   0.876   0.548   4.334
 5604SOL    HW217712   0.822   0.702   4.336
 5605SOL     OW17713   3.503   6.213   4.417
 5605SOL    HW117714   3.481   6.150   4.492
 5605SOL    HW217715   3.546   6.162   4.342
 5606SOL     OW17716   4.412   2.451   0.519
 5606SOL    HW117717   4.405   2.417   0.425
 5606SOL    HW217718   4.398   2.550   0.520
 5607SOL     OW17719   6.327   2.529   2.509
 5607SOL    HW117720   6.272   2.513   2.427
 5607SOL    HW217721   6.423   2.509   2.490
 5608SOL     OW17722   5.004   0.674   3.478
 5608SOL    HW117723   4.915   0.672   3.432
 5608SOL    HW217724   4.996   0.728   3.562
 5609SOL     OW17725   0.339   0.294   0.606
 5609SOL    HW117726   0.411   0.363   0.610
 5609SOL    HW217727   0.378   0.207   0.574
 5610SOL     OW17728   5.563   4.550   0.516
 5610SOL    HW117729   5.635   4.482   0.532
 5610SOL    HW217730   5.481   4.504   0.482
 5611SOL     OW17731   6.447   4.740   1.476
 5611SOL    HW117732   6.379   4.667   1.483
 5611SOL    HW217733   6.535   4.707   1.511
 5612SOL     OW17734   3.075   1.714   0.252
 5612SOL    HW117735   3.030   1.645   0.309
 5612SOL    HW217736   3.119   1.668   0.175
 5613SOL     OW17737   6.296   5.154   5.793
 5613SOL    HW117738   6.240   5.184   5.716
 5613SOL    HW217739   6.357   5.228   5.821
 5614SOL     OW17740   5.523   2.779   3.920
 5614SOL    HW117741   5.490   2.684   3.923
 5614SOL    HW217742   5.483   2.825   3.841
 5615SOL     OW17743   0.260   2.808   2.927
 5615SOL    HW117744   0.211   2.723   2.911
 5615SOL    HW217745   0.229   2.850   3.012
 5616SOL     OW17746   1.337   3.068   2.715
 5616SOL    HW117747   1.307   3.080   2.620
 5616SOL    HW217748   1.258   3.067   2.775
 5617SOL     OW17749   1.942   5.062   6.144
 5617SOL    HW117750   1.945   5.148   6.196
 5617SOL    HW217751   1.939   5.082   6.046
 5618SOL     OW17752   6.132   5.831   3.048
 5618SOL    HW117753   6.067   5.764   3.013
 5618SOL    HW217754   6.126   5.915   2.994
 5619SOL     OW17755   3.758   2.941   3.788
 5619SOL    HW117756   3.700   2.927   3.708
 5619SOL    HW217757   3.701   2.945   3.870
 5620SOL     OW17758   5.125   4.096   5.169
 5620SOL    HW117759   5.048   4.035   5.190
 5620SOL    HW217760   5.168   4.067   5.083
 5621SOL     OW17761   1.624   2.147   5.454
 5621SOL    HW117762   1.606   2.212   5.528
 5621SOL    HW217763   1.692   2.186   5.391
 5622SOL     OW17764   4.661   5.937   4.464
 5622SOL    HW117765   4.637   5.840   4.458
 5622SOL    HW217766   4.758   5.949   4.444
 5623SOL     OW17767   5.009   5.750   3.463
 5623SOL    HW117768   5.096   5.797   3.448
 5623SOL    HW217769   4.935   5.817   3.470
 5624SOL     OW17770   6.268   5.356   3.800
 5624SOL    HW117771   6.285   5.451   3.778
 5624SOL    HW217772   6.259   5.346   3.899
 5625SOL     OW17773   1.087   6.441   5.002
 5625SOL    HW117774   1.068   6.393   4.917
 5625SOL    HW217775   1.094   6.539   4.984
 5626SOL     OW17776   0.798   4.318   6.239
 5626SOL    HW117777   0.744   4.316   6.155
 5626SOL    HW217778   0.880   4.262   6.227
 5627SOL     OW17779   0.389   6.031   0.234
 5627SOL    HW117780   0.465   5.984   0.278
 5627SOL    HW217781   0.407   6.130   0.234
 5628SOL     OW17782   2.314   2.351   1.598
 5628SOL    HW117783   2.356   2.435   1.565
 5628SOL    HW217784   2.338   2.337   1.694
 5629SOL     OW17785   5.449   3.425   2.362
 5629SOL    HW117786   5.432   3.518   2.393
 5629SOL    HW217787   5.543   3.417   2.330
 5630SOL     OW17788   1.476   4.136   6.919
 5630SOL    HW117789   1.530   4.204   6.869
 5630SOL    HW217790   1.526   4.050   6.923
 5631SOL     OW17791   4.052   1.611   1.783
 5631SOL    HW117792   4.072   1.664   1.865
 5631SOL    HW217793   4.091   1.657   1.703
 5632SOL     OW17794   5.466   6.987   5.825
 5632SOL    HW117795   5.398   6.963   5.756
 5632SOL    HW217796   5.427   0.031   5.889
 5633SOL     OW17797   0.814   5.033   5.814
 5633SOL    HW117798   0.781   5.016   5.907
 5633SOL    HW217799   0.911   5.056   5.816
 5634SOL     OW17800   2.458   6.887   1.448
 5634SOL    HW117801   2.393   6.876   1.372
 5634SOL    HW217802   2.528   6.954   1.423
 5635SOL     OW17803   2.521   0.803   0.088
 5635SOL    HW117804   2.467   0.724   0.061
 5635SOL    HW217805   2.596   0.816   0.024
 5636SOL     OW17806   5.991   1.601   5.596
 5636SOL    HW117807   6.071   1.604   5.657
 5636SOL    HW217808   6.019   1.624   5.503
 5637SOL     OW17809   4.898   6.701   4.661
 5637SOL    HW117810   4.837   6.652   4.598
 5637SOL    HW217811   4.992   6.695   4.626
 5638SOL     OW17812   6.052   5.717   1.142
 5638SOL    HW117813   6.096   5.660   1.072
 5638SOL    HW217814   5.998   5.788   1.098
 5639SOL     OW17815   1.677   0.276   1.216
 5639SOL    HW117816   1.746   0.302   1.149
 5639SOL    HW217817   1.626   0.197   1.181
 5640SOL     OW17818   3.054   6.277   2.886
 5640SOL    HW117819   2.986   6.243   2.820
 5640SOL    HW217820   3.146   6.267   2.847
 5641SOL     OW17821   1.195   4.274   4.459
 5641SOL    HW117822   1.289   4.297   4.484
 5641SOL    HW217823   1.161   4.202   4.520
 5642SOL     OW17824   1.698   5.032   6.916
 5642SOL    HW117825   1.782   5.082   6.895
 5642SOL    HW217826   1.704   4.939   6.881
 5643SOL     OW17827   4.463   2.197   5.068
 5643SOL    HW117828   4.408   2.128   5.115
 5643SOL    HW217829   4.438   2.198   4.971
 5644SOL     OW17830   4.415   1.144   5.159
 5644SOL    HW117831   4.397   1.131   5.061
 5644SOL    HW217832   4.514   1.139   5.176
 5645SOL     OW17833   5.663   5.477   4.366
 5645SOL    HW117834   5.642   5.434   4.278
 5645SOL    HW217835   5.739   5.429   4.409
 5646SOL     OW17836   0.195   5.825   4.519
 5646SOL    HW117837   0.278   5.875   4.545
 5646SOL    HW217838   0.122   5.846   4.583
 5647SOL     OW17839   5.449   5.348   5.892
 5647SOL    HW117840   5.396   5.320   5.972
 5647SOL    HW217841   5.472   5.445   5.899
 5648SOL     OW17842   1.638   1.770   4.977
 5648SOL    HW117843   1.566   1.715   4.935
 5648SOL    HW217844   1.701   1.711   5.027
 5649SOL     OW17845   0.506   0.955   5.357
 5649SOL    HW117846   0.421   0.995   5.391
 5649SOL    HW217847   0.565   1.027   5.322
 5650SOL     OW17848   6.049   4.799   6.638
 5650SOL    HW117849   6.139   4.825   6.603
 5650SOL    HW217850   6.058   4.721   6.699
 5651SOL     OW17851   6.908   0.418   2.873
 5651SOL    HW117852   6.856   0.369   2.803
 5651SOL    HW217853   6.863   0.505   2.893
 5652SOL     OW17854   4.810   4.746   0.818
 5652SOL    HW117855   4.729   4.703   0.857
 5652SOL    HW217856   4.786   4.789   0.731
 5653SOL     OW17857   1.499   5.958   6.304
 5653SOL    HW117858   1.570   5.999   6.362
 5653SOL    HW217859   1.425   5.924   6.361
 5654SOL     OW17860   7.019   6.283   5.969
 5654SOL    HW117861   0.069   6.228   5.928
 5654SOL    HW217862   0.027   6.320   6.057
 5655SOL     OW17863   6.898   3.270   3.726
 5655SOL    HW117864   6.968   3.314   3.783
 5655SOL    HW217865   6.872   3.332   3.651
 5656SOL     OW17866   3.570   4.602   0.197
 5656SOL    HW117867   3.626   4.522   0.175
 5656SOL    HW217868   3.623   4.666   0.252
 5657SOL     OW17869   3.966   6.844   2.165
 5657SOL    HW117870   4.003   6.802   2.248
 5657SOL    HW217871   3.883   6.894   2.187
 5658SOL     OW17872   4.194   0.164   5.571
 5658SOL    HW117873   4.199   0.127   5.663
 5658SOL    HW217874   4.234   0.099   5.506
 5659SOL     OW17875   3.079   3.953   3.063
 5659SOL    HW117876   3.176   3.931   3.075
 5659SOL    HW217877   3.058   3.958   2.965
 5660SOL     OW17878   5.925   6.585   6.902
 5660SOL    HW117879   6.024   6.579   6.917
 5660SOL    HW217880   5.895   6.680   6.914
 5661SOL     OW17881   6.135   5.548   4.360
 5661SOL    HW117882   6.159   5.489   4.437
 5661SOL    HW217883   6.081   5.625   4.393
 5662SOL     OW17884   2.567   4.579   4.524
 5662SOL    HW117885   2.583   4.514   4.450
 5662SOL    HW217886   2.492   4.640   4.499
 5663SOL     OW17887   1.568   4.437   0.394
 5663SOL    HW117888   1.519   4.448   0.307
 5663SOL    HW217889   1.503   4.410   0.465
 5664SOL     OW17890   0.301   4.556   2.581
 5664SOL    HW117891   0.228   4.609   2.539
 5664SOL    HW217892   0.381   4.554   2.520
 5665SOL     OW17893   2.258   2.763   6.086
 5665SOL    HW117894   2.253   2.709   6.170
 5665SOL    HW217895   2.245   2.860   6.108
 5666SOL     OW17896   5.662   4.673   0.768
 5666SOL    HW117897   5.702   4.582   0.781
 5666SOL    HW217898   5.664   4.696   0.670
 5667SOL     OW17899   0.261   4.998   3.553
 5667SOL    HW117900   0.267   5.049   3.639
 5667SOL    HW217901   0.170   4.958   3.544
 5668SOL     OW17902   5.821   2.399   5.986
 5668SOL    HW117903   5.888   2.373   6.057
 5668SOL    HW217904   5.740   2.342   5.995
 5669SOL     OW17905   0.561   4.274   6.364
 5669SOL    HW117906   0.508   4.230   6.292
 5669SOL    HW217907   0.657   4.277   6.338
 5670SOL     OW17908   0.783   4.005   3.595
 5670SOL    HW117909   0.721   3.932   3.625
 5670SOL    HW217910   0.864   4.006   3.652
 5671SOL     OW17911   2.089   0.807   5.914
 5671SOL    HW117912   2.178   0.829   5.955
 5671SOL    HW217913   2.087   0.710   5.890
 5672SOL     OW17914   4.446   4.976   5.854
 5672SOL    HW117915   4.511   4.916   5.900
 5672SOL    HW217916   4.416   5.048   5.917
 5673SOL     OW17917   0.551   0.623   2.322
 5673SOL    HW117918   0.592   0.536   2.296
 5673SOL    HW217919   0.533   0.677   2.240
 5674SOL     OW17920   6.712   3.461   2.160
 5674SOL    HW117921   6.721   3.560   2.147
 5674SOL    HW217922   6.771   3.413   2.096
 5675SOL     OW17923   4.541   2.531   5.444
 5675SOL    HW117924   4.515   2.442   5.482
 5675SOL    HW217925   4.515   2.535   5.348
 5676SOL     OW17926   2.385   0.459   1.982
 5676SOL    HW117927   2.454   0.523   1.949
 5676SOL    HW217928   2.312   0.450   1.913
 5677SOL     OW17929   6.532   0.513   3.615
 5677SOL    HW117930   6.465   0.588   3.619
 5677SOL    HW217931   6.515   0.457   3.535
 5678SOL     OW17932   2.632   6.408   2.836
 5678SOL    HW117933   2.644   6.335   2.902
 5678SOL    HW217934   2.665   6.378   2.746
 5679SOL     OW17935   2.174   6.550   4.909
 5679SOL    HW117936   2.222   6.579   4.991
 5679SOL    HW217937   2.228   6.480   4.861
 5680SOL     OW17938   1.888   5.792   6.558
 5680SOL    HW117939   1.883   5.801   6.657
 5680SOL    HW217940   1.975   5.830   6.525
 5681SOL     OW17941   1.244   2.576   6.855
 5681SOL    HW117942   1.336   2.569   6.896
 5681SOL    HW217943   1.176   2.583   6.928
 5682SOL     OW17944   1.318   3.725   4.970
 5682SOL    HW117945   1.377   3.668   4.913
 5682SOL    HW217946   1.348   3.721   5.065
 5683SOL     OW17947   3.248   2.254   6.036
 5683SOL    HW117948   3.238   2.198   5.954
 5683SOL    HW217949   3.259   2.350   6.010
 5684SOL     OW17950   3.452   4.160   4.064
 5684SOL    HW117951   3.385   4.088   4.082
 5684SOL    HW217952   3.454   4.224   4.141
 5685SOL     OW17953   6.991   4.919   1.963
 5685SOL    HW117954   6.915   4.939   1.901
 5685SOL    HW217955   0.050   4.966   1.930
 5686SOL     OW17956   3.406   0.042   0.394
 5686SOL    HW117957   3.442   6.982   0.352
 5686SOL    HW217958   3.352   0.093   0.328
 5687SOL     OW17959   5.120   4.865   5.137
 5687SOL    HW117960   5.207   4.832   5.176
 5687SOL    HW217961   5.048   4.798   5.157
 5688SOL     OW17962   5.558   1.779   1.496
 5688SOL    HW117963   5.637   1.754   1.441
 5688SOL    HW217964   5.492   1.829   1.440
 5689SOL     OW17965   3.695   2.481   0.418
 5689SOL    HW117966   3.638   2.457   0.497
 5689SOL    HW217967   3.692   2.406   0.352
 5690SOL     OW17968   5.089   6.397   0.994
 5690SOL    HW117969   5.150   6.423   0.919
 5690SOL    HW217970   4.995   6.391   0.959
 5691SOL     OW17971   1.639   0.262   1.842
 5691SOL    HW117972   1.648   0.333   1.774
 5691SOL    HW217973   1.547   0.264   1.881
 5692SOL     OW17974   6.720   2.501   0.124
 5692SOL    HW117975   6.658   2.488   0.202
 5692SOL    HW217976   6.694   2.584   0.075
 5693SOL     OW17977   4.802   2.533   2.601
 5693SOL    HW117978   4.765   2.611   2.549
 5693SOL    HW217979   4.731   2.463   2.609
 5694SOL     OW17980   0.212   1.902   3.769
 5694SOL    HW117981   0.155   1.980   3.793
 5694SOL    HW217982   0.167   1.818   3.801
 5695SOL     OW17983   1.696   3.462   3.341
 5695SOL    HW117984   1.637   3.485   3.264
 5695SOL    HW217985   1.749   3.380   3.320
 5696SOL     OW17986   2.956   0.503   4.726
 5696SOL    HW117987   3.008   0.579   4.687
 5696SOL    HW217988   2.967   0.422   4.668
 5697SOL     OW17989   6.652   2.541   0.573
 5697SOL    HW117990   6.645   2.460   0.631
 5697SOL    HW217991   6.665   2.622   0.630
 5698SOL     OW17992   0.805   3.705   1.685
 5698SOL    HW117993   0.758   3.739   1.604
 5698SOL    HW217994   0.738   3.681   1.755
 5699SOL     OW17995   6.069   0.667   5.074
 5699SOL    HW117996   6.016   0.715   5.004
 5699SOL    HW217997   6.006   0.625   5.139
 5700SOL     OW17998   1.575   5.758   4.257
 5700SOL    HW117999   1.506   5.826   4.280
 5700SOL    HW218000   1.638   5.795   4.189
 5701SOL     OW18001   6.394   5.427   1.460
 5701SOL    HW118002   6.379   5.437   1.362
 5701SOL    HW218003   6.355   5.340   1.491
 5702SOL     OW18004   2.499   0.427   6.375
 5702SOL    HW118005   2.423   0.365   6.354
 5702SOL    HW218006   2.488   0.511   6.322
 5703SOL     OW18007   4.380   4.912   0.766
 5703SOL    HW118008   4.446   4.843   0.796
 5703SOL    HW218009   4.322   4.874   0.694
 5704SOL     OW18010   4.634   5.494   3.693
 5704SOL    HW118011   4.583   5.480   3.608
 5704SOL    HW218012   4.711   5.555   3.676
 5705SOL     OW18013   6.145   0.716   1.328
 5705SOL    HW118014   6.059   0.760   1.353
 5705SOL    HW218015   6.132   0.663   1.244
 5706SOL     OW18016   1.414   1.369   6.608
 5706SOL    HW118017   1.342   1.419   6.560
 5706SOL    HW218018   1.374   1.319   6.685
 5707SOL     OW18019   2.157   1.712   6.820
 5707SOL    HW118020   2.191   1.799   6.855
 5707SOL    HW218021   2.071   1.726   6.771
 5708SOL     OW18022   4.913   6.820   2.346
 5708SOL    HW118023   4.879   6.887   2.280
 5708SOL    HW218024   4.846   6.747   2.358
 5709SOL     OW18025   0.448   0.064   2.955
 5709SOL    HW118026   0.539   0.026   2.970
 5709SOL    HW218027   0.389   0.042   3.032
 5710SOL     OW18028   3.322   3.198   5.914
 5710SOL    HW118029   3.342   3.102   5.934
 5710SOL    HW218030   3.382   3.257   5.967
 5711SOL     OW18031   4.566   0.968   4.103
 5711SOL    HW118032   4.498   0.897   4.119
 5711SOL    HW218033   4.524   1.058   4.117
 5712SOL     OW18034   0.135   5.848   6.251
 5712SOL    HW118035   0.220   5.852   6.303
 5712SOL    HW218036   0.148   5.892   6.162
 5713SOL     OW18037   0.199   3.166   2.533
 5713SOL    HW118038   0.198   3.186   2.631
 5713SOL    HW218039   0.198   3.251   2.481
 5714SOL     OW18040   1.574   0.878   5.996
 5714SOL    HW118041   1.541   0.826   5.918
 5714SOL    HW218042   1.670   0.903   5.981
 5715SOL     OW18043   1.348   6.567   2.472
 5715SOL    HW118044   1.440   6.601   2.489
 5715SOL    HW218045   1.281   6.636   2.500
 5716SOL     OW18046   2.271   3.738   5.891
 5716SOL    HW118047   2.316   3.806   5.832
 5716SOL    HW218048   2.221   3.785   5.963
 5717SOL     OW18049   1.178   4.102   0.254
 5717SOL    HW118050   1.086   4.140   0.266
 5717SOL    HW218051   1.241   4.149   0.315
 5718SOL     OW18052   3.054   4.660   6.368
 5718SOL    HW118053   3.139   4.649   6.420
 5718SOL    HW218054   3.045   4.756   6.341
 5719SOL     OW18055   3.426   0.729   6.445
 5719SOL    HW118056   3.502   0.671   6.415
 5719SOL    HW218057   3.420   0.726   6.544
 5720SOL     OW18058   1.428   4.955   5.256
 5720SOL    HW118059   1.380   5.038   5.229
 5720SOL    HW218060   1.448   4.959   5.354
 5721SOL     OW18061   0.677   3.797   1.454
 5721SOL    HW118062   0.669   3.720   1.391
 5721SOL    HW218063   0.745   3.861   1.419
 5722SOL     OW18064   5.524   6.866   4.371
 5722SOL    HW118065   5.489   6.772   4.371
 5722SOL    HW218066   5.488   6.915   4.292
 5723SOL     OW18067   3.469   5.355   0.551
 5723SOL    HW118068   3.388   5.414   0.548
 5723SOL    HW218069   3.551   5.410   0.538
 5724SOL     OW18070   5.423   1.830   6.175
 5724SOL    HW118071   5.400   1.761   6.243
 5724SOL    HW218072   5.522   1.834   6.163
 5725SOL     OW18073   5.349   5.328   5.124
 5725SOL    HW118074   5.251   5.323   5.105
 5725SOL    HW218075   5.392   5.242   5.097
 5726SOL     OW18076   5.687   3.484   5.871
 5726SOL    HW118077   5.648   3.456   5.783
 5726SOL    HW218078   5.756   3.555   5.855
 5727SOL     OW18079   5.788   2.047   3.371
 5727SOL    HW118080   5.846   2.003   3.439
 5727SOL    HW218081   5.695   2.010   3.378
 5728SOL     OW18082   6.146   0.234   5.048
 5728SOL    HW118083   6.106   0.207   4.960
 5728SOL    HW218084   6.233   0.279   5.033
 5729SOL     OW18085   0.450   1.818   6.214
 5729SOL    HW118086   0.408   1.871   6.288
 5729SOL    HW218087   0.441   1.720   6.233
 5730SOL     OW18088   3.956   4.548   5.817
 5730SOL    HW118089   3.946   4.468   5.759
 5730SOL    HW218090   4.011   4.617   5.769
 5731SOL     OW18091   2.944   0.972   3.986
 5731SOL    HW118092   2.850   0.952   4.014
 5731SOL    HW218093   3.007   0.914   4.037
 5732SOL     OW18094   5.799   5.191   5.341
 5732SOL    HW118095   5.792   5.115   5.406
 5732SOL    HW218096   5.878   5.176   5.281
 5733SOL     OW18097   3.255   1.261   6.827
 5733SOL    HW118098   3.256   1.330   6.898
 5733SOL    HW218099   3.264   1.170   6.868
 5734SOL     OW18100   1.687   6.474   6.006
 5734SOL    HW118101   1.592   6.447   6.018
 5734SOL    HW218102   1.727   6.423   5.929
 5735SOL     OW18103   4.053   0.601   2.096
 5735SOL    HW118104   4.052   0.604   2.196
 5735SOL    HW218105   4.134   0.552   2.065
 5736SOL     OW18106   4.338   3.975   6.712
 5736SOL    HW118107   4.373   3.891   6.753
 5736SOL    HW218108   4.403   4.009   6.644
 5737SOL     OW18109   4.571   5.355   1.306
 5737SOL    HW118110   4.653   5.336   1.359
 5737SOL    HW218111   4.545   5.451   1.317
 5738SOL     OW18112   3.327   1.092   6.356
 5738SOL    HW118113   3.404   1.126   6.302
 5738SOL    HW218114   3.279   1.169   6.398
 5739SOL     OW18115   2.970   0.454   5.382
 5739SOL    HW118116   3.008   0.368   5.416
 5739SOL    HW218117   2.986   0.527   5.449
 5740SOL     OW18118   5.396   3.808   2.156
 5740SOL    HW118119   5.314   3.819   2.212
 5740SOL    HW218120   5.394   3.718   2.111
 5741SOL     OW18121   0.588   3.770   4.040
 5741SOL    HW118122   0.601   3.682   3.993
 5741SOL    HW218123   0.540   3.754   4.126
 5742SOL     OW18124   4.504   0.596   3.530
 5742SOL    HW118125   4.582   0.652   3.557
 5742SOL    HW218126   4.429   0.608   3.596
 5743SOL     OW18127   3.566   3.890   5.307
 5743SOL    HW118128   3.554   3.981   5.269
 5743SOL    HW218129   3.652   3.851   5.274
 5744SOL     OW18130   5.568   6.488   2.605
 5744SOL    HW118131   5.515   6.565   2.642
 5744SOL    HW218132   5.507   6.411   2.587
 5745SOL     OW18133   1.983   2.612   3.531
 5745SOL    HW118134   1.928   2.563   3.597
 5745SOL    HW218135   2.075   2.625   3.567
 5746SOL     OW18136   4.157   0.501   3.767
 5746SOL    HW118137   4.208   0.416   3.754
 5746SOL    HW218138   4.070   0.496   3.718
 5747SOL     OW18139   0.932   5.820   1.576
 5747SOL    HW118140   0.844   5.776   1.559
 5747SOL    HW218141   0.994   5.755   1.619
 5748SOL     OW18142   0.592   6.017   0.485
 5748SOL    HW118143   0.524   5.947   0.507
 5748SOL    HW218144   0.643   5.991   0.403
 5749SOL     OW18145   1.988   6.162   5.039
 5749SOL    HW118146   1.889   6.149   5.036
 5749SOL    HW218147   2.027   6.139   4.950
 5750SOL     OW18148   6.817   4.473   4.265
 5750SOL    HW118149   6.758   4.403   4.226
 5750SOL    HW218150   6.912   4.445   4.258
 5751SOL     OW18151   2.151   3.704   4.433
 5751SOL    HW118152   2.095   3.675   4.510
 5751SOL    HW218153   2.156   3.631   4.365
 5752SOL     OW18154   5.288   0.262   0.932
 5752SOL    HW118155   5.339   0.326   0.875
 5752SOL    HW218156   5.301   0.284   1.028
 5753SOL     OW18157   3.190   3.916   4.593
 5753SOL    HW118158   3.142   3.967   4.664
 5753SOL    HW218159   3.277   3.883   4.629
 5754SOL     OW18160   0.745   6.160   1.629
 5754SOL    HW118161   0.790   6.230   1.573
 5754SOL    HW218162   0.809   6.085   1.647
 5755SOL     OW18163   1.872   2.171   0.360
 5755SOL    HW118164   1.956   2.192   0.409
 5755SOL    HW218165   1.837   2.082   0.390
 5756SOL     OW18166   5.732   6.096   1.640
 5756SOL    HW118167   5.779   6.014   1.673
 5756SOL    HW218168   5.643   6.103   1.685
 5757SOL     OW18169   6.771   0.327   3.504
 5757SOL    HW118170   6.856   0.340   3.556
 5757SOL    HW218171   6.716   0.410   3.509
 5758SOL     OW18172   0.973   6.804   3.201
 5758SOL    HW118173   0.970   6.708   3.173
 5758SOL    HW218174   1.059   6.845   3.172
 5759SOL     OW18175   4.006   6.707   1.638
 5759SOL    HW118176   4.093   6.756   1.638
 5759SOL    HW218177   3.973   6.698   1.732
 5760SOL     OW18178   6.870   3.286   1.943
 5760SOL    HW118179   6.942   3.267   2.009
 5760SOL    HW218180   6.910   3.323   1.859
 5761SOL     OW18181   5.620   5.432   4.733
 5761SOL    HW118182   5.667   5.377   4.802
 5761SOL    HW218183   5.525   5.445   4.761
 5762SOL     OW18184   5.213   4.565   6.764
 5762SOL    HW118185   5.287   4.632   6.753
 5762SOL    HW218186   5.170   4.578   6.853
 5763SOL     OW18187   5.465   0.532   0.324
 5763SOL    HW118188   5.375   0.574   0.306
 5763SOL    HW218189   5.525   0.599   0.368
 5764SOL     OW18190   4.208   5.379   3.313
 5764SOL    HW118191   4.196   5.297   3.257
 5764SOL    HW218192   4.230   5.457   3.254
 5765SOL     OW18193   6.121   4.791   1.315
 5765SOL    HW118194   6.190   4.798   1.242
 5765SOL    HW218195   6.055   4.866   1.305
 5766SOL     OW18196   0.685   1.743   4.521
 5766SOL    HW118197   0.739   1.795   4.454
 5766SOL    HW218198   0.601   1.792   4.542
 5767SOL     OW18199   2.032   6.895   1.341
 5767SOL    HW118200   2.052   6.851   1.253
 5767SOL    HW218201   2.044   6.994   1.331
 5768SOL     OW18202   6.917   6.174   4.141
 5768SOL    HW118203   6.964   6.146   4.225
 5768SOL    HW218204   6.888   6.092   4.091
 5769SOL     OW18205   1.487   4.909   6.178
 5769SOL    HW118206   1.582   4.916   6.146
 5769SOL    HW218207   1.425   4.917   6.100
 5770SOL     OW18208   0.916   6.083   1.215
 5770SOL    HW118209   0.944   6.090   1.120
 5770SOL    HW218210   0.818   6.105   1.222
 5771SOL     OW18211   2.333   5.461   4.131
 5771SOL    HW118212   2.326   5.399   4.053
 5771SOL    HW218213   2.375   5.412   4.208
 5772SOL     OW18214   4.829   0.263   2.212
 5772SOL    HW118215   4.818   0.282   2.310
 5772SOL    HW218216   4.822   0.164   2.197
 5773SOL     OW18217   4.472   2.244   2.033
 5773SOL    HW118218   4.538   2.238   1.959
 5773SOL    HW218219   4.382   2.269   1.996
 5774SOL     OW18220   0.576   6.455   3.407
 5774SOL    HW118221   0.663   6.439   3.452
 5774SOL    HW218222   0.557   6.382   3.342
 5775SOL     OW18223   0.504   5.439   2.628
 5775SOL    HW118224   0.498   5.347   2.591
 5775SOL    HW218225   0.422   5.490   2.604
 5776SOL     OW18226   1.860   0.230   2.714
 5776SOL    HW118227   1.886   0.136   2.737
 5776SOL    HW218228   1.763   0.243   2.735
 5777SOL     OW18229   1.505   0.341   3.259
 5777SOL    HW118230   1.415   0.365   3.293
 5777SOL    HW218231   1.546   0.272   3.318
 5778SOL     OW18232   1.255   1.502   6.424
 5778SOL    HW118233   1.251   1.511   6.324
 5778SOL    HW218234   1.175   1.546   6.465
 5779SOL     OW18235   5.001   2.321   6.521
 5779SOL    HW118236   5.061   2.371   6.459
 5779SOL    HW218237   4.914   2.303   6.476
 5780SOL     OW18238   5.522   4.497   3.919
 5780SOL    HW118239   5.460   4.419   3.930
 5780SOL    HW218240   5.502   4.566   3.987
 5781SOL     OW18241   0.659   4.049   4.963
 5781SOL    HW118242   0.581   4.110   4.946
 5781SOL    HW218243   0.723   4.094   5.026
 5782SOL     OW18244   0.762   1.268   0.527
 5782SOL    HW118245   0.810   1.192   0.484
 5782SOL    HW218246   0.667   1.269   0.496
 5783SOL     OW18247   1.752   1.563   2.022
 5783SOL    HW118248   1.682   1.532   2.088
 5783SOL    HW218249   1.767   1.661   2.033
 5784SOL     OW18250   0.403   6.687   0.040
 5784SOL    HW118251   0.319   6.708   0.090
 5784SOL    HW218252   0.443   6.602   0.076
 5785SOL     OW18253   2.370   1.294   1.012
 5785SOL    HW118254   2.270   1.288   1.009
 5785SOL    HW218255   2.401   1.284   1.106
 5786SOL     OW18256   0.137   3.938   0.432
 5786SOL    HW118257   0.187   3.854   0.454
 5786SOL    HW218258   0.191   4.017   0.460
 5787SOL     OW18259   2.639   1.963   5.619
 5787SOL    HW118260   2.555   1.910   5.606
 5787SOL    HW218261   2.660   1.969   5.717
 5788SOL     OW18262   2.611   0.364   2.885
 5788SOL    HW118263   2.678   0.420   2.837
 5788SOL    HW218264   2.533   0.422   2.911
 5789SOL     OW18265   4.004   5.228   6.349
 5789SOL    HW118266   3.935   5.157   6.338
 5789SOL    HW218267   4.095   5.188   6.342
 5790SOL     OW18268   0.518   3.377   4.450
 5790SOL    HW118269   0.425   3.342   4.445
 5790SOL    HW218270   0.573   3.318   4.508
 5791SOL     OW18271   2.542   0.146   3.068
 5791SOL    HW118272   2.549   0.222   3.003
 5791SOL    HW218273   2.632   0.107   3.084
 5792SOL     OW18274   6.890   1.911   3.240
 5792SOL    HW118275   6.844   1.963   3.167
 5792SOL    HW218276   6.889   1.814   3.217
 5793SOL     OW18277   6.586   1.326   3.818
 5793SOL    HW118278   6.541   1.256   3.874
 5793SOL    HW218279   6.550   1.322   3.724
 5794SOL     OW18280   3.640   3.239   0.373
 5794SOL    HW118281   3.683   3.313   0.425
 5794SOL    HW218282   3.686   3.153   0.394
 5795SOL     OW18283   5.547   5.093   5.890
 5795SOL    HW118284   5.535   5.047   5.802
 5795SOL    HW218285   5.526   5.190   5.880
 5796SOL     OW18286   3.131   1.372   0.214
 5796SOL    HW118287   3.165   1.335   0.301
 5796SOL    HW218288   3.053   1.318   0.183
 5797SOL     OW18289   3.430   2.088   4.602
 5797SOL    HW118290   3.346   2.108   4.652
 5797SOL    HW218291   3.508   2.089   4.666
 5798SOL     OW18292   0.324   4.500   4.991
 5798SOL    HW118293   0.282   4.520   5.079
 5798SOL    HW218294   0.285   4.560   4.921
 5799SOL     OW18295   5.040   6.977   3.523
 5799SOL    HW118296   5.087   0.026   3.472
 5799SOL    HW218297   4.944   6.974   3.496
 5800SOL     OW18298   5.545   4.508   1.450
 5800SOL    HW118299   5.557   4.457   1.535
 5800SOL    HW218300   5.610   4.476   1.382
 5801SOL     OW18301   0.438   1.839   3.653
 5801SOL    HW118302   0.463   1.748   3.686
 5801SOL    HW218303   0.360   1.873   3.706
 5802SOL     OW18304   0.673   4.025   6.560
 5802SOL    HW118305   0.620   4.021   6.644
 5802SOL    HW218306   0.744   4.095   6.568
 5803SOL     OW18307   1.081   4.804   1.145
 5803SOL    HW118308   1.112   4.856   1.224
 5803SOL    HW218309   1.153   4.801   1.076
 5804SOL     OW18310   6.527   3.890   4.520
 5804SOL    HW118311   6.463   3.889   4.443
 5804SOL    HW218312   6.492   3.832   4.594
 5805SOL     OW18313   4.114   4.226   6.266
 5805SOL    HW118314   4.079   4.193   6.178
 5805SOL    HW218315   4.046   4.211   6.337
 5806SOL     OW18316   0.924   6.696   0.219
 5806SOL    HW118317   0.883   6.782   0.191
 5806SOL    HW218318   1.003   6.714   0.277
 5807SOL     OW18319   1.540   3.965   0.928
 5807SOL    HW118320   1.625   3.952   0.876
 5807SOL    HW218321   1.561   3.962   1.026
 5808SOL     OW18322   5.285   4.289   2.806
 5808SOL    HW118323   5.193   4.283   2.843
 5808SOL    HW218324   5.349   4.239   2.864
 5809SOL     OW18325   6.941   3.355   4.571
 5809SOL    HW118326   6.917   3.281   4.508
 5809SOL    HW218327   6.861   3.376   4.629
 5810SOL     OW18328   3.078   1.390   3.723
 5810SOL    HW118329   3.061   1.489   3.725
 5810SOL    HW218330   3.058   1.351   3.813
 5811SOL     OW18331   2.754   0.453   4.944
 5811SOL    HW118332   2.773   0.496   5.033
 5811SOL    HW218333   2.826   0.479   4.879
 5812SOL     OW18334   5.201   0.145   3.689
 5812SOL    HW118335   5.190   0.048   3.669
 5812SOL    HW218336   5.280   0.181   3.639
 5813SOL     OW18337   0.987   1.085   5.898
 5813SOL    HW118338   0.892   1.084   5.929
 5813SOL    HW218339   1.017   1.180   5.884
 5814SOL     OW18340   6.772   4.149   0.647
 5814SOL    HW118341   6.719   4.117   0.726
 5814SOL    HW218342   6.863   4.108   0.649
 5815SOL     OW18343   4.193   2.167   3.060
 5815SOL    HW118344   4.169   2.171   3.157
 5815SOL    HW218345   4.117   2.125   3.009
 5816SOL     OW18346   5.671   0.350   0.001
 5816SOL    HW118347   5.704   0.259   0.027
 5816SOL    HW218348   5.572   0.355   0.012
 5817SOL     OW18349   6.040   2.898   6.086
 5817SOL    HW118350   6.061   2.900   5.988
 5817SOL    HW218351   6.066   2.810   6.124
 5818SOL     OW18352   5.925   6.296   5.349
 5818SOL    HW118353   5.976   6.377   5.379
 5818SOL    HW218354   5.871   6.319   5.268
 5819SOL     OW18355   5.027   0.605   1.025
 5819SOL    HW118356   5.108   0.616   1.082
 5819SOL    HW218357   5.030   0.515   0.981
 5820SOL     OW18358   4.810   7.002   3.410
 5820SOL    HW118359   4.825   0.068   3.367
 5820SOL    HW218360   4.812   6.930   3.340
 5821SOL     OW18361   2.939   0.602   2.149
 5821SOL    HW118362   3.031   0.564   2.147
 5821SOL    HW218363   2.933   0.680   2.086
 5822SOL     OW18364   0.421   2.617   1.564
 5822SOL    HW118365   0.422   2.607   1.664
 5822SOL    HW218366   0.331   2.592   1.529
 5823SOL     OW18367   1.028   0.816   5.222
 5823SOL    HW118368   1.070   0.888   5.278
 5823SOL    HW218369   0.944   0.785   5.266
 5824SOL     OW18370   6.570   6.467   3.319
 5824SOL    HW118371   6.626   6.408   3.378
 5824SOL    HW218372   6.503   6.411   3.270
 5825SOL     OW18373   2.573   1.453   6.345
 5825SOL    HW118374   2.514   1.529   6.370
 5825SOL    HW218375   2.630   1.428   6.423
 5826SOL     OW18376   6.341   6.226   5.249
 5826SOL    HW118377   6.370   6.146   5.301
 5826SOL    HW218378   6.403   6.239   5.171
 5827SOL     OW18379   0.797   5.257   5.110
 5827SOL    HW118380   0.757   5.308   5.033
 5827SOL    HW218381   0.800   5.317   5.190
 5828SOL     OW18382   0.638   3.891   1.964
 5828SOL    HW118383   0.623   3.811   1.906
 5828SOL    HW218384   0.553   3.914   2.011
 5829SOL     OW18385   2.756   1.277   2.477
 5829SOL    HW118386   2.737   1.184   2.509
 5829SOL    HW218387   2.671   1.320   2.447
 5830SOL     OW18388   3.871   0.964   5.995
 5830SOL    HW118389   3.847   0.964   6.092
 5830SOL    HW218390   3.805   0.908   5.944
 5831SOL     OW18391   6.115   6.224   3.113
 5831SOL    HW118392   6.155   6.154   3.053
 5831SOL    HW218393   6.032   6.188   3.156
 5832SOL     OW18394   4.275   4.090   5.577
 5832SOL    HW118395   4.340   4.109   5.503
 5832SOL    HW218396   4.295   4.148   5.655
 5833SOL     OW18397   3.146   3.514   4.362
 5833SOL    HW118398   3.237   3.489   4.396
 5833SOL    HW218399   3.151   3.532   4.264
 5834SOL     OW18400   6.305   1.601   0.369
 5834SOL    HW118401   6.286   1.694   0.401
 5834SOL    HW218402   6.235   1.539   0.404
 5835SOL     OW18403   4.964   2.003   3.534
 5835SOL    HW118404   5.005   1.912   3.536
 5835SOL    HW218405   4.976   2.047   3.623
 5836SOL     OW18406   3.197   5.738   2.791
 5836SOL    HW118407   3.124   5.750   2.858
 5836SOL    HW218408   3.241   5.649   2.805
 5837SOL     OW18409   4.626   4.459   6.990
 5837SOL    HW118410   4.602   4.397   0.041
 5837SOL    HW218411   4.595   4.420   6.903
 5838SOL     OW18412   1.795   1.460   6.310
 5838SOL    HW118413   1.824   1.444   6.216
 5838SOL    HW218414   1.849   1.403   6.372
 5839SOL     OW18415   6.762   3.018   2.554
 5839SOL    HW118416   6.798   3.107   2.580
 5839SOL    HW218417   6.679   3.029   2.500
 5840SOL     OW18418   1.256   5.955   6.888
 5840SOL    HW118419   1.264   5.963   6.987
 5840SOL    HW218420   1.214   5.868   6.864
 5841SOL     OW18421   5.819   3.427   2.909
 5841SOL    HW118422   5.918   3.423   2.900
 5841SOL    HW218423   5.781   3.334   2.908
 5842SOL     OW18424   3.556   3.372   0.777
 5842SOL    HW118425   3.512   3.443   0.831
 5842SOL    HW218426   3.515   3.368   0.686
 5843SOL     OW18427   2.012   3.621   2.410
 5843SOL    HW118428   2.011   3.714   2.374
 5843SOL    HW218429   2.082   3.568   2.362
 5844SOL     OW18430   0.394   5.849   6.403
 5844SOL    HW118431   0.426   5.799   6.483
 5844SOL    HW218432   0.400   5.948   6.420
 5845SOL     OW18433   1.370   2.408   3.518
 5845SOL    HW118434   1.377   2.363   3.429
 5845SOL    HW218435   1.330   2.499   3.507
 5846SOL     OW18436   6.614   2.947   5.142
 5846SOL    HW118437   6.622   3.029   5.199
 5846SOL    HW218438   6.703   2.903   5.136
 5847SOL     OW18439   1.919   2.234   2.180
 5847SOL    HW118440   1.828   2.259   2.213
 5847SOL    HW218441   1.989   2.278   2.236
 5848SOL     OW18442   2.170   5.092   3.251
 5848SOL    HW118443   2.210   5.019   3.195
 5848SOL    HW218444   2.073   5.100   3.231
 5849SOL     OW18445   1.371   0.142   5.642
 5849SOL    HW118446   1.465   0.166   5.615
 5849SOL    HW218447   1.307   0.202   5.594
 5850SOL     OW18448   1.339   3.726   2.084
 5850SOL    HW118449   1.410   3.656   2.078
 5850SOL    HW218450   1.356   3.796   2.015
 5851SOL     OW18451   6.099   3.850   2.455
 5851SOL    HW118452   6.027   3.787   2.483
 5851SOL    HW218453   6.066   3.907   2.380
 5852SOL     OW18454   4.061   6.435   2.854
 5852SOL    HW118455   4.117   6.353   2.837
 5852SOL    HW218456   3.964   6.411   2.846
 5853SOL     OW18457   3.088   5.727   6.338
 5853SOL    HW118458   3.126   5.800   6.281
 5853SOL    HW218459   3.060   5.765   6.426
 5854SOL     OW18460   6.642   3.239   5.797
 5854SOL    HW118461   6.580   3.197   5.731
 5854SOL    HW218462   6.588   3.280   5.871
 5855SOL     OW18463   1.270   1.178   4.556
 5855SOL    HW118464   1.215   1.183   4.473
 5855SOL    HW218465   1.243   1.252   4.618
 5856SOL     OW18466   2.190   5.338   3.503
 5856SOL    HW118467   2.108   5.325   3.558
 5856SOL    HW218468   2.268   5.355   3.563
 5857SOL     OW18469   6.375   2.862   5.281
 5857SOL    HW118470   6.380   2.788   5.347
 5857SOL    HW218471   6.462   2.870   5.232
 5858SOL     OW18472   3.079   1.363   2.158
 5858SOL    HW118473   3.066   1.445   2.103
 5858SOL    HW218474   3.094   1.387   2.253
 5859SOL     OW18475   6.321   6.186   0.610
 5859SOL    HW118476   6.227   6.194   0.645
 5859SOL    HW218477   6.337   6.093   0.579
 5860SOL     OW18478   1.849   4.843   2.001
 5860SOL    HW118479   1.793   4.812   1.924
 5860SOL    HW218480   1.944   4.814   1.987
 5861SOL     OW18481   5.561   2.289   3.795
 5861SOL    HW118482   5.573   2.256   3.701
 5861SOL    HW218483   5.649   2.288   3.842
 5862SOL     OW18484   3.843   5.137   3.321
 5862SOL    HW118485   3.843   5.145   3.221
 5862SOL    HW218486   3.937   5.127   3.354
 5863SOL     OW18487   2.364   0.739   6.326
 5863SOL    HW118488   2.414   0.765   6.409
 5863SOL    HW218489   2.328   0.822   6.282
 5864SOL     OW18490   4.309   4.174   1.675
 5864SOL    HW118491   4.286   4.077   1.686
 5864SOL    HW218492   4.377   4.200   1.743
 5865SOL     OW18493   5.443   0.511   3.650
 5865SOL    HW118494   5.344   0.523   3.650
 5865SOL    HW218495   5.482   0.555   3.731
 5866SOL     OW18496   4.578   6.670   5.981
 5866SOL    HW118497   4.659   6.624   6.018
 5866SOL    HW218498   4.504   6.666   6.047
 5867SOL     OW18499   0.229   2.826   1.392
 5867SOL    HW118500   0.136   2.850   1.367
 5867SOL    HW218501   0.237   2.820   1.492
 5868SOL     OW18502   0.617   0.167   5.072
 5868SOL    HW118503   0.682   0.093   5.049
 5868SOL    HW218504   0.664   0.255   5.068
 5869SOL     OW18505   2.335   4.549   3.961
 5869SOL    HW118506   2.364   4.545   3.865
 5869SOL    HW218507   2.398   4.608   4.012
 5870SOL     OW18508   5.159   4.948   4.610
 5870SOL    HW118509   5.063   4.919   4.603
 5870SOL    HW218510   5.193   4.973   4.520
 5871SOL     OW18511   3.557   3.617   0.352
 5871SOL    HW118512   3.477   3.611   0.412
 5871SOL    HW218513   3.638   3.583   0.401
 5872SOL     OW18514   4.221   5.512   6.775
 5872SOL    HW118515   4.190   5.531   6.868
 5872SOL    HW218516   4.282   5.432   6.777
 5873SOL     OW18517   2.202   3.183   0.530
 5873SOL    HW118518   2.120   3.192   0.474
 5873SOL    HW218519   2.176   3.158   0.623
 5874SOL     OW18520   2.535   3.304   1.346
 5874SOL    HW118521   2.632   3.294   1.324
 5874SOL    HW218522   2.524   3.335   1.440
 5875SOL     OW18523   3.445   1.875   0.261
 5875SOL    HW118524   3.472   1.970   0.244
 5875SOL    HW218525   3.348   1.872   0.287
 5876SOL     OW18526   3.308   2.978   6.607
 5876SOL    HW118527   3.358   2.926   6.677
 5876SOL    HW218528   3.271   3.061   6.648
 5877SOL     OW18529   6.456   0.514   1.002
 5877SOL    HW118530   6.512   0.498   1.084
 5877SOL    HW218531   6.412   0.429   0.974
 5878SOL     OW18532   4.730   5.672   2.204
 5878SOL    HW118533   4.794   5.742   2.238
 5878SOL    HW218534   4.684   5.706   2.122
 5879SOL     OW18535   3.810   2.996   6.249
 5879SOL    HW118536   3.784   3.071   6.188
 5879SOL    HW218537   3.868   2.931   6.201
 5880SOL     OW18538   5.159   3.051   5.550
 5880SOL    HW118539   5.243   3.084   5.507
 5880SOL    HW218540   5.081   3.071   5.491
 5881SOL     OW18541   1.104   6.401   2.846
 5881SOL    HW118542   1.100   6.331   2.918
 5881SOL    HW218543   1.145   6.361   2.764
 5882SOL     OW18544   1.292   6.390   5.457
 5882SOL    HW118545   1.314   6.457   5.386
 5882SOL    HW218546   1.255   6.437   5.537
 5883SOL     OW18547   0.230   3.894   0.777
 5883SOL    HW118548   0.314   3.911   0.829
 5883SOL    HW218549   0.254   3.861   0.686
 5884SOL     OW18550   5.759   1.559   4.017
 5884SOL    HW118551   5.769   1.559   3.918
 5884SOL    HW218552   5.845   1.587   4.060
 5885SOL     OW18553   0.597   5.359   0.345
 5885SOL    HW118554   0.559   5.390   0.432
 5885SOL    HW218555   0.697   5.358   0.351
 5886SOL     OW18556   1.298   3.560   3.249
 5886SOL    HW118557   1.206   3.520   3.244
 5886SOL    HW218558   1.361   3.502   3.199
 5887SOL     OW18559   2.154   1.928   1.397
 5887SOL    HW118560   2.178   1.997   1.466
 5887SOL    HW218561   2.136   1.841   1.441
 5888SOL     OW18562   2.922   0.238   1.861
 5888SOL    HW118563   2.957   0.145   1.875
 5888SOL    HW218564   2.880   0.245   1.771
 5889SOL     OW18565   0.147   0.733   1.427
 5889SOL    HW118566   0.246   0.745   1.441
 5889SOL    HW218567   0.131   0.655   1.367
 5890SOL     OW18568   2.857   6.202   2.272
 5890SOL    HW118569   2.957   6.197   2.273
 5890SOL    HW218570   2.822   6.168   2.185
 5891SOL     OW18571   2.727   3.067   0.692
 5891SOL    HW118572   2.818   3.098   0.664
 5891SOL    HW218573   2.696   3.122   0.770
 5892SOL     OW18574   0.573   3.789   0.505
 5892SOL    HW118575   0.617   3.877   0.486
 5892SOL    HW218576   0.576   3.733   0.422
 5893SOL     OW18577   0.863   5.702   2.082
 5893SOL    HW118578   0.871   5.632   2.154
 5893SOL    HW218579   0.882   5.660   1.993
 5894SOL     OW18580   0.634   5.876   5.463
 5894SOL    HW118581   0.730   5.902   5.448
 5894SOL    HW218582   0.626   5.777   5.465
 5895SOL     OW18583   5.814   3.120   4.923
 5895SOL    HW118584   5.844   3.044   4.867
 5895SOL    HW218585   5.864   3.121   5.009
 5896SOL     OW18586   5.867   1.649   1.822
 5896SOL    HW118587   5.881   1.661   1.920
 5896SOL    HW218588   5.953   1.664   1.774
 5897SOL     OW18589   4.531   1.666   1.142
 5897SOL    HW118590   4.471   1.591   1.171
 5897SOL    HW218591   4.518   1.744   1.203
 5898SOL     OW18592   1.984   1.296   5.654
 5898SOL    HW118593   2.017   1.207   5.684
 5898SOL    HW218594   2.054   1.365   5.672
 5899SOL     OW18595   6.869   5.416   6.192
 5899SOL    HW118596   6.919   5.496   6.224
 5899SOL    HW218597   6.917   5.333   6.221
 5900SOL     OW18598   6.763   6.131   3.014
 5900SOL    HW118599   6.845   6.077   2.995
 5900SOL    HW218600   6.782   6.192   3.091
 5901SOL     OW18601   1.747   0.093   6.229
 5901SOL    HW118602   1.776   0.152   6.153
 5901SOL    HW218603   1.792   0.005   6.222
 5902SOL     OW18604   5.806   4.427   4.623
 5902SOL    HW118605   5.817   4.412   4.525
 5902SOL    HW218606   5.836   4.345   4.673
 5903SOL     OW18607   6.402   2.177   6.982
 5903SOL    HW118608   6.473   2.109   6.997
 5903SOL    HW218609   6.400   2.241   0.036
 5904SOL     OW18610   2.054   4.676   3.058
 5904SOL    HW118611   2.036   4.767   3.021
 5904SOL    HW218612   2.128   4.633   3.006
 5905SOL     OW18613   5.669   0.950   3.997
 5905SOL    HW118614   5.655   1.048   3.984
 5905SOL    HW218615   5.586   0.909   4.033
 5906SOL     OW18616   5.443   1.474   6.008
 5906SOL    HW118617   5.367   1.418   6.042
 5906SOL    HW218618   5.410   1.533   5.934
 5907SOL     OW18619   1.610   1.584   6.593
 5907SOL    HW118620   1.568   1.591   6.502
 5907SOL    HW218621   1.556   1.520   6.649
 5908SOL     OW18622   4.534   3.435   6.248
 5908SOL    HW118623   4.449   3.433   6.301
 5908SOL    HW218624   4.514   3.453   6.152
 5909SOL     OW18625   6.842   4.748   5.234
 5909SOL    HW118626   6.867   4.691   5.156
 5909SOL    HW218627   6.766   4.706   5.283
 5910SOL     OW18628   1.928   3.897   1.388
 5910SOL    HW118629   2.017   3.933   1.414
 5910SOL    HW218630   1.856   3.956   1.425
 5911SOL     OW18631   6.141   5.174   6.428
 5911SOL    HW118632   6.047   5.141   6.428
 5911SOL    HW218633   6.153   5.242   6.500
 5912SOL     OW18634   6.146   3.571   6.755
 5912SOL    HW118635   6.227   3.554   6.811
 5912SOL    HW218636   6.104   3.658   6.783
 5913SOL     OW18637   2.016   1.965   6.167
 5913SOL    HW118638   1.963   1.939   6.248
 5913SOL    HW218639   2.057   1.883   6.127
 5914SOL     OW18640   2.607   5.449   0.652
 5914SOL    HW118641   2.706   5.456   0.667
 5914SOL    HW218642   2.575   5.531   0.604
 5915SOL     OW18643   4.759   2.972   2.752
 5915SOL    HW118644   4.770   3.019   2.840
 5915SOL    HW218645   4.679   2.911   2.757
 5916SOL     OW18646   3.789   7.018   5.496
 5916SOL    HW118647   3.825   0.088   5.486
 5916SOL    HW218648   3.807   6.966   5.412
 5917SOL     OW18649   3.827   3.337   3.076
 5917SOL    HW118650   3.826   3.427   3.120
 5917SOL    HW218651   3.737   3.295   3.084
 5918SOL     OW18652   1.631   3.414   3.856
 5918SOL    HW118653   1.658   3.359   3.777
 5918SOL    HW218654   1.642   3.360   3.939
 5919SOL     OW18655   2.295   2.527   0.408
 5919SOL    HW118656   2.388   2.554   0.382
 5919SOL    HW218657   2.264   2.453   0.348
 5920SOL     OW18658   3.863   0.641   6.452
 5920SOL    HW118659   3.888   0.697   6.531
 5920SOL    HW218660   3.895   0.547   6.466
 5921SOL     OW18661   3.762   5.284   5.633
 5921SOL    HW118662   3.852   5.325   5.624
 5921SOL    HW218663   3.770   5.194   5.676
 5922SOL     OW18664   6.505   4.663   2.841
 5922SOL    HW118665   6.449   4.746   2.838
 5922SOL    HW218666   6.535   4.647   2.935
 5923SOL     OW18667   6.492   0.371   3.347
 5923SOL    HW118668   6.486   0.286   3.294
 5923SOL    HW218669   6.530   0.443   3.288
 5924SOL     OW18670   5.209   2.247   4.418
 5924SOL    HW118671   5.296   2.213   4.382
 5924SOL    HW218672   5.217   2.345   4.436
 5925SOL     OW18673   5.633   5.814   1.517
 5925SOL    HW118674   5.613   5.815   1.615
 5925SOL    HW218675   5.553   5.779   1.468
 5926SOL     OW18676   3.728   5.190   1.698
 5926SOL    HW118677   3.704   5.093   1.699
 5926SOL    HW218678   3.645   5.245   1.704
 5927SOL     OW18679   2.638   5.955   1.545
 5927SOL    HW118680   2.566   5.908   1.494
 5927SOL    HW218681   2.664   6.038   1.496
 5928SOL     OW18682   1.320   0.216   2.515
 5928SOL    HW118683   1.336   0.156   2.594
 5928SOL    HW218684   1.300   0.308   2.548
 5929SOL     OW18685   1.349   6.681   5.938
 5929SOL    HW118686   1.411   6.745   5.985
 5929SOL    HW218687   1.360   6.590   5.978
 5930SOL     OW18688   6.408   1.156   5.147
 5930SOL    HW118689   6.482   1.190   5.089
 5930SOL    HW218690   6.352   1.091   5.095
 5931SOL     OW18691   5.962   5.534   1.524
 5931SOL    HW118692   5.934   5.589   1.602
 5931SOL    HW218693   6.039   5.577   1.477
 5932SOL     OW18694   2.313   6.480   1.374
 5932SOL    HW118695   2.266   6.567   1.390
 5932SOL    HW218696   2.302   6.422   1.455
 5933SOL     OW18697   0.067   4.297   2.781
 5933SOL    HW118698   0.091   4.338   2.869
 5933SOL    HW218699   0.088   4.199   2.782
 5934SOL     OW18700   3.720   3.666   2.736
 5934SOL    HW118701   3.807   3.675   2.784
 5934SOL    HW218702   3.736   3.656   2.638
 5935SOL     OW18703   3.825   4.065   4.850
 5935SOL    HW118704   3.880   4.075   4.767
 5935SOL    HW218705   3.737   4.109   4.837
 5936SOL     OW18706   4.860   4.630   6.688
 5936SOL    HW118707   4.958   4.629   6.711
 5936SOL    HW218708   4.816   4.708   6.732
 5937SOL     OW18709   1.116   3.981   0.782
 5937SOL    HW118710   1.033   3.926   0.789
 5937SOL    HW218711   1.119   4.046   0.858
 5938SOL     OW18712   2.294   4.525   3.169
 5938SOL    HW118713   2.378   4.520   3.223
 5938SOL    HW218714   2.314   4.566   3.080
 5939SOL     OW18715   2.955   0.595   3.135
 5939SOL    HW118716   3.012   0.658   3.186
 5939SOL    HW218717   2.986   0.501   3.152
 5940SOL     OW18718   3.797   0.061   3.051
 5940SOL    HW118719   3.726   7.014   3.042
 5940SOL    HW218720   3.880   0.020   3.089
 5941SOL     OW18721   6.272   5.135   2.244
 5941SOL    HW118722   6.337   5.191   2.193
 5941SOL    HW218723   6.248   5.181   2.329
 5942SOL     OW18724   4.079   3.233   6.342
 5942SOL    HW118725   4.057   3.169   6.415
 5942SOL    HW218726   3.994   3.272   6.305
 5943SOL     OW18727   2.058   5.910   0.416
 5943SOL    HW118728   2.099   5.820   0.434
 5943SOL    HW218729   2.101   5.950   0.334
 5944SOL     OW18730   4.871   1.426   2.388
 5944SOL    HW118731   4.780   1.406   2.424
 5944SOL    HW218732   4.898   1.355   2.323
 5945SOL     OW18733   6.558   4.972   5.911
 5945SOL    HW118734   6.623   4.932   5.847
 5945SOL    HW218735   6.506   5.044   5.866
 5946SOL     OW18736   4.497   3.532   5.958
 5946SOL    HW118737   4.401   3.548   5.980
 5946SOL    HW218738   4.548   3.617   5.970
 5947SOL     OW18739   4.210   3.417   1.772
 5947SOL    HW118740   4.285   3.350   1.770
 5947SOL    HW218741   4.127   3.373   1.806
 5948SOL     OW18742   3.620   4.926   2.872
 5948SOL    HW118743   3.694   4.916   2.805
 5948SOL    HW218744   3.658   4.923   2.965
 5949SOL     OW18745   4.240   4.796   1.111
 5949SOL    HW118746   4.174   4.834   1.047
 5949SOL    HW218747   4.281   4.714   1.073
 5950SOL     OW18748   5.871   1.943   4.572
 5950SOL    HW118749   5.835   1.858   4.610
 5950SOL    HW218750   5.872   2.014   4.643
 5951SOL     OW18751   2.147   6.168   4.164
 5951SOL    HW118752   2.092   6.190   4.244
 5951SOL    HW218753   2.201   6.248   4.138
 5952SOL     OW18754   6.319   6.200   3.719
 5952SOL    HW118755   6.221   6.186   3.733
 5952SOL    HW218756   6.357   6.122   3.671
 5953SOL     OW18757   6.804   3.603   5.516
 5953SOL    HW118758   6.730   3.545   5.482
 5953SOL    HW218759   6.885   3.546   5.534
 5954SOL     OW18760   6.925   4.590   6.275
 5954SOL    HW118761   7.007   4.598   6.332
 5954SOL    HW218762   6.853   4.649   6.312
 5955SOL     OW18763   5.294   5.094   1.727
 5955SOL    HW118764   5.319   5.179   1.774
 5955SOL    HW218765   5.198   5.073   1.745
 5956SOL     OW18766   3.978   2.493   6.915
 5956SOL    HW118767   3.961   2.405   6.871
 5956SOL    HW218768   3.913   2.561   6.882
 5957SOL     OW18769   5.690   6.321   5.741
 5957SOL    HW118770   5.625   6.367   5.802
 5957SOL    HW218771   5.660   6.227   5.726
 5958SOL     OW18772   6.567   6.156   1.788
 5958SOL    HW118773   6.625   6.143   1.707
 5958SOL    HW218774   6.548   6.068   1.831
 5959SOL     OW18775   2.961   1.666   5.786
 5959SOL    HW118776   2.879   1.621   5.750
 5959SOL    HW218777   2.950   1.765   5.782
 5960SOL     OW18778   2.693   0.284   3.593
 5960SOL    HW118779   2.654   0.340   3.666
 5960SOL    HW218780   2.658   0.316   3.505
 5961SOL     OW18781   3.537   0.723   5.202
 5961SOL    HW118782   3.505   0.768   5.285
 5961SOL    HW218783   3.637   0.720   5.202
 5962SOL     OW18784   4.726   5.427   2.304
 5962SOL    HW118785   4.735   5.525   2.289
 5962SOL    HW218786   4.732   5.378   2.216
 5963SOL     OW18787   3.918   3.852   2.533
 5963SOL    HW118788   3.983   3.811   2.469
 5963SOL    HW218789   3.931   3.813   2.624
 5964SOL     OW18790   0.117   4.890   6.605
 5964SOL    HW118791   0.210   4.916   6.577
 5964SOL    HW218792   0.068   4.972   6.634
 5965SOL     OW18793   1.988   2.862   6.445
 5965SOL    HW118794   2.016   2.949   6.485
 5965SOL    HW218795   2.059   2.794   6.461
 5966SOL     OW18796   2.852   6.120   4.656
 5966SOL    HW118797   2.940   6.082   4.683
 5966SOL    HW218798   2.865   6.184   4.580
 5967SOL     OW18799   4.441   6.876   2.975
 5967SOL    HW118800   4.371   6.856   2.907
 5967SOL    HW218801   4.397   6.895   3.063
 5968SOL     OW18802   6.250   2.475   3.317
 5968SOL    HW118803   6.273   2.379   3.298
 5968SOL    HW218804   6.279   2.498   3.410
 5969SOL     OW18805   5.898   3.448   3.960
 5969SOL    HW118806   5.965   3.474   4.029
 5969SOL    HW218807   5.824   3.515   3.958
 5970SOL     OW18808   1.136   3.642   2.958
 5970SOL    HW118809   1.144   3.605   2.865
 5970SOL    HW218810   1.206   3.711   2.973
 5971SOL     OW18811   1.736   6.640   3.227
 5971SOL    HW118812   1.644   6.599   3.233
 5971SOL    HW218813   1.802   6.569   3.204
 5972SOL     OW18814   5.406   0.282   7.012
 5972SOL    HW118815   5.362   0.305   0.076
 5972SOL    HW218816   5.396   0.184   6.995
 5973SOL     OW18817   1.721   4.278   2.845
 5973SOL    HW118818   1.758   4.370   2.860
 5973SOL    HW218819   1.796   4.215   2.826
 5974SOL     OW18820   6.778   3.579   0.198
 5974SOL    HW118821   6.861   3.542   0.240
 5974SOL    HW218822   6.793   3.596   0.101
 5975SOL     OW18823   3.627   2.918   0.993
 5975SOL    HW118824   3.600   3.011   0.967
 5975SOL    HW218825   3.581   2.892   1.078
 5976SOL     OW18826   3.116   3.057   4.947
 5976SOL    HW118827   3.187   3.026   4.883
 5976SOL    HW218828   3.045   2.987   4.953
 5977SOL     OW18829   1.810   4.884   2.273
 5977SOL    HW118830   1.821   4.874   2.174
 5977SOL    HW218831   1.900   4.891   2.316
 5978SOL     OW18832   5.252   4.620   2.571
 5978SOL    HW118833   5.297   4.531   2.562
 5978SOL    HW218834   5.185   4.616   2.645
 5979SOL     OW18835   6.482   0.872   3.625
 5979SOL    HW118836   6.428   0.955   3.635
 5979SOL    HW218837   6.564   0.879   3.682
 5980SOL     OW18838   4.706   4.427   0.722
 5980SOL    HW118839   4.801   4.439   0.695
 5980SOL    HW218840   4.669   4.514   0.756
 5981SOL     OW18841   6.010   1.623   2.589
 5981SOL    HW118842   6.068   1.666   2.658
 5981SOL    HW218843   6.053   1.538   2.558
 5982SOL     OW18844   6.959   2.009   6.679
 5982SOL    HW118845   6.988   2.093   6.726
 5982SOL    HW218846   0.016   1.957   6.651
 5983SOL     OW18847   2.074   1.994   4.148
 5983SOL    HW118848   2.141   1.921   4.164
 5983SOL    HW218849   2.095   2.040   4.062
 5984SOL     OW18850   0.023   6.077   4.351
 5984SOL    HW118851   0.069   5.989   4.366
 5984SOL    HW218852   6.991   6.100   4.431
 5985SOL     OW18853   5.305   2.153   3.797
 5985SOL    HW118854   5.245   2.186   3.870
 5985SOL    HW218855   5.397   2.188   3.811
 5986SOL     OW18856   3.560   2.982   3.202
 5986SOL    HW118857   3.488   2.925   3.164
 5986SOL    HW218858   3.519   3.061   3.248
 5987SOL     OW18859   4.416   6.701   4.638
 5987SOL    HW118860   4.458   6.743   4.558
 5987SOL    HW218861   4.464   6.616   4.659
 5988SOL     OW18862   4.340   6.776   4.050
 5988SOL    HW118863   4.324   6.703   4.116
 5988SOL    HW218864   4.402   6.844   4.090
 5989SOL     OW18865   2.850   0.365   6.155
 5989SOL    HW118866   2.750   0.361   6.153
 5989SOL    HW218867   2.888   0.288   6.104
 5990SOL     OW18868   3.598   4.720   0.616
 5990SOL    HW118869   3.501   4.696   0.626
 5990SOL    HW218870   3.653   4.636   0.615
 5991SOL     OW18871   3.188   5.269   4.305
 5991SOL    HW118872   3.287   5.266   4.299
 5991SOL    HW218873   3.161   5.286   4.400
 5992SOL     OW18874   3.577   0.585   4.072
 5992SOL    HW118875   3.571   0.516   4.000
 5992SOL    HW218876   3.673   0.612   4.084
 5993SOL     OW18877   2.390   6.086   5.792
 5993SOL    HW118878   2.352   5.995   5.781
 5993SOL    HW218879   2.320   6.155   5.770
 5994SOL     OW18880   6.222   2.464   2.285
 5994SOL    HW118881   6.248   2.511   2.201
 5994SOL    HW218882   6.209   2.367   2.265
 5995SOL     OW18883   6.553   5.164   1.274
 5995SOL    HW118884   6.555   5.102   1.352
 5995SOL    HW218885   6.641   5.211   1.266
 5996SOL     OW18886   0.457   5.640   6.578
 5996SOL    HW118887   0.398   5.562   6.559
 5996SOL    HW218888   0.549   5.623   6.545
 5997SOL     OW18889   0.337   6.776   1.755
 5997SOL    HW118890   0.312   6.871   1.768
 5997SOL    HW218891   0.402   6.748   1.826
 5998SOL     OW18892   5.400   1.919   2.683
 5998SOL    HW118893   5.402   2.017   2.699
 5998SOL    HW218894   5.473   1.894   2.619
 5999SOL     OW18895   1.801   1.789   3.249
 5999SOL    HW118896   1.828   1.837   3.332
 5999SOL    HW218897   1.844   1.699   3.247
 6000SOL     OW18898   4.184   4.887   2.450
 6000SOL    HW118899   4.241   4.817   2.406
 6000SOL    HW218900   4.227   4.977   2.437
 6001SOL     OW18901   6.861   2.850   7.003
 6001SOL    HW118902   6.940   2.801   6.964
 6001SOL    HW218903   6.777   2.816   6.960
 6002SOL     OW18904   1.670   0.455   1.636
 6002SOL    HW118905   1.647   0.494   1.548
 6002SOL    HW218906   1.739   0.511   1.681
 6003SOL     OW18907   5.505   4.012   4.884
 6003SOL    HW118908   5.502   4.020   4.784
 6003SOL    HW218909   5.515   3.915   4.909
 6004SOL     OW18910   0.685   3.649   2.834
 6004SOL    HW118911   0.725   3.736   2.862
 6004SOL    HW218912   0.707   3.632   2.738
 6005SOL     OW18913   3.808   5.586   4.148
 6005SOL    HW118914   3.881   5.556   4.086
 6005SOL    HW218915   3.722   5.542   4.123
 6006SOL     OW18916   2.825   6.355   6.555
 6006SOL    HW118917   2.799   6.287   6.487
 6006SOL    HW218918   2.782   6.443   6.533
 6007SOL     OW18919   5.661   2.209   4.118
 6007SOL    HW118920   5.668   2.304   4.148
 6007SOL    HW218921   5.710   2.197   4.032
 6008SOL     OW18922   3.450   4.773   5.773
 6008SOL    HW118923   3.451   4.725   5.685
 6008SOL    HW218924   3.543   4.784   5.806
 6009SOL     OW18925   2.826   1.591   4.232
 6009SOL    HW118926   2.774   1.624   4.152
 6009SOL    HW218927   2.924   1.593   4.211
 6010SOL     OW18928   1.929   4.382   2.313
 6010SOL    HW118929   1.879   4.396   2.228
 6010SOL    HW218930   1.888   4.307   2.365
 6011SOL     OW18931   5.051   2.830   2.204
 6011SOL    HW118932   5.135   2.871   2.239
 6011SOL    HW218933   5.045   2.845   2.105
 6012SOL     OW18934   6.877   2.603   0.452
 6012SOL    HW118935   6.933   2.523   0.470
 6012SOL    HW218936   6.781   2.583   0.474
 6013SOL     OW18937   6.336   0.631   2.213
 6013SOL    HW118938   6.392   0.713   2.203
 6013SOL    HW218939   6.393   0.554   2.241
 6014SOL     OW18940   6.012   0.942   0.171
 6014SOL    HW118941   6.044   0.989   0.254
 6014SOL    HW218942   6.087   0.939   0.104
 6015SOL     OW18943   6.044   2.136   4.753
 6015SOL    HW118944   5.994   2.137   4.840
 6015SOL    HW218945   6.073   2.229   4.730
 6016SOL     OW18946   1.586   0.658   5.243
 6016SOL    HW118947   1.672   0.616   5.215
 6016SOL    HW218948   1.512   0.624   5.186
 6017SOL     OW18949   6.116   5.257   3.134
 6017SOL    HW118950   6.041   5.322   3.125
 6017SOL    HW218951   6.137   5.243   3.231
 6018SOL     OW18952   2.761   3.372   0.575
 6018SOL    HW118953   2.733   3.309   0.502
 6018SOL    HW218954   2.684   3.387   0.637
 6019SOL     OW18955   3.783   1.055   4.053
 6019SOL    HW118956   3.808   1.005   4.136
 6019SOL    HW218957   3.837   1.140   4.049
 6020SOL     OW18958   3.915   0.725   2.823
 6020SOL    HW118959   3.848   0.658   2.793
 6020SOL    HW218960   3.951   0.774   2.743
 6021SOL     OW18961   4.132   1.325   2.116
 6021SOL    HW118962   4.223   1.344   2.153
 6021SOL    HW218963   4.124   1.228   2.094
 6022SOL     OW18964   4.663   1.473   3.182
 6022SOL    HW118965   4.588   1.415   3.214
 6022SOL    HW218966   4.723   1.494   3.259
 6023SOL     OW18967   0.237   1.757   3.137
 6023SOL    HW118968   0.273   1.806   3.058
 6023SOL    HW218969   0.198   1.670   3.107
 6024SOL     OW18970   0.474   4.944   1.665
 6024SOL    HW118971   0.492   4.886   1.586
 6024SOL    HW218972   0.550   4.936   1.730
 6025SOL     OW18973   4.498   1.374   1.716
 6025SOL    HW118974   4.511   1.447   1.783
 6025SOL    HW218975   4.544   1.397   1.631
 6026SOL     OW18976   6.437   5.277   5.245
 6026SOL    HW118977   6.524   5.324   5.262
 6026SOL    HW218978   6.397   5.248   5.332
 6027SOL     OW18979   2.658   2.669   6.770
 6027SOL    HW118980   2.731   2.731   6.797
 6027SOL    HW218981   2.571   2.703   6.805
 6028SOL     OW18982   1.748   4.692   7.015
 6028SOL    HW118983   1.779   4.604   0.030
 6028SOL    HW218984   1.756   4.763   0.062
 6029SOL     OW18985   1.964   6.062   0.615
 6029SOL    HW118986   2.018   6.059   0.699
 6029SOL    HW218987   2.007   6.004   0.546
 6030SOL     OW18988   2.187   0.450   1.771
 6030SOL    HW118989   2.111   0.407   1.721
 6030SOL    HW218990   2.224   0.525   1.716
 6031SOL     OW18991   5.067   6.509   5.844
 6031SOL    HW118992   5.000   6.512   5.769
 6031SOL    HW218993   5.091   6.602   5.871
 6032SOL     OW18994   1.498   3.379   2.520
 6032SOL    HW118995   1.447   3.401   2.437
 6032SOL    HW218996   1.568   3.311   2.500
 6033SOL     OW18997   1.531   1.944   2.802
 6033SOL    HW118998   1.472   2.025   2.807
 6033SOL    HW218999   1.588   1.939   2.884
 6034SOL     OW19000   2.288   4.494   5.143
 6034SOL    HW119001   2.376   4.542   5.153
 6034SOL    HW219002   2.221   4.556   5.104
 6035SOL     OW19003   5.328   0.566   4.536
 6035SOL    HW119004   5.314   0.630   4.612
 6035SOL    HW219005   5.314   0.472   4.568
 6036SOL     OW19006   0.439   6.981   4.986
 6036SOL    HW119007   0.474   0.022   5.054
 6036SOL    HW219008   0.405   0.009   4.907
 6037SOL     OW19009   5.096   5.495   5.548
 6037SOL    HW119010   5.189   5.504   5.584
 6037SOL    HW219011   5.097   5.505   5.449
 6038SOL     OW19012   6.634   4.013   6.054
 6038SOL    HW119013   6.674   4.080   5.992
 6038SOL    HW219014   6.556   4.055   6.101
 6039SOL     OW19015   3.397   3.402   2.392
 6039SOL    HW119016   3.386   3.410   2.293
 6039SOL    HW219017   3.314   3.364   2.432
 6040SOL     OW19018   0.695   2.193   6.338
 6040SOL    HW119019   0.755   2.141   6.399
 6040SOL    HW219020   0.625   2.240   6.392
 6041SOL     OW19021   0.876   1.571   7.020
 6041SOL    HW119022   0.824   1.631   6.959
 6041SOL    HW219023   0.899   1.620   0.081
 6042SOL     OW19024   5.019   4.998   2.772
 6042SOL    HW119025   4.936   4.999   2.716
 6042SOL    HW219026   5.073   4.916   2.749
 6043SOL     OW19027   1.044   4.958   4.538
 6043SOL    HW119028   0.972   4.985   4.475
 6043SOL    HW219029   1.133   4.974   4.496
 6044SOL     OW19030   0.594   0.449   1.169
 6044SOL    HW119031   0.616   0.356   1.198
 6044SOL    HW219032   0.677   0.493   1.134
 6045SOL     OW19033   5.666   5.003   0.660
 6045SOL    HW119034   5.619   4.997   0.572
 6045SOL    HW219035   5.739   5.071   0.654
 6046SOL     OW19036   2.633   2.490   0.165
 6046SOL    HW119037   2.677   2.497   0.075
 6046SOL    HW219038   2.571   2.412   0.166
 6047SOL     OW19039   6.401   6.946   3.928
 6047SOL    HW119040   6.456   0.002   3.900
 6047SOL    HW219041   6.459   6.864   3.930
 6048SOL     OW19042   3.900   0.418   3.649
 6048SOL    HW119043   3.853   0.505   3.632
 6048SOL    HW219044   3.833   0.344   3.654
 6049SOL     OW19045   4.757   3.876   6.444
 6049SOL    HW119046   4.761   3.870   6.344
 6049SOL    HW219047   4.850   3.872   6.481
 6050SOL     OW19048   4.149   4.716   5.273
 6050SOL    HW119049   4.215   4.700   5.346
 6050SOL    HW219050   4.063   4.750   5.312
 6051SOL     OW19051   2.286   2.237   2.495
 6051SOL    HW119052   2.312   2.151   2.450
 6051SOL    HW219053   2.198   2.267   2.460
 6052SOL     OW19054   6.850   1.552   0.429
 6052SOL    HW119055   6.752   1.530   0.424
 6052SOL    HW219056   6.887   1.521   0.516
 6053SOL     OW19057   2.599   6.869   6.690
 6053SOL    HW119058   2.660   6.910   6.622
 6053SOL    HW219059   2.644   6.868   6.779
 6054SOL     OW19060   1.684   5.435   0.922
 6054SOL    HW119061   1.708   5.338   0.930
 6054SOL    HW219062   1.674   5.475   1.013
 6055SOL     OW19063   5.147   1.210   5.234
 6055SOL    HW119064   5.207   1.131   5.216
 6055SOL    HW219065   5.084   1.222   5.157
 6056SOL     OW19066   3.884   1.801   6.165
 6056SOL    HW119067   3.838   1.852   6.237
 6056SOL    HW219068   3.817   1.765   6.100
 6057SOL     OW19069   3.994   1.156   5.230
 6057SOL    HW119070   4.052   1.167   5.311
 6057SOL    HW219071   4.026   1.077   5.176
 6058SOL     OW19072   5.584   2.668   4.357
 6058SOL    HW119073   5.636   2.608   4.417
 6058SOL    HW219074   5.504   2.704   4.405
 6059SOL     OW19075   5.089   4.530   6.271
 6059SOL    HW119076   5.016   4.479   6.225
 6059SOL    HW219077   5.048   4.599   6.331
 6060SOL     OW19078   4.501   5.162   5.659
 6060SOL    HW119079   4.483   5.099   5.734
 6060SOL    HW219080   4.439   5.240   5.665
 6061SOL     OW19081   3.048   1.991   6.872
 6061SOL    HW119082   3.008   2.040   6.795
 6061SOL    HW219083   2.975   1.948   6.926
 6062SOL     OW19084   1.646   1.035   4.570
 6062SOL    HW119085   1.587   1.045   4.650
 6062SOL    HW219086   1.741   1.027   4.600
 6063SOL     OW19087   4.238   1.240   6.663
 6063SOL    HW119088   4.251   1.148   6.699
 6063SOL    HW219089   4.156   1.281   6.703
 6064SOL     OW19090   1.240   5.751   3.042
 6064SOL    HW119091   1.335   5.764   3.069
 6064SOL    HW219092   1.228   5.657   3.009
 6065SOL     OW19093   6.157   6.500   0.927
 6065SOL    HW119094   6.157   6.550   1.013
 6065SOL    HW219095   6.244   6.514   0.881
 6066SOL     OW19096   4.455   2.006   1.115
 6066SOL    HW119097   4.425   1.944   1.042
 6066SOL    HW219098   4.397   2.088   1.116
 6067SOL     OW19099   6.398   1.346   6.105
 6067SOL    HW119100   6.370   1.429   6.153
 6067SOL    HW219101   6.433   1.371   6.014
 6068SOL     OW19102   4.764   2.903   4.898
 6068SOL    HW119103   4.758   2.846   4.980
 6068SOL    HW219104   4.756   2.999   4.923
 6069SOL     OW19105   6.742   4.295   5.551
 6069SOL    HW119106   6.673   4.234   5.513
 6069SOL    HW219107   6.831   4.274   5.510
 6070SOL     OW19108   4.255   2.446   6.430
 6070SOL    HW119109   4.217   2.532   6.460
 6070SOL    HW219110   4.186   2.374   6.436
 6071SOL     OW19111   4.042   6.026   5.037
 6071SOL    HW119112   4.108   6.100   5.029
 6071SOL    HW219113   3.952   6.058   5.006
 6072SOL     OW19114   1.059   1.984   1.928
 6072SOL    HW119115   1.021   2.030   2.009
 6072SOL    HW219116   1.048   1.885   1.937
 6073SOL     OW19117   6.649   2.637   1.230
 6073SOL    HW119118   6.618   2.732   1.220
 6073SOL    HW219119   6.575   2.575   1.203
 6074SOL     OW19120   0.653   6.959   4.681
 6074SOL    HW119121   0.582   6.923   4.742
 6074SOL    HW219122   0.621   6.956   4.587
 6075SOL     OW19123   6.150   3.411   0.039
 6075SOL    HW119124   6.093   3.487   0.007
 6075SOL    HW219125   6.116   3.380   0.128
 6076SOL     OW19126   1.996   6.669   3.991
 6076SOL    HW119127   1.984   6.732   3.915
 6076SOL    HW219128   2.049   6.590   3.961
 6077SOL     OW19129   5.919   6.193   2.433
 6077SOL    HW119130   5.886   6.221   2.523
 6077SOL    HW219131   5.857   6.125   2.394
 6078SOL     OW19132   3.118   4.851   3.739
 6078SOL    HW119133   3.130   4.818   3.646
 6078SOL    HW219134   3.022   4.875   3.753
 6079SOL     OW19135   2.184   2.829   0.275
 6079SOL    HW119136   2.283   2.814   0.278
 6079SOL    HW219137   2.148   2.829   0.368
 6080SOL     OW19138   5.843   2.105   1.666
 6080SOL    HW119139   5.790   2.021   1.673
 6080SOL    HW219140   5.940   2.082   1.656
 6081SOL     OW19141   6.370   3.713   3.750
 6081SOL    HW119142   6.412   3.721   3.840
 6081SOL    HW219143   6.320   3.626   3.744
 6082SOL     OW19144   4.395   0.605   2.768
 6082SOL    HW119145   4.375   0.681   2.706
 6082SOL    HW219146   4.418   0.641   2.858
 6083SOL     OW19147   1.406   6.046   6.701
 6083SOL    HW119148   1.349   5.991   6.762
 6083SOL    HW219149   1.366   6.046   6.609
 6084SOL     OW19150   6.203   5.387   5.094
 6084SOL    HW119151   6.134   5.457   5.113
 6084SOL    HW219152   6.272   5.389   5.167
 6085SOL     OW19153   6.506   3.121   7.007
 6085SOL    HW119154   6.434   3.132   6.939
 6085SOL    HW219155   6.484   3.176   0.065
 6086SOL     OW19156   4.347   1.380   4.704
 6086SOL    HW119157   4.402   1.416   4.628
 6086SOL    HW219158   4.252   1.410   4.693
 6087SOL     OW19159   5.753   6.367   6.493
 6087SOL    HW119160   5.756   6.446   6.555
 6087SOL    HW219161   5.661   6.330   6.490
 6088SOL     OW19162   0.778   0.138   4.783
 6088SOL    HW119163   0.825   0.192   4.714
 6088SOL    HW219164   0.703   0.087   4.740
 6089SOL     OW19165   0.693   3.349   0.882
 6089SOL    HW119166   0.758   3.351   0.807
 6089SOL    HW219167   0.740   3.330   0.968
 6090SOL     OW19168   0.504   6.105   5.533
 6090SOL    HW119169   0.563   6.027   5.552
 6090SOL    HW219170   0.462   6.094   5.443
 6091SOL     OW19171   6.343   1.706   2.460
 6091SOL    HW119172   6.255   1.676   2.426
 6091SOL    HW219173   6.337   1.802   2.488
 6092SOL     OW19174   2.296   0.983   2.228
 6092SOL    HW119175   2.280   0.993   2.130
 6092SOL    HW219176   2.352   0.902   2.245
 6093SOL     OW19177   1.286   2.880   1.283
 6093SOL    HW119178   1.327   2.961   1.325
 6093SOL    HW219179   1.187   2.881   1.297
 6094SOL     OW19180   1.336   1.410   1.509
 6094SOL    HW119181   1.312   1.498   1.468
 6094SOL    HW219182   1.421   1.419   1.560
 6095SOL     OW19183   5.733   3.143   6.842
 6095SOL    HW119184   5.815   3.194   6.867
 6095SOL    HW219185   5.719   3.148   6.743
 6096SOL     OW19186   4.280   1.476   4.387
 6096SOL    HW119187   4.243   1.529   4.310
 6096SOL    HW219188   4.241   1.385   4.387
 6097SOL     OW19189   2.505   0.893   2.561
 6097SOL    HW119190   2.507   0.970   2.497
 6097SOL    HW219191   2.420   0.842   2.549
 6098SOL     OW19192   2.473   2.207   5.920
 6098SOL    HW119193   2.408   2.252   5.859
 6098SOL    HW219194   2.423   2.153   5.988
 6099SOL     OW19195   6.113   6.030   5.221
 6099SOL    HW119196   6.077   6.036   5.314
 6099SOL    HW219197   6.187   6.096   5.210
 6100SOL     OW19198   6.481   2.714   0.367
 6100SOL    HW119199   6.526   2.636   0.411
 6100SOL    HW219200   6.455   2.690   0.274
 6101SOL     OW19201   6.846   2.019   5.681
 6101SOL    HW119202   6.766   1.983   5.631
 6101SOL    HW219203   6.921   1.954   5.673
 6102SOL     OW19204   3.430   1.030   5.235
 6102SOL    HW119205   3.338   0.999   5.257
 6102SOL    HW219206   3.449   1.013   5.138
 6103SOL     OW19207   6.617   0.581   4.423
 6103SOL    HW119208   6.650   0.675   4.431
 6103SOL    HW219209   6.693   0.517   4.434
 6104SOL     OW19210   6.168   1.282   0.100
 6104SOL    HW119211   6.227   1.355   0.065
 6104SOL    HW219212   6.073   1.305   0.084
 6105SOL     OW19213   3.642   5.615   6.156
 6105SOL    HW119214   3.688   5.607   6.068
 6105SOL    HW219215   3.626   5.711   6.177
 6106SOL     OW19216   2.821   5.016   6.344
 6106SOL    HW119217   2.804   5.035   6.247
 6106SOL    HW219218   2.916   5.037   6.366
 6107SOL     OW19219   2.126   5.049   4.831
 6107SOL    HW119220   2.207   4.992   4.845
 6107SOL    HW219221   2.147   5.143   4.856
 6108SOL     OW19222   0.821   2.291   4.145
 6108SOL    HW119223   0.890   2.342   4.094
 6108SOL    HW219224   0.746   2.353   4.170
 6109SOL     OW19225   5.741   3.252   0.672
 6109SOL    HW119226   5.761   3.178   0.608
 6109SOL    HW219227   5.722   3.336   0.621
 6110SOL     OW19228   3.398   1.608   5.557
 6110SOL    HW119229   3.490   1.639   5.583
 6110SOL    HW219230   3.404   1.521   5.508
 6111SOL     OW19231   1.202   4.878   2.956
 6111SOL    HW119232   1.193   4.789   3.001
 6111SOL    HW219233   1.255   4.939   3.014
 6112SOL     OW19234   1.434   1.771   3.116
 6112SOL    HW119235   1.362   1.838   3.095
 6112SOL    HW219236   1.517   1.795   3.065
 6113SOL     OW19237   1.693   0.099   5.827
 6113SOL    HW119238   1.647   0.122   5.741
 6113SOL    HW219239   1.677   0.172   5.894
 6114SOL     OW19240   5.148   5.655   0.491
 6114SOL    HW119241   5.100   5.654   0.579
 6114SOL    HW219242   5.093   5.705   0.424
 6115SOL     OW19243   4.824   5.449   2.781
 6115SOL    HW119244   4.864   5.467   2.691
 6115SOL    HW219245   4.749   5.383   2.771
 6116SOL     OW19246   3.273   1.126   2.078
 6116SOL    HW119247   3.301   1.217   2.046
 6116SOL    HW219248   3.177   1.129   2.106
 6117SOL     OW19249   5.769   6.672   4.663
 6117SOL    HW119250   5.861   6.657   4.700
 6117SOL    HW219251   5.776   6.712   4.571
 6118SOL     OW19252   6.411   1.434   3.232
 6118SOL    HW119253   6.324   1.475   3.203
 6118SOL    HW219254   6.486   1.480   3.185
 6119SOL     OW19255   0.529   5.354   4.915
 6119SOL    HW119256   0.467   5.375   4.991
 6119SOL    HW219257   0.476   5.315   4.839
 6120SOL     OW19258   3.027   6.875   2.967
 6120SOL    HW119259   3.092   6.799   2.974
 6120SOL    HW219260   3.068   6.957   3.005
 6121SOL     OW19261   0.254   2.658   3.434
 6121SOL    HW119262   0.267   2.673   3.532
 6121SOL    HW219263   0.335   2.689   3.384
 6122SOL     OW19264   4.100   6.260   3.248
 6122SOL    HW119265   4.159   6.322   3.196
 6122SOL    HW219266   4.119   6.270   3.346
 6123SOL     OW19267   6.568   1.241   1.917
 6123SOL    HW119268   6.622   1.315   1.957
 6123SOL    HW219269   6.471   1.255   1.940
 6124SOL     OW19270   3.236   0.131   5.985
 6124SOL    HW119271   3.163   0.137   6.054
 6124SOL    HW219272   3.221   0.202   5.915
 6125SOL     OW19273   1.648   6.069   1.561
 6125SOL    HW119274   1.596   6.086   1.645
 6125SOL    HW219275   1.690   6.155   1.531
 6126SOL     OW19276   5.126   4.779   3.343
 6126SOL    HW119277   5.051   4.839   3.317
 6126SOL    HW219278   5.173   4.816   3.422
 6127SOL     OW19279   2.101   5.932   1.190
 6127SOL    HW119280   2.032   5.861   1.175
 6127SOL    HW219281   2.056   6.021   1.193
 6128SOL     OW19282   0.003   2.393   0.693
 6128SOL    HW119283   6.981   2.341   0.620
 6128SOL    HW219284   0.102   2.383   0.685
 6129SOL     OW19285   5.991   4.039   2.281
 6129SOL    HW119286   5.907   4.069   2.236
 6129SOL    HW219287   6.029   4.114   2.334
 6130SOL     OW19288   4.825   2.567   3.564
 6130SOL    HW119289   4.755   2.638   3.556
 6130SOL    HW219290   4.801   2.506   3.640
 6131SOL     OW19291   6.633   1.379   5.652
 6131SOL    HW119292   6.575   1.312   5.605
 6131SOL    HW219293   6.628   1.364   5.751
 6132SOL     OW19294   3.965   3.024   0.983
 6132SOL    HW119295   3.947   3.060   0.892
 6132SOL    HW219296   3.881   3.026   1.037
 6133SOL     OW19297   0.908   3.612   1.141
 6133SOL    HW119298   0.811   3.623   1.118
 6133SOL    HW219299   0.919   3.536   1.205
 6134SOL     OW19300   3.734   3.826   6.901
 6134SOL    HW119301   3.823   3.803   6.941
 6134SOL    HW219302   3.747   3.859   6.808
 6135SOL     OW19303   6.557   6.985   0.950
 6135SOL    HW119304   6.557   6.976   1.049
 6135SOL    HW219305   6.548   0.058   0.925
 6136SOL     OW19306   0.726   2.043   2.089
 6136SOL    HW119307   0.686   2.134   2.095
 6136SOL    HW219308   0.656   1.977   2.063
 6137SOL     OW19309   2.815   6.371   5.928
 6137SOL    HW119310   2.732   6.320   5.908
 6137SOL    HW219311   2.895   6.317   5.901
 6138SOL     OW19312   3.924   6.373   2.527
 6138SOL    HW119313   4.013   6.414   2.504
 6138SOL    HW219314   3.925   6.341   2.621
 6139SOL     OW19315   1.537   3.960   5.053
 6139SOL    HW119316   1.509   4.043   5.102
 6139SOL    HW219317   1.628   3.933   5.082
 6140SOL     OW19318   1.334   6.824   1.827
 6140SOL    HW119319   1.429   6.809   1.800
 6140SOL    HW219320   1.332   6.889   1.903
 6141SOL     OW19321   6.541   5.381   5.891
 6141SOL    HW119322   6.609   5.437   5.938
 6141SOL    HW219323   6.472   5.350   5.956
 6142SOL     OW19324   6.781   3.608   1.073
 6142SOL    HW119325   6.836   3.538   1.119
 6142SOL    HW219326   6.751   3.573   0.984
 6143SOL     OW19327   5.911   5.038   6.500
 6143SOL    HW119328   5.884   5.000   6.412
 6143SOL    HW219329   5.936   4.964   6.563
 6144SOL     OW19330   0.191   4.150   3.774
 6144SOL    HW119331   0.253   4.153   3.696
 6144SOL    HW219332   0.179   4.055   3.802
 6145SOL     OW19333   5.057   5.801   2.724
 6145SOL    HW119334   5.104   5.732   2.669
 6145SOL    HW219335   4.961   5.805   2.698
 6146SOL     OW19336   5.228   1.367   3.100
 6146SOL    HW119337   5.267   1.280   3.131
 6146SOL    HW219338   5.132   1.353   3.077
 6147SOL     OW19339   2.018   3.739   2.845
 6147SOL    HW119340   2.052   3.669   2.908
 6147SOL    HW219341   2.093   3.800   2.819
 6148SOL     OW19342   6.247   6.615   4.034
 6148SOL    HW119343   6.181   6.686   4.057
 6148SOL    HW219344   6.199   6.529   4.014
 6149SOL     OW19345   3.282   5.207   3.186
 6149SOL    HW119346   3.309   5.122   3.140
 6149SOL    HW219347   3.296   5.198   3.284
 6150SOL     OW19348   4.780   6.038   5.860
 6150SOL    HW119349   4.736   6.034   5.770
 6150SOL    HW219350   4.756   6.123   5.906
 6151SOL     OW19351   5.161   2.171   5.336
 6151SOL    HW119352   5.072   2.190   5.293
 6151SOL    HW219353   5.166   2.219   5.423
 6152SOL     OW19354   5.834   4.603   6.275
 6152SOL    HW119355   5.804   4.514   6.239
 6152SOL    HW219356   5.771   4.632   6.348
 6153SOL     OW19357   4.307   3.973   1.393
 6153SOL    HW119358   4.396   4.016   1.409
 6153SOL    HW219359   4.261   3.958   1.480
 6154SOL     OW19360   5.837   2.468   2.814
 6154SOL    HW119361   5.779   2.538   2.772
 6154SOL    HW219362   5.904   2.435   2.748
 6155SOL     OW19363   0.376   3.722   4.993
 6155SOL    HW119364   0.383   3.630   4.954
 6155SOL    HW219365   0.352   3.714   5.090
 6156SOL     OW19366   5.897   6.628   2.612
 6156SOL    HW119367   5.993   6.603   2.630
 6156SOL    HW219368   5.842   6.608   2.693
 6157SOL     OW19369   1.836   1.789   4.468
 6157SOL    HW119370   1.822   1.693   4.490
 6157SOL    HW219371   1.922   1.801   4.419
 6158SOL     OW19372   4.370   0.737   6.658
 6158SOL    HW119373   4.452   0.683   6.677
 6158SOL    HW219374   4.292   0.676   6.649
 6159SOL     OW19375   5.407   3.038   0.649
 6159SOL    HW119376   5.342   3.006   0.719
 6159SOL    HW219377   5.368   3.025   0.559
 6160SOL     OW19378   5.719   5.965   1.303
 6160SOL    HW119379   5.819   5.968   1.305
 6160SOL    HW219380   5.686   5.906   1.376
 6161SOL     OW19381   5.257   0.234   6.242
 6161SOL    HW119382   5.222   0.197   6.328
 6161SOL    HW219383   5.357   0.227   6.241
 6162SOL     OW19384   0.426   5.272   4.651
 6162SOL    HW119385   0.414   5.173   4.658
 6162SOL    HW219386   0.471   5.295   4.565
 6163SOL     OW19387   6.133   3.754   0.442
 6163SOL    HW119388   6.100   3.667   0.479
 6163SOL    HW219389   6.077   3.781   0.364
 6164SOL     OW19390   3.017   1.369   0.864
 6164SOL    HW119391   2.996   1.324   0.778
 6164SOL    HW219392   2.974   1.318   0.939
 6165SOL     OW19393   4.366   6.347   0.504
 6165SOL    HW119394   4.318   6.277   0.557
 6165SOL    HW219395   4.336   6.437   0.533
 6166SOL     OW19396   2.577   1.065   6.080
 6166SOL    HW119397   2.519   1.107   6.010
 6166SOL    HW219398   2.534   1.077   6.170
 6167SOL     OW19399   0.494   4.237   2.906
 6167SOL    HW119400   0.500   4.290   2.821
 6167SOL    HW219401   0.482   4.299   2.983
 6168SOL     OW19402   0.520   4.061   2.406
 6168SOL    HW119403   0.469   4.123   2.466
 6168SOL    HW219404   0.498   3.966   2.429
 6169SOL     OW19405   2.194   4.071   2.429
 6169SOL    HW119406   2.167   4.099   2.337
 6169SOL    HW219407   2.289   4.043   2.430
 6170SOL     OW19408   0.044   3.491   5.345
 6170SOL    HW119409   0.133   3.451   5.368
 6170SOL    HW219410   6.997   3.419   5.346
 6171SOL     OW19411   0.576   0.337   6.660
 6171SOL    HW119412   0.668   0.314   6.691
 6171SOL    HW219413   0.508   0.285   6.712
 6172SOL     OW19414   0.663   3.081   2.598
 6172SOL    HW119415   0.713   3.001   2.630
 6172SOL    HW219416   0.611   3.121   2.673
 6173SOL     OW19417   6.587   6.831   2.866
 6173SOL    HW119418   6.545   6.870   2.947
 6173SOL    HW219419   6.666   6.775   2.893
 6174SOL     OW19420   5.572   4.182   2.743
 6174SOL    HW119421   5.608   4.273   2.763
 6174SOL    HW219422   5.510   4.155   2.816
 6175SOL     OW19423   2.486   1.209   4.955
 6175SOL    HW119424   2.398   1.200   4.908
 6175SOL    HW219425   2.510   1.306   4.962
 6176SOL     OW19426   4.237   4.423   5.347
 6176SOL    HW119427   4.262   4.447   5.254
 6176SOL    HW219428   4.315   4.382   5.394
 6177SOL     OW19429   6.299   1.453   2.298
 6177SOL    HW119430   6.384   1.501   2.280
 6177SOL    HW219431   6.224   1.500   2.252
 6178SOL     OW19432   5.127   4.147   2.307
 6178SOL    HW119433   5.128   4.208   2.228
 6178SOL    HW219434   5.100   4.199   2.388
 6179SOL     OW19435   6.208   4.985   2.976
 6179SOL    HW119436   6.166   5.074   2.991
 6179SOL    HW219437   6.307   4.994   2.979
 6180SOL     OW19438   2.807   4.641   0.206
 6180SOL    HW119439   2.874   4.607   0.272
 6180SOL    HW219440   2.816   4.740   0.197
 6181SOL     OW19441   4.599   4.813   6.237
 6181SOL    HW119442   4.510   4.844   6.270
 6181SOL    HW219443   4.663   4.890   6.235
 6182SOL     OW19444   3.224   3.326   0.319
 6182SOL    HW119445   3.270   3.287   0.239
 6182SOL    HW219446   3.275   3.301   0.402
 6183SOL     OW19447   0.970   2.044   1.169
 6183SOL    HW119448   0.987   2.137   1.203
 6183SOL    HW219449   0.872   2.027   1.166
 6184SOL     OW19450   2.814   0.700   5.807
 6184SOL    HW119451   2.752   0.779   5.812
 6184SOL    HW219452   2.779   0.634   5.741
 6185SOL     OW19453   3.380   2.672   5.378
 6185SOL    HW119454   3.371   2.734   5.300
 6185SOL    HW219455   3.290   2.659   5.420
 6186SOL     OW19456   6.034   2.027   2.149
 6186SOL    HW119457   6.005   1.970   2.227
 6186SOL    HW219458   6.119   1.989   2.111
 6187SOL     OW19459   5.336   1.960   5.448
 6187SOL    HW119460   5.282   1.877   5.432
 6187SOL    HW219461   5.277   2.040   5.436
 6188SOL     OW19462   1.842   2.248   5.320
 6188SOL    HW119463   1.888   2.292   5.397
 6188SOL    HW219464   1.902   2.177   5.282
 6189SOL     OW19465   5.241   6.056   2.183
 6189SOL    HW119466   5.240   5.957   2.201
 6189SOL    HW219467   5.167   6.100   2.233
 6190SOL     OW19468   0.083   2.455   5.191
 6190SOL    HW119469   0.126   2.407   5.267
 6190SOL    HW219470   0.010   2.398   5.152
 6191SOL     OW19471   3.347   3.598   6.859
 6191SOL    HW119472   3.374   3.690   6.832
 6191SOL    HW219473   3.359   3.587   6.958
 6192SOL     OW19474   2.349   2.100   0.442
 6192SOL    HW119475   2.266   2.047   0.461
 6192SOL    HW219476   2.394   2.124   0.529
 6193SOL     OW19477   5.079   5.333   6.937
 6193SOL    HW119478   5.101   5.287   6.850
 6193SOL    HW219479   5.162   5.376   6.973
 6194SOL     OW19480   6.580   0.106   6.037
 6194SOL    HW119481   6.520   0.186   6.030
 6194SOL    HW219482   6.651   0.111   5.967
 6195SOL     OW19483   5.984   6.614   5.572
 6195SOL    HW119484   6.003   6.539   5.636
 6195SOL    HW219485   5.885   6.619   5.556
 6196SOL     OW19486   5.174   3.805   3.133
 6196SOL    HW119487   5.247   3.754   3.089
 6196SOL    HW219488   5.088   3.755   3.123
 6197SOL     OW19489   2.957   5.310   2.071
 6197SOL    HW119490   3.036   5.300   2.011
 6197SOL    HW219491   2.934   5.407   2.081
 6198SOL     OW19492   6.481   6.547   6.575
 6198SOL    HW119493   6.545   6.514   6.505
 6198SOL    HW219494   6.430   6.470   6.612
 6199SOL     OW19495   1.162   0.167   0.887
 6199SOL    HW119496   1.184   0.070   0.881
 6199SOL    HW219497   1.225   0.219   0.829
 6200SOL     OW19498   1.876   2.143   2.519
 6200SOL    HW119499   1.828   2.120   2.604
 6200SOL    HW219500   1.813   2.183   2.454
 6201SOL     OW19501   6.828   3.729   3.782
 6201SOL    HW119502   6.770   3.781   3.845
 6201SOL    HW219503   6.872   3.792   3.718
 6202SOL     OW19504   6.088   1.407   2.895
 6202SOL    HW119505   6.153   1.426   2.821
 6202SOL    HW219506   6.000   1.382   2.855
 6203SOL     OW19507   5.958   6.265   1.921
 6203SOL    HW119508   5.883   6.236   1.979
 6203SOL    HW219509   6.043   6.222   1.952
 6204SOL     OW19510   1.889   6.972   5.133
 6204SOL    HW119511   1.951   6.982   5.056
 6204SOL    HW219512   1.863   0.039   5.168
 6205SOL     OW19513   4.985   4.228   3.124
 6205SOL    HW119514   4.942   4.159   3.183
 6205SOL    HW219515   5.030   4.297   3.181
 6206SOL     OW19516   5.083   1.986   3.868
 6206SOL    HW119517   5.181   2.002   3.873
 6206SOL    HW219518   5.034   2.071   3.887
 6207SOL     OW19519   2.190   5.970   4.001
 6207SOL    HW119520   2.180   6.026   4.083
 6207SOL    HW219521   2.120   5.899   4.000
 6208SOL     OW19522   3.799   2.736   5.626
 6208SOL    HW119523   3.836   2.647   5.601
 6208SOL    HW219524   3.808   2.800   5.549
 6209SOL     OW19525   3.985   3.887   0.719
 6209SOL    HW119526   3.998   3.820   0.792
 6209SOL    HW219527   4.031   3.856   0.636
 6210SOL     OW19528   4.505   2.484   3.314
 6210SOL    HW119529   4.483   2.387   3.303
 6210SOL    HW219530   4.524   2.524   3.224
 6211SOL     OW19531   5.100   5.385   4.786
 6211SOL    HW119532   5.015   5.405   4.739
 6211SOL    HW219533   5.171   5.448   4.756
 6212SOL     OW19534   4.143   4.100   5.996
 6212SOL    HW119535   4.085   4.056   5.928
 6212SOL    HW219536   4.233   4.055   5.998
 6213SOL     OW19537   4.298   5.900   0.468
 6213SOL    HW119538   4.378   5.949   0.502
 6213SOL    HW219539   4.312   5.875   0.372
 6214SOL     OW19540   6.192   5.686   5.738
 6214SOL    HW119541   6.146   5.736   5.665
 6214SOL    HW219542   6.279   5.651   5.705
 6215SOL     OW19543   5.345   2.444   5.999
 6215SOL    HW119544   5.326   2.365   6.058
 6215SOL    HW219545   5.308   2.527   6.041
 6216SOL     OW19546   4.634   2.558   3.098
 6216SOL    HW119547   4.691   2.525   3.173
 6216SOL    HW219548   4.690   2.606   3.031
 6217SOL     OW19549   0.813   4.599   2.264
 6217SOL    HW119550   0.877   4.563   2.331
 6217SOL    HW219551   0.746   4.658   2.309
 6218SOL     OW19552   4.621   6.647   0.189
 6218SOL    HW119553   4.659   6.643   0.282
 6218SOL    HW219554   4.547   6.714   0.186
 6219SOL     OW19555   1.699   0.910   5.711
 6219SOL    HW119556   1.728   1.004   5.693
 6219SOL    HW219557   1.599   0.905   5.707
 6220SOL     OW19558   4.281   0.635   0.867
 6220SOL    HW119559   4.300   0.734   0.863
 6220SOL    HW219560   4.352   0.590   0.921
 6221SOL     OW19561   6.160   5.547   6.592
 6221SOL    HW119562   6.178   5.604   6.512
 6221SOL    HW219563   6.219   5.467   6.590
 6222SOL     OW19564   6.507   1.536   2.694
 6222SOL    HW119565   6.433   1.475   2.665
 6222SOL    HW219566   6.486   1.629   2.667
 6223SOL     OW19567   0.679   4.882   3.855
 6223SOL    HW119568   0.586   4.845   3.855
 6223SOL    HW219569   0.689   4.946   3.779
 6224SOL     OW19570   4.487   2.054   0.018
 6224SOL    HW119571   4.438   2.071   6.956
 6224SOL    HW219572   4.522   2.140   0.055
 6225SOL     OW19573   4.275   0.108   6.448
 6225SOL    HW119574   4.219   0.177   6.495
 6225SOL    HW219575   4.252   0.017   6.482
 6226SOL     OW19576   0.755   1.284   4.378
 6226SOL    HW119577   0.843   1.329   4.365
 6226SOL    HW219578   0.762   1.217   4.452
 6227SOL     OW19579   3.214   3.919   5.235
 6227SOL    HW119580   3.256   4.007   5.258
 6227SOL    HW219581   3.126   3.934   5.190
 6228SOL     OW19582   1.820   2.511   3.724
 6228SOL    HW119583   1.759   2.451   3.672
 6228SOL    HW219584   1.839   2.470   3.813
 6229SOL     OW19585   0.321   3.991   4.099
 6229SOL    HW119586   0.263   3.922   4.143
 6229SOL    HW219587   0.362   4.049   4.170
 6230SOL     OW19588   0.820   0.916   1.992
 6230SOL    HW119589   0.760   0.936   2.070
 6230SOL    HW219590   0.893   0.984   1.988
 6231SOL     OW19591   0.568   5.076   0.354
 6231SOL    HW119592   0.566   5.176   0.351
 6231SOL    HW219593   0.527   5.045   0.440
 6232SOL     OW19594   4.714   1.544   6.792
 6232SOL    HW119595   4.643   1.519   6.857
 6232SOL    HW219596   4.796   1.490   6.810
 6233SOL     OW19597   0.382   3.632   1.566
 6233SOL    HW119598   0.414   3.727   1.571
 6233SOL    HW219599   0.311   3.624   1.497
 6234SOL     OW19600   5.810   0.188   4.513
 6234SOL    HW119601   5.842   0.275   4.475
 6234SOL    HW219602   5.885   0.143   4.562
 6235SOL     OW19603   6.957   0.979   2.626
 6235SOL    HW119604   6.910   1.050   2.573
 6235SOL    HW219605   6.897   0.899   2.633
 6236SOL     OW19606   0.567   4.659   1.108
 6236SOL    HW119607   0.499   4.698   1.170
 6236SOL    HW219608   0.603   4.732   1.049
 6237SOL     OW19609   3.743   1.035   1.238
 6237SOL    HW119610   3.734   0.941   1.271
 6237SOL    HW219611   3.838   1.065   1.247
 6238SOL     OW19612   2.193   6.783   4.762
 6238SOL    HW119613   2.179   6.684   4.770
 6238SOL    HW219614   2.208   6.822   4.853
 6239SOL     OW19615   4.731   1.219   2.903
 6239SOL    HW119616   4.648   1.186   2.949
 6239SOL    HW219617   4.711   1.236   2.806
 6240SOL     OW19618   4.038   3.339   4.295
 6240SOL    HW119619   4.052   3.432   4.259
 6240SOL    HW219620   4.010   3.278   4.221
 6241SOL     OW19621   3.171   6.740   3.508
 6241SOL    HW119622   3.224   6.755   3.592
 6241SOL    HW219623   3.123   6.653   3.515
 6242SOL     OW19624   2.963   1.878   3.938
 6242SOL    HW119625   3.006   1.920   3.858
 6242SOL    HW219626   2.976   1.937   4.018
 6243SOL     OW19627   5.692   1.752   6.172
 6243SOL    HW119628   5.742   1.745   6.086
 6243SOL    HW219629   5.753   1.785   6.244
 6244SOL     OW19630   4.399   4.691   3.044
 6244SOL    HW119631   4.422   4.609   3.096
 6244SOL    HW219632   4.398   4.670   2.946
 6245SOL     OW19633   0.878   4.486   2.714
 6245SOL    HW119634   0.940   4.424   2.762
 6245SOL    HW219635   0.789   4.487   2.760
 6246SOL     OW19636   6.844   6.365   4.390
 6246SOL    HW119637   6.847   6.317   4.478
 6246SOL    HW219638   6.762   6.337   4.340
 6247SOL     OW19639   6.202   6.284   2.706
 6247SOL    HW119640   6.285   6.329   2.739
 6247SOL    HW219641   6.122   6.335   2.737
 6248SOL     OW19642   3.738   3.007   6.700
 6248SOL    HW119643   3.827   3.004   6.655
 6248SOL    HW219644   3.666   2.996   6.632
 6249SOL     OW19645   5.771   3.026   1.091
 6249SOL    HW119646   5.756   3.110   1.037
 6249SOL    HW219647   5.695   2.964   1.077
 6250SOL     OW19648   6.997   0.556   0.478
 6250SOL    HW119649   0.054   0.598   0.436
 6250SOL    HW219650   6.997   0.575   0.576
 6251SOL     OW19651   2.919   6.634   4.526
 6251SOL    HW119652   2.863   6.687   4.590
 6251SOL    HW219653   2.915   6.676   4.435
 6252SOL     OW19654   2.736   5.527   0.282
 6252SOL    HW119655   2.733   5.449   0.345
 6252SOL    HW219656   2.643   5.557   0.262
 6253SOL     OW19657   3.242   5.037   4.507
 6253SOL    HW119658   3.268   5.017   4.602
 6253SOL    HW219659   3.306   4.993   4.445
 6254SOL     OW19660   6.730   6.122   0.297
 6254SOL    HW119661   6.668   6.134   0.220
 6254SOL    HW219662   6.820   6.158   0.273
 6255SOL     OW19663   0.181   1.267   1.581
 6255SOL    HW119664   0.262   1.216   1.609
 6255SOL    HW219665   0.195   1.364   1.599
 6256SOL     OW19666   4.591   5.596   2.482
 6256SOL    HW119667   4.493   5.615   2.495
 6256SOL    HW219668   4.605   5.560   2.390
 6257SOL     OW19669   4.057   4.273   1.637
 6257SOL    HW119670   4.149   4.235   1.645
 6257SOL    HW219671   3.994   4.201   1.607
 6258SOL     OW19672   4.157   6.329   5.826
 6258SOL    HW119673   4.097   6.260   5.786
 6258SOL    HW219674   4.171   6.403   5.759
 6259SOL     OW19675   2.827   0.780   4.842
 6259SOL    HW119676   2.736   0.752   4.809
 6259SOL    HW219677   2.893   0.707   4.823
 6260SOL     OW19678   2.147   1.656   0.382
 6260SOL    HW119679   2.128   1.570   0.429
 6260SOL    HW219680   2.245   1.674   0.384
 6261SOL     OW19681   3.815   6.249   1.465
 6261SOL    HW119682   3.780   6.252   1.372
 6261SOL    HW219683   3.915   6.256   1.463
 6262SOL     OW19684   6.493   0.519   1.810
 6262SOL    HW119685   6.449   0.451   1.869
 6262SOL    HW219686   6.592   0.504   1.811
 6263SOL     OW19687   6.261   6.323   5.639
 6263SOL    HW119688   6.290   6.391   5.572
 6263SOL    HW219689   6.189   6.362   5.696
 6264SOL     OW19690   1.742   6.550   1.292
 6264SOL    HW119691   1.814   6.533   1.360
 6264SOL    HW219692   1.703   6.641   1.308
 6265SOL     OW19693   4.604   1.561   0.242
 6265SOL    HW119694   4.679   1.506   0.207
 6265SOL    HW219695   4.609   1.653   0.204
 6266SOL     OW19696   2.577   5.588   3.427
 6266SOL    HW119697   2.609   5.678   3.457
 6266SOL    HW219698   2.522   5.598   3.345
 6267SOL     OW19699   1.434   6.859   4.875
 6267SOL    HW119700   1.534   6.860   4.867
 6267SOL    HW219701   1.397   6.943   4.836
 6268SOL     OW19702   3.848   0.743   1.283
 6268SOL    HW119703   3.938   0.776   1.257
 6268SOL    HW219704   3.829   0.770   1.377
 6269SOL     OW19705   5.514   5.354   0.829
 6269SOL    HW119706   5.612   5.372   0.842
 6269SOL    HW219707   5.495   5.341   0.732
 6270SOL     OW19708   2.029   6.468   0.418
 6270SOL    HW119709   1.970   6.387   0.424
 6270SOL    HW219710   2.019   6.510   0.328
 6271SOL     OW19711   5.959   3.183   6.568
 6271SOL    HW119712   5.974   3.085   6.577
 6271SOL    HW219713   6.038   3.233   6.606
 6272SOL     OW19714   6.921   6.997   0.428
 6272SOL    HW119715   6.884   6.955   0.511
 6272SOL    HW219716   6.889   0.069   0.421
 6273SOL     OW19717   6.921   0.659   1.736
 6273SOL    HW119718   6.830   0.691   1.710
 6273SOL    HW219719   6.914   0.575   1.789
 6274SOL     OW19720   3.281   5.518   4.748
 6274SOL    HW119721   3.275   5.528   4.848
 6274SOL    HW219722   3.202   5.467   4.715
 6275SOL     OW19723   1.925   5.177   6.886
 6275SOL    HW119724   2.025   5.174   6.895
 6275SOL    HW219725   1.892   5.266   6.917
 6276SOL     OW19726   1.480   5.878   2.789
 6276SOL    HW119727   1.492   5.963   2.737
 6276SOL    HW219728   1.485   5.898   2.886
 6277SOL     OW19729   5.474   3.103   1.469
 6277SOL    HW119730   5.382   3.079   1.499
 6277SOL    HW219731   5.539   3.086   1.543
 6278SOL     OW19732   3.073   0.444   6.295
 6278SOL    HW119733   2.985   0.438   6.247
 6278SOL    HW219734   3.112   0.535   6.283
 6279SOL     OW19735   2.785   0.314   1.629
 6279SOL    HW119736   2.860   0.345   1.571
 6279SOL    HW219737   2.704   0.296   1.573
 6280SOL     OW19738   6.876   1.944   6.996
 6280SOL    HW119739   6.903   1.911   0.063
 6280SOL    HW219740   6.905   1.878   6.926
 6281SOL     OW19741   5.935   4.396   5.138
 6281SOL    HW119742   5.841   4.430   5.126
 6281SOL    HW219743   5.955   4.388   5.236
 6282SOL     OW19744   0.414   3.606   5.768
 6282SOL    HW119745   0.382   3.553   5.846
 6282SOL    HW219746   0.513   3.619   5.774
 6283SOL     OW19747   1.464   5.860   5.150
 6283SOL    HW119748   1.480   5.839   5.053
 6283SOL    HW219749   1.419   5.782   5.193
 6284SOL     OW19750   2.311   4.828   6.420
 6284SOL    HW119751   2.375   4.830   6.497
 6284SOL    HW219752   2.228   4.878   6.445
 6285SOL     OW19753   0.976   3.984   3.772
 6285SOL    HW119754   1.024   3.909   3.818
 6285SOL    HW219755   0.976   4.065   3.831
 6286SOL     OW19756   1.222   2.978   5.420
 6286SOL    HW119757   1.239   2.884   5.391
 6286SOL    HW219758   1.256   3.042   5.350
 6287SOL     OW19759   4.528   4.845   4.981
 6287SOL    HW119760   4.538   4.885   4.890
 6287SOL    HW219761   4.560   4.910   5.050
 6288SOL     OW19762   3.879   3.221   6.916
 6288SOL    HW119763   3.901   3.209   7.013
 6288SOL    HW219764   3.955   3.188   6.860
 6289SOL     OW19765   2.928   4.723   5.746
 6289SOL    HW119766   2.853   4.767   5.696
 6289SOL    HW219767   2.935   4.627   5.719
 6290SOL     OW19768   5.140   5.666   4.699
 6290SOL    HW119769   5.112   5.697   4.790
 6290SOL    HW219770   5.223   5.713   4.671
 6291SOL     OW19771   3.407   3.263   3.249
 6291SOL    HW119772   3.340   3.195   3.278
 6291SOL    HW219773   3.405   3.341   3.312
 6292SOL     OW19774   1.925   3.056   4.480
 6292SOL    HW119775   1.932   2.985   4.550
 6292SOL    HW219776   1.871   3.133   4.516
 6293SOL     OW19777   4.643   1.324   6.546
 6293SOL    HW119778   4.610   1.418   6.550
 6293SOL    HW219779   4.728   1.320   6.493
 6294SOL     OW19780   1.644   1.536   2.979
 6294SOL    HW119781   1.656   1.501   2.886
 6294SOL    HW219782   1.668   1.633   2.980
 6295SOL     OW19783   5.740   3.795   5.504
 6295SOL    HW119784   5.649   3.781   5.542
 6295SOL    HW219785   5.799   3.837   5.573
 6296SOL     OW19786   0.465   2.342   6.515
 6296SOL    HW119787   0.432   2.433   6.542
 6296SOL    HW219788   0.525   2.306   6.586
 6297SOL     OW19789   5.974   0.583   4.112
 6297SOL    HW119790   5.965   0.681   4.090
 6297SOL    HW219791   5.931   0.529   4.039
 6298SOL     OW19792   6.149   5.164   0.770
 6298SOL    HW119793   6.229   5.106   0.751
 6298SOL    HW219794   6.156   5.201   0.863
 6299SOL     OW19795   4.739   1.767   2.546
 6299SOL    HW119796   4.653   1.806   2.513
 6299SOL    HW219797   4.812   1.787   2.480
 6300SOL     OW19798   3.209   0.291   6.564
 6300SOL    HW119799   3.227   0.361   6.495
 6300SOL    HW219800   3.201   0.202   6.519
 6301SOL     OW19801   3.519   6.373   0.440
 6301SOL    HW119802   3.552   6.412   0.526
 6301SOL    HW219803   3.456   6.298   0.460
 6302SOL     OW19804   2.937   1.105   5.838
 6302SOL    HW119805   2.890   1.082   5.753
 6302SOL    HW219806   2.948   1.022   5.893
 6303SOL     OW19807   0.929   5.915   5.471
 6303SOL    HW119808   0.957   6.009   5.491
 6303SOL    HW219809   0.995   5.852   5.511
 6304SOL     OW19810   4.562   1.258   3.469
 6304SOL    HW119811   4.555   1.176   3.526
 6304SOL    HW219812   4.475   1.306   3.468
 6305SOL     OW19813   1.162   6.101   5.839
 6305SOL    HW119814   1.259   6.125   5.838
 6305SOL    HW219815   1.117   6.142   5.760
 6306SOL     OW19816   7.007   4.255   3.901
 6306SOL    HW119817   6.953   4.311   3.838
 6306SOL    HW219818   0.073   4.236   3.859
 6307SOL     OW19819   4.082   3.701   3.175
 6307SOL    HW119820   4.016   3.776   3.172
 6307SOL    HW219821   4.102   3.678   3.270
 6308SOL     OW19822   0.433   2.228   0.189
 6308SOL    HW119823   0.524   2.204   0.224
 6308SOL    HW219824   0.364   2.173   0.237
 6309SOL     OW19825   1.886   6.121   4.059
 6309SOL    HW119826   1.842   6.182   4.125
 6309SOL    HW219827   1.982   6.110   4.082
 6310SOL     OW19828   1.219   6.366   3.335
 6310SOL    HW119829   1.224   6.434   3.409
 6310SOL    HW219830   1.190   6.279   3.373
 6311SOL     OW19831   4.760   0.681   5.750
 6311SOL    HW119832   4.803   0.763   5.714
 6311SOL    HW219833   4.690   0.706   5.817
 6312SOL     OW19834   4.038   6.532   6.485
 6312SOL    HW119835   3.950   6.534   6.534
 6312SOL    HW219836   4.113   6.537   6.551
 6313SOL     OW19837   5.739   6.174   3.757
 6313SOL    HW119838   5.659   6.214   3.800
 6313SOL    HW219839   5.712   6.094   3.703
 6314SOL     OW19840   1.606   0.011   2.158
 6314SOL    HW119841   1.581   0.076   2.230
 6314SOL    HW219842   1.706   0.005   2.153
 6315SOL     OW19843   2.444   2.461   3.953
 6315SOL    HW119844   2.352   2.455   3.916
 6315SOL    HW219845   2.442   2.445   4.052
 6316SOL     OW19846   5.520   0.995   4.709
 6316SOL    HW119847   5.485   1.089   4.703
 6316SOL    HW219848   5.490   0.954   4.795
 6317SOL     OW19849   4.911   4.991   2.048
 6317SOL    HW119850   4.877   4.907   2.090
 6317SOL    HW219851   4.846   5.066   2.063
 6318SOL     OW19852   6.415   6.907   6.152
 6318SOL    HW119853   6.472   6.895   6.234
 6318SOL    HW219854   6.460   6.971   6.089
 6319SOL     OW19855   5.609   1.862   4.679
 6319SOL    HW119856   5.666   1.784   4.654
 6319SOL    HW219857   5.526   1.861   4.625
 6320SOL     OW19858   6.539   0.292   4.814
 6320SOL    HW119859   6.480   0.315   4.891
 6320SOL    HW219860   6.629   0.333   4.828
 6321SOL     OW19861   5.829   2.005   0.192
 6321SOL    HW119862   5.925   1.988   0.212
 6321SOL    HW219863   5.811   2.103   0.192
 6322SOL     OW19864   1.750   0.861   1.623
 6322SOL    HW119865   1.777   0.790   1.689
 6322SOL    HW219866   1.730   0.946   1.672
 6323SOL     OW19867   2.985   3.165   1.393
 6323SOL    HW119868   2.929   3.241   1.360
 6323SOL    HW219869   3.080   3.181   1.370
 6324SOL     OW19870   4.529   1.631   0.861
 6324SOL    HW119871   4.442   1.603   0.821
 6324SOL    HW219872   4.518   1.644   0.960
 6325SOL     OW19873   1.571   2.571   3.317
 6325SOL    HW119874   1.628   2.644   3.279
 6325SOL    HW219875   1.626   2.515   3.379
 6326SOL     OW19876   5.616   4.573   5.646
 6326SOL    HW119877   5.649   4.600   5.737
 6326SOL    HW219878   5.694   4.558   5.586
 6327SOL     OW19879   0.038   0.352   3.271
 6327SOL    HW119880   0.125   0.340   3.222
 6327SOL    HW219881   7.009   0.267   3.268
 6328SOL     OW19882   4.456   4.108   5.368
 6328SOL    HW119883   4.483   4.022   5.409
 6328SOL    HW219884   4.528   4.140   5.306
 6329SOL     OW19885   1.608   2.826   5.485
 6329SOL    HW119886   1.668   2.892   5.438
 6329SOL    HW219887   1.531   2.803   5.426
 6330SOL     OW19888   5.595   1.312   3.549
 6330SOL    HW119889   5.540   1.391   3.576
 6330SOL    HW219890   5.536   1.232   3.537
 6331SOL     OW19891   0.332   3.318   3.066
 6331SOL    HW119892   0.258   3.369   3.110
 6331SOL    HW219893   0.326   3.222   3.094
 6332SOL     OW19894   2.670   1.458   0.406
 6332SOL    HW119895   2.696   1.500   0.493
 6332SOL    HW219896   2.590   1.399   0.420
 6333SOL     OW19897   4.980   1.276   0.687
 6333SOL    HW119898   5.019   1.364   0.715
 6333SOL    HW219899   4.986   1.268   0.588
 6334SOL     OW19900   1.818   1.214   1.723
 6334SOL    HW119901   1.847   1.310   1.725
 6334SOL    HW219902   1.888   1.160   1.675
 6335SOL     OW19903   6.120   1.470   0.994
 6335SOL    HW119904   6.078   1.558   1.016
 6335SOL    HW219905   6.150   1.425   1.078
 6336SOL     OW19906   0.634   3.197   5.957
 6336SOL    HW119907   0.617   3.264   5.885
 6336SOL    HW219908   0.687   3.121   5.920
 6337SOL     OW19909   4.442   5.703   4.647
 6337SOL    HW119910   4.508   5.696   4.572
 6337SOL    HW219911   4.430   5.612   4.689
 6338SOL     OW19912   3.002   1.622   3.908
 6338SOL    HW119913   2.982   1.720   3.910
 6338SOL    HW219914   2.916   1.570   3.906
 6339SOL     OW19915   0.955   4.748   3.415
 6339SOL    HW119916   1.039   4.779   3.371
 6339SOL    HW219917   0.879   4.754   3.350
 6340SOL     OW19918   1.865   4.428   1.492
 6340SOL    HW119919   1.916   4.368   1.554
 6340SOL    HW219920   1.797   4.479   1.544
 6341SOL     OW19921   0.787   4.291   3.476
 6341SOL    HW119922   0.720   4.225   3.512
 6341SOL    HW219923   0.829   4.340   3.552
 6342SOL     OW19924   1.833   1.913   1.552
 6342SOL    HW119925   1.880   1.999   1.571
 6342SOL    HW219926   1.822   1.903   1.453
 6343SOL     OW19927   2.281   5.556   0.971
 6343SOL    HW119928   2.224   5.482   1.006
 6343SOL    HW219929   2.357   5.518   0.919
 6344SOL     OW19930   6.598   1.542   4.043
 6344SOL    HW119931   6.574   1.450   4.014
 6344SOL    HW219932   6.531   1.575   4.110
 6345SOL     OW19933   5.731   3.392   1.760
 6345SOL    HW119934   5.812   3.420   1.708
 6345SOL    HW219935   5.680   3.473   1.788
 6346SOL     OW19936   6.559   4.481   5.239
 6346SOL    HW119937   6.594   4.541   5.311
 6346SOL    HW219938   6.520   4.537   5.166
 6347SOL     OW19939   1.896   1.870   2.804
 6347SOL    HW119940   1.983   1.868   2.753
 6347SOL    HW219941   1.864   1.965   2.809
 6348SOL     OW19942   6.874   2.401   6.079
 6348SOL    HW119943   6.860   2.302   6.088
 6348SOL    HW219944   6.964   2.426   6.114
 6349SOL     OW19945   6.837   1.329   6.769
 6349SOL    HW119946   6.887   1.260   6.820
 6349SOL    HW219947   6.873   1.420   6.791
 6350SOL     OW19948   1.797   5.364   1.660
 6350SOL    HW119949   1.875   5.385   1.601
 6350SOL    HW219950   1.830   5.326   1.746
 6351SOL     OW19951   5.706   3.197   2.418
 6351SOL    HW119952   5.799   3.161   2.428
 6351SOL    HW219953   5.646   3.154   2.485
 6352SOL     OW19954   2.760   0.577   4.504
 6352SOL    HW119955   2.680   0.530   4.465
 6352SOL    HW219956   2.834   0.578   4.436
 6353SOL     OW19957   3.423   6.235   6.434
 6353SOL    HW119958   3.406   6.144   6.397
 6353SOL    HW219959   3.338   6.288   6.433
 6354SOL     OW19960   4.455   5.039   2.170
 6354SOL    HW119961   4.439   5.059   2.073
 6354SOL    HW219962   4.526   4.969   2.178
 6355SOL     OW19963   2.606   5.092   0.812
 6355SOL    HW119964   2.586   5.037   0.894
 6355SOL    HW219965   2.535   5.161   0.800
 6356SOL     OW19966   6.102   4.094   6.816
 6356SOL    HW119967   6.191   4.113   6.773
 6356SOL    HW219968   6.029   4.117   6.752
 6357SOL     OW19969   5.488   1.518   1.215
 6357SOL    HW119970   5.422   1.583   1.252
 6357SOL    HW219971   5.460   1.425   1.237
 6358SOL     OW19972   1.026   2.142   6.912
 6358SOL    HW119973   0.972   2.062   6.940
 6358SOL    HW219974   1.026   2.148   6.812
 6359SOL     OW19975   5.585   6.079   0.652
 6359SOL    HW119976   5.583   6.158   0.591
 6359SOL    HW219977   5.627   6.104   0.739
 6360SOL     OW19978   0.907   2.653   1.864
 6360SOL    HW119979   0.938   2.748   1.854
 6360SOL    HW219980   0.896   2.612   1.774
 6361SOL     OW19981   0.601   0.653   6.693
 6361SOL    HW119982   0.622   0.695   6.781
 6361SOL    HW219983   0.571   0.559   6.706
 6362SOL     OW19984   1.253   5.609   0.023
 6362SOL    HW119985   1.174   5.654   7.007
 6362SOL    HW219986   1.311   5.677   0.069
 6363SOL     OW19987   2.578   4.736   3.512
 6363SOL    HW119988   2.502   4.689   3.557
 6363SOL    HW219989   2.635   4.668   3.465
 6364SOL     OW19990   2.431   2.662   4.631
 6364SOL    HW119991   2.417   2.728   4.704
 6364SOL    HW219992   2.345   2.613   4.613
 6365SOL     OW19993   5.741   5.218   3.427
 6365SOL    HW119994   5.784   5.147   3.372
 6365SOL    HW219995   5.659   5.252   3.380
 6366SOL     OW19996   5.908   6.858   4.919
 6366SOL    HW119997   5.884   6.946   4.960
 6366SOL    HW219998   5.995   6.826   4.958
 6367SOL     OW19999   1.754   2.093   2.730
 6367SOL    HW120000   1.757   2.162   2.803
 6367SOL    HW220001   1.680   2.028   2.748
 6368SOL     OW20002   4.941   2.860   4.674
 6368SOL    HW120003   4.909   2.902   4.589
 6368SOL    HW220004   4.891   2.899   4.751
 6369SOL     OW20005   2.957   5.779   6.606
 6369SOL    HW120006   2.984   5.870   6.574
 6369SOL    HW220007   2.877   5.747   6.554
 6370SOL     OW20008   5.814   3.288   4.512
 6370SOL    HW120009   5.769   3.252   4.430
 6370SOL    HW220010   5.817   3.216   4.582
 6371SOL     OW20011   5.104   4.235   2.035
 6371SOL    HW120012   5.176   4.171   2.008
 6371SOL    HW220013   5.016   4.202   2.002
 6372SOL     OW20014   6.703   1.636   2.871
 6372SOL    HW120015   6.690   1.734   2.853
 6372SOL    HW220016   6.650   1.583   2.805
 6373SOL     OW20017   4.824   4.228   1.466
 6373SOL    HW120018   4.872   4.211   1.551
 6373SOL    HW220019   4.728   4.249   1.485
 6374SOL     OW20020   4.608   3.124   0.384
 6374SOL    HW120021   4.661   3.090   0.306
 6374SOL    HW220022   4.539   3.057   0.409
 6375SOL     OW20023   6.306   2.833   1.625
 6375SOL    HW120024   6.371   2.907   1.641
 6375SOL    HW220025   6.329   2.787   1.539
 6376SOL     OW20026   3.722   1.226   6.873
 6376SOL    HW120027   3.790   1.154   6.888
 6376SOL    HW220028   3.734   1.265   6.782
 6377SOL     OW20029   7.014   0.646   0.087
 6377SOL    HW120030   0.008   0.592   0.004
 6377SOL    HW220031   6.938   0.606   0.138
 6378SOL     OW20032   5.423   5.735   3.227
 6378SOL    HW120033   5.479   5.808   3.187
 6378SOL    HW220034   5.328   5.748   3.201
 6379SOL     OW20035   2.457   5.860   0.336
 6379SOL    HW120036   2.386   5.918   0.296
 6379SOL    HW220037   2.547   5.890   0.303
 6380SOL     OW20038   1.587   3.700   4.897
 6380SOL    HW120039   1.659   3.684   4.829
 6380SOL    HW220040   1.545   3.790   4.881
 6381SOL     OW20041   4.338   2.659   0.194
 6381SOL    HW120042   4.264   2.604   0.232
 6381SOL    HW220043   4.301   2.744   0.158
 6382SOL     OW20044   1.995   1.676   1.629
 6382SOL    HW120045   2.002   1.775   1.641
 6382SOL    HW220046   2.080   1.640   1.591
 6383SOL     OW20047   1.871   2.567   2.137
 6383SOL    HW120048   1.811   2.629   2.187
 6383SOL    HW220049   1.954   2.551   2.191
 6384SOL     OW20050   6.361   2.781   2.625
 6384SOL    HW120051   6.357   2.681   2.625
 6384SOL    HW220052   6.449   2.811   2.662
 6385SOL     OW20053   6.746   3.129   1.451
 6385SOL    HW120054   6.822   3.096   1.508
 6385SOL    HW220055   6.779   3.145   1.358
 6386SOL     OW20056   2.437   3.754   0.438
 6386SOL    HW120057   2.522   3.709   0.411
 6386SOL    HW220058   2.441   3.851   0.414
 6387SOL     OW20059   6.976   0.645   6.341
 6387SOL    HW120060   7.006   0.723   6.286
 6387SOL    HW220061   6.959   0.567   6.281
 6388SOL     OW20062   6.425   5.551   2.060
 6388SOL    HW120063   6.354   5.621   2.053
 6388SOL    HW220064   6.471   5.540   1.972
 6389SOL     OW20065   1.091   1.048   6.536
 6389SOL    HW120066   1.072   1.039   6.438
 6389SOL    HW220067   1.188   1.066   6.550
 6390SOL     OW20068   6.869   1.410   6.323
 6390SOL    HW120069   6.839   1.327   6.372
 6390SOL    HW220070   6.817   1.488   6.356
 6391SOL     OW20071   0.750   1.398   5.066
 6391SOL    HW120072   0.818   1.341   5.020
 6391SOL    HW220073   0.794   1.481   5.100
 6392SOL     OW20074   4.346   6.745   3.384
 6392SOL    HW120075   4.262   6.782   3.424
 6392SOL    HW220076   4.345   6.646   3.390
 6393SOL     OW20077   6.974   5.301   0.463
 6393SOL    HW120078   0.051   5.304   0.462
 6393SOL    HW220079   6.945   5.210   0.494
 6394SOL     OW20080   1.318   5.568   1.188
 6394SOL    HW120081   1.294   5.472   1.178
 6394SOL    HW220082   1.284   5.602   1.276
 6395SOL     OW20083   1.971   4.861   3.342
 6395SOL    HW120084   2.002   4.771   3.310
 6395SOL    HW220085   2.047   4.907   3.388
 6396SOL     OW20086   0.943   3.734   0.357
 6396SOL    HW120087   0.931   3.652   0.413
 6396SOL    HW220088   0.883   3.729   0.277
 6397SOL     OW20089   5.779   3.073   3.630
 6397SOL    HW120090   5.763   3.115   3.719
 6397SOL    HW220091   5.789   2.974   3.641
 6398SOL     OW20092   1.469   0.029   0.913
 6398SOL    HW120093   1.480   6.953   0.911
 6398SOL    HW220094   1.491   0.063   1.005
 6399SOL     OW20095   2.958   0.898   6.004
 6399SOL    HW120096   2.891   0.949   6.058
 6399SOL    HW220097   2.949   0.800   6.023
 6400SOL     OW20098   1.229   6.040   3.020
 6400SOL    HW120099   1.214   5.941   3.028
 6400SOL    HW220100   1.222   6.067   2.924
 6401SOL     OW20101   3.531   6.322   3.768
 6401SOL    HW120102   3.543   6.302   3.671
 6401SOL    HW220103   3.573   6.249   3.823
 6402SOL     OW20104   1.514   5.298   5.078
 6402SOL    HW120105   1.430   5.276   5.029
 6402SOL    HW220106   1.492   5.327   5.171
 6403SOL     OW20107   4.666   6.033   5.042
 6403SOL    HW120108   4.696   6.121   5.006
 6403SOL    HW220109   4.587   6.001   4.989
 6404SOL     OW20110   4.232   0.363   2.294
 6404SOL    HW120111   4.186   0.401   2.374
 6404SOL    HW220112   4.216   0.264   2.290
 6405SOL     OW20113   5.164   1.620   2.375
 6405SOL    HW120114   5.188   1.714   2.397
 6405SOL    HW220115   5.151   1.568   2.460
 6406SOL     OW20116   0.843   2.276   3.121
 6406SOL    HW120117   0.807   2.213   3.051
 6406SOL    HW220118   0.771   2.338   3.150
 6407SOL     OW20119   1.770   6.208   2.637
 6407SOL    HW120120   1.834   6.181   2.710
 6407SOL    HW220121   1.819   6.263   2.569
 6408SOL     OW20122   6.613   0.666   0.858
 6408SOL    HW120123   6.561   0.605   0.917
 6408SOL    HW220124   6.628   0.753   0.905
 6409SOL     OW20125   5.840   5.004   3.296
 6409SOL    HW120126   5.768   4.942   3.326
 6409SOL    HW220127   5.906   4.955   3.239
 6410SOL     OW20128   2.303   1.305   5.614
 6410SOL    HW120129   2.239   1.380   5.627
 6410SOL    HW220130   2.387   1.339   5.573
 6411SOL     OW20131   0.439   2.376   2.099
 6411SOL    HW120132   0.366   2.366   2.030
 6411SOL    HW220133   0.526   2.389   2.053
 6412SOL     OW20134   3.265   0.143   0.142
 6412SOL    HW120135   3.315   0.212   0.090
 6412SOL    HW220136   3.271   0.055   0.094
 6413SOL     OW20137   5.087   5.969   3.785
 6413SOL    HW120138   5.150   6.032   3.831
 6413SOL    HW220139   5.036   6.018   3.714
 6414SOL     OW20140   1.793   0.155   7.009
 6414SOL    HW120141   1.803   0.097   0.067
 6414SOL    HW220142   1.762   0.246   0.015
 6415SOL     OW20143   0.371   2.480   3.124
 6415SOL    HW120144   0.349   2.393   3.168
 6415SOL    HW220145   0.288   2.536   3.118
 6416SOL     OW20146   2.703   0.046   0.341
 6416SOL    HW120147   2.644   0.121   0.313
 6416SOL    HW220148   2.648   6.987   0.357
 6417SOL     OW20149   3.837   1.757   0.257
 6417SOL    HW120150   3.868   1.678   0.310
 6417SOL    HW220151   3.805   1.726   0.167
 6418SOL     OW20152   4.680   5.176   0.851
 6418SOL    HW120153   4.718   5.130   0.932
 6418SOL    HW220154   4.752   5.231   0.808
 6419SOL     OW20155   0.752   7.004   6.813
 6419SOL    HW120156   0.676   6.948   6.846
 6419SOL    HW220157   0.754   7.001   6.713
 6420SOL     OW20158   1.921   4.270   3.987
 6420SOL    HW120159   1.943   4.212   4.065
 6420SOL    HW220160   1.946   4.222   3.902
 6421SOL     OW20161   5.199   0.549   1.656
 6421SOL    HW120162   5.156   0.511   1.738
 6421SOL    HW220163   5.252   0.630   1.681
 6422SOL     OW20164   6.414   2.258   4.712
 6422SOL    HW120165   6.509   2.289   4.707
 6422SOL    HW220166   6.408   2.164   4.678
 6423SOL     OW20167   2.456   4.482   4.265
 6423SOL    HW120168   2.373   4.464   4.317
 6423SOL    HW220169   2.474   4.405   4.204
 6424SOL     OW20170   6.513   4.941   4.732
 6424SOL    HW120171   6.607   4.933   4.764
 6424SOL    HW220172   6.502   5.025   4.680
 6425SOL     OW20173   6.996   6.094   3.507
 6425SOL    HW120174   0.027   6.167   3.549
 6425SOL    HW220175   6.910   6.083   3.558
 6426SOL     OW20176   4.586   4.550   4.800
 6426SOL    HW120177   4.567   4.544   4.702
 6426SOL    HW220178   4.503   4.579   4.848
 6427SOL     OW20179   3.700   2.876   3.510
 6427SOL    HW120180   3.710   2.935   3.430
 6427SOL    HW220181   3.789   2.836   3.533
 6428SOL     OW20182   4.899   2.669   0.211
 6428SOL    HW120183   4.942   2.581   0.228
 6428SOL    HW220184   4.802   2.665   0.237
 6429SOL     OW20185   2.370   0.543   5.233
 6429SOL    HW120186   2.401   0.637   5.221
 6429SOL    HW220187   2.448   0.481   5.226
 6430SOL     OW20188   6.802   0.356   5.134
 6430SOL    HW120189   6.878   0.303   5.096
 6430SOL    HW220190   6.742   0.295   5.186
 6431SOL     OW20191   3.961   4.968   1.795
 6431SOL    HW120192   3.881   4.944   1.741
 6431SOL    HW220193   4.010   4.885   1.822
 6432SOL     OW20194   4.708   4.102   5.861
 6432SOL    HW120195   4.677   4.110   5.955
 6432SOL    HW220196   4.664   4.173   5.806
 6433SOL     OW20197   2.565   5.667   6.659
 6433SOL    HW120198   2.648   5.699   6.612
 6433SOL    HW220199   2.505   5.745   6.676
 6434SOL     OW20200   3.560   5.467   5.728
 6434SOL    HW120201   3.603   5.430   5.646
 6434SOL    HW220202   3.535   5.393   5.789
 6435SOL     OW20203   5.094   0.837   0.817
 6435SOL    HW120204   5.029   0.761   0.809
 6435SOL    HW220205   5.071   0.907   0.749
 6436SOL     OW20206   6.982   4.174   4.388
 6436SOL    HW120207   0.020   4.105   4.427
 6436SOL    HW220208   0.013   4.238   4.332
 6437SOL     OW20209   0.766   2.034   5.286
 6437SOL    HW120210   0.681   2.084   5.300
 6437SOL    HW220211   0.840   2.080   5.335
 6438SOL     OW20212   0.230   5.896   0.430
 6438SOL    HW120213   0.308   5.846   0.468
 6438SOL    HW220214   0.253   5.926   0.337
 6439SOL     OW20215   5.744   0.355   2.707
 6439SOL    HW120216   5.705   0.417   2.639
 6439SOL    HW220217   5.782   0.408   2.783
 6440SOL     OW20218   2.540   1.286   6.656
 6440SOL    HW120219   2.514   1.375   6.693
 6440SOL    HW220220   2.632   1.291   6.618
 6441SOL     OW20221   0.873   1.196   2.816
 6441SOL    HW120222   0.790   1.166   2.862
 6441SOL    HW220223   0.889   1.140   2.735
 6442SOL     OW20224   3.188   3.026   5.345
 6442SOL    HW120225   3.123   3.060   5.278
 6442SOL    HW220226   3.234   2.945   5.310
 6443SOL     OW20227   4.774   2.525   0.723
 6443SOL    HW120228   4.858   2.573   0.699
 6443SOL    HW220229   4.784   2.428   0.703
 6444SOL     OW20230   6.891   3.445   4.932
 6444SOL    HW120231   6.901   3.346   4.938
 6444SOL    HW220232   6.826   3.468   4.860
 6445SOL     OW20233   2.901   3.526   3.286
 6445SOL    HW120234   2.876   3.614   3.245
 6445SOL    HW220235   2.982   3.490   3.240
 6446SOL     OW20236   2.468   0.889   6.551
 6446SOL    HW120237   2.396   0.948   6.586
 6446SOL    HW220238   2.551   0.942   6.536
 6447SOL     OW20239   6.422   3.516   1.765
 6447SOL    HW120240   6.506   3.471   1.796
 6447SOL    HW220241   6.345   3.453   1.774
 6448SOL     OW20242   3.971   5.539   1.378
 6448SOL    HW120243   3.983   5.481   1.298
 6448SOL    HW220244   4.035   5.511   1.449
 6449SOL     OW20245   2.488   5.357   0.880
 6449SOL    HW120246   2.522   5.390   0.792
 6449SOL    HW220247   2.552   5.383   0.953
 6450SOL     OW20248   0.146   4.181   1.129
 6450SOL    HW120249   0.203   4.261   1.106
 6450SOL    HW220250   0.108   4.142   1.045
 6451SOL     OW20251   3.368   2.395   1.441
 6451SOL    HW120252   3.412   2.345   1.366
 6451SOL    HW220253   3.422   2.477   1.461
 6452SOL     OW20254   4.774   2.460   3.306
 6452SOL    HW120255   4.831   2.473   3.387
 6452SOL    HW220256   4.678   2.476   3.330
 6453SOL     OW20257   3.352   0.386   0.979
 6453SOL    HW120258   3.328   0.442   1.058
 6453SOL    HW220259   3.452   0.386   0.967
 6454SOL     OW20260   5.586   2.519   3.260
 6454SOL    HW120261   5.551   2.467   3.182
 6454SOL    HW220262   5.538   2.606   3.267
 6455SOL     OW20263   6.143   3.593   3.355
 6455SOL    HW120264   6.143   3.607   3.256
 6455SOL    HW220265   6.222   3.639   3.395
 6456SOL     OW20266   6.097   1.284   3.142
 6456SOL    HW120267   6.023   1.218   3.140
 6456SOL    HW220268   6.095   1.339   3.059
 6457SOL     OW20269   4.369   0.657   2.017
 6457SOL    HW120270   4.412   0.687   1.931
 6457SOL    HW220271   4.360   0.557   2.016
 6458SOL     OW20272   0.687   4.652   3.689
 6458SOL    HW120273   0.764   4.648   3.626
 6458SOL    HW220274   0.667   4.747   3.712
 6459SOL     OW20275   6.496   3.023   2.420
 6459SOL    HW120276   6.420   3.005   2.482
 6459SOL    HW220277   6.475   3.105   2.366
 6460SOL     OW20278   1.102   5.973   6.650
 6460SOL    HW120279   1.128   5.995   6.744
 6460SOL    HW220280   1.003   5.958   6.645
 6461SOL     OW20281   3.181   5.413   0.740
 6461SOL    HW120282   3.114   5.366   0.684
 6461SOL    HW220283   3.150   5.507   0.758
 6462SOL     OW20284   1.800   3.524   5.421
 6462SOL    HW120285   1.756   3.476   5.497
 6462SOL    HW220286   1.803   3.464   5.341
 6463SOL     OW20287   4.733   1.990   1.620
 6463SOL    HW120288   4.695   1.977   1.712
 6463SOL    HW220289   4.665   2.037   1.563
 6464SOL     OW20290   0.827   5.770   4.744
 6464SOL    HW120291   0.780   5.693   4.787
 6464SOL    HW220292   0.856   5.744   4.652
 6465SOL     OW20293   3.967   1.004   3.057
 6465SOL    HW120294   3.898   1.029   2.989
 6465SOL    HW220295   3.985   0.906   3.053
 6466SOL     OW20296   0.553   2.896   7.015
 6466SOL    HW120297   0.605   2.812   7.001
 6466SOL    HW220298   0.466   2.875   0.036
 6467SOL     OW20299   3.188   1.587   0.956
 6467SOL    HW120300   3.132   1.664   0.927
 6467SOL    HW220301   3.148   1.501   0.924
 6468SOL     OW20302   2.777   0.725   1.201
 6468SOL    HW120303   2.807   0.820   1.215
 6468SOL    HW220304   2.744   0.713   1.108
 6469SOL     OW20305   3.388   1.834   3.633
 6469SOL    HW120306   3.308   1.812   3.577
 6469SOL    HW220307   3.366   1.912   3.692
 6470SOL     OW20308   6.296   1.864   7.016
 6470SOL    HW120309   6.376   1.917   6.987
 6470SOL    HW220310   6.306   1.770   6.985
 6471SOL     OW20311   6.883   6.116   5.700
 6471SOL    HW120312   6.869   6.172   5.782
 6471SOL    HW220313   6.873   6.173   5.619
 6472SOL     OW20314   6.870   6.161   2.710
 6472SOL    HW120315   6.797   6.195   2.651
 6472SOL    HW220316   6.922   6.238   2.748
 6473SOL     OW20317   2.323   1.228   3.864
 6473SOL    HW120318   2.226   1.237   3.843
 6473SOL    HW220319   2.335   1.158   3.935
 6474SOL     OW20320   3.899   5.622   5.407
 6474SOL    HW120321   3.969   5.609   5.477
 6474SOL    HW220322   3.943   5.648   5.321
 6475SOL     OW20323   5.564   4.438   2.445
 6475SOL    HW120324   5.564   4.537   2.452
 6475SOL    HW220325   5.658   4.405   2.437
 6476SOL     OW20326   3.561   1.520   6.244
 6476SOL    HW120327   3.468   1.542   6.215
 6476SOL    HW220328   3.573   1.546   6.340
 6477SOL     OW20329   6.334   6.458   1.305
 6477SOL    HW120330   6.256   6.422   1.253
 6477SOL    HW220331   6.379   6.382   1.352
 6478SOL     OW20332   3.532   5.800   1.707
 6478SOL    HW120333   3.490   5.742   1.777
 6478SOL    HW220334   3.479   5.884   1.697
 6479SOL     OW20335   3.557   6.241   4.112
 6479SOL    HW120336   3.631   6.306   4.129
 6479SOL    HW220337   3.595   6.151   4.094
 6480SOL     OW20338   2.962   1.481   6.936
 6480SOL    HW120339   2.951   1.535   6.853
 6480SOL    HW220340   3.056   1.489   6.969
 6481SOL     OW20341   3.236   2.612   1.686
 6481SOL    HW120342   3.202   2.645   1.774
 6481SOL    HW220343   3.329   2.579   1.696
 6482SOL     OW20344   6.230   4.116   5.011
 6482SOL    HW120345   6.228   4.049   4.937
 6482SOL    HW220346   6.192   4.075   5.094
 6483SOL     OW20347   1.181   5.809   5.320
 6483SOL    HW120348   1.149   5.748   5.392
 6483SOL    HW220349   1.203   5.898   5.359
 6484SOL     OW20350   2.795   0.798   4.298
 6484SOL    HW120351   2.739   0.775   4.218
 6484SOL    HW220352   2.741   0.784   4.381
 6485SOL     OW20353   2.235   0.023   4.234
 6485SOL    HW120354   2.245   0.069   4.146
 6485SOL    HW220355   2.305   0.055   4.297
 6486SOL     OW20356   1.460   4.940   3.594
 6486SOL    HW120357   1.424   5.026   3.559
 6486SOL    HW220358   1.533   4.959   3.660
 6487SOL     OW20359   6.177   4.504   3.802
 6487SOL    HW120360   6.195   4.537   3.895
 6487SOL    HW220361   6.081   4.480   3.793
 6488SOL     OW20362   4.321   5.335   4.511
 6488SOL    HW120363   4.347   5.391   4.590
 6488SOL    HW220364   4.222   5.329   4.506
 6489SOL     OW20365   4.313   3.189   5.850
 6489SOL    HW120366   4.323   3.287   5.866
 6489SOL    HW220367   4.393   3.141   5.887
 6490SOL     OW20368   2.093   1.729   0.121
 6490SOL    HW120369   2.188   1.714   0.093
 6490SOL    HW220370   2.083   1.704   0.217
 6491SOL     OW20371   2.507   0.198   0.900
 6491SOL    HW120372   2.495   0.270   0.831
 6491SOL    HW220373   2.597   0.207   0.943
 6492SOL     OW20374   3.419   3.877   4.739
 6492SOL    HW120375   3.469   3.799   4.776
 6492SOL    HW220376   3.379   3.930   4.814
 6493SOL     OW20377   1.251   3.967   5.745
 6493SOL    HW120378   1.220   4.050   5.791
 6493SOL    HW220379   1.276   3.989   5.651
 6494SOL     OW20380   6.250   0.030   1.828
 6494SOL    HW120381   6.166   0.078   1.801
 6494SOL    HW220382   6.318   0.040   1.756
 6495SOL     OW20383   6.264   0.031   4.131
 6495SOL    HW120384   6.284   0.129   4.132
 6495SOL    HW220385   6.309   7.013   4.051
 6496SOL     OW20386   4.409   1.034   1.479
 6496SOL    HW120387   4.318   1.066   1.455
 6496SOL    HW220388   4.408   0.935   1.493
 6497SOL     OW20389   0.060   1.378   1.017
 6497SOL    HW120390   0.039   1.475   1.033
 6497SOL    HW220391   0.116   1.343   1.092
 6498SOL     OW20392   1.454   4.593   4.696
 6498SOL    HW120393   1.379   4.656   4.718
 6498SOL    HW220394   1.494   4.619   4.608
 6499SOL     OW20395   5.476   3.100   3.751
 6499SOL    HW120396   5.532   3.058   3.680
 6499SOL    HW220397   5.441   3.188   3.717
 6500SOL     OW20398   1.804   4.084   3.092
 6500SOL    HW120399   1.898   4.054   3.077
 6500SOL    HW220400   1.792   4.112   3.187
 6501SOL     OW20401   6.179   2.065   1.028
 6501SOL    HW120402   6.277   2.059   1.047
 6501SOL    HW220403   6.165   2.106   0.938
 6502SOL     OW20404   6.375   3.818   1.753
 6502SOL    HW120405   6.400   3.721   1.750
 6502SOL    HW220406   6.281   3.830   1.722
 6503SOL     OW20407   6.625   3.397   5.454
 6503SOL    HW120408   6.596   3.376   5.361
 6503SOL    HW220409   6.655   3.313   5.500
 6504SOL     OW20410   4.804   5.936   6.952
 6504SOL    HW120411   4.712   5.926   6.914
 6504SOL    HW220412   4.842   6.024   6.924
 6505SOL     OW20413   6.389   5.674   0.393
 6505SOL    HW120414   6.415   5.763   0.355
 6505SOL    HW220415   6.469   5.615   0.397
 6506SOL     OW20416   0.386   3.614   2.294
 6506SOL    HW120417   0.408   3.661   2.379
 6506SOL    HW220418   0.388   3.680   2.218
 6507SOL     OW20419   4.230   4.556   6.869
 6507SOL    HW120420   4.306   4.617   6.845
 6507SOL    HW220421   4.247   4.465   6.833
 6508SOL     OW20422   0.746   6.315   2.102
 6508SOL    HW120423   0.656   6.297   2.062
 6508SOL    HW220424   0.800   6.232   2.101
 6509SOL     OW20425   2.925   1.281   6.037
 6509SOL    HW120426   2.834   1.311   6.065
 6509SOL    HW220427   2.919   1.228   5.953
 6510SOL     OW20428   4.434   5.874   5.692
 6510SOL    HW120429   4.472   5.800   5.637
 6510SOL    HW220430   4.496   5.953   5.690
 6511SOL     OW20431   2.960   0.944   0.046
 6511SOL    HW120432   2.869   0.915   0.015
 6511SOL    HW220433   2.989   0.886   0.121
 6512SOL     OW20434   3.933   0.973   0.835
 6512SOL    HW120435   4.012   1.015   0.880
 6512SOL    HW220436   3.909   0.888   0.883
 6513SOL     OW20437   2.392   5.403   3.695
 6513SOL    HW120438   2.387   5.356   3.783
 6513SOL    HW220439   2.487   5.428   3.676
 6514SOL     OW20440   5.909   6.924   5.932
 6514SOL    HW120441   5.872   6.913   6.024
 6514SOL    HW220442   5.835   6.929   5.866
 6515SOL     OW20443   2.060   4.880   2.424
 6515SOL    HW120444   2.132   4.924   2.370
 6515SOL    HW220445   2.067   4.781   2.413
 6516SOL     OW20446   6.975   3.503   1.439
 6516SOL    HW120447   0.021   3.564   1.399
 6516SOL    HW220448   7.018   3.418   1.467
 6517SOL     OW20449   6.998   2.872   0.422
 6517SOL    HW120450   6.955   2.785   0.446
 6517SOL    HW220451   6.934   2.947   0.437
 6518SOL     OW20452   1.074   1.441   3.389
 6518SOL    HW120453   0.987   1.431   3.437
 6518SOL    HW220454   1.071   1.523   3.332
 6519SOL     OW20455   0.950   1.581   2.953
 6519SOL    HW120456   0.924   1.516   3.025
 6519SOL    HW220457   1.049   1.576   2.939
 6520SOL     OW20458   0.187   5.562   0.178
 6520SOL    HW120459   0.222   5.480   0.223
 6520SOL    HW220460   0.134   5.615   0.243
 6521SOL     OW20461   1.516   3.478   4.594
 6521SOL    HW120462   1.549   3.531   4.515
 6521SOL    HW220463   1.589   3.467   4.660
 6522SOL     OW20464   2.718   3.458   5.278
 6522SOL    HW120465   2.627   3.489   5.303
 6522SOL    HW220466   2.719   3.359   5.271
 6523SOL     OW20467   5.814   0.210   6.655
 6523SOL    HW120468   5.857   0.143   6.595
 6523SOL    HW220469   5.833   0.302   6.622
 6524SOL     OW20470   2.174   2.436   1.973
 6524SOL    HW120471   2.150   2.347   2.011
 6524SOL    HW220472   2.138   2.443   1.880
 6525SOL     OW20473   0.782   5.149   3.241
 6525SOL    HW120474   0.758   5.216   3.170
 6525SOL    HW220475   0.855   5.090   3.208
 6526SOL     OW20476   0.223   6.923   0.518
 6526SOL    HW120477   0.132   6.959   0.499
 6526SOL    HW220478   0.281   6.995   0.554
 6527SOL     OW20479   0.663   2.331   0.558
 6527SOL    HW120480   0.667   2.284   0.647
 6527SOL    HW220481   0.582   2.389   0.555
 6528SOL     OW20482   5.116   0.385   6.050
 6528SOL    HW120483   5.073   0.473   6.064
 6528SOL    HW220484   5.130   0.340   6.138
 6529SOL     OW20485   6.995   1.218   1.984
 6529SOL    HW120486   6.978   1.208   1.886
 6529SOL    HW220487   0.064   1.184   2.005
 6530SOL     OW20488   0.898   2.663   2.303
 6530SOL    HW120489   0.842   2.582   2.320
 6530SOL    HW220490   0.994   2.637   2.296
 6531SOL     OW20491   4.229   4.007   5.267
 6531SOL    HW120492   4.315   4.055   5.288
 6531SOL    HW220493   4.249   3.913   5.239
 6532SOL     OW20494   1.380   0.643   0.550
 6532SOL    HW120495   1.317   0.573   0.584
 6532SOL    HW220496   1.328   0.724   0.522
 6533SOL     OW20497   4.801   3.835   0.498
 6533SOL    HW120498   4.844   3.874   0.579
 6533SOL    HW220499   4.771   3.908   0.437
 6534SOL     OW20500   6.865   4.395   3.031
 6534SOL    HW120501   6.769   4.412   3.053
 6534SOL    HW220502   6.922   4.464   3.075
 6535SOL     OW20503   6.286   3.337   5.491
 6535SOL    HW120504   6.208   3.347   5.553
 6535SOL    HW220505   6.331   3.426   5.479
 6536SOL     OW20506   1.228   3.942   4.834
 6536SOL    HW120507   1.321   3.957   4.801
 6536SOL    HW220508   1.223   3.854   4.883
 6537SOL     OW20509   5.842   5.432   3.855
 6537SOL    HW120510   5.859   5.352   3.913
 6537SOL    HW220511   5.867   5.515   3.905
 6538SOL     OW20512   2.554   3.497   5.649
 6538SOL    HW120513   2.586   3.410   5.612
 6538SOL    HW220514   2.481   3.480   5.716
 6539SOL     OW20515   6.179   0.918   5.446
 6539SOL    HW120516   6.080   0.909   5.438
 6539SOL    HW220517   6.223   0.834   5.415
 6540SOL     OW20518   5.278   2.682   6.121
 6540SOL    HW120519   5.204   2.749   6.113
 6540SOL    HW220520   5.361   2.728   6.154
 6541SOL     OW20521   5.782   0.990   4.773
 6541SOL    HW120522   5.683   0.989   4.757
 6541SOL    HW220523   5.824   1.057   4.712
 6542SOL     OW20524   1.658   4.236   4.278
 6542SOL    HW120525   1.647   4.310   4.212
 6542SOL    HW220526   1.739   4.252   4.334
 6543SOL     OW20527   4.052   2.225   5.163
 6543SOL    HW120528   4.112   2.295   5.124
 6543SOL    HW220529   4.094   2.135   5.153
 6544SOL     OW20530   0.947   6.463   1.972
 6544SOL    HW120531   0.861   6.450   2.021
 6544SOL    HW220532   0.954   6.558   1.941
 6545SOL     OW20533   4.642   0.143   0.928
 6545SOL    HW120534   4.572   0.115   0.862
 6545SOL    HW220535   4.637   0.085   1.009
 6546SOL     OW20536   5.223   3.516   6.214
 6546SOL    HW120537   5.269   3.427   6.222
 6546SOL    HW220538   5.287   3.589   6.237
 6547SOL     OW20539   6.202   5.311   6.926
 6547SOL    HW120540   6.225   5.346   6.835
 6547SOL    HW220541   6.276   5.251   6.959
 6548SOL     OW20542   0.535   2.180   5.325
 6548SOL    HW120543   0.477   2.166   5.405
 6548SOL    HW220544   0.479   2.181   5.242
 6549SOL     OW20545   5.110   0.222   1.708
 6549SOL    HW120546   5.117   0.319   1.732
 6549SOL    HW220547   5.188   0.196   1.652
 6550SOL     OW20548   6.424   6.945   3.069
 6550SOL    HW120549   6.327   6.964   3.050
 6550SOL    HW220550   6.434   6.849   3.095
 6551SOL     OW20551   2.908   3.848   1.055
 6551SOL    HW120552   2.873   3.766   1.010
 6551SOL    HW220553   2.878   3.929   1.004
 6552SOL     OW20554   2.487   6.732   0.481
 6552SOL    HW120555   2.504   6.690   0.571
 6552SOL    HW220556   2.571   6.727   0.426
 6553SOL     OW20557   0.138   1.497   3.088
 6553SOL    HW120558   0.115   1.450   3.174
 6553SOL    HW220559   0.226   1.464   3.055
 6554SOL     OW20560   3.042   1.337   4.699
 6554SOL    HW120561   2.965   1.393   4.669
 6554SOL    HW220562   3.008   1.246   4.726
 6555SOL     OW20563   0.068   3.020   4.035
 6555SOL    HW120564   0.096   2.950   3.969
 6555SOL    HW220565   6.991   3.021   4.042
 6556SOL     OW20566   4.875   2.760   3.264
 6556SOL    HW120567   4.796   2.732   3.318
 6556SOL    HW220568   4.849   2.767   3.168
 6557SOL     OW20569   2.021   0.329   1.962
 6557SOL    HW120570   2.047   0.233   1.977
 6557SOL    HW220571   2.083   0.369   1.894
 6558SOL     OW20572   5.341   4.944   0.304
 6558SOL    HW120573   5.290   4.959   0.389
 6558SOL    HW220574   5.350   5.030   0.255
 6559SOL     OW20575   0.078   2.727   6.257
 6559SOL    HW120576   0.134   2.795   6.210
 6559SOL    HW220577   0.101   2.725   6.354
 6560SOL     OW20578   5.578   4.721   0.055
 6560SOL    HW120579   5.539   4.649   7.020
 6560SOL    HW220580   5.565   4.698   0.151
 6561SOL     OW20581   3.941   4.603   0.974
 6561SOL    HW120582   3.992   4.522   1.004
 6561SOL    HW220583   3.872   4.576   0.907
 6562SOL     OW20584   5.672   3.176   1.309
 6562SOL    HW120585   5.693   3.113   1.234
 6562SOL    HW220586   5.603   3.136   1.369
 6563SOL     OW20587   5.288   6.012   4.985
 6563SOL    HW120588   5.281   6.100   5.031
 6563SOL    HW220589   5.382   5.979   4.990
 6564SOL     OW20590   6.870   4.139   3.099
 6564SOL    HW120591   6.885   4.238   3.090
 6564SOL    HW220592   6.849   4.101   3.009
 6565SOL     OW20593   5.704   0.051   3.172
 6565SOL    HW120594   5.664   0.006   3.092
 6565SOL    HW220595   5.754   7.008   3.227
 6566SOL     OW20596   4.283   6.026   2.281
 6566SOL    HW120597   4.227   6.107   2.297
 6566SOL    HW220598   4.317   6.026   2.187
 6567SOL     OW20599   4.048   0.521   0.839
 6567SOL    HW120600   4.062   0.422   0.844
 6567SOL    HW220601   4.135   0.568   0.855
 6568SOL     OW20602   3.599   1.243   1.320
 6568SOL    HW120603   3.672   1.272   1.382
 6568SOL    HW220604   3.622   1.154   1.281
 6569SOL     OW20605   0.309   4.175   5.780
 6569SOL    HW120606   0.388   4.116   5.764
 6569SOL    HW220607   0.306   4.247   5.711
 6570SOL     OW20608   4.231   6.429   1.966
 6570SOL    HW120609   4.172   6.429   2.047
 6570SOL    HW220610   4.173   6.425   1.884
 6571SOL     OW20611   2.935   5.721   2.931
 6571SOL    HW120612   2.844   5.759   2.941
 6571SOL    HW220613   2.930   5.621   2.933
 6572SOL     OW20614   0.575   5.781   4.016
 6572SOL    HW120615   0.601   5.801   3.921
 6572SOL    HW220616   0.587   5.683   4.034
 6573SOL     OW20617   1.312   1.191   3.098
 6573SOL    HW120618   1.257   1.194   3.015
 6573SOL    HW220619   1.354   1.281   3.113
 6574SOL     OW20620   1.619   6.075   2.278
 6574SOL    HW120621   1.561   6.012   2.329
 6574SOL    HW220622   1.563   6.129   2.215
 6575SOL     OW20623   6.806   0.466   2.513
 6575SOL    HW120624   6.758   0.439   2.596
 6575SOL    HW220625   6.826   0.386   2.457
 6576SOL     OW20626   4.175   5.849   0.788
 6576SOL    HW120627   4.190   5.759   0.829
 6576SOL    HW220628   4.233   5.916   0.833
 6577SOL     OW20629   1.898   2.123   3.389
 6577SOL    HW120630   1.938   2.207   3.427
 6577SOL    HW220631   1.959   2.046   3.406
 6578SOL     OW20632   1.671   4.746   1.792
 6578SOL    HW120633   1.697   4.658   1.751
 6578SOL    HW220634   1.574   4.743   1.817
 6579SOL     OW20635   6.582   1.315   4.283
 6579SOL    HW120636   6.670   1.359   4.265
 6579SOL    HW220637   6.536   1.361   4.359
 6580SOL     OW20638   1.021   6.867   6.906
 6580SOL    HW120639   1.028   6.964   6.882
 6580SOL    HW220640   1.017   6.812   6.823
 6581SOL     OW20641   1.334   1.679   6.973
 6581SOL    HW120642   1.275   1.743   7.022
 6581SOL    HW220643   1.365   1.722   6.888
 6582SOL     OW20644   6.812   1.242   2.949
 6582SOL    HW120645   6.785   1.147   2.958
 6582SOL    HW220646   6.791   1.274   2.857
 6583SOL     OW20647   4.644   6.488   6.814
 6583SOL    HW120648   4.682   6.569   6.858
 6583SOL    HW220649   4.681   6.480   6.721
 6584SOL     OW20650   3.287   2.007   0.919
 6584SOL    HW120651   3.302   2.103   0.940
 6584SOL    HW220652   3.360   1.974   0.859
 6585SOL     OW20653   5.851   0.021   0.983
 6585SOL    HW120654   5.938   0.052   0.944
 6585SOL    HW220655   5.859   6.947   1.006
 6586SOL     OW20656   6.207   2.163   6.458
 6586SOL    HW120657   6.140   2.162   6.532
 6586SOL    HW220658   6.285   2.219   6.484
 6587SOL     OW20659   1.722   4.190   5.577
 6587SOL    HW120660   1.658   4.166   5.650
 6587SOL    HW220661   1.680   4.257   5.516
 6588SOL     OW20662   0.675   3.614   0.690
 6588SOL    HW120663   0.631   3.695   0.653
 6588SOL    HW220664   0.654   3.535   0.632
 6589SOL     OW20665   0.103   0.810   1.815
 6589SOL    HW120666   0.076   0.903   1.794
 6589SOL    HW220667   0.033   0.746   1.782
 6590SOL     OW20668   1.244   6.878   4.235
 6590SOL    HW120669   1.258   6.924   4.148
 6590SOL    HW220670   1.164   6.818   4.229
 6591SOL     OW20671   5.493   4.170   4.157
 6591SOL    HW120672   5.400   4.142   4.180
 6591SOL    HW220673   5.501   4.269   4.164
 6592SOL     OW20674   5.672   6.005   2.657
 6592SOL    HW120675   5.702   6.100   2.650
 6592SOL    HW220676   5.573   6.000   2.641
 6593SOL     OW20677   2.539   2.036   2.704
 6593SOL    HW120678   2.563   2.119   2.654
 6593SOL    HW220679   2.521   1.962   2.640
 6594SOL     OW20680   4.843   1.786   6.768
 6594SOL    HW120681   4.906   1.791   6.846
 6594SOL    HW220682   4.780   1.710   6.781
 6595SOL     OW20683   1.659   2.481   5.138
 6595SOL    HW120684   1.700   2.499   5.227
 6595SOL    HW220685   1.561   2.464   5.148
 6596SOL     OW20686   5.784   5.955   2.348
 6596SOL    HW120687   5.772   5.891   2.424
 6596SOL    HW220688   5.694   5.982   2.313
 6597SOL     OW20689   1.691   5.144   2.353
 6597SOL    HW120690   1.743   5.148   2.438
 6597SOL    HW220691   1.726   5.069   2.296
 6598SOL     OW20692   1.780   4.730   4.271
 6598SOL    HW120693   1.841   4.800   4.234
 6598SOL    HW220694   1.835   4.651   4.301
 6599SOL     OW20695   5.750   5.391   6.267
 6599SOL    HW120696   5.753   5.377   6.366
 6599SOL    HW220697   5.827   5.343   6.224
 6600SOL     OW20698   4.392   0.137   4.942
 6600SOL    HW120699   4.376   0.216   4.881
 6600SOL    HW220700   4.489   0.117   4.944
 6601SOL     OW20701   1.544   2.452   1.962
 6601SOL    HW120702   1.534   2.473   1.864
 6601SOL    HW220703   1.606   2.374   1.972
 6602SOL     OW20704   2.377   6.331   1.592
 6602SOL    HW120705   2.444   6.263   1.564
 6602SOL    HW220706   2.312   6.289   1.655
 6603SOL     OW20707   0.513   3.087   3.185
 6603SOL    HW120708   0.574   3.158   3.220
 6603SOL    HW220709   0.522   3.081   3.086
 6604SOL     OW20710   1.758   6.574   2.251
 6604SOL    HW120711   1.748   6.480   2.218
 6604SOL    HW220712   1.699   6.634   2.198
 6605SOL     OW20713   6.727   5.399   1.492
 6605SOL    HW120714   6.627   5.394   1.490
 6605SOL    HW220715   6.764   5.368   1.405
 6606SOL     OW20716   1.774   3.665   3.533
 6606SOL    HW120717   1.753   3.595   3.466
 6606SOL    HW220718   1.837   3.629   3.601
 6607SOL     OW20719   5.728   3.805   3.748
 6607SOL    HW120720   5.824   3.784   3.764
 6607SOL    HW220721   5.672   3.727   3.776
 6608SOL     OW20722   0.183   6.559   5.860
 6608SOL    HW120723   0.215   6.504   5.938
 6608SOL    HW220724   0.195   6.507   5.776
 6609SOL     OW20725   4.437   1.969   5.823
 6609SOL    HW120726   4.537   1.966   5.821
 6609SOL    HW220727   4.404   2.039   5.761
 6610SOL     OW20728   3.288   5.271   0.936
 6610SOL    HW120729   3.254   5.310   0.851
 6610SOL    HW220730   3.217   5.277   1.006
 6611SOL     OW20731   4.374   1.831   4.134
 6611SOL    HW120732   4.396   1.929   4.138
 6611SOL    HW220733   4.274   1.821   4.129
 6612SOL     OW20734   6.073   1.713   5.901
 6612SOL    HW120735   6.158   1.737   5.854
 6612SOL    HW220736   6.003   1.781   5.882
 6613SOL     OW20737   5.216   0.239   6.767
 6613SOL    HW120738   5.266   0.252   6.852
 6613SOL    HW220739   5.120   0.264   6.780
 6614SOL     OW20740   4.195   6.002   1.503
 6614SOL    HW120741   4.235   6.093   1.491
 6614SOL    HW220742   4.125   5.987   1.433
 6615SOL     OW20743   3.186   5.311   0.272
 6615SOL    HW120744   3.277   5.351   0.266
 6615SOL    HW220745   3.188   5.217   0.239
 6616SOL     OW20746   5.148   1.337   5.563
 6616SOL    HW120747   5.184   1.347   5.470
 6616SOL    HW220748   5.131   1.428   5.602
 6617SOL     OW20749   4.288   0.808   4.047
 6617SOL    HW120750   4.356   0.735   4.045
 6617SOL    HW220751   4.261   0.826   4.142
 6618SOL     OW20752   6.877   2.476   2.471
 6618SOL    HW120753   6.919   2.540   2.536
 6618SOL    HW220754   6.780   2.468   2.490
 6619SOL     OW20755   5.236   6.549   4.040
 6619SOL    HW120756   5.255   6.640   4.002
 6619SOL    HW220757   5.144   6.520   4.012
 6620SOL     OW20758   0.632   3.057   3.457
 6620SOL    HW120759   0.633   3.157   3.456
 6620SOL    HW220760   0.628   3.025   3.552
 6621SOL     OW20761   3.912   3.004   5.024
 6621SOL    HW120762   3.985   2.958   5.073
 6621SOL    HW220763   3.929   2.999   4.925
 6622SOL     OW20764   0.267   5.608   0.605
 6622SOL    HW120765   0.266   5.685   0.669
 6622SOL    HW220766   0.223   5.529   0.647
 6623SOL     OW20767   3.684   4.158   5.544
 6623SOL    HW120768   3.644   4.210   5.468
 6623SOL    HW220769   3.717   4.070   5.510
 6624SOL     OW20770   1.278   2.180   4.243
 6624SOL    HW120771   1.359   2.239   4.249
 6624SOL    HW220772   1.280   2.128   4.158
 6625SOL     OW20773   6.013   2.555   5.635
 6625SOL    HW120774   6.073   2.515   5.704
 6625SOL    HW220775   5.918   2.542   5.661
 6626SOL     OW20776   2.613   6.104   5.249
 6626SOL    HW120777   2.568   6.155   5.176
 6626SOL    HW220778   2.707   6.082   5.222
 6627SOL     OW20779   1.565   6.012   4.828
 6627SOL    HW120780   1.479   6.058   4.852
 6627SOL    HW220781   1.545   5.929   4.776
 6628SOL     OW20782   4.753   5.537   3.943
 6628SOL    HW120783   4.709   5.529   3.854
 6628SOL    HW220784   4.710   5.475   4.008
 6629SOL     OW20785   5.417   6.162   6.909
 6629SOL    HW120786   5.456   6.131   6.822
 6629SOL    HW220787   5.475   6.233   6.948
 6630SOL     OW20788   2.206   1.657   1.462
 6630SOL    HW120789   2.150   1.589   1.414
 6630SOL    HW220790   2.276   1.693   1.400
 6631SOL     OW20791   2.298   4.726   6.174
 6631SOL    HW120792   2.301   4.774   6.262
 6631SOL    HW220793   2.234   4.773   6.113
 6632SOL     OW20794   1.226   0.862   0.496
 6632SOL    HW120795   1.163   0.841   0.421
 6632SOL    HW220796   1.221   0.960   0.517
 6633SOL     OW20797   3.394   5.930   6.389
 6633SOL    HW120798   3.404   5.860   6.460
 6633SOL    HW220799   3.326   5.900   6.322
 6634SOL     OW20800   4.542   2.240   4.754
 6634SOL    HW120801   4.530   2.336   4.780
 6634SOL    HW220802   4.452   2.199   4.738
 6635SOL     OW20803   5.310   4.917   2.726
 6635SOL    HW120804   5.365   4.909   2.809
 6635SOL    HW220805   5.308   4.828   2.679
 6636SOL     OW20806   3.628   6.673   1.283
 6636SOL    HW120807   3.593   6.759   1.322
 6636SOL    HW220808   3.715   6.650   1.327
 6637SOL     OW20809   1.165   1.142   0.589
 6637SOL    HW120810   1.247   1.114   0.638
 6637SOL    HW220811   1.140   1.235   0.617
 6638SOL     OW20812   2.981   3.343   3.644
 6638SOL    HW120813   2.990   3.337   3.544
 6638SOL    HW220814   2.974   3.439   3.670
 6639SOL     OW20815   5.099   2.953   1.288
 6639SOL    HW120816   5.106   3.039   1.236
 6639SOL    HW220817   5.055   2.884   1.231
 6640SOL     OW20818   0.999   2.948   5.076
 6640SOL    HW120819   1.015   2.944   4.978
 6640SOL    HW220820   0.982   3.042   5.104
 6641SOL     OW20821   3.998   1.993   1.221
 6641SOL    HW120822   4.040   1.960   1.136
 6641SOL    HW220823   4.020   2.090   1.232
 6642SOL     OW20824   1.453   5.672   0.417
 6642SOL    HW120825   1.547   5.661   0.450
 6642SOL    HW220826   1.416   5.583   0.390
 6643SOL     OW20827   4.447   6.913   0.147
 6643SOL    HW120828   4.393   6.967   0.084
 6643SOL    HW220829   4.439   6.952   0.239
 6644SOL     OW20830   1.547   6.458   3.476
 6644SOL    HW120831   1.574   6.428   3.384
 6644SOL    HW220832   1.627   6.459   3.536
 6645SOL     OW20833   6.224   2.546   0.772
 6645SOL    HW120834   6.259   2.601   0.696
 6645SOL    HW220835   6.141   2.589   0.809
 6646SOL     OW20836   4.490   0.387   6.623
 6646SOL    HW120837   4.495   0.372   6.524
 6646SOL    HW220838   4.540   0.471   6.646
 6647SOL     OW20839   4.773   4.999   1.102
 6647SOL    HW120840   4.856   4.944   1.091
 6647SOL    HW220841   4.693   4.940   1.091
 6648SOL     OW20842   2.143   6.053   5.560
 6648SOL    HW120843   2.182   6.135   5.602
 6648SOL    HW220844   2.210   6.013   5.498
 6649SOL     OW20845   6.099   2.159   6.967
 6649SOL    HW120846   6.091   2.068   6.926
 6649SOL    HW220847   6.192   2.193   6.952
 6650SOL     OW20848   2.773   1.308   5.181
 6650SOL    HW120849   2.836   1.365   5.234
 6650SOL    HW220850   2.779   1.213   5.213
 6651SOL     OW20851   0.149   1.890   6.559
 6651SOL    HW120852   0.221   1.959   6.550
 6651SOL    HW220853   0.190   1.800   6.571
 6652SOL     OW20854   0.951   4.705   0.180
 6652SOL    HW120855   1.016   4.750   0.241
 6652SOL    HW220856   0.871   4.675   0.232
 6653SOL     OW20857   5.464   3.384   0.751
 6653SOL    HW120858   5.544   3.421   0.705
 6653SOL    HW220859   5.493   3.329   0.830
 6654SOL     OW20860   0.497   4.438   3.102
 6654SOL    HW120861   0.573   4.459   3.163
 6654SOL    HW220862   0.412   4.476   3.139
 6655SOL     OW20863   6.818   5.218   1.692
 6655SOL    HW120864   6.771   5.235   1.778
 6655SOL    HW220865   6.779   5.276   1.620
 6656SOL     OW20866   4.273   1.230   2.893
 6656SOL    HW120867   4.203   1.219   2.823
 6656SOL    HW220868   4.249   1.306   2.953
 6657SOL     OW20869   5.772   2.026   4.271
 6657SOL    HW120870   5.737   2.102   4.217
 6657SOL    HW220871   5.761   2.046   4.368
 6658SOL     OW20872   6.271   5.897   4.841
 6658SOL    HW120873   6.263   5.856   4.932
 6658SOL    HW220874   6.190   5.872   4.786
 6659SOL     OW20875   1.094   5.086   1.787
 6659SOL    HW120876   1.067   5.137   1.869
 6659SOL    HW220877   1.115   5.149   1.713
 6660SOL     OW20878   0.184   6.663   3.553
 6660SOL    HW120879   0.235   6.589   3.509
 6660SOL    HW220880   0.101   6.627   3.595
 6661SOL     OW20881   3.643   6.768   4.140
 6661SOL    HW120882   3.704   6.696   4.173
 6661SOL    HW220883   3.620   6.751   4.044
 6662SOL     OW20884   3.203   6.970   2.182
 6662SOL    HW120885   3.115   6.963   2.135
 6662SOL    HW220886   3.237   6.879   2.203
 6663SOL     OW20887   1.335   4.287   5.869
 6663SOL    HW120888   1.356   4.369   5.815
 6663SOL    HW220889   1.239   4.264   5.858
 6664SOL     OW20890   3.104   0.666   1.406
 6664SOL    HW120891   3.046   0.593   1.370
 6664SOL    HW220892   3.186   0.674   1.349
 6665SOL     OW20893   2.713   0.502   5.664
 6665SOL    HW120894   2.753   0.413   5.687
 6665SOL    HW220895   2.658   0.493   5.580
 6666SOL     OW20896   4.814   6.562   5.191
 6666SOL    HW120897   4.749   6.534   5.121
 6666SOL    HW220898   4.905   6.572   5.150
 6667SOL     OW20899   0.144   6.182   6.369
 6667SOL    HW120900   0.187   6.189   6.279
 6667SOL    HW220901   0.092   6.266   6.388
 6668SOL     OW20902   6.620   6.022   0.529
 6668SOL    HW120903   6.671   6.058   0.450
 6668SOL    HW220904   6.613   6.093   0.598
 6669SOL     OW20905   1.413   1.632   2.324
 6669SOL    HW120906   1.489   1.691   2.351
 6669SOL    HW220907   1.357   1.678   2.255
 6670SOL     OW20908   3.801   2.860   0.784
 6670SOL    HW120909   3.737   2.886   0.855
 6670SOL    HW220910   3.866   2.793   0.820
 6671SOL     OW20911   5.225   5.877   0.081
 6671SOL    HW120912   5.243   5.950   0.147
 6671SOL    HW220913   5.261   5.903   7.015
 6672SOL     OW20914   1.093   1.856   0.997
 6672SOL    HW120915   1.095   1.759   1.021
 6672SOL    HW220916   1.045   1.907   1.068
 6673SOL     OW20917   5.487   3.980   4.605
 6673SOL    HW120918   5.457   3.909   4.541
 6673SOL    HW220919   5.536   4.052   4.555
 6674SOL     OW20920   0.140   2.509   0.129
 6674SOL    HW120921   0.118   2.606   0.138
 6674SOL    HW220922   0.102   2.458   0.207
 6675SOL     OW20923   4.385   2.671   6.914
 6675SOL    HW120924   4.360   2.575   6.902
 6675SOL    HW220925   4.385   2.694   7.011
 6676SOL     OW20926   1.517   3.923   3.915
 6676SOL    HW120927   1.568   3.966   3.841
 6676SOL    HW220928   1.559   3.947   4.003
 6677SOL     OW20929   0.657   1.783   0.469
 6677SOL    HW120930   0.710   1.698   0.470
 6677SOL    HW220931   0.681   1.838   0.549
 6678SOL     OW20932   1.712   5.097   0.362
 6678SOL    HW120933   1.669   5.093   0.452
 6678SOL    HW220934   1.787   5.162   0.363
 6679SOL     OW20935   2.015   1.211   3.752
 6679SOL    HW120936   2.017   1.300   3.799
 6679SOL    HW220937   1.922   1.190   3.723
 6680SOL     OW20938   5.339   6.345   0.412
 6680SOL    HW120939   5.250   6.377   0.444
 6680SOL    HW220940   5.360   6.389   0.324
 6681SOL     OW20941   3.811   5.736   1.352
 6681SOL    HW120942   3.855   5.649   1.373
 6681SOL    HW220943   3.793   5.785   1.437
 6682SOL     OW20944   3.505   5.357   6.628
 6682SOL    HW120945   3.534   5.263   6.609
 6682SOL    HW220946   3.499   5.408   6.542
 6683SOL     OW20947   6.249   3.110   6.809
 6683SOL    HW120948   6.282   3.030   6.759
 6683SOL    HW220949   6.163   3.088   6.855
 6684SOL     OW20950   3.563   6.889   1.413
 6684SOL    HW120951   3.547   6.867   1.509
 6684SOL    HW220952   3.535   6.983   1.395
 6685SOL     OW20953   4.500   3.490   6.860
 6685SOL    HW120954   4.588   3.444   6.844
 6685SOL    HW220955   4.431   3.452   6.799
 6686SOL     OW20956   5.481   5.468   3.796
 6686SOL    HW120957   5.558   5.436   3.742
 6686SOL    HW220958   5.510   5.544   3.855
 6687SOL     OW20959   6.319   2.165   1.828
 6687SOL    HW120960   6.417   2.169   1.847
 6687SOL    HW220961   6.290   2.249   1.782
 6688SOL     OW20962   4.066   5.378   0.905
 6688SOL    HW120963   4.059   5.278   0.911
 6688SOL    HW220964   4.041   5.407   0.813
 6689SOL     OW20965   2.763   5.106   6.069
 6689SOL    HW120966   2.834   5.132   6.004
 6689SOL    HW220967   2.712   5.028   6.033
 6690SOL     OW20968   1.078   0.081   5.795
 6690SOL    HW120969   1.173   0.099   5.824
 6690SOL    HW220970   1.026   0.048   5.874
 6691SOL     OW20971   2.490   2.414   2.470
 6691SOL    HW120972   2.511   2.441   2.376
 6691SOL    HW220973   2.409   2.355   2.471
 6692SOL     OW20974   4.782   5.012   1.408
 6692SOL    HW120975   4.841   4.936   1.434
 6692SOL    HW220976   4.776   5.017   1.308
 6693SOL     OW20977   4.152   1.696   4.597
 6693SOL    HW120978   4.072   1.747   4.564
 6693SOL    HW220979   4.140   1.599   4.577
 6694SOL     OW20980   4.039   5.558   0.673
 6694SOL    HW120981   4.090   5.592   0.594
 6694SOL    HW220982   3.994   5.635   0.719
 6695SOL     OW20983   2.619   2.403   6.642
 6695SOL    HW120984   2.608   2.502   6.651
 6695SOL    HW220985   2.562   2.369   6.568
 6696SOL     OW20986   3.973   3.824   4.657
 6696SOL    HW120987   4.034   3.848   4.733
 6696SOL    HW220988   3.941   3.730   4.668
 6697SOL     OW20989   4.564   2.491   2.368
 6697SOL    HW120990   4.563   2.453   2.461
 6697SOL    HW220991   4.474   2.477   2.326
 6698SOL     OW20992   3.649   4.320   1.622
 6698SOL    HW120993   3.558   4.331   1.662
 6698SOL    HW220994   3.688   4.409   1.600
 6699SOL     OW20995   0.965   4.461   5.205
 6699SOL    HW120996   0.972   4.366   5.174
 6699SOL    HW220997   0.893   4.470   5.273
 6700SOL     OW20998   6.059   0.601   0.242
 6700SOL    HW120999   6.054   0.558   0.332
 6700SOL    HW221000   6.126   0.675   0.244
 6701SOL     OW21001   5.889   6.850   1.422
 6701SOL    HW121002   5.804   6.877   1.467
 6701SOL    HW221003   5.920   6.925   1.364
 6702SOL     OW21004   3.070   1.857   0.966
 6702SOL    HW121005   3.157   1.906   0.953
 6702SOL    HW221006   2.998   1.904   0.916
 6703SOL     OW21007   1.648   1.930   6.261
 6703SOL    HW121008   1.723   1.947   6.326
 6703SOL    HW221009   1.682   1.944   6.168
 6704SOL     OW21010   3.741   1.464   5.389
 6704SOL    HW121011   3.713   1.390   5.328
 6704SOL    HW221012   3.747   1.550   5.337
 6705SOL     OW21013   6.380   3.409   2.114
 6705SOL    HW121014   6.389   3.394   2.015
 6705SOL    HW221015   6.422   3.498   2.137
 6706SOL     OW21016   0.265   6.497   1.647
 6706SOL    HW121017   0.258   6.589   1.684
 6706SOL    HW221018   0.362   6.472   1.637
 6707SOL     OW21019   5.687   0.505   2.490
 6707SOL    HW121020   5.627   0.467   2.419
 6707SOL    HW221021   5.639   0.577   2.539
 6708SOL     OW21022   0.218   3.941   1.520
 6708SOL    HW121023   0.304   3.904   1.553
 6708SOL    HW221024   0.214   3.932   1.420
 6709SOL     OW21025   1.293   4.714   2.276
 6709SOL    HW121026   1.300   4.641   2.343
 6709SOL    HW221027   1.221   4.692   2.210
 6710SOL     OW21028   4.692   1.399   1.514
 6710SOL    HW121029   4.716   1.302   1.510
 6710SOL    HW221030   4.735   1.447   1.437
 6711SOL     OW21031   4.735   6.133   6.233
 6711SOL    HW121032   4.742   6.078   6.316
 6711SOL    HW221033   4.695   6.222   6.256
 6712SOL     OW21034   6.208   3.400   0.761
 6712SOL    HW121035   6.175   3.428   0.852
 6712SOL    HW221036   6.299   3.437   0.746
 6713SOL     OW21037   1.628   0.095   4.244
 6713SOL    HW121038   1.567   0.057   4.313
 6713SOL    HW221039   1.720   0.056   4.256
 6714SOL     OW21040   5.859   1.355   0.371
 6714SOL    HW121041   5.855   1.273   0.429
 6714SOL    HW221042   5.868   1.328   0.276
 6715SOL     OW21043   1.534   0.122   0.357
 6715SOL    HW121044   1.447   0.146   0.313
 6715SOL    HW221045   1.526   0.033   0.401
 6716SOL     OW21046   6.984   5.377   2.327
 6716SOL    HW121047   6.981   5.475   2.310
 6716SOL    HW221048   6.931   5.355   2.409
 6717SOL     OW21049   4.089   2.810   6.355
 6717SOL    HW121050   4.181   2.827   6.320
 6717SOL    HW221051   4.040   2.751   6.291
 6718SOL     OW21052   3.446   0.020   2.414
 6718SOL    HW121053   3.516   0.075   2.460
 6718SOL    HW221054   3.359   0.032   2.461
 6719SOL     OW21055   1.776   0.593   6.621
 6719SOL    HW121056   1.776   0.593   6.721
 6719SOL    HW221057   1.702   0.533   6.589
 6720SOL     OW21058   2.219   0.544   5.859
 6720SOL    HW121059   2.308   0.587   5.844
 6720SOL    HW221060   2.211   0.515   5.954
 6721SOL     OW21061   0.466   1.197   0.745
 6721SOL    HW121062   0.564   1.178   0.740
 6721SOL    HW221063   0.432   1.221   0.654
 6722SOL     OW21064   6.147   3.090   0.155
 6722SOL    HW121065   6.108   3.027   0.222
 6722SOL    HW221066   6.182   3.171   0.202
 6723SOL     OW21067   1.357   1.942   6.317
 6723SOL    HW121068   1.448   1.917   6.282
 6723SOL    HW221069   1.332   1.879   6.390
 6724SOL     OW21070   1.887   3.408   5.958
 6724SOL    HW121071   1.849   3.402   5.865
 6724SOL    HW221072   1.982   3.378   5.957
 6725SOL     OW21073   6.155   2.926   3.414
 6725SOL    HW121074   6.163   3.024   3.430
 6725SOL    HW221075   6.246   2.885   3.412
 6726SOL     OW21076   0.151   1.140   5.591
 6726SOL    HW121077   0.069   1.166   5.540
 6726SOL    HW221078   0.229   1.192   5.557
 6727SOL     OW21079   1.129   4.519   5.871
 6727SOL    HW121080   1.175   4.511   5.960
 6727SOL    HW221081   1.069   4.440   5.858
 6728SOL     OW21082   3.623   2.014   3.621
 6728SOL    HW121083   3.577   1.930   3.652
 6728SOL    HW221084   3.621   2.082   3.694
 6729SOL     OW21085   5.167   1.671   0.916
 6729SOL    HW121086   5.207   1.595   0.968
 6729SOL    HW221087   5.070   1.679   0.939
 6730SOL     OW21088   1.150   0.760   1.267
 6730SOL    HW121089   1.107   0.694   1.205
 6730SOL    HW221090   1.155   0.722   1.359
 6731SOL     OW21091   3.313   6.438   0.665
 6731SOL    HW121092   3.336   6.347   0.630
 6731SOL    HW221093   3.397   6.486   0.689
 6732SOL     OW21094   5.669   5.295   4.139
 6732SOL    HW121095   5.611   5.239   4.080
 6732SOL    HW221096   5.764   5.287   4.108
 6733SOL     OW21097   3.379   5.258   6.283
 6733SOL    HW121098   3.281   5.253   6.264
 6733SOL    HW221099   3.399   5.343   6.331
 6734SOL     OW21100   5.372   1.208   4.851
 6734SOL    HW121101   5.401   1.202   4.947
 6734SOL    HW221102   5.275   1.187   4.844
 6735SOL     OW21103   6.054   3.419   3.532
 6735SOL    HW121104   6.094   3.481   3.465
 6735SOL    HW221105   5.998   3.351   3.485
 6736SOL     OW21106   3.401   4.029   1.142
 6736SOL    HW121107   3.368   4.070   1.227
 6736SOL    HW221108   3.360   3.938   1.131
 6737SOL     OW21109   1.342   2.903   1.677
 6737SOL    HW121110   1.364   2.969   1.749
 6737SOL    HW221111   1.316   2.953   1.594
 6738SOL     OW21112   1.689   5.660   3.268
 6738SOL    HW121113   1.731   5.588   3.322
 6738SOL    HW221114   1.738   5.746   3.283
 6739SOL     OW21115   6.806   6.964   4.029
 6739SOL    HW121116   6.864   6.978   3.948
 6739SOL    HW221117   6.732   6.901   4.006
 6740SOL     OW21118   6.339   6.455   4.461
 6740SOL    HW121119   6.413   6.519   4.482
 6740SOL    HW221120   6.257   6.506   4.434
 6741SOL     OW21121   4.707   1.928   5.639
 6741SOL    HW121122   4.707   1.921   5.738
 6741SOL    HW221123   4.679   1.840   5.599
 6742SOL     OW21124   5.441   4.698   3.429
 6742SOL    HW121125   5.449   4.685   3.528
 6742SOL    HW221126   5.441   4.608   3.384
 6743SOL     OW21127   4.125   4.441   0.335
 6743SOL    HW121128   4.133   4.382   0.254
 6743SOL    HW221129   4.182   4.404   0.409
 6744SOL     OW21130   6.461   5.197   6.161
 6744SOL    HW121131   6.432   5.118   6.214
 6744SOL    HW221132   6.561   5.199   6.155
 6745SOL     OW21133   6.800   6.388   3.942
 6745SOL    HW121134   6.810   6.334   4.025
 6745SOL    HW221135   6.707   6.379   3.907
 6746SOL     OW21136   1.573   1.244   2.736
 6746SOL    HW121137   1.604   1.177   2.669
 6746SOL    HW221138   1.617   1.332   2.717
 6747SOL     OW21139   0.959   6.737   6.422
 6747SOL    HW121140   0.964   6.643   6.388
 6747SOL    HW221141   0.894   6.789   6.367
 6748SOL     OW21142   2.147   1.710   3.895
 6748SOL    HW121143   2.169   1.760   3.978
 6748SOL    HW221144   2.230   1.696   3.841
 6749SOL     OW21145   3.361   4.271   0.769
 6749SOL    HW121146   3.364   4.294   0.672
 6749SOL    HW221147   3.297   4.194   0.783
 6750SOL     OW21148   2.977   1.666   4.664
 6750SOL    HW121149   3.063   1.631   4.628
 6750SOL    HW221150   2.996   1.734   4.735
 6751SOL     OW21151   4.490   6.969   3.490
 6751SOL    HW121152   4.443   6.891   3.531
 6751SOL    HW221153   4.586   6.946   3.476
 6752SOL     OW21154   1.725   6.212   3.230
 6752SOL    HW121155   1.768   6.282   3.173
 6752SOL    HW221156   1.625   6.215   3.217
 6753SOL     OW21157   3.651   2.638   5.317
 6753SOL    HW121158   3.651   2.681   5.227
 6753SOL    HW221159   3.560   2.646   5.358
 6754SOL     OW21160   6.125   1.139   1.371
 6754SOL    HW121161   6.141   1.220   1.315
 6754SOL    HW221162   6.103   1.167   1.464
 6755SOL     OW21163   2.816   4.889   0.504
 6755SOL    HW121164   2.808   4.853   0.597
 6755SOL    HW221165   2.911   4.913   0.485
 6756SOL     OW21166   2.311   2.326   5.706
 6756SOL    HW121167   2.365   2.297   5.627
 6756SOL    HW221168   2.214   2.310   5.688
 6757SOL     OW21169   3.388   0.928   0.460
 6757SOL    HW121170   3.359   0.835   0.482
 6757SOL    HW221171   3.473   0.926   0.409
 6758SOL     OW21172   5.524   2.882   1.067
 6758SOL    HW121173   5.529   2.797   1.120
 6758SOL    HW221174   5.455   2.942   1.108
 6759SOL     OW21175   0.008   3.571   3.432
 6759SOL    HW121176   6.995   3.507   3.500
 6759SOL    HW221177   6.956   3.618   3.386
 6760SOL     OW21178   5.333   2.898   2.955
 6760SOL    HW121179   5.376   2.985   2.930
 6760SOL    HW221180   5.236   2.901   2.931
 6761SOL     OW21181   4.881   2.229   4.651
 6761SOL    HW121182   4.957   2.190   4.598
 6761SOL    HW221183   4.821   2.155   4.681
 6762SOL     OW21184   6.534   5.518   3.618
 6762SOL    HW121185   6.550   5.470   3.704
 6762SOL    HW221186   6.574   5.466   3.542
 6763SOL     OW21187   4.693   5.360   5.117
 6763SOL    HW121188   4.729   5.446   5.082
 6763SOL    HW221189   4.646   5.376   5.204
 6764SOL     OW21190   1.557   5.896   1.839
 6764SOL    HW121191   1.645   5.873   1.880
 6764SOL    HW221192   1.484   5.851   1.889
 6765SOL     OW21193   6.100   5.050   3.449
 6765SOL    HW121194   6.013   5.025   3.406
 6765SOL    HW221195   6.083   5.107   3.529
 6766SOL     OW21196   4.810   6.287   0.330
 6766SOL    HW121197   4.832   6.357   0.398
 6766SOL    HW221198   4.893   6.237   0.304
 6767SOL     OW21199   2.516   0.777   0.381
 6767SOL    HW121200   2.489   0.865   0.421
 6767SOL    HW221201   2.519   0.785   0.281
 6768SOL     OW21202   2.129   0.887   6.900
 6768SOL    HW121203   2.127   0.951   6.823
 6768SOL    HW221204   2.113   0.936   6.985
 6769SOL     OW21205   3.576   2.785   0.629
 6769SOL    HW121206   3.590   2.795   0.530
 6769SOL    HW221207   3.661   2.805   0.677
 6770SOL     OW21208   6.566   0.771   1.953
 6770SOL    HW121209   6.500   0.745   1.883
 6770SOL    HW221210   6.630   0.837   1.916
 6771SOL     OW21211   4.280   1.960   2.596
 6771SOL    HW121212   4.266   2.023   2.672
 6771SOL    HW221213   4.235   1.997   2.514
 6772SOL     OW21214   3.151   1.140   2.482
 6772SOL    HW121215   3.127   1.231   2.449
 6772SOL    HW221216   3.096   1.117   2.562
 6773SOL     OW21217   6.562   3.986   1.840
 6773SOL    HW121218   6.507   3.907   1.814
 6773SOL    HW221219   6.659   3.968   1.820
 6774SOL     OW21220   0.441   2.618   6.287
 6774SOL    HW121221   0.393   2.609   6.374
 6774SOL    HW221222   0.396   2.687   6.231
 6775SOL     OW21223   2.686   3.763   0.659
 6775SOL    HW121224   2.755   3.753   0.731
 6775SOL    HW221225   2.602   3.799   0.698
 6776SOL     OW21226   4.837   4.749   0.261
 6776SOL    HW121227   4.802   4.665   0.302
 6776SOL    HW221228   4.839   4.739   0.161
 6777SOL     OW21229   4.159   4.755   6.207
 6777SOL    HW121230   4.089   4.702   6.158
 6777SOL    HW221231   4.156   4.731   6.305
 6778SOL     OW21232   0.728   4.311   2.428
 6778SOL    HW121233   0.784   4.230   2.448
 6778SOL    HW221234   0.787   4.392   2.423
 6779SOL     OW21235   6.697   4.298   0.163
 6779SOL    HW121236   6.694   4.232   0.238
 6779SOL    HW221237   6.736   4.255   0.082
 6780SOL     OW21238   1.000   2.362   2.633
 6780SOL    HW121239   1.074   2.416   2.592
 6780SOL    HW221240   0.956   2.307   2.562
 6781SOL     OW21241   5.655   6.440   5.478
 6781SOL    HW121242   5.614   6.513   5.533
 6781SOL    HW221243   5.696   6.372   5.539
 6782SOL     OW21244   0.283   1.073   2.477
 6782SOL    HW121245   0.257   0.977   2.486
 6782SOL    HW221246   0.340   1.100   2.555
 6783SOL     OW21247   0.278   6.545   6.169
 6783SOL    HW121248   0.229   6.541   6.256
 6783SOL    HW221249   0.369   6.506   6.180
 6784SOL     OW21250   3.733   4.383   0.107
 6784SOL    HW121251   3.726   4.460   0.043
 6784SOL    HW221252   3.775   4.305   0.060
 6785SOL     OW21253   6.001   4.966   1.810
 6785SOL    HW121254   5.952   4.977   1.723
 6785SOL    HW221255   5.953   5.017   1.881
 6786SOL     OW21256   1.079   2.084   6.657
 6786SOL    HW121257   1.161   2.138   6.640
 6786SOL    HW221258   1.016   2.092   6.580
 6787SOL     OW21259   1.773   4.231   1.091
 6787SOL    HW121260   1.721   4.286   1.025
 6787SOL    HW221261   1.710   4.193   1.159
 6788SOL     OW21262   2.727   3.896   1.571
 6788SOL    HW121263   2.816   3.873   1.609
 6788SOL    HW221264   2.669   3.814   1.569
 6789SOL     OW21265   0.010   6.622   2.241
 6789SOL    HW121266   6.979   6.541   2.267
 6789SOL    HW221267   0.020   6.624   2.141
 6790SOL     OW21268   1.668   3.899   0.212
 6790SOL    HW121269   1.721   3.855   0.284
 6790SOL    HW221270   1.605   3.965   0.253
 6791SOL     OW21271   3.907   2.659   0.915
 6791SOL    HW121272   3.842   2.647   0.989
 6791SOL    HW221273   3.993   2.696   0.951
 6792SOL     OW21274   6.683   5.770   6.089
 6792SOL    HW121275   6.706   5.678   6.056
 6792SOL    HW221276   6.681   5.770   6.189
 6793SOL     OW21277   1.002   2.260   0.770
 6793SOL    HW121278   1.077   2.219   0.717
 6793SOL    HW221279   1.039   2.300   0.854
 6794SOL     OW21280   5.214   1.001   4.485
 6794SOL    HW121281   5.138   0.950   4.446
 6794SOL    HW221282   5.271   0.939   4.539
 6795SOL     OW21283   2.896   5.950   0.677
 6795SOL    HW121284   2.834   5.882   0.714
 6795SOL    HW221285   2.942   5.914   0.595
 6796SOL     OW21286   6.309   1.054   2.456
 6796SOL    HW121287   6.298   0.982   2.524
 6796SOL    HW221288   6.221   1.098   2.439
 6797SOL     OW21289   5.115   3.739   2.091
 6797SOL    HW121290   5.124   3.699   2.000
 6797SOL    HW221291   5.066   3.676   2.151
 6798SOL     OW21292   5.696   4.882   2.711
 6798SOL    HW121293   5.766   4.947   2.683
 6798SOL    HW221294   5.609   4.930   2.726
 6799SOL     OW21295   5.416   5.687   0.527
 6799SOL    HW121296   5.442   5.764   0.468
 6799SOL    HW221297   5.316   5.679   0.529
 6800SOL     OW21298   2.103   4.593   0.606
 6800SOL    HW121299   2.067   4.556   0.691
 6800SOL    HW221300   2.126   4.518   0.544
 6801SOL     OW21301   1.595   1.188   2.257
 6801SOL    HW121302   1.651   1.226   2.330
 6801SOL    HW221303   1.500   1.184   2.286
 6802SOL     OW21304   2.680   5.799   0.758
 6802SOL    HW121305   2.622   5.860   0.813
 6802SOL    HW221306   2.714   5.724   0.815
 6803SOL     OW21307   4.740   2.597   6.473
 6803SOL    HW121308   4.695   2.509   6.455
 6803SOL    HW221309   4.835   2.580   6.499
 6804SOL     OW21310   2.296   5.783   3.104
 6804SOL    HW121311   2.264   5.852   3.168
 6804SOL    HW221312   2.223   5.716   3.087
 6805SOL     OW21313   5.500   6.533   4.631
 6805SOL    HW121314   5.469   6.506   4.722
 6805SOL    HW221315   5.567   6.608   4.640
 6806SOL     OW21316   4.926   1.456   3.939
 6806SOL    HW121317   4.831   1.426   3.947
 6806SOL    HW221318   4.930   1.542   3.888
 6807SOL     OW21319   2.287   3.149   0.238
 6807SOL    HW121320   2.234   3.066   0.224
 6807SOL    HW221321   2.274   3.182   0.332
 6808SOL     OW21322   0.616   3.165   5.358
 6808SOL    HW121323   0.561   3.149   5.440
 6808SOL    HW221324   0.668   3.083   5.335
 6809SOL     OW21325   1.867   4.398   0.016
 6809SOL    HW121326   1.770   4.379   0.029
 6809SOL    HW221327   1.914   4.389   0.104
 6810SOL     OW21328   1.312   0.771   1.851
 6810SOL    HW121329   1.399   0.798   1.893
 6810SOL    HW221330   1.309   0.807   1.757
 6811SOL     OW21331   5.423   4.079   0.125
 6811SOL    HW121332   5.479   4.119   0.052
 6811SOL    HW221333   5.367   4.150   0.167
 6812SOL     OW21334   4.080   3.369   3.372
 6812SOL    HW121335   4.059   3.275   3.402
 6812SOL    HW221336   4.118   3.420   3.449
 6813SOL     OW21337   4.958   1.710   1.105
 6813SOL    HW121338   4.893   1.786   1.109
 6813SOL    HW221339   4.968   1.669   1.195
 6814SOL     OW21340   3.182   2.773   0.981
 6814SOL    HW121341   3.138   2.693   0.941
 6814SOL    HW221342   3.258   2.802   0.923
 6815SOL     OW21343   2.999   6.908   1.254
 6815SOL    HW121344   2.914   6.861   1.230
 6815SOL    HW221345   3.063   6.844   1.297
 6816SOL     OW21346   6.342   4.851   7.013
 6816SOL    HW121347   6.416   4.832   0.055
 6816SOL    HW221348   6.298   4.937   0.014
 6817SOL     OW21349   6.667   1.879   5.516
 6817SOL    HW121350   6.670   1.833   5.428
 6817SOL    HW221351   6.660   1.811   5.589
 6818SOL     OW21352   3.029   6.231   1.995
 6818SOL    HW121353   3.081   6.179   1.926
 6818SOL    HW221354   2.982   6.307   1.950
 6819SOL     OW21355   3.056   0.943   3.661
 6819SOL    HW121356   2.973   0.917   3.711
 6819SOL    HW221357   3.054   1.041   3.641
 6820SOL     OW21358   1.089   4.808   3.665
 6820SOL    HW121359   1.107   4.710   3.665
 6820SOL    HW221360   1.022   4.830   3.594
 6821SOL     OW21361   2.437   2.182   5.490
 6821SOL    HW121362   2.535   2.182   5.509
 6821SOL    HW221363   2.420   2.143   5.400
 6822SOL     OW21364   5.909   1.770   6.340
 6822SOL    HW121365   5.988   1.741   6.284
 6822SOL    HW221366   5.931   1.856   6.386
 6823SOL     OW21367   3.675   3.831   4.099
 6823SOL    HW121368   3.627   3.823   4.011
 6823SOL    HW221369   3.702   3.740   4.130
 6824SOL     OW21370   0.011   3.115   6.302
 6824SOL    HW121371   0.006   3.065   6.389
 6824SOL    HW221372   0.086   3.181   6.306
 6825SOL     OW21373   4.718   0.230   2.736
 6825SOL    HW121374   4.645   0.190   2.681
 6825SOL    HW221375   4.678   0.291   2.804
 6826SOL     OW21376   2.110   3.308   2.855
 6826SOL    HW121377   2.135   3.367   2.779
 6826SOL    HW221378   2.139   3.214   2.835
 6827SOL     OW21379   5.061   5.430   0.219
 6827SOL    HW121380   5.094   5.394   0.306
 6827SOL    HW221381   5.083   5.365   0.146
 6828SOL     OW21382   1.546   2.200   1.709
 6828SOL    HW121383   1.550   2.297   1.687
 6828SOL    HW221384   1.453   2.175   1.733
 6829SOL     OW21385   5.235   6.473   3.589
 6829SOL    HW121386   5.265   6.402   3.653
 6829SOL    HW221387   5.290   6.470   3.506
 6830SOL     OW21388   5.518   1.413   2.934
 6830SOL    HW121389   5.437   1.356   2.920
 6830SOL    HW221390   5.496   1.508   2.910
 6831SOL     OW21391   0.813   0.618   6.099
 6831SOL    HW121392   0.826   0.532   6.049
 6831SOL    HW221393   0.811   0.693   6.034
 6832SOL     OW21394   2.786   4.412   1.616
 6832SOL    HW121395   2.823   4.463   1.693
 6832SOL    HW221396   2.828   4.321   1.613
 6833SOL     OW21397   4.108   5.152   6.917
 6833SOL    HW121398   4.016   5.118   6.934
 6833SOL    HW221399   4.142   5.115   6.830
 6834SOL     OW21400   4.264   6.800   1.709
 6834SOL    HW121401   4.293   6.890   1.677
 6834SOL    HW221402   4.216   6.810   1.796
 6835SOL     OW21403   3.970   0.222   4.774
 6835SOL    HW121404   3.950   0.127   4.753
 6835SOL    HW221405   4.043   0.227   4.842
 6836SOL     OW21406   3.341   6.183   0.599
 6836SOL    HW121407   3.275   6.178   0.674
 6836SOL    HW221408   3.412   6.114   0.613
 6837SOL     OW21409   1.820   3.318   2.121
 6837SOL    HW121410   1.883   3.246   2.093
 6837SOL    HW221411   1.809   3.383   2.045
 6838SOL     OW21412   2.000   0.984   0.596
 6838SOL    HW121413   2.078   0.950   0.543
 6838SOL    HW221414   1.916   0.972   0.543
 6839SOL     OW21415   4.708   1.183   0.850
 6839SOL    HW121416   4.614   1.216   0.847
 6839SOL    HW221417   4.767   1.243   0.796
 6840SOL     OW21418   2.333   1.697   5.889
 6840SOL    HW121419   2.343   1.689   5.989
 6840SOL    HW221420   2.323   1.794   5.865
 6841SOL     OW21421   6.381   3.262   5.950
 6841SOL    HW121422   6.411   3.170   5.973
 6841SOL    HW221423   6.403   3.324   6.026
 6842SOL     OW21424   2.056   5.145   1.727
 6842SOL    HW121425   2.111   5.098   1.796
 6842SOL    HW221426   2.003   5.078   1.675
 6843SOL     OW21427   5.432   0.114   6.636
 6843SOL    HW121428   5.353   0.148   6.689
 6843SOL    HW221429   5.421   0.017   6.618
 6844SOL     OW21430   5.389   1.123   3.531
 6844SOL    HW121431   5.320   1.178   3.578
 6844SOL    HW221432   5.401   1.036   3.579
 6845SOL     OW21433   5.445   2.645   2.838
 6845SOL    HW121434   5.359   2.638   2.788
 6845SOL    HW221435   5.442   2.723   2.900
 6846SOL     OW21436   3.014   4.049   6.967
 6846SOL    HW121437   3.023   3.949   6.973
 6846SOL    HW221438   2.934   4.078   7.018
 6847SOL     OW21439   6.272   4.240   4.643
 6847SOL    HW121440   6.319   4.308   4.587
 6847SOL    HW221441   6.325   4.224   4.727
 6848SOL     OW21442   5.424   3.730   4.078
 6848SOL    HW121443   5.360   3.798   4.041
 6848SOL    HW221444   5.379   3.641   4.082
 6849SOL     OW21445   3.651   4.265   5.787
 6849SOL    HW121446   3.577   4.230   5.844
 6849SOL    HW221447   3.662   4.207   5.707
 6850SOL     OW21448   4.151   2.192   3.313
 6850SOL    HW121449   4.246   2.197   3.344
 6850SOL    HW221450   4.092   2.162   3.388
 6851SOL     OW21451   2.161   2.719   2.841
 6851SOL    HW121452   2.218   2.757   2.769
 6851SOL    HW221453   2.081   2.777   2.855
 6852SOL     OW21454   2.714   5.630   0.980
 6852SOL    HW121455   2.679   5.557   1.039
 6852SOL    HW221456   2.709   5.717   1.027
 6853SOL     OW21457   5.648   3.371   6.283
 6853SOL    HW121458   5.714   3.297   6.290
 6853SOL    HW221459   5.653   3.429   6.364
 6854SOL     OW21460   5.042   6.602   6.216
 6854SOL    HW121461   5.083   6.687   6.250
 6854SOL    HW221462   5.109   6.552   6.161
 6855SOL     OW21463   3.875   5.382   3.595
 6855SOL    HW121464   3.974   5.371   3.586
 6855SOL    HW221465   3.830   5.297   3.567
 6856SOL     OW21466   0.641   2.836   6.247
 6856SOL    HW121467   0.562   2.818   6.189
 6856SOL    HW221468   0.655   2.759   6.309
 6857SOL     OW21469   1.181   3.125   6.845
 6857SOL    HW121470   1.136   3.056   6.903
 6857SOL    HW221471   1.280   3.115   6.854
 6858SOL     OW21472   3.253   4.222   1.773
 6858SOL    HW121473   3.153   4.225   1.772
 6858SOL    HW221474   3.289   4.312   1.751
 6859SOL     OW21475   0.658   1.263   1.849
 6859SOL    HW121476   0.710   1.267   1.935
 6859SOL    HW221477   0.570   1.219   1.866
 6860SOL     OW21478   6.846   5.235   2.133
 6860SOL    HW121479   6.858   5.136   2.121
 6860SOL    HW221480   6.903   5.267   2.209
 6861SOL     OW21481   4.910   3.128   5.418
 6861SOL    HW121482   4.871   3.218   5.399
 6861SOL    HW221483   4.839   3.058   5.407
 6862SOL     OW21484   0.757   4.698   6.413
 6862SOL    HW121485   0.804   4.724   6.328
 6862SOL    HW221486   0.787   4.607   6.441
 6863SOL     OW21487   6.638   6.308   4.652
 6863SOL    HW121488   6.648   6.399   4.692
 6863SOL    HW221489   6.716   6.251   4.678
 6864SOL     OW21490   1.655   3.916   5.894
 6864SOL    HW121491   1.596   3.907   5.975
 6864SOL    HW221492   1.750   3.926   5.924
 6865SOL     OW21493   1.655   0.843   4.788
 6865SOL    HW121494   1.743   0.837   4.837
 6865SOL    HW221495   1.595   0.907   4.837
 6866SOL     OW21496   6.438   4.575   2.114
 6866SOL    HW121497   6.354   4.555   2.064
 6866SOL    HW221498   6.500   4.497   2.106
 6867SOL     OW21499   1.446   3.850   0.455
 6867SOL    HW121500   1.401   3.830   0.542
 6867SOL    HW221501   1.487   3.767   0.419
 6868SOL     OW21502   1.776   5.429   5.516
 6868SOL    HW121503   1.875   5.444   5.522
 6868SOL    HW221504   1.758   5.340   5.475
 6869SOL     OW21505   3.347   0.045   5.762
 6869SOL    HW121506   3.385   6.975   5.767
 6869SOL    HW221507   3.301   0.067   5.848
 6870SOL     OW21508   0.672   2.991   0.316
 6870SOL    HW121509   0.767   3.023   0.318
 6870SOL    HW221510   0.668   2.899   0.278
 6871SOL     OW21511   6.475   3.528   2.420
 6871SOL    HW121512   6.478   3.584   2.337
 6871SOL    HW221513   6.391   3.473   2.420
 6872SOL     OW21514   1.322   2.687   2.035
 6872SOL    HW121515   1.385   2.682   1.957
 6872SOL    HW221516   1.370   2.723   2.114
 6873SOL     OW21517   1.457   4.341   4.467
 6873SOL    HW121518   1.505   4.302   4.389
 6873SOL    HW221519   1.494   4.431   4.488
 6874SOL     OW21520   5.757   5.740   2.548
 6874SOL    HW121521   5.769   5.644   2.573
 6874SOL    HW221522   5.802   5.798   2.615
 6875SOL     OW21523   1.451   2.669   1.281
 6875SOL    HW121524   1.543   2.705   1.262
 6875SOL    HW221525   1.384   2.742   1.273
 6876SOL     OW21526   3.339   0.328   3.617
 6876SOL    HW121527   3.372   0.234   3.618
 6876SOL    HW221528   3.276   0.340   3.539
 6877SOL     OW21529   2.419   4.317   1.832
 6877SOL    HW121530   2.324   4.315   1.862
 6877SOL    HW221531   2.448   4.224   1.806
 6878SOL     OW21532   1.858   0.745   3.867
 6878SOL    HW121533   1.867   0.824   3.928
 6878SOL    HW221534   1.803   0.770   3.788
 6879SOL     OW21535   2.164   2.326   0.286
 6879SOL    HW121536   2.095   2.329   0.214
 6879SOL    HW221537   2.146   2.249   0.347
 6880SOL     OW21538   1.411   5.603   6.503
 6880SOL    HW121539   1.508   5.621   6.490
 6880SOL    HW221540   1.396   5.505   6.517
 6881SOL     OW21541   1.802   3.649   0.123
 6881SOL    HW121542   1.766   3.579   0.185
 6881SOL    HW221543   1.748   3.732   0.131
 6882SOL     OW21544   2.611   6.905   0.670
 6882SOL    HW121545   2.531   6.860   0.631
 6882SOL    HW221546   2.637   6.859   0.755
 6883SOL     OW21547   4.975   0.722   5.926
 6883SOL    HW121548   4.940   0.782   5.998
 6883SOL    HW221549   4.900   0.696   5.865
 6884SOL     OW21550   1.972   4.179   2.825
 6884SOL    HW121551   2.027   4.163   2.908
 6884SOL    HW221552   1.956   4.093   2.778
 6885SOL     OW21553   4.783   4.853   3.840
 6885SOL    HW121554   4.808   4.923   3.773
 6885SOL    HW221555   4.722   4.892   3.909
 6886SOL     OW21556   5.671   1.329   5.557
 6886SOL    HW121557   5.573   1.337   5.573
 6886SOL    HW221558   5.721   1.384   5.624
 6887SOL     OW21559   4.934   6.229   6.098
 6887SOL    HW121560   4.859   6.182   6.144
 6887SOL    HW221561   5.021   6.203   6.141
 6888SOL     OW21562   5.658   4.274   6.467
 6888SOL    HW121563   5.566   4.308   6.448
 6888SOL    HW221564   5.703   4.253   6.380
 6889SOL     OW21565   1.336   3.190   5.694
 6889SOL    HW121566   1.266   3.160   5.759
 6889SOL    HW221567   1.296   3.258   5.632
 6890SOL     OW21568   3.726   5.366   2.962
 6890SOL    HW121569   3.628   5.355   2.976
 6890SOL    HW221570   3.750   5.338   2.869
 6891SOL     OW21571   2.182   2.600   1.130
 6891SOL    HW121572   2.170   2.680   1.189
 6891SOL    HW221573   2.204   2.631   1.038
 6892SOL     OW21574   3.220   1.308   4.511
 6892SOL    HW121575   3.178   1.316   4.602
 6892SOL    HW221576   3.291   1.237   4.513
 6893SOL     OW21577   6.222   2.787   6.672
 6893SOL    HW121578   6.321   2.787   6.690
 6893SOL    HW221579   6.175   2.738   6.745
 6894SOL     OW21580   5.451   4.277   1.181
 6894SOL    HW121581   5.372   4.224   1.153
 6894SOL    HW221582   5.421   4.361   1.226
 6895SOL     OW21583   1.464   6.110   0.848
 6895SOL    HW121584   1.428   6.051   0.919
 6895SOL    HW221585   1.474   6.203   0.883
 6896SOL     OW21586   3.506   2.147   4.334
 6896SOL    HW121587   3.448   2.180   4.260
 6896SOL    HW221588   3.458   2.159   4.422
 6897SOL     OW21589   4.983   3.693   4.929
 6897SOL    HW121590   4.919   3.621   4.954
 6897SOL    HW221591   5.070   3.678   4.976
 6898SOL     OW21592   2.372   1.227   1.287
 6898SOL    HW121593   2.281   1.185   1.287
 6898SOL    HW221594   2.396   1.253   1.380
 6899SOL     OW21595   6.025   5.636   2.285
 6899SOL    HW121596   6.067   5.548   2.268
 6899SOL    HW221597   5.952   5.652   2.218
 6900SOL     OW21598   6.923   4.325   6.354
 6900SOL    HW121599   6.957   4.404   6.303
 6900SOL    HW221600   6.884   4.258   6.291
 6901SOL     OW21601   4.246   5.007   6.619
 6901SOL    HW121602   4.244   4.996   6.519
 6901SOL    HW221603   4.180   4.945   6.660
 6902SOL     OW21604   6.425   5.884   6.323
 6902SOL    HW121605   6.507   5.827   6.321
 6902SOL    HW221606   6.407   5.913   6.417
 6903SOL     OW21607   2.941   4.960   5.210
 6903SOL    HW121608   2.919   4.897   5.284
 6903SOL    HW221609   2.974   4.909   5.130
 6904SOL     OW21610   0.259   5.720   5.140
 6904SOL    HW121611   0.249   5.709   5.041
 6904SOL    HW221612   0.276   5.816   5.161
 6905SOL     OW21613   5.055   5.418   6.637
 6905SOL    HW121614   4.998   5.466   6.703
 6905SOL    HW221615   5.151   5.441   6.651
 6906SOL     OW21616   4.165   1.306   3.787
 6906SOL    HW121617   4.137   1.393   3.828
 6906SOL    HW221618   4.149   1.309   3.689
 6907SOL     OW21619   6.015   1.754   1.616
 6907SOL    HW121620   6.028   1.840   1.565
 6907SOL    HW221621   6.093   1.740   1.677
 6908SOL     OW21622   2.596   4.437   6.607
 6908SOL    HW121623   2.560   4.344   6.607
 6908SOL    HW221624   2.609   4.468   6.513
 6909SOL     OW21625   5.270   4.710   1.944
 6909SOL    HW121626   5.367   4.695   1.928
 6909SOL    HW221627   5.232   4.632   1.993
 6910SOL     OW21628   1.598   3.103   2.788
 6910SOL    HW121629   1.514   3.088   2.735
 6910SOL    HW221630   1.671   3.045   2.751
 6911SOL     OW21631   3.374   6.812   5.471
 6911SOL    HW121632   3.462   6.767   5.458
 6911SOL    HW221633   3.369   6.893   5.413
 6912SOL     OW21634   2.065   3.325   6.495
 6912SOL    HW121635   2.107   3.326   6.404
 6912SOL    HW221636   2.119   3.382   6.557
 6913SOL     OW21637   4.951   6.105   5.365
 6913SOL    HW121638   4.906   6.173   5.422
 6913SOL    HW221639   4.910   6.015   5.382
 6914SOL     OW21640   6.113   3.362   2.205
 6914SOL    HW121641   6.203   3.399   2.185
 6914SOL    HW221642   6.053   3.373   2.125
 6915SOL     OW21643   0.871   3.517   2.122
 6915SOL    HW121644   0.932   3.583   2.078
 6915SOL    HW221645   0.856   3.543   2.217
 6916SOL     OW21646   4.980   0.368   5.564
 6916SOL    HW121647   5.049   0.422   5.612
 6916SOL    HW221648   5.020   0.279   5.539
 6917SOL     OW21649   4.917   5.432   1.872
 6917SOL    HW121650   4.965   5.401   1.954
 6917SOL    HW221651   4.956   5.520   1.843
 6918SOL     OW21652   1.024   3.323   2.260
 6918SOL    HW121653   0.972   3.379   2.196
 6918SOL    HW221654   0.965   3.252   2.298
 6919SOL     OW21655   5.987   6.877   2.532
 6919SOL    HW121656   6.056   6.817   2.492
 6919SOL    HW221657   5.916   6.822   2.577
 6920SOL     OW21658   4.579   0.763   5.063
 6920SOL    HW121659   4.490   0.805   5.080
 6920SOL    HW221660   4.604   0.705   5.140
 6921SOL     OW21661   4.233   7.011   4.272
 6921SOL    HW121662   4.159   6.998   4.205
 6921SOL    HW221663   4.320   7.021   4.224
 6922SOL     OW21664   2.314   6.347   4.496
 6922SOL    HW121665   2.245   6.419   4.494
 6922SOL    HW221666   2.371   6.353   4.414
 6923SOL     OW21667   6.154   6.890   2.201
 6923SOL    HW121668   6.216   6.964   2.227
 6923SOL    HW221669   6.156   6.819   2.272
 6924SOL     OW21670   3.377   6.351   1.103
 6924SOL    HW121671   3.444   6.319   1.036
 6924SOL    HW221672   3.335   6.273   1.149
 6925SOL     OW21673   5.331   6.437   6.762
 6925SOL    HW121674   5.400   6.369   6.737
 6925SOL    HW221675   5.376   6.522   6.788
 6926SOL     OW21676   2.521   1.457   0.884
 6926SOL    HW121677   2.465   1.403   0.948
 6926SOL    HW221678   2.601   1.403   0.856
 6927SOL     OW21679   3.694   0.628   0.600
 6927SOL    HW121680   3.766   0.697   0.589
 6927SOL    HW221681   3.646   0.616   0.513
 6928SOL     OW21682   5.207   5.381   0.463
 6928SOL    HW121683   5.189   5.479   0.468
 6928SOL    HW221684   5.278   5.357   0.529
 6929SOL     OW21685   4.998   4.861   1.537
 6929SOL    HW121686   4.965   4.924   1.608
 6929SOL    HW221687   5.041   4.914   1.464
 6930SOL     OW21688   0.697   0.669   0.351
 6930SOL    HW121689   0.741   0.580   0.365
 6930SOL    HW221690   0.618   0.658   0.291
 6931SOL     OW21691   2.399   2.377   1.213
 6931SOL    HW121692   2.330   2.308   1.234
 6931SOL    HW221693   2.354   2.463   1.190
 6932SOL     OW21694   5.136   5.063   6.853
 6932SOL    HW121695   5.228   5.032   6.876
 6932SOL    HW221696   5.079   5.063   6.935
 6933SOL     OW21697   3.111   6.190   6.335
 6933SOL    HW121698   3.157   6.215   6.250
 6933SOL    HW221699   3.130   6.259   6.405
 6934SOL     OW21700   4.538   4.008   6.516
 6934SOL    HW121701   4.468   3.988   6.447
 6934SOL    HW221702   4.622   3.958   6.495
 6935SOL     OW21703   5.331   5.239   2.034
 6935SOL    HW121704   5.299   5.286   1.951
 6935SOL    HW221705   5.272   5.160   2.051
 6936SOL     OW21706   0.790   2.121   4.725
 6936SOL    HW121707   0.872   2.068   4.702
 6936SOL    HW221708   0.769   2.110   4.822
 6937SOL     OW21709   5.545   6.389   6.984
 6937SOL    HW121710   5.640   6.378   7.013
 6937SOL    HW221711   5.533   6.479   6.943
 6938SOL     OW21712   0.310   1.080   4.393
 6938SOL    HW121713   0.262   1.080   4.305
 6938SOL    HW221714   0.246   1.104   4.465
 6939SOL     OW21715   6.377   4.486   3.391
 6939SOL    HW121716   6.428   4.442   3.464
 6939SOL    HW221717   6.339   4.572   3.424
 6940SOL     OW21718   4.843   6.823   0.672
 6940SOL    HW121719   4.861   6.820   0.770
 6940SOL    HW221720   4.823   6.917   0.645
 6941SOL     OW21721   3.064   3.672   2.732
 6941SOL    HW121722   2.990   3.604   2.730
 6941SOL    HW221723   3.142   3.637   2.681
 6942SOL     OW21724   6.365   6.332   1.882
 6942SOL    HW121725   6.432   6.266   1.848
 6942SOL    HW221726   6.278   6.319   1.833
 6943SOL     OW21727   3.480   4.580   6.935
 6943SOL    HW121728   3.471   4.613   0.006
 6943SOL    HW221729   3.390   4.555   6.899
 6944SOL     OW21730   1.084   3.801   6.042
 6944SOL    HW121731   1.159   3.793   6.107
 6944SOL    HW221732   1.010   3.740   6.069
 6945SOL     OW21733   6.191   2.237   0.799
 6945SOL    HW121734   6.263   2.270   0.860
 6945SOL    HW221735   6.111   2.296   0.808
 6946SOL     OW21736   3.661   5.715   2.328
 6946SOL    HW121737   3.595   5.642   2.345
 6946SOL    HW221738   3.754   5.680   2.340
 6947SOL     OW21739   4.634   4.819   5.975
 6947SOL    HW121740   4.710   4.882   5.961
 6947SOL    HW221741   4.615   4.810   6.072
 6948SOL     OW21742   0.148   6.139   0.827
 6948SOL    HW121743   0.150   6.223   0.773
 6948SOL    HW221744   0.170   6.160   0.922
 6949SOL     OW21745   2.780   2.136   3.425
 6949SOL    HW121746   2.797   2.093   3.336
 6949SOL    HW221747   2.776   2.065   3.496
 6950SOL     OW21748   0.958   6.663   4.797
 6950SOL    HW121749   1.017   6.725   4.848
 6950SOL    HW221750   0.928   6.707   4.713
 6951SOL     OW21751   0.025   5.050   7.013
 6951SOL    HW121752   0.118   5.013   7.013
 6951SOL    HW221753   0.017   5.120   6.941
 6952SOL     OW21754   3.201   5.107   2.783
 6952SOL    HW121755   3.162   5.198   2.773
 6952SOL    HW221756   3.127   5.040   2.788
 6953SOL     OW21757   5.212   0.205   0.582
 6953SOL    HW121758   5.309   0.227   0.586
 6953SOL    HW221759   5.166   0.267   0.519
 6954SOL     OW21760   0.678   3.651   0.999
 6954SOL    HW121761   0.679   3.577   0.932
 6954SOL    HW221762   0.589   3.697   0.997
 6955SOL     OW21763   5.349   0.320   2.495
 6955SOL    HW121764   5.249   0.317   2.502
 6955SOL    HW221765   5.389   0.309   2.586
 6956SOL     OW21766   5.815   5.930   1.976
 6956SOL    HW121767   5.833   5.871   2.055
 6956SOL    HW221768   5.775   6.017   2.008
 6957SOL     OW21769   5.230   5.783   6.298
 6957SOL    HW121770   5.164   5.842   6.251
 6957SOL    HW221771   5.192   5.753   6.385
 6958SOL     OW21772   3.297   3.395   4.028
 6958SOL    HW121773   3.241   3.339   3.967
 6958SOL    HW221774   3.306   3.349   4.116
 6959SOL     OW21775   1.350   4.180   2.891
 6959SOL    HW121776   1.267   4.125   2.880
 6959SOL    HW221777   1.420   4.126   2.938
 6960SOL     OW21778   1.623   4.802   0.705
 6960SOL    HW121779   1.693   4.761   0.763
 6960SOL    HW221780   1.555   4.732   0.681
 6961SOL     OW21781   4.077   1.462   4.899
 6961SOL    HW121782   4.003   1.425   4.844
 6961SOL    HW221783   4.051   1.463   4.995
 6962SOL     OW21784   3.768   6.945   6.751
 6962SOL    HW121785   3.774   6.884   6.672
 6962SOL    HW221786   3.713   6.902   6.823
 6963SOL     OW21787   5.120   6.429   0.531
 6963SOL    HW121788   5.097   6.332   0.541
 6963SOL    HW221789   5.136   6.469   0.621
 6964SOL     OW21790   2.624   0.066   5.724
 6964SOL    HW121791   2.527   0.057   5.747
 6964SOL    HW221792   2.640   0.157   5.685
 6965SOL     OW21793   0.964   1.915   0.578
 6965SOL    HW121794   1.025   1.985   0.616
 6965SOL    HW221795   1.007   1.874   0.498
 6966SOL     OW21796   0.916   0.129   2.069
 6966SOL    HW121797   0.955   0.047   2.110
 6966SOL    HW221798   0.924   0.206   2.132
 6967SOL     OW21799   4.088   1.957   5.936
 6967SOL    HW121800   4.143   1.882   5.898
 6967SOL    HW221801   3.993   1.929   5.943
 6968SOL     OW21802   3.366   6.851   3.076
 6968SOL    HW121803   3.318   6.868   3.162
 6968SOL    HW221804   3.338   6.762   3.039
 6969SOL     OW21805   2.725   1.864   1.510
 6969SOL    HW121806   2.716   1.773   1.550
 6969SOL    HW221807   2.689   1.862   1.416
 6970SOL     OW21808   3.187   4.607   6.086
 6970SOL    HW121809   3.146   4.681   6.033
 6970SOL    HW221810   3.147   4.605   6.178
 6971SOL     OW21811   5.492   4.271   0.775
 6971SOL    HW121812   5.558   4.311   0.839
 6971SOL    HW221813   5.524   4.287   0.681
 6972SOL     OW21814   5.078   3.403   3.208
 6972SOL    HW121815   5.058   3.431   3.114
 6972SOL    HW221816   5.072   3.303   3.215
 6973SOL     OW21817   1.104   1.965   2.671
 6973SOL    HW121818   1.014   1.926   2.687
 6973SOL    HW221819   1.139   1.935   2.582
 6974SOL     OW21820   3.212   3.376   2.870
 6974SOL    HW121821   3.142   3.401   2.804
 6974SOL    HW221822   3.300   3.366   2.824
 6975SOL     OW21823   3.006   5.802   4.831
 6975SOL    HW121824   2.985   5.732   4.763
 6975SOL    HW221825   2.938   5.798   4.904
 6976SOL     OW21826   4.970   4.366   5.142
 6976SOL    HW121827   4.917   4.382   5.225
 6976SOL    HW221828   5.014   4.276   5.148
 6977SOL     OW21829   3.965   4.519   1.665
 6977SOL    HW121830   3.876   4.549   1.632
 6977SOL    HW221831   3.974   4.420   1.653
 6978SOL     OW21832   5.973   3.202   1.399
 6978SOL    HW121833   5.996   3.162   1.488
 6978SOL    HW221834   5.874   3.194   1.384
 6979SOL     OW21835   1.118   4.015   1.612
 6979SOL    HW121836   1.206   4.041   1.653
 6979SOL    HW221837   1.069   4.097   1.582
 6980SOL     OW21838   1.425   0.042   2.723
 6980SOL    HW121839   1.510   0.003   2.757
 6980SOL    HW221840   1.348   7.021   2.770
 6981SOL     OW21841   3.641   3.504   6.868
 6981SOL    HW121842   3.546   3.535   6.866
 6981SOL    HW221843   3.677   3.511   6.962
 6982SOL     OW21844   0.991   1.394   4.311
 6982SOL    HW121845   1.002   1.417   4.214
 6982SOL    HW221846   1.037   1.464   4.367
 6983SOL     OW21847   4.792   1.031   4.307
 6983SOL    HW121848   4.829   1.114   4.265
 6983SOL    HW221849   4.712   1.001   4.254
 6984SOL     OW21850   0.819   2.574   2.771
 6984SOL    HW121851   0.870   2.488   2.761
 6984SOL    HW221852   0.721   2.554   2.773
 6985SOL     OW21853   0.092   4.387   0.013
 6985SOL    HW121854   0.146   4.466   7.007
 6985SOL    HW221855   7.018   4.409   0.006
 6986SOL     OW21856   4.215   5.617   5.988
 6986SOL    HW121857   4.141   5.566   6.033
 6986SOL    HW221858   4.303   5.588   6.026
 6987SOL     OW21859   0.269   1.704   5.841
 6987SOL    HW121860   0.195   1.638   5.856
 6987SOL    HW221861   0.290   1.709   5.743
 6988SOL     OW21862   2.911   0.608   6.025
 6988SOL    HW121863   2.871   0.620   5.934
 6988SOL    HW221864   2.863   0.535   6.074
 6989SOL     OW21865   6.969   4.559   2.359
 6989SOL    HW121866   6.956   4.656   2.382
 6989SOL    HW221867   6.983   4.506   2.442
 6990SOL     OW21868   3.714   2.872   2.252
 6990SOL    HW121869   3.673   2.781   2.240
 6990SOL    HW221870   3.765   2.896   2.169
 6991SOL     OW21871   5.094   4.571   2.777
 6991SOL    HW121872   5.132   4.481   2.799
 6991SOL    HW221873   5.015   4.588   2.836
 6992SOL     OW21874   0.761   6.987   6.542
 6992SOL    HW121875   0.779   0.039   6.478
 6992SOL    HW221876   0.843   6.931   6.552
 6993SOL     OW21877   6.075   1.390   2.016
 6993SOL    HW121878   6.026   1.371   1.930
 6993SOL    HW221879   6.158   1.334   2.019
 6994SOL     OW21880   1.561   0.084   3.680
 6994SOL    HW121881   1.599   0.095   3.772
 6994SOL    HW221882   1.604   0.150   3.619
 6995SOL     OW21883   0.395   3.436   0.569
 6995SOL    HW121884   0.492   3.428   0.591
 6995SOL    HW221885   0.342   3.371   0.624
 6996SOL     OW21886   1.766   0.553   6.883
 6996SOL    HW121887   1.832   0.576   6.955
 6996SOL    HW221888   1.698   0.490   6.920
 6997SOL     OW21889   6.884   5.118   5.282
 6997SOL    HW121890   6.818   5.099   5.210
 6997SOL    HW221891   6.881   5.215   5.305
 6998SOL     OW21892   0.897   1.399   1.589
 6998SOL    HW121893   0.991   1.371   1.610
 6998SOL    HW221894   0.874   1.369   1.496
 6999SOL     OW21895   0.716   2.675   6.923
 6999SOL    HW121896   0.684   2.597   6.977
 6999SOL    HW221897   0.799   2.651   6.875
 7000SOL     OW21898   6.232   0.289   2.771
 7000SOL    HW121899   6.146   0.332   2.799
 7000SOL    HW221900   6.213   0.198   2.733
 7001SOL     OW21901   1.082   1.503   4.637
 7001SOL    HW121902   1.130   1.549   4.563
 7001SOL    HW221903   1.008   1.561   4.670
 7002SOL     OW21904   0.383   5.787   3.559
 7002SOL    HW121905   0.378   5.878   3.518
 7002SOL    HW221906   0.466   5.741   3.529
 7003SOL     OW21907   6.178   3.953   1.046
 7003SOL    HW121908   6.112   3.985   1.114
 7003SOL    HW221909   6.214   3.864   1.074
 7004SOL     OW21910   1.873   6.242   0.416
 7004SOL    HW121911   1.796   6.189   0.380
 7004SOL    HW221912   1.913   6.194   0.494
 7005SOL     OW21913   1.781   0.261   6.724
 7005SOL    HW121914   1.800   0.255   6.822
 7005SOL    HW221915   1.693   0.305   6.710
 7006SOL     OW21916   0.010   0.080   3.563
 7006SOL    HW121917   6.954   0.069   3.503
 7006SOL    HW221918   0.066   7.020   3.561
 7007SOL     OW21919   4.138   0.957   6.032
 7007SOL    HW121920   4.039   0.943   6.020
 7007SOL    HW221921   4.168   0.908   6.114
 7008SOL     OW21922   6.862   4.043   3.357
 7008SOL    HW121923   6.855   4.086   3.267
 7008SOL    HW221924   6.953   4.059   3.395
 7009SOL     OW21925   4.357   6.086   2.029
 7009SOL    HW121926   4.356   6.154   1.956
 7009SOL    HW221927   4.450   6.055   2.045
 7010SOL     OW21928   5.259   4.006   2.546
 7010SOL    HW121929   5.253   3.939   2.472
 7010SOL    HW221930   5.325   4.076   2.522
 7011SOL     OW21931   3.720   6.391   0.238
 7011SOL    HW121932   3.783   6.315   0.252
 7011SOL    HW221933   3.645   6.386   0.303
 7012SOL     OW21934   0.894   2.907   0.895
 7012SOL    HW121935   0.818   2.935   0.954
 7012SOL    HW221936   0.975   2.961   0.917
 7013SOL     OW21937   2.538   1.424   0.115
 7013SOL    HW121938   2.557   1.344   0.171
 7013SOL    HW221939   2.441   1.428   0.093
 7014SOL     OW21940   6.175   3.638   1.978
 7014SOL    HW121941   6.192   3.554   1.926
 7014SOL    HW221942   6.250   3.654   2.041
 7015SOL     OW21943   5.394   4.190   1.882
 7015SOL    HW121944   5.351   4.275   1.912
 7015SOL    HW221945   5.324   4.129   1.844
 7016SOL     OW21946   3.315   5.008   0.883
 7016SOL    HW121947   3.310   5.099   0.925
 7016SOL    HW221948   3.342   5.017   0.788
 7017SOL     OW21949   4.160   4.715   3.849
 7017SOL    HW121950   4.125   4.788   3.790
 7017SOL    HW221951   4.247   4.682   3.813
 7018SOL     OW21952   4.819   2.746   4.308
 7018SOL    HW121953   4.842   2.821   4.370
 7018SOL    HW221954   4.898   2.686   4.297
 7019SOL     OW21955   5.188   5.008   2.035
 7019SOL    HW121956   5.245   4.942   1.987
 7019SOL    HW221957   5.092   4.980   2.030
 7020SOL     OW21958   0.792   3.206   0.012
 7020SOL    HW121959   0.696   3.226   0.031
 7020SOL    HW221960   0.850   3.248   0.082
 7021SOL     OW21961   1.034   2.697   4.859
 7021SOL    HW121962   0.959   2.731   4.803
 7021SOL    HW221963   1.120   2.740   4.829
 7022SOL     OW21964   3.896   0.969   0.405
 7022SOL    HW121965   3.935   0.885   0.367
 7022SOL    HW221966   3.949   0.997   0.485
 7023SOL     OW21967   0.725   1.522   1.765
 7023SOL    HW121968   0.814   1.506   1.721
 7023SOL    HW221969   0.689   1.434   1.797
 7024SOL     OW21970   3.980   3.097   3.759
 7024SOL    HW121971   3.920   3.018   3.773
 7024SOL    HW221972   4.001   3.106   3.662
 7025SOL     OW21973   2.853   0.136   0.095
 7025SOL    HW121974   2.799   0.108   0.174
 7025SOL    HW221975   2.925   0.199   0.125
 7026SOL     OW21976   2.998   1.592   1.190
 7026SOL    HW121977   3.063   1.547   1.251
 7026SOL    HW221978   3.038   1.678   1.157
 7027SOL     OW21979   2.393   5.355   2.595
 7027SOL    HW121980   2.407   5.453   2.604
 7027SOL    HW221981   2.296   5.335   2.584
 7028SOL     OW21982   2.803   0.724   3.860
 7028SOL    HW121983   2.798   0.775   3.775
 7028SOL    HW221984   2.897   0.698   3.878
 7029SOL     OW21985   2.893   3.559   5.710
 7029SOL    HW121986   2.953   3.516   5.642
 7029SOL    HW221987   2.827   3.618   5.664
 7030SOL     OW21988   7.018   1.545   4.654
 7030SOL    HW121989   0.029   1.485   4.727
 7030SOL    HW221990   7.004   1.491   4.571
 7031SOL     OW21991   4.577   5.969   1.093
 7031SOL    HW121992   4.496   6.026   1.108
 7031SOL    HW221993   4.596   5.966   0.994
 7032SOL     OW21994   4.012   0.214   3.816
 7032SOL    HW121995   3.962   0.292   3.777
 7032SOL    HW221996   3.972   0.189   3.904
 7033SOL     OW21997   1.761   2.568   5.400
 7033SOL    HW121998   1.812   2.503   5.457
 7033SOL    HW221999   1.802   2.659   5.409
 7034SOL     OW22000   6.670   1.766   3.496
 7034SOL    HW122001   6.733   1.835   3.532
 7034SOL    HW222002   6.649   1.788   3.400
 7035SOL     OW22003   2.212   0.129   1.285
 7035SOL    HW122004   2.128   0.178   1.262
 7035SOL    HW222005   2.215   0.113   1.384
 7036SOL     OW22006   0.202   1.448   2.102
 7036SOL    HW122007   0.242   1.365   2.140
 7036SOL    HW222008   0.231   1.527   2.156
 7037SOL     OW22009   0.469   0.064   5.916
 7037SOL    HW122010   0.446   0.149   5.963
 7037SOL    HW222011   0.455   7.009   5.978
 7038SOL     OW22012   2.367   3.729   6.288
 7038SOL    HW122013   2.336   3.824   6.290
 7038SOL    HW222014   2.291   3.670   6.262
 7039SOL     OW22015   0.679   5.313   2.823
 7039SOL    HW122016   0.743   5.259   2.768
 7039SOL    HW222017   0.598   5.335   2.768
 7040SOL     OW22018   4.364   2.155   5.621
 7040SOL    HW122019   4.323   2.215   5.690
 7040SOL    HW222020   4.454   2.191   5.594
 7041SOL     OW22021   1.238   0.877   3.741
 7041SOL    HW122022   1.221   0.956   3.682
 7041SOL    HW222023   1.284   0.806   3.688
 7042SOL     OW22024   4.139   5.828   4.901
 7042SOL    HW122025   4.181   5.847   4.813
 7042SOL    HW222026   4.122   5.914   4.950
 7043SOL     OW22027   2.718   4.676   3.244
 7043SOL    HW122028   2.802   4.699   3.293
 7043SOL    HW222029   2.690   4.754   3.188
 7044SOL     OW22030   5.591   6.356   4.083
 7044SOL    HW122031   5.574   6.263   4.115
 7044SOL    HW222032   5.571   6.361   3.985
 7045SOL     OW22033   6.287   5.757   1.947
 7045SOL    HW122034   6.234   5.812   1.882
 7045SOL    HW222035   6.265   5.787   2.040
 7046SOL     OW22036   2.875   2.226   4.473
 7046SOL    HW122037   2.823   2.175   4.541
 7046SOL    HW222038   2.813   2.270   4.409
 7047SOL     OW22039   0.735   0.011   0.847
 7047SOL    HW122040   0.665   0.028   0.778
 7047SOL    HW222041   0.790   6.955   0.821
 7048SOL     OW22042   6.598   5.353   4.961
 7048SOL    HW122043   6.675   5.400   5.004
 7048SOL    HW222044   6.512   5.398   4.988
 7049SOL     OW22045   3.566   1.483   1.765
 7049SOL    HW122046   3.522   1.567   1.797
 7049SOL    HW222047   3.663   1.501   1.746
 7050SOL     OW22048   4.053   4.835   0.884
 7050SOL    HW122049   3.990   4.763   0.915
 7050SOL    HW222050   4.088   4.812   0.793
 7051SOL     OW22051   6.963   0.008   1.757
 7051SOL    HW122052   6.966   0.072   1.681
 7051SOL    HW222053   6.933   6.941   1.724
 7052SOL     OW22054   6.011   7.010   2.893
 7052SOL    HW122055   5.924   7.009   2.844
 7052SOL    HW222056   6.039   6.916   2.913
 7053SOL     OW22057   1.575   3.207   3.427
 7053SOL    HW122058   1.598   3.300   3.399
 7053SOL    HW222059   1.478   3.203   3.453
 7054SOL     OW22060   6.623   0.218   0.818
 7054SOL    HW122061   6.563   0.233   0.739
 7054SOL    HW222062   6.637   0.305   0.865
 7055SOL     OW22063   2.038   0.514   6.647
 7055SOL    HW122064   2.064   0.539   6.740
 7055SOL    HW222065   1.939   0.511   6.640
 7056SOL     OW22066   6.674   5.707   1.142
 7056SOL    HW122067   6.642   5.626   1.192
 7056SOL    HW222068   6.610   5.782   1.157
 7057SOL     OW22069   2.646   5.069   4.866
 7057SOL    HW122070   2.675   5.100   4.956
 7057SOL    HW222071   2.654   4.969   4.861
 7058SOL     OW22072   4.983   2.496   6.746
 7058SOL    HW122073   4.964   2.409   6.701
 7058SOL    HW222074   5.057   2.543   6.697
 7059SOL     OW22075   2.291   1.079   4.466
 7059SOL    HW122076   2.282   1.032   4.554
 7059SOL    HW222077   2.270   1.016   4.391
 7060SOL     OW22078   3.309   6.981   2.794
 7060SOL    HW122079   3.271   6.891   2.772
 7060SOL    HW222080   3.251   0.003   2.862
 7061SOL     OW22081   1.277   1.991   3.051
 7061SOL    HW122082   1.251   2.054   3.125
 7061SOL    HW222083   1.286   2.042   2.966
 7062SOL     OW22084   4.789   1.682   3.561
 7062SOL    HW122085   4.693   1.684   3.590
 7062SOL    HW222086   4.810   1.593   3.521
 7063SOL     OW22087   0.659   0.115   2.317
 7063SOL    HW122088   0.654   0.038   2.381
 7063SOL    HW222089   0.729   0.180   2.348
 7064SOL     OW22090   4.925   1.922   5.181
 7064SOL    HW122091   4.891   1.991   5.245
 7064SOL    HW222092   4.934   1.963   5.090
 7065SOL     OW22093   3.362   4.444   5.371
 7065SOL    HW122094   3.312   4.527   5.346
 7065SOL    HW222095   3.399   4.455   5.463
 7066SOL     OW22096   4.076   0.731   0.309
 7066SOL    HW122097   4.165   0.768   0.282
 7066SOL    HW222098   4.081   0.699   0.403
 7067SOL     OW22099   1.946   3.136   0.102
 7067SOL    HW122100   1.959   3.154   0.200
 7067SOL    HW222101   1.886   3.057   0.091
 7068SOL     OW22102   5.458   3.799   4.354
 7068SOL    HW122103   5.490   3.797   4.259
 7068SOL    HW222104   5.511   3.735   4.409
 7069SOL     OW22105   6.240   0.286   5.898
 7069SOL    HW122106   6.311   0.332   5.951
 7069SOL    HW222107   6.277   0.259   5.809
 7070SOL     OW22108   0.296   7.018   4.747
 7070SOL    HW122109   0.305   6.918   4.743
 7070SOL    HW222110   0.219   0.024   4.690
 7071SOL     OW22111   5.054   6.786   6.566
 7071SOL    HW122112   5.066   6.808   6.469
 7071SOL    HW222113   4.960   6.808   6.593
 7072SOL     OW22114   0.835   4.238   6.768
 7072SOL    HW122115   0.882   4.273   6.849
 7072SOL    HW222116   0.901   4.195   6.707
 7073SOL     OW22117   4.740   0.633   3.352
 7073SOL    HW122118   4.713   0.715   3.302
 7073SOL    HW222119   4.666   0.605   3.413
 7074SOL     OW22120   6.108   3.991   3.189
 7074SOL    HW122121   6.198   4.004   3.148
 7074SOL    HW222122   6.053   4.073   3.175
 7075SOL     OW22123   3.267   5.015   4.861
 7075SOL    HW122124   3.313   4.972   4.938
 7075SOL    HW222125   3.215   4.947   4.810
 7076SOL     OW22126   5.789   3.424   2.553
 7076SOL    HW122127   5.765   3.350   2.491
 7076SOL    HW222128   5.849   3.390   2.625
 7077SOL     OW22129   2.689   4.955   2.105
 7077SOL    HW122130   2.758   4.896   2.063
 7077SOL    HW222131   2.699   5.048   2.068
 7078SOL     OW22132   5.550   6.654   0.321
 7078SOL    HW122133   5.488   6.634   0.244
 7078SOL    HW222134   5.612   6.728   0.295
 7079SOL     OW22135   1.019   6.666   4.239
 7079SOL    HW122136   1.078   6.622   4.306
 7079SOL    HW222137   1.054   6.649   4.147
 7080SOL     OW22138   3.785   2.044   5.119
 7080SOL    HW122139   3.751   2.020   5.028
 7080SOL    HW222140   3.715   2.023   5.187
 7081SOL     OW22141   1.545   0.755   6.828
 7081SOL    HW122142   1.622   0.699   6.858
 7081SOL    HW222143   1.578   0.846   6.802
 7082SOL     OW22144   6.656   3.890   2.373
 7082SOL    HW122145   6.564   3.927   2.391
 7082SOL    HW222146   6.715   3.910   2.452
 7083SOL     OW22147   6.573   2.508   2.421
 7083SOL    HW122148   6.570   2.602   2.388
 7083SOL    HW222149   6.575   2.445   2.343
 7084SOL     OW22150   0.903   5.985   0.076
 7084SOL    HW122151   0.869   6.079   0.068
 7084SOL    HW222152   1.003   5.987   0.080
 7085SOL     OW22153   0.385   2.969   2.510
 7085SOL    HW122154   0.323   3.048   2.517
 7085SOL    HW222155   0.478   3.002   2.500
 7086SOL     OW22156   5.669   0.785   6.123
 7086SOL    HW122157   5.647   0.846   6.046
 7086SOL    HW222158   5.665   0.836   6.208
 7087SOL     OW22159   5.613   2.979   3.125
 7087SOL    HW122160   5.530   3.028   3.149
 7087SOL    HW222161   5.662   2.953   3.208
 7088SOL     OW22162   5.673   1.574   5.398
 7088SOL    HW122163   5.762   1.547   5.435
 7088SOL    HW222164   5.601   1.542   5.460
 7089SOL     OW22165   3.895   5.605   1.704
 7089SOL    HW122166   3.889   5.564   1.795
 7089SOL    HW222167   3.971   5.564   1.655
 7090SOL     OW22168   3.818   1.597   1.136
 7090SOL    HW122169   3.736   1.546   1.160
 7090SOL    HW222170   3.867   1.622   1.220
 7091SOL     OW22171   0.695   6.620   0.314
 7091SOL    HW122172   0.785   6.634   0.272
 7091SOL    HW222173   0.634   6.694   0.288
 7092SOL     OW22174   4.509   2.479   6.674
 7092SOL    HW122175   4.435   2.432   6.626
 7092SOL    HW222176   4.520   2.571   6.636
 7093SOL     OW22177   3.215   3.921   0.551
 7093SOL    HW122178   3.283   3.848   0.560
 7093SOL    HW222179   3.261   4.006   0.524
 7094SOL     OW22180   2.242   6.747   5.636
 7094SOL    HW122181   2.292   6.717   5.717
 7094SOL    HW222182   2.215   6.843   5.646
 7095SOL     OW22183   2.942   4.440   5.715
 7095SOL    HW122184   3.034   4.448   5.676
 7095SOL    HW222185   2.874   4.457   5.644
 7096SOL     OW22186   7.017   0.704   0.875
 7096SOL    HW122187   6.977   0.664   0.958
 7096SOL    HW222188   6.991   0.800   0.868
 7097SOL     OW22189   5.694   0.268   1.831
 7097SOL    HW122190   5.630   0.211   1.779
 7097SOL    HW222191   5.645   0.347   1.868
 7098SOL     OW22192   0.694   6.719   4.474
 7098SOL    HW122193   0.652   6.810   4.468
 7098SOL    HW222194   0.691   6.675   4.384
 7099SOL     OW22195   3.053   2.137   3.956
 7099SOL    HW122196   2.967   2.178   3.985
 7099SOL    HW222197   3.062   2.144   3.856
 7100SOL     OW22198   0.019   3.647   0.890
 7100SOL    HW122199   0.013   3.686   0.799
 7100SOL    HW222200   0.111   3.663   0.927
 7101SOL     OW22201   1.882   6.595   5.392
 7101SOL    HW122202   1.814   6.532   5.429
 7101SOL    HW222203   1.964   6.545   5.367
 7102SOL     OW22204   5.259   0.732   0.539
 7102SOL    HW122205   5.277   0.679   0.621
 7102SOL    HW222206   5.327   0.806   0.532
 7103SOL     OW22207   5.078   5.280   2.823
 7103SOL    HW122208   5.000   5.343   2.818
 7103SOL    HW222209   5.046   5.187   2.803
 7104SOL     OW22210   5.096   2.843   3.654
 7104SOL    HW122211   5.128   2.929   3.694
 7104SOL    HW222212   5.003   2.856   3.618
 7105SOL     OW22213   3.131   4.015   3.827
 7105SOL    HW122214   3.226   3.985   3.812
 7105SOL    HW222215   3.101   3.986   3.918
 7106SOL     OW22216   3.622   3.096   1.421
 7106SOL    HW122217   3.527   3.071   1.407
 7106SOL    HW222218   3.628   3.170   1.488
 7107SOL     OW22219   3.987   0.527   6.846
 7107SOL    HW122220   3.944   0.444   6.812
 7107SOL    HW222221   4.084   0.510   6.864
 7108SOL     OW22222   3.231   6.753   2.633
 7108SOL    HW122223   3.261   6.733   2.540
 7108SOL    HW222224   3.224   6.668   2.685
 7109SOL     OW22225   2.003   6.930   5.916
 7109SOL    HW122226   1.978   0.002   5.930
 7109SOL    HW222227   2.015   6.913   5.818
 7110SOL     OW22228   3.152   6.304   4.793
 7110SOL    HW122229   3.111   6.336   4.878
 7110SOL    HW222230   3.139   6.205   4.785
 7111SOL     OW22231   0.683   0.517   3.684
 7111SOL    HW122232   0.657   0.568   3.602
 7111SOL    HW222233   0.745   0.574   3.739
 7112SOL     OW22234   2.146   4.863   4.472
 7112SOL    HW122235   2.143   4.821   4.382
 7112SOL    HW222236   2.132   4.792   4.542
 7113SOL     OW22237   3.271   4.851   5.111
 7113SOL    HW122238   3.283   4.793   5.192
 7113SOL    HW222239   3.173   4.857   5.089
 7114SOL     OW22240   4.773   4.975   0.677
 7114SOL    HW122241   4.762   4.982   0.578
 7114SOL    HW222242   4.711   5.039   0.722
 7115SOL     OW22243   6.597   4.487   6.780
 7115SOL    HW122244   6.635   4.580   6.776
 7115SOL    HW222245   6.657   4.425   6.730
 7116SOL     OW22246   6.993   3.557   4.061
 7116SOL    HW122247   7.012   3.531   3.967
 7116SOL    HW222248   7.013   3.655   4.073
 7117SOL     OW22249   6.230   6.981   3.486
 7117SOL    HW122250   6.297   6.919   3.444
 7117SOL    HW222251   6.274   0.046   3.506
 7118SOL     OW22252   4.173   4.441   5.608
 7118SOL    HW122253   4.133   4.532   5.622
 7118SOL    HW222254   4.190   4.427   5.511
 7119SOL     OW22255   4.680   0.176   4.852
 7119SOL    HW122256   4.755   0.198   4.915
 7119SOL    HW222257   4.655   0.257   4.799
 7120SOL     OW22258   4.877   1.464   0.990
 7120SOL    HW122259   4.851   1.478   0.894
 7120SOL    HW222260   4.896   1.552   1.033
 7121SOL     OW22261   0.651   6.541   3.811
 7121SOL    HW122262   0.576   6.584   3.761
 7121SOL    HW222263   0.712   6.612   3.847
 7122SOL     OW22264   2.906   6.832   5.987
 7122SOL    HW122265   2.852   6.916   5.989
 7122SOL    HW222266   2.932   6.811   5.893
 7123SOL     OW22267   5.669   5.427   5.430
 7123SOL    HW122268   5.660   5.422   5.529
 7123SOL    HW222269   5.679   5.334   5.393
 7124SOL     OW22270   0.659   2.183   1.452
 7124SOL    HW122271   0.710   2.107   1.411
 7124SOL    HW222272   0.623   2.242   1.380
 7125SOL     OW22273   0.800   0.192   1.484
 7125SOL    HW122274   0.866   0.150   1.545
 7125SOL    HW222275   0.707   0.161   1.507
 7126SOL     OW22276   4.300   6.266   1.604
 7126SOL    HW122277   4.241   6.343   1.627
 7126SOL    HW222278   4.367   6.252   1.677
 7127SOL     OW22279   3.258   6.369   5.358
 7127SOL    HW122280   3.213   6.360   5.446
 7127SOL    HW222281   3.209   6.317   5.289
 7128SOL     OW22282   3.780   4.208   6.284
 7128SOL    HW122283   3.787   4.151   6.202
 7128SOL    HW222284   3.754   4.301   6.257
 7129SOL     OW22285   0.236   0.190   1.002
 7129SOL    HW122286   0.336   0.198   1.001
 7129SOL    HW222287   0.205   0.148   0.916
 7130SOL     OW22288   3.162   6.164   4.140
 7130SOL    HW122289   3.193   6.257   4.119
 7130SOL    HW222290   3.084   6.141   4.082
 7131SOL     OW22291   4.052   1.049   2.036
 7131SOL    HW122292   4.127   1.008   2.089
 7131SOL    HW222293   3.965   1.030   2.080
 7132SOL     OW22294   5.189   3.803   0.212
 7132SOL    HW122295   5.113   3.842   0.159
 7132SOL    HW222296   5.255   3.874   0.234
 7133SOL     OW22297   3.485   5.888   3.382
 7133SOL    HW122298   3.485   5.911   3.480
 7133SOL    HW222299   3.462   5.792   3.370
 7134SOL     OW22300   5.569   5.320   1.507
 7134SOL    HW122301   5.557   5.279   1.597
 7134SOL    HW222302   5.660   5.296   1.471
 7135SOL     OW22303   2.173   3.049   1.739
 7135SOL    HW122304   2.089   3.021   1.693
 7135SOL    HW222305   2.154   3.127   1.799
 7136SOL     OW22306   3.135   1.522   1.643
 7136SOL    HW122307   3.107   1.452   1.710
 7136SOL    HW222308   3.162   1.605   1.691
 7137SOL     OW22309   2.664   1.988   1.823
 7137SOL    HW122310   2.717   2.035   1.752
 7137SOL    HW222311   2.653   2.048   1.901
 7138SOL     OW22312   1.637   1.750   0.596
 7138SOL    HW122313   1.629   1.671   0.658
 7138SOL    HW222314   1.585   1.827   0.634
 7139SOL     OW22315   6.316   5.851   1.564
 7139SOL    HW122316   6.404   5.803   1.560
 7139SOL    HW222317   6.247   5.798   1.516
 7140SOL     OW22318   6.673   3.153   0.358
 7140SOL    HW122319   6.619   3.234   0.336
 7140SOL    HW222320   6.612   3.075   0.375
 7141SOL     OW22321   4.236   6.851   1.279
 7141SOL    HW122322   4.174   6.927   1.300
 7141SOL    HW222323   4.198   6.766   1.316
 7142SOL     OW22324   3.304   0.293   5.039
 7142SOL    HW122325   3.262   0.305   5.129
 7142SOL    HW222326   3.296   0.379   4.988
 7143SOL     OW22327   2.523   4.825   6.587
 7143SOL    HW122328   2.584   4.777   6.650
 7143SOL    HW222329   2.570   4.840   6.500
 7144SOL     OW22330   6.519   0.854   4.248
 7144SOL    HW122331   6.525   0.849   4.347
 7144SOL    HW222332   6.508   0.949   4.220
 7145SOL     OW22333   4.876   2.202   0.166
 7145SOL    HW122334   4.784   2.222   0.133
 7145SOL    HW222335   4.910   2.277   0.222
 7146SOL     OW22336   2.413   1.052   5.213
 7146SOL    HW122337   2.329   1.086   5.256
 7146SOL    HW222338   2.431   1.106   5.130
 7147SOL     OW22339   5.883   5.064   2.029
 7147SOL    HW122340   5.783   5.052   2.034
 7147SOL    HW222341   5.926   5.013   2.103
 7148SOL     OW22342   6.603   6.310   0.981
 7148SOL    HW122343   6.583   6.236   1.046
 7148SOL    HW222344   6.695   6.345   0.997
 7149SOL     OW22345   6.735   5.086   3.932
 7149SOL    HW122346   6.637   5.097   3.914
 7149SOL    HW222347   6.754   5.101   4.029
 7150SOL     OW22348   3.748   3.516   0.102
 7150SOL    HW122349   3.832   3.569   0.114
 7150SOL    HW222350   3.699   3.511   0.189
 7151SOL     OW22351   3.612   0.656   0.863
 7151SOL    HW122352   3.607   0.754   0.882
 7151SOL    HW222353   3.628   0.641   0.766
 7152SOL     OW22354   0.355   1.694   6.540
 7152SOL    HW122355   0.388   1.668   6.449
 7152SOL    HW222356   0.432   1.714   6.600
 7153SOL     OW22357   3.858   6.192   0.911
 7153SOL    HW122358   3.893   6.280   0.941
 7153SOL    HW222359   3.918   6.119   0.944
 7154SOL     OW22360   3.961   1.435   1.953
 7154SOL    HW122361   4.026   1.392   2.016
 7154SOL    HW222362   4.010   1.486   1.883
 7155SOL     OW22363   2.916   1.903   2.616
 7155SOL    HW122364   2.834   1.904   2.558
 7155SOL    HW222365   2.993   1.865   2.563
 7156SOL     OW22366   6.047   3.841   0.188
 7156SOL    HW122367   6.093   3.930   0.193
 7156SOL    HW222368   6.107   3.775   0.142
 7157SOL     OW22369   6.024   4.481   6.455
 7157SOL    HW122370   5.963   4.515   6.383
 7157SOL    HW222371   6.108   4.536   6.456
 7158SOL     OW22372   4.991   6.834   3.781
 7158SOL    HW122373   5.001   6.887   3.697
 7158SOL    HW222374   5.082   6.811   3.816
 7159SOL     OW22375   0.724   5.965   3.522
 7159SOL    HW122376   0.643   5.994   3.470
 7159SOL    HW222377   0.697   5.945   3.616
 7160SOL     OW22378   5.795   6.623   2.893
 7160SOL    HW122379   5.697   6.641   2.903
 7160SOL    HW222380   5.832   6.590   2.980
 7161SOL     OW22381   4.141   3.521   3.606
 7161SOL    HW122382   4.045   3.534   3.629
 7161SOL    HW222383   4.197   3.584   3.659
 7162SOL     OW22384   0.187   5.114   2.024
 7162SOL    HW122385   0.162   5.088   2.118
 7162SOL    HW222386   0.179   5.213   2.013
 7163SOL     OW22387   1.497   1.096   1.999
 7163SOL    HW122388   1.569   1.056   1.943
 7163SOL    HW222389   1.537   1.133   2.083
 7164SOL     OW22390   1.830   1.107   6.160
 7164SOL    HW122391   1.850   1.040   6.088
 7164SOL    HW222392   1.830   1.199   6.121
 7165SOL     OW22393   6.723   0.723   0.262
 7165SOL    HW122394   6.735   0.813   0.303
 7165SOL    HW222395   6.683   0.660   0.329
 7166SOL     OW22396   5.376   6.633   5.979
 7166SOL    HW122397   5.431   6.715   5.995
 7166SOL    HW222398   5.425   6.572   5.917
 7167SOL     OW22399   5.919   2.164   5.011
 7167SOL    HW122400   5.822   2.167   4.987
 7167SOL    HW222401   5.932   2.201   5.103
 7168SOL     OW22402   2.808   1.251   2.137
 7168SOL    HW122403   2.743   1.276   2.065
 7168SOL    HW222404   2.901   1.255   2.100
 7169SOL     OW22405   1.877   4.438   6.405
 7169SOL    HW122406   1.914   4.516   6.355
 7169SOL    HW222407   1.941   4.410   6.477
 7170SOL     OW22408   4.257   1.309   1.580
 7170SOL    HW122409   4.326   1.314   1.652
 7170SOL    HW222410   4.299   1.334   1.492
 7171SOL     OW22411   5.949   4.759   0.610
 7171SOL    HW122412   5.883   4.792   0.543
 7171SOL    HW222413   5.946   4.818   0.691
 7172SOL     OW22414   1.163   1.255   3.998
 7172SOL    HW122415   1.223   1.313   3.944
 7172SOL    HW222416   1.077   1.303   4.016
 7173SOL     OW22417   4.970   6.184   6.570
 7173SOL    HW122418   4.971   6.212   6.667
 7173SOL    HW222419   5.051   6.130   6.551
 7174SOL     OW22420   5.917   4.392   1.709
 7174SOL    HW122421   6.013   4.370   1.727
 7174SOL    HW222422   5.905   4.412   1.612
 7175SOL     OW22423   5.984   3.675   5.941
 7175SOL    HW122424   6.018   3.600   5.998
 7175SOL    HW222425   6.039   3.680   5.857
 7176SOL     OW22426   0.216   1.126   4.940
 7176SOL    HW122427   0.273   1.208   4.941
 7176SOL    HW222428   0.264   1.054   4.889
 7177SOL     OW22429   1.713   5.157   4.538
 7177SOL    HW122430   1.779   5.089   4.571
 7177SOL    HW222431   1.626   5.111   4.517
 7178SOL     OW22432   1.341   1.256   5.378
 7178SOL    HW122433   1.422   1.235   5.324
 7178SOL    HW222434   1.288   1.172   5.392
 7179SOL     OW22435   3.796   6.016   6.651
 7179SOL    HW122436   3.850   5.946   6.603
 7179SOL    HW222437   3.758   5.977   6.734
 7180SOL     OW22438   0.994   4.656   1.348
 7180SOL    HW122439   1.044   4.569   1.355
 7180SOL    HW222440   1.029   4.708   1.270
 7181SOL     OW22441   2.637   1.322   5.789
 7181SOL    HW122442   2.719   1.353   5.837
 7181SOL    HW222443   2.636   1.360   5.697
 7182SOL     OW22444   1.215   3.226   4.136
 7182SOL    HW122445   1.251   3.275   4.056
 7182SOL    HW222446   1.246   3.271   4.219
 7183SOL     OW22447   0.516   6.355   1.684
 7183SOL    HW122448   0.539   6.420   1.757
 7183SOL    HW222449   0.596   6.340   1.626
 7184SOL     OW22450   6.423   0.150   3.261
 7184SOL    HW122451   6.447   0.067   3.312
 7184SOL    HW222452   6.384   0.124   3.172
 7185SOL     OW22453   4.800   0.755   4.907
 7185SOL    HW122454   4.760   0.712   4.826
 7185SOL    HW222455   4.730   0.766   4.977
 7186SOL     OW22456   0.106   0.085   6.352
 7186SOL    HW122457   0.084   0.120   6.443
 7186SOL    HW222458   0.134   0.162   6.294
 7187SOL     OW22459   3.011   3.322   4.933
 7187SOL    HW122460   3.003   3.369   4.844
 7187SOL    HW222461   3.078   3.249   4.926
 7188SOL     OW22462   4.377   4.940   0.015
 7188SOL    HW122463   4.419   4.962   6.950
 7188SOL    HW222464   4.285   4.980   0.018
 7189SOL     OW22465   6.108   2.445   5.274
 7189SOL    HW122466   6.046   2.367   5.267
 7189SOL    HW222467   6.059   2.522   5.317
 7190SOL     OW22468   5.731   5.100   1.148
 7190SOL    HW122469   5.651   5.133   1.199
 7190SOL    HW222470   5.702   5.075   1.055
 7191SOL     OW22471   0.437   4.056   3.218
 7191SOL    HW122472   0.453   3.958   3.229
 7191SOL    HW222473   0.432   4.078   3.121
 7192SOL     OW22474   1.755   4.750   6.492
 7192SOL    HW122475   1.685   4.681   6.475
 7192SOL    HW222476   1.783   4.746   6.588
 7193SOL     OW22477   2.101   2.538   2.304
 7193SOL    HW122478   2.076   2.476   2.379
 7193SOL    HW222479   2.190   2.512   2.268
 7194SOL     OW22480   3.278   2.541   5.961
 7194SOL    HW122481   3.201   2.591   5.921
 7194SOL    HW222482   3.272   2.545   6.061
 7195SOL     OW22483   0.100   3.657   6.604
 7195SOL    HW122484   0.065   3.713   6.529
 7195SOL    HW222485   0.190   3.621   6.580
 7196SOL     OW22486   3.037   3.661   2.365
 7196SOL    HW122487   3.036   3.747   2.416
 7196SOL    HW222488   3.098   3.670   2.286
 7197SOL     OW22489   1.878   3.744   5.608
 7197SOL    HW122490   1.849   3.668   5.551
 7197SOL    HW222491   1.952   3.794   5.563
 7198SOL     OW22492   6.392   1.226   1.101
 7198SOL    HW122493   6.400   1.322   1.074
 7198SOL    HW222494   6.479   1.180   1.084
 7199SOL     OW22495   1.166   0.678   2.088
 7199SOL    HW122496   1.217   0.710   2.008
 7199SOL    HW222497   1.069   0.673   2.065
 7200SOL     OW22498   1.547   1.985   0.720
 7200SOL    HW122499   1.600   2.037   0.788
 7200SOL    HW222500   1.465   1.949   0.763
 7201SOL     OW22501   5.869   5.870   4.228
 7201SOL    HW122502   5.954   5.877   4.280
 7201SOL    HW222503   5.871   5.934   4.151
 7202SOL     OW22504   4.719   0.444   5.597
 7202SOL    HW122505   4.807   0.408   5.567
 7202SOL    HW222506   4.733   0.534   5.639
 7203SOL     OW22507   0.367   1.878   2.007
 7203SOL    HW122508   0.325   1.862   2.096
 7203SOL    HW222509   0.465   1.861   2.012
 7204SOL     OW22510   0.043   1.041   1.347
 7204SOL    HW122511   7.017   1.008   1.427
 7204SOL    HW222512   0.078   0.963   1.295
 7205SOL     OW22513   2.107   2.370   5.090
 7205SOL    HW122514   2.094   2.339   5.185
 7205SOL    HW222515   2.124   2.290   5.032
 7206SOL     OW22516   1.801   2.146   1.193
 7206SOL    HW122517   1.851   2.219   1.149
 7206SOL    HW222518   1.787   2.168   1.290
 7207SOL     OW22519   1.847   1.800   4.120
 7207SOL    HW122520   1.937   1.840   4.136
 7207SOL    HW222521   1.780   1.872   4.106
 7208SOL     OW22522   3.335   0.918   4.475
 7208SOL    HW122523   3.373   0.905   4.384
 7208SOL    HW222524   3.356   0.838   4.531
 7209SOL     OW22525   2.972   1.850   2.250
 7209SOL    HW122526   2.974   1.936   2.199
 7209SOL    HW222527   2.882   1.807   2.241
 7210SOL     OW22528   2.424   1.652   3.145
 7210SOL    HW122529   2.354   1.584   3.121
 7210SOL    HW222530   2.513   1.621   3.111
 7211SOL     OW22531   3.167   5.885   5.910
 7211SOL    HW122532   3.078   5.845   5.931
 7211SOL    HW222533   3.233   5.813   5.890
 7212SOL     OW22534   5.707   4.666   5.886
 7212SOL    HW122535   5.788   4.671   5.944
 7212SOL    HW222536   5.681   4.758   5.855
 7213SOL     OW22537   3.402   1.340   0.575
 7213SOL    HW122538   3.408   1.251   0.618
 7213SOL    HW222539   3.397   1.411   0.645
 7214SOL     OW22540   0.427   1.404   6.561
 7214SOL    HW122541   0.369   1.345   6.505
 7214SOL    HW222542   0.522   1.397   6.530
 7215SOL     OW22543   6.922   2.772   3.123
 7215SOL    HW122544   6.843   2.724   3.162
 7215SOL    HW222545   6.911   2.870   3.136
 7216SOL     OW22546   2.883   6.293   3.125
 7216SOL    HW122547   2.783   6.286   3.122
 7216SOL    HW222548   2.916   6.327   3.037
 7217SOL     OW22549   1.441   4.461   3.595
 7217SOL    HW122550   1.390   4.545   3.612
 7217SOL    HW222551   1.418   4.393   3.665
 7218SOL     OW22552   6.101   3.595   4.892
 7218SOL    HW122553   6.118   3.548   4.805
 7218SOL    HW222554   6.007   3.578   4.920
 7219SOL     OW22555   3.390   6.078   2.078
 7219SOL    HW122556   3.309   6.051   2.026
 7219SOL    HW222557   3.378   6.056   2.174
 7220SOL     OW22558   6.549   4.531   4.290
 7220SOL    HW122559   6.648   4.523   4.277
 7220SOL    HW222560   6.502   4.508   4.205
 7221SOL     OW22561   3.488   5.917   5.067
 7221SOL    HW122562   3.495   5.903   5.166
 7221SOL    HW222563   3.416   5.859   5.030
 7222SOL     OW22564   6.831   6.844   3.629
 7222SOL    HW122565   6.853   6.761   3.681
 7222SOL    HW222566   6.735   6.841   3.601
 7223SOL     OW22567   1.745   2.258   0.755
 7223SOL    HW122568   1.819   2.314   0.717
 7223SOL    HW222569   1.693   2.313   0.820
 7224SOL     OW22570   4.114   2.002   3.612
 7224SOL    HW122571   4.023   2.001   3.570
 7224SOL    HW222572   4.152   1.910   3.611
 7225SOL     OW22573   1.751   6.828   1.139
 7225SOL    HW122574   1.709   6.857   1.053
 7225SOL    HW222575   1.825   6.764   1.120
 7226SOL     OW22576   6.400   0.632   6.868
 7226SOL    HW122577   6.309   0.653   6.905
 7226SOL    HW222578   6.467   0.632   6.943
 7227SOL     OW22579   2.912   0.853   2.020
 7227SOL    HW122580   2.813   0.862   2.035
 7227SOL    HW222581   2.961   0.900   2.094
 7228SOL     OW22582   0.726   2.435   2.291
 7228SOL    HW122583   0.740   2.437   2.192
 7228SOL    HW222584   0.665   2.360   2.314
 7229SOL     OW22585   6.642   6.990   4.395
 7229SOL    HW122586   6.578   6.967   4.321
 7229SOL    HW222587   6.591   7.011   4.478
 7230SOL     OW22588   2.621   4.930   4.371
 7230SOL    HW122589   2.543   4.869   4.385
 7230SOL    HW222590   2.627   4.995   4.446
 7231SOL     OW22591   4.461   1.392   6.947
 7231SOL    HW122592   4.422   1.327   6.882
 7231SOL    HW222593   4.509   1.343   7.019
 7232SOL     OW22594   5.463   0.293   2.732
 7232SOL    HW122595   5.384   0.273   2.790
 7232SOL    HW222596   5.543   0.310   2.790
 7233SOL     OW22597   6.532   0.953   5.378
 7233SOL    HW122598   6.506   0.862   5.410
 7233SOL    HW222599   6.485   0.974   5.293
 7234SOL     OW22600   4.884   3.827   3.466
 7234SOL    HW122601   4.896   3.730   3.445
 7234SOL    HW222602   4.861   3.838   3.562
 7235SOL     OW22603   6.792   5.718   1.609
 7235SOL    HW122604   6.705   5.668   1.607
 7235SOL    HW222605   6.843   5.699   1.525
 7236SOL     OW22606   2.294   2.316   3.248
 7236SOL    HW122607   2.299   2.217   3.232
 7236SOL    HW222608   2.386   2.352   3.260
 7237SOL     OW22609   5.187   0.569   6.603
 7237SOL    HW122610   5.210   0.476   6.573
 7237SOL    HW222611   5.156   0.623   6.525
 7238SOL     OW22612   4.610   2.726   6.756
 7238SOL    HW122613   4.707   2.718   6.775
 7238SOL    HW222614   4.557   2.703   6.838
 7239SOL     OW22615   0.329   3.855   2.728
 7239SOL    HW122616   0.404   3.907   2.769
 7239SOL    HW222617   0.249   3.914   2.720
 7240SOL     OW22618   6.941   1.899   6.003
 7240SOL    HW122619   6.925   1.825   5.938
 7240SOL    HW222620   0.016   1.912   6.016
 7241SOL     OW22621   2.585   0.932   1.544
 7241SOL    HW122622   2.623   0.993   1.475
 7241SOL    HW222623   2.656   0.869   1.576
 7242SOL     OW22624   0.631   5.499   4.059
 7242SOL    HW122625   0.715   5.536   4.099
 7242SOL    HW222626   0.619   5.405   4.089
 7243SOL     OW22627   6.599   4.049   6.540
 7243SOL    HW122628   6.686   4.006   6.563
 7243SOL    HW222629   6.525   3.985   6.559
 7244SOL     OW22630   0.172   6.338   0.036
 7244SOL    HW122631   0.105   6.270   0.008
 7244SOL    HW222632   0.191   6.400   6.983
 7245SOL     OW22633   1.620   2.836   6.836
 7245SOL    HW122634   1.655   2.856   6.745
 7245SOL    HW222635   1.605   2.737   6.844
 7246SOL     OW22636   3.001   0.606   4.377
 7246SOL    HW122637   3.022   0.645   4.467
 7246SOL    HW222638   3.019   0.674   4.306
 7247SOL     OW22639   2.818   2.561   5.524
 7247SOL    HW122640   2.889   2.569   5.454
 7247SOL    HW222641   2.853   2.509   5.602
 7248SOL     OW22642   3.456   0.678   4.603
 7248SOL    HW122643   3.411   0.616   4.539
 7248SOL    HW222644   3.552   0.688   4.578
 7249SOL     OW22645   4.170   5.010   2.060
 7249SOL    HW122646   4.229   5.027   2.139
 7249SOL    HW222647   4.076   4.993   2.092
 7250SOL     OW22648   5.453   5.026   5.310
 7250SOL    HW122649   5.413   4.939   5.280
 7250SOL    HW222650   5.489   5.076   5.232
 7251SOL     OW22651   0.503   6.493   5.482
 7251SOL    HW122652   0.498   6.565   5.552
 7251SOL    HW222653   0.411   6.460   5.462
 7252SOL     OW22654   3.075   3.916   2.463
 7252SOL    HW122655   3.089   3.951   2.370
 7252SOL    HW222656   3.128   3.971   2.528
 7253SOL     OW22657   1.565   5.888   5.700
 7253SOL    HW122658   1.567   5.788   5.698
 7253SOL    HW222659   1.544   5.923   5.609
 7254SOL     OW22660   5.705   4.387   3.497
 7254SOL    HW122661   5.690   4.290   3.515
 7254SOL    HW222662   5.796   4.400   3.458
 7255SOL     OW22663   4.881   3.592   6.542
 7255SOL    HW122664   4.976   3.591   6.576
 7255SOL    HW222665   4.856   3.500   6.513
 7256SOL     OW22666   3.376   6.661   5.884
 7256SOL    HW122667   3.343   6.657   5.790
 7256SOL    HW222668   3.323   6.729   5.934
 7257SOL     OW22669   0.050   1.804   4.594
 7257SOL    HW122670   0.045   1.705   4.607
 7257SOL    HW222671   0.121   1.842   4.653
 7258SOL     OW22672   6.055   2.520   2.050
 7258SOL    HW122673   6.023   2.573   1.972
 7258SOL    HW222674   6.063   2.424   2.023
 7259SOL     OW22675   1.254   4.073   3.307
 7259SOL    HW122676   1.260   3.976   3.327
 7259SOL    HW222677   1.343   4.107   3.276
 7260SOL     OW22678   5.597   2.286   0.935
 7260SOL    HW122679   5.510   2.284   0.886
 7260SOL    HW222680   5.585   2.332   1.023
 7261SOL     OW22681   0.269   4.112   0.569
 7261SOL    HW122682   0.217   4.193   0.593
 7261SOL    HW222683   0.278   4.053   0.649
 7262SOL     OW22684   5.262   1.831   5.942
 7262SOL    HW122685   5.165   1.836   5.965
 7262SOL    HW222686   5.318   1.846   6.024
 7263SOL     OW22687   0.044   6.440   0.375
 7263SOL    HW122688   0.087   6.363   0.421
 7263SOL    HW222689   0.071   6.525   0.421
 7264SOL     OW22690   5.635   1.543   0.369
 7264SOL    HW122691   5.576   1.552   0.288
 7264SOL    HW222692   5.714   1.485   0.346
 7265SOL     OW22693   5.175   5.943   4.560
 7265SOL    HW122694   5.202   6.036   4.533
 7265SOL    HW222695   5.256   5.884   4.561
 7266SOL     OW22696   6.737   0.972   3.793
 7266SOL    HW122697   6.758   1.069   3.778
 7266SOL    HW222698   6.691   0.960   3.881
 7267SOL     OW22699   6.612   5.688   5.092
 7267SOL    HW122700   6.678   5.740   5.038
 7267SOL    HW222701   6.531   5.670   5.036
 7268SOL     OW22702   6.383   5.755   4.210
 7268SOL    HW122703   6.426   5.691   4.147
 7268SOL    HW222704   6.341   5.830   4.158
 7269SOL     OW22705   1.845   4.901   5.519
 7269SOL    HW122706   1.768   4.837   5.525
 7269SOL    HW222707   1.912   4.867   5.453
 7270SOL     OW22708   0.384   1.990   4.293
 7270SOL    HW122709   0.408   2.082   4.264
 7270SOL    HW222710   0.289   1.971   4.269
 7271SOL     OW22711   1.419   5.133   4.084
 7271SOL    HW122712   1.503   5.083   4.104
 7271SOL    HW222713   1.428   5.180   3.997
 7272SOL     OW22714   6.241   6.349   2.127
 7272SOL    HW122715   6.207   6.259   2.154
 7272SOL    HW222716   6.281   6.344   2.036
 7273SOL     OW22717   5.594   2.635   6.180
 7273SOL    HW122718   5.540   2.708   6.221
 7273SOL    HW222719   5.585   2.638   6.081
 7274SOL     OW22720   0.838   4.466   6.491
 7274SOL    HW122721   0.777   4.432   6.562
 7274SOL    HW222722   0.830   4.409   6.410
 7275SOL     OW22723   6.897   6.647   2.790
 7275SOL    HW122724   6.886   6.716   2.718
 7275SOL    HW222725   6.809   6.633   2.836
 7276SOL     OW22726   5.559   7.002   3.523
 7276SOL    HW122727   5.492   0.052   3.511
 7276SOL    HW222728   5.649   0.012   3.495
 7277SOL     OW22729   4.580   0.832   5.919
 7277SOL    HW122730   4.557   0.929   5.933
 7277SOL    HW222731   4.508   0.775   5.958
 7278SOL     OW22732   3.041   3.944   1.946
 7278SOL    HW122733   3.016   4.027   1.897
 7278SOL    HW222734   2.991   3.940   2.033
 7279SOL     OW22735   4.269   5.955   0.180
 7279SOL    HW122736   4.362   5.947   0.146
 7279SOL    HW222737   4.260   6.040   0.233
 7280SOL     OW22738   5.409   6.875   4.969
 7280SOL    HW122739   5.486   6.849   4.911
 7280SOL    HW222740   5.349   6.795   4.983
 7281SOL     OW22741   3.290   1.679   6.657
 7281SOL    HW122742   3.356   1.604   6.665
 7281SOL    HW222743   3.197   1.643   6.664
 7282SOL     OW22744   5.633   4.708   2.488
 7282SOL    HW122745   5.668   4.715   2.582
 7282SOL    HW222746   5.708   4.682   2.427
 7283SOL     OW22747   2.295   1.419   3.060
 7283SOL    HW122748   2.328   1.342   3.005
 7283SOL    HW222749   2.239   1.385   3.136
 7284SOL     OW22750   0.384   4.014   5.423
 7284SOL    HW122751   0.452   4.064   5.476
 7284SOL    HW222752   0.359   4.067   5.343
 7285SOL     OW22753   5.094   4.896   2.473
 7285SOL    HW122754   5.131   4.811   2.436
 7285SOL    HW222755   5.000   4.908   2.443
 7286SOL     OW22756   2.244   2.129   1.201
 7286SOL    HW122757   2.205   2.055   1.257
 7286SOL    HW222758   2.280   2.092   1.116
 7287SOL     OW22759   0.654   1.619   6.631
 7287SOL    HW122760   0.640   1.520   6.630
 7287SOL    HW222761   0.735   1.642   6.577
 7288SOL     OW22762   4.003   1.002   6.360
 7288SOL    HW122763   3.912   1.004   6.318
 7288SOL    HW222764   4.052   1.087   6.339
 7289SOL     OW22765   5.844   1.665   3.434
 7289SOL    HW122766   5.875   1.716   3.514
 7289SOL    HW222767   5.920   1.657   3.369
 7290SOL     OW22768   2.994   5.609   5.680
 7290SOL    HW122769   3.089   5.575   5.682
 7290SOL    HW222770   2.938   5.546   5.626
 7291SOL     OW22771   2.405   0.184   1.681
 7291SOL    HW122772   2.384   0.269   1.729
 7291SOL    HW222773   2.326   0.122   1.687
 7292SOL     OW22774   2.460   7.006   3.763
 7292SOL    HW122775   2.372   0.031   3.763
 7292SOL    HW222776   2.488   6.988   3.669
 7293SOL     OW22777   1.921   1.558   5.036
 7293SOL    HW122778   1.946   1.654   5.025
 7293SOL    HW222779   1.998   1.508   5.075
 7294SOL     OW22780   2.654   5.053   0.340
 7294SOL    HW122781   2.565   5.018   0.311
 7294SOL    HW222782   2.694   4.992   0.408
 7295SOL     OW22783   0.712   1.950   0.690
 7295SOL    HW122784   0.807   1.944   0.658
 7295SOL    HW222785   0.697   2.039   0.733
 7296SOL     OW22786   2.976   4.750   1.124
 7296SOL    HW122787   2.971   4.843   1.086
 7296SOL    HW222788   2.958   4.683   1.052
 7297SOL     OW22789   4.033   5.912   0.529
 7297SOL    HW122790   4.130   5.905   0.506
 7297SOL    HW222791   4.024   5.917   0.629
 7298SOL     OW22792   5.393   4.135   5.366
 7298SOL    HW122793   5.446   4.051   5.356
 7298SOL    HW222794   5.411   4.176   5.455
 7299SOL     OW22795   0.649   2.228   6.677
 7299SOL    HW122796   0.743   2.255   6.657
 7299SOL    HW222797   0.631   2.242   6.775
 7300SOL     OW22798   5.485   5.560   1.660
 7300SOL    HW122799   5.531   5.560   1.749
 7300SOL    HW222800   5.509   5.477   1.611
 7301SOL     OW22801   6.663   0.811   5.171
 7301SOL    HW122802   6.630   0.863   5.251
 7301SOL    HW222803   6.631   0.856   5.087
 7302SOL     OW22804   0.371   1.454   0.321
 7302SOL    HW122805   0.441   1.473   0.252
 7302SOL    HW222806   0.298   1.399   0.280
 7303SOL     OW22807   4.844   0.553   6.633
 7303SOL    HW122808   4.919   0.574   6.696
 7303SOL    HW222809   4.833   0.454   6.627
 7304SOL     OW22810   3.642   4.199   6.785
 7304SOL    HW122811   3.563   4.220   6.843
 7304SOL    HW222812   3.634   4.250   6.699
 7305SOL     OW22813   4.993   1.690   0.617
 7305SOL    HW122814   4.925   1.641   0.672
 7305SOL    HW222815   4.980   1.788   0.629
 7306SOL     OW22816   5.097   3.605   1.851
 7306SOL    HW122817   4.998   3.610   1.835
 7306SOL    HW222818   5.139   3.550   1.780
 7307SOL     OW22819   2.973   6.532   1.553
 7307SOL    HW122820   2.888   6.582   1.568
 7307SOL    HW222821   3.002   6.544   1.458
 7308SOL     OW22822   6.963   3.928   5.641
 7308SOL    HW122823   0.018   3.870   5.666
 7308SOL    HW222824   6.880   3.892   5.684
 7309SOL     OW22825   5.289   6.081   0.358
 7309SOL    HW122826   5.372   6.032   0.330
 7309SOL    HW222827   5.314   6.171   0.394
 7310SOL     OW22828   2.206   4.274   1.197
 7310SOL    HW122829   2.241   4.359   1.158
 7310SOL    HW222830   2.152   4.226   1.127
 7311SOL     OW22831   3.157   1.845   2.456
 7311SOL    HW122832   3.105   1.819   2.375
 7311SOL    HW222833   3.209   1.928   2.438
 7312SOL     OW22834   0.144   2.763   5.752
 7312SOL    HW122835   0.228   2.792   5.707
 7312SOL    HW222836   0.166   2.707   5.832
 7313SOL     OW22837   4.744   2.741   6.247
 7313SOL    HW122838   4.733   2.691   6.333
 7313SOL    HW222839   4.656   2.747   6.200
 7314SOL     OW22840   6.854   3.902   5.031
 7314SOL    HW122841   6.798   3.951   5.098
 7314SOL    HW222842   6.794   3.864   4.960
 7315SOL     OW22843   6.094   0.579   3.332
 7315SOL    HW122844   6.138   0.525   3.261
 7315SOL    HW222845   6.164   0.619   3.392
 7316SOL     OW22846   3.129   3.446   5.932
 7316SOL    HW122847   3.066   3.417   5.860
 7316SOL    HW222848   3.108   3.396   6.016
 7317SOL     OW22849   4.720   0.789   1.685
 7317SOL    HW122850   4.774   0.858   1.636
 7317SOL    HW222851   4.757   0.699   1.666
 7318SOL     OW22852   0.784   1.328   0.990
 7318SOL    HW122853   0.693   1.313   1.028
 7318SOL    HW222854   0.846   1.358   1.062
 7319SOL     OW22855   6.339   4.419   6.715
 7319SOL    HW122856   6.360   4.322   6.706
 7319SOL    HW222857   6.416   4.466   6.758
 7320SOL     OW22858   6.709   3.721   2.057
 7320SOL    HW122859   6.701   3.691   1.962
 7320SOL    HW222860   6.793   3.773   2.070
 7321SOL     OW22861   2.646   0.188   5.296
 7321SOL    HW122862   2.645   0.094   5.332
 7321SOL    HW222863   2.737   0.209   5.262
 7322SOL     OW22864   1.025   3.143   2.561
 7322SOL    HW122865   0.940   3.102   2.529
 7322SOL    HW222866   1.101   3.080   2.542
 7323SOL     OW22867   2.021   2.197   1.922
 7323SOL    HW122868   1.995   2.218   2.017
 7323SOL    HW222869   1.973   2.115   1.892
 7324SOL     OW22870   5.305   6.854   2.705
 7324SOL    HW122871   5.231   6.906   2.747
 7324SOL    HW222872   5.330   6.778   2.765
 7325SOL     OW22873   3.982   0.634   6.096
 7325SOL    HW122874   3.977   0.538   6.121
 7325SOL    HW222875   3.942   0.648   6.005
 7326SOL     OW22876   2.104   6.444   5.379
 7326SOL    HW122877   2.160   6.452   5.462
 7326SOL    HW222878   2.164   6.440   5.299
 7327SOL     OW22879   6.787   3.103   5.396
 7327SOL    HW122880   6.762   3.014   5.436
 7327SOL    HW222881   6.884   3.120   5.412
 7328SOL     OW22882   3.700   0.218   6.661
 7328SOL    HW122883   3.784   0.177   6.626
 7328SOL    HW222884   3.632   0.146   6.676
 7329SOL     OW22885   4.079   3.861   1.283
 7329SOL    HW122886   4.160   3.898   1.329
 7329SOL    HW222887   4.082   3.761   1.284
 7330SOL     OW22888   2.761   2.143   0.283
 7330SOL    HW122889   2.676   2.167   0.236
 7330SOL    HW222890   2.743   2.069   0.348
 7331SOL     OW22891   5.694   0.461   1.390
 7331SOL    HW122892   5.746   0.439   1.307
 7331SOL    HW222893   5.757   0.487   1.463
 7332SOL     OW22894   2.951   5.527   0.497
 7332SOL    HW122895   2.925   5.433   0.516
 7332SOL    HW222896   2.899   5.562   0.419
 7333SOL     OW22897   0.279   3.677   3.732
 7333SOL    HW122898   0.315   3.717   3.648
 7333SOL    HW222899   0.331   3.594   3.755
 7334SOL     OW22900   4.489   6.049   6.566
 7334SOL    HW122901   4.443   6.084   6.485
 7334SOL    HW222902   4.504   6.123   6.632
 7335SOL     OW22903   1.764   2.799   2.264
 7335SOL    HW122904   1.794   2.890   2.292
 7335SOL    HW222905   1.779   2.734   2.339
 7336SOL     OW22906   1.435   6.150   3.188
 7336SOL    HW122907   1.460   6.096   3.268
 7336SOL    HW222908   1.369   6.100   3.133
 7337SOL     OW22909   0.816   3.145   2.330
 7337SOL    HW122910   0.838   3.062   2.380
 7337SOL    HW222911   0.723   3.173   2.351
 7338SOL     OW22912   6.404   2.406   1.409
 7338SOL    HW122913   6.400   2.474   1.482
 7338SOL    HW222914   6.437   2.319   1.445
 7339SOL     OW22915   5.325   6.254   3.732
 7339SOL    HW122916   5.304   6.194   3.656
 7339SOL    HW222917   5.277   6.221   3.814
 7340SOL     OW22918   1.971   0.540   0.361
 7340SOL    HW122919   2.064   0.576   0.361
 7340SOL    HW222920   1.973   0.441   0.343
 7341SOL     OW22921   6.710   2.144   0.035
 7341SOL    HW122922   6.765   2.061   0.048
 7341SOL    HW222923   6.649   2.156   0.113
 7342SOL     OW22924   6.436   0.400   2.459
 7342SOL    HW122925   6.339   0.404   2.435
 7342SOL    HW222926   6.446   0.402   2.558
 7343SOL     OW22927   4.239   2.882   0.124
 7343SOL    HW122928   4.224   2.913   0.031
 7343SOL    HW222929   4.152   2.871   0.171
 7344SOL     OW22930   1.358   0.008   5.879
 7344SOL    HW122931   1.442   6.981   5.900
 7344SOL    HW222932   1.374   0.066   5.798
 7345SOL     OW22933   3.677   3.235   5.501
 7345SOL    HW122934   3.741   3.309   5.518
 7345SOL    HW222935   3.618   3.258   5.423
 7346SOL     OW22936   4.115   6.670   2.690
 7346SOL    HW122937   4.067   6.597   2.738
 7346SOL    HW222938   4.056   6.751   2.686
 7347SOL     OW22939   0.258   1.991   6.911
 7347SOL    HW122940   0.351   1.998   6.875
 7347SOL    HW222941   0.220   2.083   6.926
 7348SOL     OW22942   1.726   3.638   3.930
 7348SOL    HW122943   1.680   3.727   3.926
 7348SOL    HW222944   1.669   3.569   3.886
 7349SOL     OW22945   4.715   0.376   1.079
 7349SOL    HW122946   4.680   0.300   1.023
 7349SOL    HW222947   4.788   0.342   1.139
 7350SOL     OW22948   2.704   0.691   5.395
 7350SOL    HW122949   2.642   0.770   5.402
 7350SOL    HW222950   2.786   0.708   5.450
 7351SOL     OW22951   5.332   5.063   4.088
 7351SOL    HW122952   5.337   5.156   4.051
 7351SOL    HW222953   5.237   5.035   4.096
 7352SOL     OW22954   1.007   1.925   3.235
 7352SOL    HW122955   1.086   1.955   3.182
 7352SOL    HW222956   0.932   1.902   3.173
 7353SOL     OW22957   6.930   0.544   6.589
 7353SOL    HW122958   6.953   0.582   6.500
 7353SOL    HW222959   6.875   0.461   6.577
 7354SOL     OW22960   1.690   0.409   4.238
 7354SOL    HW122961   1.738   0.339   4.290
 7354SOL    HW222962   1.597   0.379   4.219
 7355SOL     OW22963   6.828   2.053   6.391
 7355SOL    HW122964   6.883   1.970   6.380
 7355SOL    HW222965   6.800   2.062   6.487
 7356SOL     OW22966   3.822   3.862   6.306
 7356SOL    HW122967   3.816   3.895   6.212
 7356SOL    HW222968   3.743   3.894   6.358
 7357SOL     OW22969   3.832   5.805   2.017
 7357SOL    HW122970   3.778   5.881   1.981
 7357SOL    HW222971   3.919   5.839   2.053
 7358SOL     OW22972   5.823   2.579   2.174
 7358SOL    HW122973   5.770   2.623   2.101
 7358SOL    HW222974   5.920   2.584   2.152
 7359SOL     OW22975   4.456   2.072   6.097
 7359SOL    HW122976   4.441   2.049   6.001
 7359SOL    HW222977   4.378   2.125   6.131
 7360SOL     OW22978   2.309   3.438   5.250
 7360SOL    HW122979   2.320   3.343   5.278
 7360SOL    HW222980   2.370   3.496   5.303
 7361SOL     OW22981   5.259   0.657   2.450
 7361SOL    HW122982   5.166   0.688   2.473
 7361SOL    HW222983   5.317   0.736   2.433
 7362SOL     OW22984   3.981   5.247   5.912
 7362SOL    HW122985   4.067   5.283   5.875
 7362SOL    HW222986   3.939   5.315   5.972
 7363SOL     OW22987   4.104   1.102   1.513
 7363SOL    HW122988   4.148   1.181   1.557
 7363SOL    HW222989   4.050   1.052   1.580
 7364SOL     OW22990   4.306   0.116   1.783
 7364SOL    HW122991   4.280   0.182   1.712
 7364SOL    HW222992   4.229   0.102   1.845
 7365SOL     OW22993   6.309   5.915   2.476
 7365SOL    HW122994   6.254   5.975   2.418
 7365SOL    HW222995   6.406   5.928   2.454
 7366SOL     OW22996   2.272   0.441   4.538
 7366SOL    HW122997   2.177   0.452   4.508
 7366SOL    HW222998   2.283   0.350   4.579
 7367SOL     OW22999   4.491   2.183   0.560
 7367SOL    HW123000   4.463   2.279   0.564
 7367SOL    HW223001   4.471   2.139   0.647
 7368SOL     OW23002   3.562   3.203   2.516
 7368SOL    HW123003   3.600   3.215   2.608
 7368SOL    HW223004   3.493   3.273   2.499
 7369SOL     OW23005   3.773   2.385   1.242
 7369SOL    HW123006   3.778   2.442   1.324
 7369SOL    HW223007   3.742   2.441   1.165
 7370SOL     OW23008   2.436   2.288   5.191
 7370SOL    HW123009   2.480   2.363   5.241
 7370SOL    HW223010   2.506   2.231   5.149
 7371SOL     OW23011   3.198   6.651   4.028
 7371SOL    HW123012   3.228   6.559   4.055
 7371SOL    HW223013   3.249   6.719   4.081
 7372SOL     OW23014   3.839   6.634   4.720
 7372SOL    HW123015   3.790   6.551   4.691
 7372SOL    HW223016   3.852   6.630   4.819
 7373SOL     OW23017   4.712   2.028   4.723
 7373SOL    HW123018   4.668   1.943   4.753
 7373SOL    HW223019   4.649   2.104   4.734
 7374SOL     OW23020   1.415   1.730   5.345
 7374SOL    HW123021   1.369   1.815   5.372
 7374SOL    HW223022   1.350   1.654   5.347
 7375SOL     OW23023   2.250   2.988   2.296
 7375SOL    HW123024   2.220   2.900   2.259
 7375SOL    HW223025   2.324   3.024   2.240
 7376SOL     OW23026   1.244   3.596   1.146
 7376SOL    HW123027   1.188   3.603   1.063
 7376SOL    HW223028   1.327   3.544   1.124
 7377SOL     OW23029   3.462   5.239   0.219
 7377SOL    HW123030   3.470   5.313   0.286
 7377SOL    HW223031   3.515   5.160   0.250
 7378SOL     OW23032   1.566   6.527   4.119
 7378SOL    HW123033   1.529   6.523   4.026
 7378SOL    HW223034   1.618   6.612   4.130
 7379SOL     OW23035   3.503   0.197   1.339
 7379SOL    HW123036   3.503   0.255   1.421
 7379SOL    HW223037   3.546   0.246   1.263
 7380SOL     OW23038   6.477   4.303   3.600
 7380SOL    HW123039   6.459   4.300   3.698
 7380SOL    HW223040   6.456   4.214   3.559
 7381SOL     OW23041   4.155   2.423   0.984
 7381SOL    HW123042   4.079   2.359   0.969
 7381SOL    HW223043   4.221   2.413   0.910
 7382SOL     OW23044   6.295   1.927   5.795
 7382SOL    HW123045   6.286   1.876   5.709
 7382SOL    HW223046   6.382   1.903   5.839
 7383SOL     OW23047   1.479   6.205   2.088
 7383SOL    HW123048   1.451   6.300   2.102
 7383SOL    HW223049   1.442   6.172   2.001
 7384SOL     OW23050   6.819   6.605   1.224
 7384SOL    HW123051   6.792   6.683   1.167
 7384SOL    HW223052   6.915   6.614   1.250
 7385SOL     OW23053   3.343   4.934   2.389
 7385SOL    HW123054   3.427   4.903   2.344
 7385SOL    HW223055   3.357   4.938   2.488
 7386SOL     OW23056   6.907   3.321   6.795
 7386SOL    HW123057   6.819   3.313   6.842
 7386SOL    HW223058   6.891   3.342   6.699
 7387SOL     OW23059   5.899   4.615   5.579
 7387SOL    HW123060   5.959   4.694   5.591
 7387SOL    HW223061   5.937   4.537   5.629
 7388SOL     OW23062   1.250   5.828   2.639
 7388SOL    HW123063   1.340   5.864   2.663
 7388SOL    HW223064   1.181   5.870   2.698
 7389SOL     OW23065   6.837   3.113   0.101
 7389SOL    HW123066   6.785   3.110   0.186
 7389SOL    HW223067   6.839   3.021   0.061
 7390SOL     OW23068   2.966   2.251   2.583
 7390SOL    HW123069   3.037   2.228   2.516
 7390SOL    HW223070   2.974   2.191   2.662
 7391SOL     OW23071   4.071   3.610   2.374
 7391SOL    HW123072   4.128   3.634   2.453
 7391SOL    HW223073   4.026   3.522   2.391
 7392SOL     OW23074   4.286   6.539   6.624
 7392SOL    HW123075   4.332   6.453   6.600
 7392SOL    HW223076   4.354   6.612   6.631
 7393SOL     OW23077   6.299   4.645   3.612
 7393SOL    HW123078   6.252   4.733   3.613
 7393SOL    HW223079   6.254   4.582   3.676
 7394SOL     OW23080   2.269   2.643   6.334
 7394SOL    HW123081   2.186   2.626   6.388
 7394SOL    HW223082   2.340   2.681   6.393
 7395SOL     OW23083   2.114   3.230   1.320
 7395SOL    HW123084   2.056   3.236   1.402
 7395SOL    HW223085   2.184   3.161   1.334
 7396SOL     OW23086   2.449   5.762   1.995
 7396SOL    HW123087   2.380   5.834   1.987
 7396SOL    HW223088   2.404   5.673   1.988
 7397SOL     OW23089   5.169   3.883   4.645
 7397SOL    HW123090   5.164   3.983   4.638
 7397SOL    HW223091   5.210   3.858   4.732
 7398SOL     OW23092   1.491   4.701   3.452
 7398SOL    HW123093   1.470   4.776   3.514
 7398SOL    HW223094   1.566   4.647   3.489
 7399SOL     OW23095   6.115   3.024   4.463
 7399SOL    HW123096   6.062   2.959   4.409
 7399SOL    HW223097   6.212   2.999   4.460
 7400SOL     OW23098   5.522   2.037   5.162
 7400SOL    HW123099   5.502   2.121   5.213
 7400SOL    HW223100   5.585   1.980   5.215
 7401SOL     OW23101   1.452   3.233   2.973
 7401SOL    HW123102   1.501   3.173   2.910
 7401SOL    HW223103   1.368   3.189   3.003
 7402SOL     OW23104   2.647   5.524   5.382
 7402SOL    HW123105   2.646   5.508   5.284
 7402SOL    HW223106   2.593   5.606   5.403
 7403SOL     OW23107   2.230   3.061   3.372
 7403SOL    HW123108   2.311   3.119   3.368
 7403SOL    HW223109   2.256   2.966   3.353
 7404SOL     OW23110   3.322   4.035   1.578
 7404SOL    HW123111   3.416   4.008   1.596
 7404SOL    HW223112   3.289   4.095   1.651
 7405SOL     OW23113   3.020   5.507   5.229
 7405SOL    HW123114   2.971   5.442   5.170
 7405SOL    HW223115   3.002   5.600   5.198
 7406SOL     OW23116   0.470   1.545   5.150
 7406SOL    HW123117   0.545   1.535   5.085
 7406SOL    HW223118   0.458   1.460   5.200
 7407SOL     OW23119   0.539   6.304   6.583
 7407SOL    HW123120   0.465   6.244   6.552
 7407SOL    HW223121   0.501   6.373   6.644
 7408SOL     OW23122   3.319   4.175   5.308
 7408SOL    HW123123   3.314   4.268   5.343
 7408SOL    HW223124   3.397   4.166   5.247
 7409SOL     OW23125   5.630   4.244   6.993
 7409SOL    HW123126   5.648   4.248   0.068
 7409SOL    HW223127   5.680   4.317   6.947
 7410SOL     OW23128   0.053   0.395   0.945
 7410SOL    HW123129   0.057   0.353   0.855
 7410SOL    HW223130   0.102   0.338   1.011
 7411SOL     OW23131   0.953   2.078   5.952
 7411SOL    HW123132   0.876   2.052   5.894
 7411SOL    HW223133   0.929   2.158   6.007
 7412SOL     OW23134   3.699   6.898   0.234
 7412SOL    HW123135   3.681   6.968   0.165
 7412SOL    HW223136   3.788   6.915   0.277
 7413SOL     OW23137   4.609   5.028   3.462
 7413SOL    HW123138   4.620   5.114   3.411
 7413SOL    HW223139   4.618   4.951   3.399
 7414SOL     OW23140   2.282   1.808   4.104
 7414SOL    HW123141   2.331   1.763   4.179
 7414SOL    HW223142   2.334   1.796   4.019
 7415SOL     OW23143   3.722   6.788   6.263
 7415SOL    HW123144   3.656   6.727   6.218
 7415SOL    HW223145   3.799   6.804   6.201
 7416SOL     OW23146   0.901   1.289   2.423
 7416SOL    HW123147   0.901   1.231   2.504
 7416SOL    HW223148   0.974   1.357   2.431
 7417SOL     OW23149   1.253   2.931   3.619
 7417SOL    HW123150   1.338   2.915   3.569
 7417SOL    HW223151   1.265   2.906   3.715
 7418SOL     OW23152   1.886   4.675   6.263
 7418SOL    HW123153   1.820   4.683   6.337
 7418SOL    HW223154   1.978   4.697   6.297
 7419SOL     OW23155   6.182   3.904   3.716
 7419SOL    HW123156   6.152   3.909   3.621
 7419SOL    HW223157   6.232   3.819   3.732
 7420SOL     OW23158   6.974   6.276   2.215
 7420SOL    HW123159   6.895   6.288   2.155
 7420SOL    HW223160   6.947   6.297   2.309
 7421SOL     OW23161   4.574   3.459   1.660
 7421SOL    HW123162   4.515   3.384   1.688
 7421SOL    HW223163   4.524   3.520   1.599
 7422SOL     OW23164   5.897   2.901   2.068
 7422SOL    HW123165   5.914   2.984   2.015
 7422SOL    HW223166   5.841   2.838   2.016
 7423SOL     OW23167   5.885   1.943   5.834
 7423SOL    HW123168   5.802   1.986   5.870
 7423SOL    HW223169   5.871   1.919   5.738
 7424SOL     OW23170   6.963   1.155   5.427
 7424SOL    HW123171   6.945   1.208   5.344
 7424SOL    HW223172   6.965   1.057   5.404
 7425SOL     OW23173   5.296   0.313   0.243
 7425SOL    HW123174   5.368   0.371   0.280
 7425SOL    HW223175   5.211   0.329   0.293
 7426SOL     OW23176   3.774   2.659   6.257
 7426SOL    HW123177   3.862   2.619   6.233
 7426SOL    HW223178   3.737   2.710   6.179
 7427SOL     OW23179   3.510   1.002   4.075
 7427SOL    HW123180   3.448   1.028   4.001
 7427SOL    HW223181   3.605   1.018   4.048
 7428SOL     OW23182   3.796   6.422   6.028
 7428SOL    HW123183   3.703   6.386   6.022
 7428SOL    HW223184   3.820   6.436   6.124
 7429SOL     OW23185   1.252   6.829   2.788
 7429SOL    HW123186   1.226   6.821   2.692
 7429SOL    HW223187   1.281   6.739   2.822
 7430SOL     OW23188   7.004   4.710   2.841
 7430SOL    HW123189   0.042   4.631   2.826
 7430SOL    HW223190   6.921   4.698   2.787
 7431SOL     OW23191   2.205   2.504   4.662
 7431SOL    HW123192   2.105   2.500   4.667
 7431SOL    HW223193   2.240   2.418   4.624
 7432SOL     OW23194   1.978   0.441   3.370
 7432SOL    HW123195   1.924   0.416   3.290
 7432SOL    HW223196   1.982   0.541   3.378
 7433SOL     OW23197   3.477   6.743   6.692
 7433SOL    HW123198   3.515   6.689   6.766
 7433SOL    HW223199   3.435   6.826   6.729
 7434SOL     OW23200   4.623   6.315   5.940
 7434SOL    HW123201   4.537   6.265   5.938
 7434SOL    HW223202   4.633   6.363   6.027
 7435SOL     OW23203   4.837   6.509   2.014
 7435SOL    HW123204   4.809   6.566   2.092
 7435SOL    HW223205   4.886   6.429   2.047
 7436SOL     OW23206   5.274   4.065   6.578
 7436SOL    HW123207   5.279   4.156   6.621
 7436SOL    HW223208   5.214   4.006   6.632
 7437SOL     OW23209   2.997   5.526   1.353
 7437SOL    HW123210   2.938   5.495   1.428
 7437SOL    HW223211   2.988   5.462   1.276
 7438SOL     OW23212   2.229   0.896   0.449
 7438SOL    HW123213   2.218   0.811   0.397
 7438SOL    HW223214   2.267   0.967   0.389
 7439SOL     OW23215   1.765   5.206   6.429
 7439SOL    HW123216   1.797   5.266   6.356
 7439SOL    HW223217   1.831   5.132   6.442
 7440SOL     OW23218   4.899   3.047   4.182
 7440SOL    HW123219   4.909   2.991   4.100
 7440SOL    HW223220   4.906   3.144   4.159
 7441SOL     OW23221   5.746   6.345   2.276
 7441SOL    HW123222   5.819   6.288   2.313
 7441SOL    HW223223   5.785   6.430   2.241
 7442SOL     OW23224   5.489   0.560   6.056
 7442SOL    HW123225   5.581   0.598   6.070
 7442SOL    HW223226   5.470   0.493   6.128
 7443SOL     OW23227   0.179   5.947   1.887
 7443SOL    HW123228   0.129   5.865   1.859
 7443SOL    HW223229   0.275   5.926   1.899
 7444SOL     OW23230   0.313   0.513   5.911
 7444SOL    HW123231   0.224   0.555   5.926
 7444SOL    HW223232   0.326   0.496   5.813
 7445SOL     OW23233   4.118   6.865   2.382
 7445SOL    HW123234   4.206   6.843   2.340
 7445SOL    HW223235   4.110   6.964   2.394
 7446SOL     OW23236   4.797   3.073   0.173
 7446SOL    HW123237   4.885   3.073   0.221
 7446SOL    HW223238   4.791   2.992   0.114
 7447SOL     OW23239   0.953   4.239   0.275
 7447SOL    HW123240   0.873   4.214   0.219
 7447SOL    HW223241   0.923   4.290   0.356
 7448SOL     OW23242   5.209   6.074   6.481
 7448SOL    HW123243   5.181   6.097   6.388
 7448SOL    HW223244   5.190   5.978   6.499
 7449SOL     OW23245   0.730   4.620   0.301
 7449SOL    HW123246   0.701   4.700   0.353
 7449SOL    HW223247   0.651   4.572   0.264
 7450SOL     OW23248   5.260   2.057   5.828
 7450SOL    HW123249   5.349   2.089   5.798
 7450SOL    HW223250   5.270   1.968   5.873
 7451SOL     OW23251   5.708   5.125   2.320
 7451SOL    HW123252   5.792   5.170   2.351
 7451SOL    HW223253   5.719   5.096   2.225
 7452SOL     OW23254   5.539   6.262   4.924
 7452SOL    HW123255   5.602   6.329   4.882
 7452SOL    HW223256   5.474   6.310   4.982
 7453SOL     OW23257   4.781   5.383   6.264
 7453SOL    HW123258   4.865   5.351   6.307
 7453SOL    HW223259   4.758   5.473   6.299
 7454SOL     OW23260   3.312   1.828   0.519
 7454SOL    HW123261   3.346   1.774   0.596
 7454SOL    HW223262   3.340   1.924   0.529
 7455SOL     OW23263   6.589   2.860   2.722
 7455SOL    HW123264   6.641   2.919   2.660
 7455SOL    HW223265   6.652   2.818   2.788
 7456SOL     OW23266   2.624   2.496   5.005
 7456SOL    HW123267   2.526   2.514   4.998
 7456SOL    HW223268   2.659   2.532   5.091
 7457SOL     OW23269   2.195   6.813   3.566
 7457SOL    HW123270   2.216   6.717   3.547
 7457SOL    HW223271   2.274   6.869   3.544
 7458SOL     OW23272   0.551   6.434   4.606
 7458SOL    HW123273   0.555   6.502   4.679
 7458SOL    HW223274   0.541   6.479   4.518
 7459SOL     OW23275   6.724   1.329   2.693
 7459SOL    HW123276   6.786   1.315   2.615
 7459SOL    HW223277   6.665   1.407   2.675
 7460SOL     OW23278   1.626   6.675   0.300
 7460SOL    HW123279   1.675   6.625   0.371
 7460SOL    HW223280   1.528   6.674   0.319
 7461SOL     OW23281   0.356   5.701   6.071
 7461SOL    HW123282   0.365   5.701   5.971
 7461SOL    HW223283   0.426   5.760   6.110
 7462SOL     OW23284   1.353   5.708   0.962
 7462SOL    HW123285   1.420   5.655   0.909
 7462SOL    HW223286   1.330   5.658   1.045
 7463SOL     OW23287   3.971   4.641   7.009
 7463SOL    HW123288   3.883   4.614   6.971
 7463SOL    HW223289   4.043   4.626   6.940
 7464SOL     OW23290   0.112   5.217   4.676
 7464SOL    HW123291   0.211   5.224   4.670
 7464SOL    HW223292   0.087   5.172   4.762
 7465SOL     OW23293   2.395   5.108   0.100
 7465SOL    HW123294   2.442   5.051   0.032
 7465SOL    HW223295   2.460   5.172   0.140
 7466SOL     OW23296   0.730   0.406   5.080
 7466SOL    HW123297   0.725   0.466   5.160
 7466SOL    HW223298   0.789   0.448   5.011
 7467SOL     OW23299   0.126   3.404   6.175
 7467SOL    HW123300   0.072   3.365   6.100
 7467SOL    HW223301   0.194   3.337   6.205
 7468SOL     OW23302   5.285   2.591   5.484
 7468SOL    HW123303   5.376   2.628   5.463
 7468SOL    HW223304   5.222   2.667   5.503
 7469SOL     OW23305   6.638   2.309   0.734
 7469SOL    HW123306   6.685   2.225   0.707
 7469SOL    HW223307   6.644   2.320   0.834
 7470SOL     OW23308   5.990   3.792   3.864
 7470SOL    HW123309   6.053   3.842   3.805
 7470SOL    HW223310   6.038   3.713   3.903
 7471SOL     OW23311   5.484   5.808   6.151
 7471SOL    HW123312   5.547   5.745   6.198
 7471SOL    HW223313   5.394   5.802   6.193
 7472SOL     OW23314   6.664   0.118   5.112
 7472SOL    HW123315   6.725   0.047   5.077
 7472SOL    HW223316   6.626   0.170   5.035
 7473SOL     OW23317   4.110   0.028   3.648
 7473SOL    HW123318   4.170   0.079   3.586
 7473SOL    HW223319   4.067   0.092   3.711
 7474SOL     OW23320   5.794   2.497   6.369
 7474SOL    HW123321   5.882   2.474   6.328
 7474SOL    HW223322   5.726   2.511   6.297
 7475SOL     OW23323   4.441   1.898   1.881
 7475SOL    HW123324   4.434   1.920   1.978
 7475SOL    HW223325   4.435   1.982   1.828
 7476SOL     OW23326   2.153   1.948   2.734
 7476SOL    HW123327   2.163   2.044   2.759
 7476SOL    HW223328   2.196   1.890   2.803
 7477SOL     OW23329   0.675   3.786   5.007
 7477SOL    HW123330   0.645   3.879   5.029
 7477SOL    HW223331   0.596   3.730   4.983
 7478SOL     OW23332   6.403   2.268   5.232
 7478SOL    HW123333   6.372   2.308   5.146
 7478SOL    HW223334   6.340   2.293   5.305
 7479SOL     OW23335   5.546   3.375   6.714
 7479SOL    HW123336   5.479   3.321   6.765
 7479SOL    HW223337   5.628   3.387   6.770
 7480SOL     OW23338   3.211   5.279   1.984
 7480SOL    HW123339   3.255   5.220   2.051
 7480SOL    HW223340   3.258   5.368   1.983
 7481SOL     OW23341   6.423   4.235   6.396
 7481SOL    HW123342   6.461   4.164   6.455
 7481SOL    HW223343   6.472   4.321   6.412
 7482SOL     OW23344   4.078   2.154   2.632
 7482SOL    HW123345   4.100   2.137   2.535
 7482SOL    HW223346   4.140   2.224   2.668
 7483SOL     OW23347   4.647   2.277   5.239
 7483SOL    HW123348   4.721   2.291   5.173
 7483SOL    HW223349   4.560   2.306   5.199
 7484SOL     OW23350   2.646   6.480   4.468
 7484SOL    HW123351   2.620   6.487   4.372
 7484SOL    HW223352   2.739   6.444   4.474
 7485SOL     OW23353   2.927   6.960   4.042
 7485SOL    HW123354   2.844   7.003   4.006
 7485SOL    HW223355   2.976   0.003   4.099
 7486SOL     OW23356   0.668   5.899   0.253
 7486SOL    HW123357   0.744   5.914   0.189
 7486SOL    HW223358   0.603   5.834   0.213
 7487SOL     OW23359   4.667   0.314   3.551
 7487SOL    HW123360   4.759   0.312   3.513
 7487SOL    HW223361   4.655   0.397   3.606
 7488SOL     OW23362   0.430   5.874   4.241
 7488SOL    HW123363   0.457   5.825   4.159
 7488SOL    HW223364   0.452   5.971   4.231
 7489SOL     OW23365   6.212   4.285   0.009
 7489SOL    HW123366   6.306   4.314   7.017
 7489SOL    HW223367   6.181   4.233   6.952
 7490SOL     OW23368   1.145   2.354   2.853
 7490SOL    HW123369   1.078   2.346   2.779
 7490SOL    HW223370   1.125   2.435   2.907
 7491SOL     OW23371   4.362   2.824   0.744
 7491SOL    HW123372   4.330   2.825   0.649
 7491SOL    HW223373   4.451   2.778   0.748
 7492SOL     OW23374   1.307   0.725   4.210
 7492SOL    HW123375   1.334   0.744   4.116
 7492SOL    HW223376   1.247   0.798   4.244
 7493SOL     OW23377   6.494   3.902   5.830
 7493SOL    HW123378   6.546   3.944   5.904
 7493SOL    HW223379   6.550   3.897   5.748
 7494SOL     OW23380   6.309   1.098   3.087
 7494SOL    HW123381   6.400   1.107   3.128
 7494SOL    HW223382   6.245   1.160   3.133
 7495SOL     OW23383   2.321   2.821   4.867
 7495SOL    HW123384   2.349   2.900   4.921
 7495SOL    HW223385   2.249   2.771   4.915
 7496SOL     OW23386   6.152   3.893   3.454
 7496SOL    HW123387   6.140   3.941   3.367
 7496SOL    HW223388   6.099   3.808   3.452
 7497SOL     OW23389   0.649   6.429   0.518
 7497SOL    HW123390   0.685   6.336   0.512
 7497SOL    HW223391   0.664   6.477   0.432
 7498SOL     OW23392   3.256   0.426   3.355
 7498SOL    HW123393   3.292   0.520   3.360
 7498SOL    HW223394   3.179   0.423   3.292
 7499SOL     OW23395   3.634   2.117   3.884
 7499SOL    HW123396   3.685   2.189   3.837
 7499SOL    HW223397   3.661   2.115   3.980
 7500SOL     OW23398   4.304   0.161   3.478
 7500SOL    HW123399   4.334   0.208   3.395
 7500SOL    HW223400   4.348   0.071   3.483
 7501SOL     OW23401   6.051   2.680   4.333
 7501SOL    HW123402   6.049   2.639   4.425
 7501SOL    HW223403   6.017   2.614   4.266
 7502SOL     OW23404   3.050   0.142   4.889
 7502SOL    HW123405   3.125   0.151   4.954
 7502SOL    HW223406   3.087   0.127   4.797
 7503SOL     OW23407   2.313   5.900   0.931
 7503SOL    HW123408   2.292   5.829   0.998
 7503SOL    HW223409   2.277   5.988   0.963
 7504SOL     OW23410   0.156   6.327   2.926
 7504SOL    HW123411   0.240   6.379   2.917
 7504SOL    HW223412   0.175   6.230   2.911
 7505SOL     OW23413   6.957   0.723   5.096
 7505SOL    HW123414   6.972   0.750   5.001
 7505SOL    HW223415   6.859   0.726   5.117
 7506SOL     OW23416   3.497   1.618   3.154
 7506SOL    HW123417   3.533   1.666   3.074
 7506SOL    HW223418   3.494   1.519   3.134
 7507SOL     OW23419   6.430   3.391   4.400
 7507SOL    HW123420   6.412   3.314   4.462
 7507SOL    HW223421   6.465   3.355   4.313
 7508SOL     OW23422   1.653   6.073   0.293
 7508SOL    HW123423   1.724   6.004   0.285
 7508SOL    HW223424   1.648   6.126   0.208
 7509SOL     OW23425   4.914   4.003   0.135
 7509SOL    HW123426   4.863   4.007   0.222
 7509SOL    HW223427   4.893   4.084   0.080
 7510SOL     OW23428   4.060   3.568   4.101
 7510SOL    HW123429   4.073   3.664   4.077
 7510SOL    HW223430   4.092   3.510   4.027
 7511SOL     OW23431   3.477   5.792   2.711
 7511SOL    HW123432   3.523   5.734   2.644
 7511SOL    HW223433   3.381   5.765   2.717
 7512SOL     OW23434   3.248   6.921   0.053
 7512SOL    HW123435   3.228   6.837   0.002
 7512SOL    HW223436   3.299   6.899   0.136
 7513SOL     OW23437   1.630   2.385   3.583
 7513SOL    HW123438   1.663   2.291   3.584
 7513SOL    HW223439   1.530   2.385   3.583
 7514SOL     OW23440   2.277   4.834   3.207
 7514SOL    HW123441   2.248   4.739   3.200
 7514SOL    HW223442   2.352   4.851   3.144
 7515SOL     OW23443   6.735   4.333   4.925
 7515SOL    HW123444   6.699   4.247   4.961
 7515SOL    HW223445   6.668   4.406   4.938
 7516SOL     OW23446   1.241   5.090   5.590
 7516SOL    HW123447   1.170   5.026   5.561
 7516SOL    HW223448   1.213   5.184   5.566
 7517SOL     OW23449   1.201   2.098   0.194
 7517SOL    HW123450   1.185   2.118   0.098
 7517SOL    HW223451   1.180   2.179   0.249
 7518SOL     OW23452   4.803   2.791   4.019
 7518SOL    HW123453   4.819   2.815   4.115
 7518SOL    HW223454   4.830   2.867   3.961
 7519SOL     OW23455   4.120   6.878   4.509
 7519SOL    HW123456   4.147   6.922   4.424
 7519SOL    HW223457   4.178   6.912   4.584
 7520SOL     OW23458   1.551   1.443   2.162
 7520SOL    HW123459   1.531   1.356   2.206
 7520SOL    HW223460   1.518   1.518   2.219
 7521SOL     OW23461   5.270   1.276   4.437
 7521SOL    HW123462   5.244   1.179   4.440
 7521SOL    HW223463   5.294   1.301   4.343
 7522SOL     OW23464   1.473   6.022   3.429
 7522SOL    HW123465   1.519   6.090   3.486
 7522SOL    HW223466   1.493   5.930   3.465
 7523SOL     OW23467   5.716   1.311   6.371
 7523SOL    HW123468   5.807   1.348   6.348
 7523SOL    HW223469   5.647   1.381   6.356
 7524SOL     OW23470   0.230   2.433   4.300
 7524SOL    HW123471   0.301   2.375   4.260
 7524SOL    HW223472   0.270   2.520   4.329
 7525SOL     OW23473   4.631   6.379   6.252
 7525SOL    HW123474   4.696   6.436   6.202
 7525SOL    HW223475   4.538   6.412   6.236
 7526SOL     OW23476   2.016   3.630   2.002
 7526SOL    HW123477   1.937   3.604   1.947
 7526SOL    HW223478   2.074   3.549   2.018
 7527SOL     OW23479   4.350   5.834   3.660
 7527SOL    HW123480   4.273   5.898   3.665
 7527SOL    HW223481   4.329   5.762   3.593
 7528SOL     OW23482   6.032   2.604   6.847
 7528SOL    HW123483   5.980   2.559   6.773
 7528SOL    HW223484   5.976   2.676   6.887
 7529SOL     OW23485   5.987   1.737   3.683
 7529SOL    HW123486   5.956   1.831   3.665
 7529SOL    HW223487   6.085   1.739   3.705
 7530SOL     OW23488   6.847   1.383   2.141
 7530SOL    HW123489   6.883   1.475   2.124
 7530SOL    HW223490   6.903   1.316   2.092
 7531SOL     OW23491   4.280   2.217   3.662
 7531SOL    HW123492   4.238   2.150   3.601
 7531SOL    HW223493   4.242   2.207   3.754
 7532SOL     OW23494   4.761   5.683   6.608
 7532SOL    HW123495   4.761   5.723   6.517
 7532SOL    HW223496   4.849   5.700   6.652
 7533SOL     OW23497   4.419   3.210   1.736
 7533SOL    HW123498   4.492   3.152   1.772
 7533SOL    HW223499   4.348   3.152   1.694
 7534SOL     OW23500   5.050   6.959   4.342
 7534SOL    HW123501   5.103   6.953   4.427
 7534SOL    HW223502   5.026   6.867   4.311
 7535SOL     OW23503   1.242   6.285   4.354
 7535SOL    HW123504   1.242   6.382   4.377
 7535SOL    HW223505   1.170   6.238   4.405
 7536SOL     OW23506   4.839   6.055   4.705
 7536SOL    HW123507   4.801   6.145   4.684
 7536SOL    HW223508   4.788   6.014   4.781
 7537SOL     OW23509   2.197   5.701   2.223
 7537SOL    HW123510   2.113   5.710   2.276
 7537SOL    HW223511   2.205   5.778   2.159
 7538SOL     OW23512   0.801   3.239   1.822
 7538SOL    HW123513   0.837   3.196   1.904
 7538SOL    HW223514   0.869   3.301   1.783
 7539SOL     OW23515   1.083   5.422   4.039
 7539SOL    HW123516   1.106   5.340   3.987
 7539SOL    HW223517   1.166   5.472   4.062
 7540SOL     OW23518   5.164   5.547   4.331
 7540SOL    HW123519   5.105   5.579   4.405
 7540SOL    HW223520   5.196   5.625   4.277
 7541SOL     OW23521   0.959   3.589   6.646
 7541SOL    HW123522   1.024   3.535   6.700
 7541SOL    HW223523   0.943   3.677   6.691
 7542SOL     OW23524   6.141   6.520   6.390
 7542SOL    HW123525   6.203   6.449   6.424
 7542SOL    HW223526   6.058   6.476   6.354
 7543SOL     OW23527   2.827   0.562   5.176
 7543SOL    HW123528   2.894   0.533   5.244
 7543SOL    HW223529   2.753   0.613   5.222
 7544SOL     OW23530   6.997   2.987   3.746
 7544SOL    HW123531   6.998   3.087   3.741
 7544SOL    HW223532   6.902   2.955   3.741
 7545SOL     OW23533   0.813   5.951   6.686
 7545SOL    HW123534   0.783   6.036   6.730
 7545SOL    HW223535   0.733   5.895   6.664
 7546SOL     OW23536   3.288   2.839   1.965
 7546SOL    HW123537   3.285   2.879   2.057
 7546SOL    HW223538   3.325   2.746   1.971
 7547SOL     OW23539   4.718   0.298   1.775
 7547SOL    HW123540   4.690   0.361   1.847
 7547SOL    HW223541   4.780   0.230   1.812
 7548SOL     OW23542   4.741   2.473   6.124
 7548SOL    HW123543   4.713   2.564   6.094
 7548SOL    HW223544   4.698   2.452   6.212
 7549SOL     OW23545   4.593   2.543   5.750
 7549SOL    HW123546   4.650   2.463   5.729
 7549SOL    HW223547   4.562   2.585   5.666
 7550SOL     OW23548   1.630   4.107   3.744
 7550SOL    HW123549   1.580   4.116   3.658
 7550SOL    HW223550   1.665   4.197   3.772
 7551SOL     OW23551   5.339   1.997   4.955
 7551SOL    HW123552   5.366   1.909   4.914
 7551SOL    HW223553   5.400   2.018   5.030
 7552SOL     OW23554   1.951   6.255   4.345
 7552SOL    HW123555   1.955   6.340   4.397
 7552SOL    HW223556   1.899   6.187   4.397
 7553SOL     OW23557   5.733   5.962   6.202
 7553SOL    HW123558   5.642   5.930   6.176
 7553SOL    HW223559   5.772   6.016   6.128
 7554SOL     OW23560   5.326   1.430   0.246
 7554SOL    HW123561   5.341   1.508   0.306
 7554SOL    HW223562   5.403   1.367   0.254
 7555SOL     OW23563   3.027   6.719   6.611
 7555SOL    HW123564   2.968   6.708   6.531
 7555SOL    HW223565   3.049   6.628   6.649
 7556SOL     OW23566   1.133   1.011   0.255
 7556SOL    HW123567   1.085   1.086   0.300
 7556SOL    HW223568   1.066   0.943   0.224
 7557SOL     OW23569   5.134   0.504   0.048
 7557SOL    HW123570   5.080   0.559   0.112
 7557SOL    HW223571   5.231   0.523   0.061
 7558SOL     OW23572   1.611   2.710   4.228
 7558SOL    HW123573   1.546   2.671   4.163
 7558SOL    HW223574   1.630   2.805   4.205
 7559SOL     OW23575   3.675   1.870   4.679
 7559SOL    HW123576   3.620   1.896   4.758
 7559SOL    HW223577   3.719   1.782   4.695
 7560SOL     OW23578   6.870   0.412   6.160
 7560SOL    HW123579   6.801   0.466   6.112
 7560SOL    HW223580   6.827   0.332   6.200
 7561SOL     OW23581   5.115   1.818   5.514
 7561SOL    HW123582   5.049   1.816   5.439
 7561SOL    HW223583   5.089   1.889   5.580
 7562SOL     OW23584   0.929   5.307   4.849
 7562SOL    HW123585   0.952   5.231   4.909
 7562SOL    HW223586   1.010   5.365   4.835
 7563SOL     OW23587   2.988   6.808   2.370
 7563SOL    HW123588   2.914   6.740   2.364
 7563SOL    HW223589   2.961   6.889   2.319
 7564SOL     OW23590   4.448   1.045   4.699
 7564SOL    HW123591   4.445   0.945   4.702
 7564SOL    HW223592   4.541   1.076   4.717
 7565SOL     OW23593   5.573   3.559   6.102
 7565SOL    HW123594   5.602   3.536   6.010
 7565SOL    HW223595   5.607   3.491   6.167
 7566SOL     OW23596   4.735   4.863   1.721
 7566SOL    HW123597   4.748   4.824   1.812
 7566SOL    HW223598   4.748   4.792   1.652
 7567SOL     OW23599   0.351   0.826   4.522
 7567SOL    HW123600   0.349   0.912   4.472
 7567SOL    HW223601   0.258   0.801   4.549
 7568SOL     OW23602   6.156   5.668   1.408
 7568SOL    HW123603   6.246   5.624   1.410
 7568SOL    HW223604   6.134   5.696   1.315
 7569SOL     OW23605   3.961   4.104   6.475
 7569SOL    HW123606   4.023   4.033   6.442
 7569SOL    HW223607   3.881   4.107   6.415
 7570SOL     OW23608   6.757   3.192   3.349
 7570SOL    HW123609   6.742   3.173   3.252
 7570SOL    HW223610   6.786   3.108   3.395
 7571SOL     OW23611   5.358   3.669   2.985
 7571SOL    HW123612   5.438   3.621   3.021
 7571SOL    HW223613   5.387   3.752   2.938
 7572SOL     OW23614   5.103   6.675   2.499
 7572SOL    HW123615   5.131   6.738   2.571
 7572SOL    HW223616   5.025   6.714   2.449
 7573SOL     OW23617   5.748   6.653   5.873
 7573SOL    HW123618   5.708   6.676   5.962
 7573SOL    HW223619   5.846   6.638   5.883
 7574SOL     OW23620   6.352   0.651   4.184
 7574SOL    HW123621   6.411   0.730   4.197
 7574SOL    HW223622   6.334   0.607   4.272
 7575SOL     OW23623   6.467   6.518   0.915
 7575SOL    HW123624   6.489   6.422   0.934
 7575SOL    HW223625   6.465   6.569   1.001
 7576SOL     OW23626   5.642   2.937   0.812
 7576SOL    HW123627   5.576   3.004   0.777
 7576SOL    HW223628   5.606   2.896   0.895
 7577SOL     OW23629   0.484   0.045   0.168
 7577SOL    HW123630   0.391   0.074   0.147
 7577SOL    HW223631   0.533   0.119   0.214
 7578SOL     OW23632   0.199   5.805   3.287
 7578SOL    HW123633   0.267   5.868   3.323
 7578SOL    HW223634   0.176   5.737   3.357
 7579SOL     OW23635   6.612   1.824   1.163
 7579SOL    HW123636   6.672   1.820   1.243
 7579SOL    HW223637   6.655   1.778   1.087
 7580SOL     OW23638   2.119   4.548   3.365
 7580SOL    HW123639   2.181   4.529   3.289
 7580SOL    HW223640   2.026   4.522   3.339
 7581SOL     OW23641   0.419   0.795   1.453
 7581SOL    HW123642   0.394   0.823   1.546
 7581SOL    HW223643   0.513   0.824   1.434
 7582SOL     OW23644   3.883   1.566   4.477
 7582SOL    HW123645   3.859   1.628   4.402
 7582SOL    HW223646   3.808   1.564   4.544
 7583SOL     OW23647   4.912   3.258   3.487
 7583SOL    HW123648   5.000   3.218   3.513
 7583SOL    HW223649   4.864   3.195   3.425
 7584SOL     OW23650   1.233   1.030   2.739
 7584SOL    HW123651   1.162   1.051   2.806
 7584SOL    HW223652   1.259   1.113   2.690
 7585SOL     OW23653   1.045   2.386   6.350
 7585SOL    HW123654   1.039   2.443   6.268
 7585SOL    HW223655   1.047   2.290   6.324
 7586SOL     OW23656   1.297   0.804   2.276
 7586SOL    HW123657   1.241   0.749   2.214
 7586SOL    HW223658   1.392   0.776   2.269
 7587SOL     OW23659   3.461   1.092   0.687
 7587SOL    HW123660   3.443   1.035   0.607
 7587SOL    HW223661   3.470   1.035   0.768
 7588SOL     OW23662   1.283   2.769   4.736
 7588SOL    HW123663   1.257   2.696   4.672
 7588SOL    HW223664   1.348   2.830   4.692
 7589SOL     OW23665   0.623   0.807   2.898
 7589SOL    HW123666   0.723   0.808   2.892
 7589SOL    HW223667   0.589   0.900   2.884
 7590SOL     OW23668   0.387   1.760   0.414
 7590SOL    HW123669   0.384   1.845   0.362
 7590SOL    HW223670   0.479   1.721   0.411
 7591SOL     OW23671   4.736   3.387   6.756
 7591SOL    HW123672   4.835   3.373   6.748
 7591SOL    HW223673   4.693   3.375   6.667
 7592SOL     OW23674   6.220   5.807   5.103
 7592SOL    HW123675   6.183   5.885   5.154
 7592SOL    HW223676   6.169   5.724   5.128
 7593SOL     OW23677   0.055   1.886   5.613
 7593SOL    HW123678   0.084   1.942   5.691
 7593SOL    HW223679   0.134   1.835   5.578
 7594SOL     OW23680   0.411   4.226   1.381
 7594SOL    HW123681   0.486   4.269   1.331
 7594SOL    HW223682   0.435   4.132   1.405
 7595SOL     OW23683   6.120   2.669   6.204
 7595SOL    HW123684   6.154   2.585   6.247
 7595SOL    HW223685   6.084   2.730   6.275
 7596SOL     OW23686   3.365   0.596   5.020
 7596SOL    HW123687   3.437   0.656   5.053
 7596SOL    HW223688   3.321   0.637   4.940
 7597SOL     OW23689   2.136   5.291   2.598
 7597SOL    HW123690   2.131   5.219   2.667
 7597SOL    HW223691   2.044   5.327   2.581
 7598SOL     OW23692   5.879   0.749   2.763
 7598SOL    HW123693   5.781   0.769   2.758
 7598SOL    HW223694   5.893   0.665   2.815
 7599SOL     OW23695   4.120   3.470   0.527
 7599SOL    HW123696   4.069   3.449   0.610
 7599SOL    HW223697   4.193   3.403   0.516
 7600SOL     OW23698   1.412   1.262   3.756
 7600SOL    HW123699   1.360   1.345   3.776
 7600SOL    HW223700   1.387   1.190   3.821
 7601SOL     OW23701   4.232   5.516   2.141
 7601SOL    HW123702   4.322   5.477   2.123
 7601SOL    HW223703   4.241   5.615   2.156
 7602SOL     OW23704   0.147   2.010   0.565
 7602SOL    HW123705   0.149   1.911   0.580
 7602SOL    HW223706   0.177   2.057   0.648
 7603SOL     OW23707   2.340   0.011   5.855
 7603SOL    HW123708   2.321   6.943   5.891
 7603SOL    HW223709   2.336   0.078   5.930
 7604SOL     OW23710   1.169   2.344   4.954
 7604SOL    HW123711   1.095   2.377   4.896
 7604SOL    HW223712   1.235   2.293   4.899
 7605SOL     OW23713   2.397   0.236   0.055
 7605SOL    HW123714   2.319   0.268   0.002
 7605SOL    HW223715   2.480   0.243   7.023
 7606SOL     OW23716   6.117   1.392   4.382
 7606SOL    HW123717   6.050   1.412   4.454
 7606SOL    HW223718   6.169   1.475   4.360
 7607SOL     OW23719   3.420   6.618   6.461
 7607SOL    HW123720   3.447   6.671   6.542
 7607SOL    HW223721   3.501   6.577   6.420
 7608SOL     OW23722   5.423   2.440   6.383
 7608SOL    HW123723   5.442   2.349   6.422
 7608SOL    HW223724   5.485   2.457   6.307
 7609SOL     OW23725   0.629   2.627   3.896
 7609SOL    HW123726   0.722   2.634   3.931
 7609SOL    HW223727   0.627   2.655   3.800
 7610SOL     OW23728   3.422   5.031   6.437
 7610SOL    HW123729   3.485   4.961   6.403
 7610SOL    HW223730   3.428   5.112   6.379
 7611SOL     OW23731   4.755   3.221   1.089
 7611SOL    HW123732   4.823   3.253   1.155
 7611SOL    HW223733   4.747   3.121   1.096
 7612SOL     OW23734   2.970   1.634   3.581
 7612SOL    HW123735   2.996   1.573   3.506
 7612SOL    HW223736   2.903   1.588   3.639
 7613SOL     OW23737   1.092   1.470   2.432
 7613SOL    HW123738   1.175   1.492   2.483
 7613SOL    HW223739   1.114   1.460   2.335
 7614SOL     OW23740   5.041   3.200   0.886
 7614SOL    HW123741   5.095   3.275   0.846
 7614SOL    HW223742   4.952   3.197   0.842
 7615SOL     OW23743   5.206   3.121   4.758
 7615SOL    HW123744   5.174   3.087   4.847
 7615SOL    HW223745   5.262   3.202   4.773
 7616SOL     OW23746   6.079   6.739   3.460
 7616SOL    HW123747   6.155   6.691   3.418
 7616SOL    HW223748   6.113   6.821   3.506
 7617SOL     OW23749   4.903   5.362   3.222
 7617SOL    HW123750   4.977   5.298   3.243
 7617SOL    HW223751   4.928   5.453   3.256
 7618SOL     OW23752   2.489   2.187   0.210
 7618SOL    HW123753   2.429   2.236   0.146
 7618SOL    HW223754   2.434   2.148   0.284
 7619SOL     OW23755   1.000   2.035   4.112
 7619SOL    HW123756   1.073   2.066   4.051
 7619SOL    HW223757   0.914   2.080   4.087
 7620SOL     OW23758   3.837   4.318   1.309
 7620SOL    HW123759   3.793   4.287   1.224
 7620SOL    HW223760   3.786   4.284   1.388
 7621SOL     OW23761   0.421   5.819   0.975
 7621SOL    HW123762   0.351   5.863   0.920
 7621SOL    HW223763   0.379   5.756   1.040
 7622SOL     OW23764   4.296   4.591   0.736
 7622SOL    HW123765   4.262   4.497   0.728
 7622SOL    HW223766   4.247   4.650   0.672
 7623SOL     OW23767   4.529   4.923   1.536
 7623SOL    HW123768   4.600   4.984   1.502
 7623SOL    HW223769   4.571   4.848   1.587
 7624SOL     OW23770   0.273   2.350   1.891
 7624SOL    HW123771   0.188   2.333   1.941
 7624SOL    HW223772   0.288   2.276   1.826
 7625SOL     OW23773   5.153   1.955   0.427
 7625SOL    HW123774   5.175   1.975   0.331
 7625SOL    HW223775   5.199   1.872   0.456
 7626SOL     OW23776   5.283   0.372   5.465
 7626SOL    HW123777   5.277   0.472   5.466
 7626SOL    HW223778   5.286   0.338   5.559
 7627SOL     OW23779   3.019   2.215   0.279
 7627SOL    HW123780   2.921   2.223   0.261
 7627SOL    HW223781   3.070   2.261   0.206
 7628SOL     OW23782   3.361   2.136   0.431
 7628SOL    HW123783   3.316   2.190   0.502
 7628SOL    HW223784   3.292   2.086   0.379
 7629SOL     OW23785   5.861   3.163   3.973
 7629SOL    HW123786   5.862   3.263   3.973
 7629SOL    HW223787   5.768   3.130   3.988
 7630SOL     OW23788   1.418   0.519   5.080
 7630SOL    HW123789   1.406   0.423   5.105
 7630SOL    HW223790   1.356   0.542   5.005
 7631SOL     OW23791   1.721   0.170   5.258
 7631SOL    HW123792   1.671   0.177   5.171
 7631SOL    HW223793   1.685   0.093   5.310
 7632SOL     OW23794   4.866   5.781   0.760
 7632SOL    HW123795   4.923   5.861   0.745
 7632SOL    HW223796   4.770   5.807   0.757
 7633SOL     OW23797   5.832   0.664   0.927
 7633SOL    HW123798   5.783   0.669   0.840
 7633SOL    HW223799   5.781   0.714   0.997
 7634SOL     OW23800   1.303   2.140   1.038
 7634SOL    HW123801   1.389   2.131   1.088
 7634SOL    HW223802   1.266   2.049   1.020
 7635SOL     OW23803   2.739   5.130   5.152
 7635SOL    HW123804   2.669   5.121   5.223
 7635SOL    HW223805   2.817   5.072   5.175
 7636SOL     OW23806   0.627   4.705   4.709
 7636SOL    HW123807   0.717   4.688   4.748
 7636SOL    HW223808   0.575   4.619   4.706
 7637SOL     OW23809   0.518   6.535   4.345
 7637SOL    HW123810   0.450   6.495   4.283
 7637SOL    HW223811   0.503   6.634   4.351
 7638SOL     OW23812   0.862   5.326   1.830
 7638SOL    HW123813   0.764   5.314   1.812
 7638SOL    HW223814   0.894   5.252   1.889
 7639SOL     OW23815   0.807   1.028   0.089
 7639SOL    HW123816   0.716   1.012   0.128
 7639SOL    HW223817   0.826   1.127   0.089
 7640SOL     OW23818   3.054   0.894   6.421
 7640SOL    HW123819   2.974   0.859   6.372
 7640SOL    HW223820   3.024   0.960   6.490
 7641SOL     OW23821   6.721   3.972   2.912
 7641SOL    HW123822   6.716   3.978   2.812
 7641SOL    HW223823   6.642   3.919   2.946
 7642SOL     OW23824   5.595   1.617   3.343
 7642SOL    HW123825   5.550   1.697   3.304
 7642SOL    HW223826   5.690   1.640   3.366
 7643SOL     OW23827   4.936   2.655   2.986
 7643SOL    HW123828   4.987   2.569   2.979
 7643SOL    HW223829   4.992   2.730   2.949
 7644SOL     OW23830   4.605   3.061   1.354
 7644SOL    HW123831   4.617   3.158   1.377
 7644SOL    HW223832   4.627   3.005   1.435
 7645SOL     OW23833   3.535   3.574   6.086
 7645SOL    HW123834   3.467   3.586   6.015
 7645SOL    HW223835   3.512   3.632   6.164
 7646SOL     OW23836   1.041   2.772   2.801
 7646SOL    HW123837   1.016   2.690   2.852
 7646SOL    HW223838   0.976   2.786   2.726
 7647SOL     OW23839   0.092   3.510   5.069
 7647SOL    HW123840   0.074   3.510   5.167
 7647SOL    HW223841   0.006   3.496   5.019
 7648SOL     OW23842   2.096   2.470   3.153
 7648SOL    HW123843   2.176   2.411   3.164
 7648SOL    HW223844   2.018   2.430   3.199
 7649SOL     OW23845   6.586   0.874   4.506
 7649SOL    HW123846   6.587   0.974   4.515
 7649SOL    HW223847   6.580   0.833   4.597
 7650SOL     OW23848   4.358   0.758   1.506
 7650SOL    HW123849   4.384   0.709   1.423
 7650SOL    HW223850   4.258   0.758   1.516
 7651SOL     OW23851   2.444   5.253   4.944
 7651SOL    HW123852   2.361   5.221   4.988
 7651SOL    HW223853   2.491   5.176   4.901
 7652SOL     OW23854   6.250   1.720   4.615
 7652SOL    HW123855   6.341   1.761   4.612
 7652SOL    HW223856   6.228   1.694   4.709
 7653SOL     OW23857   0.495   2.009   6.720
 7653SOL    HW123858   0.569   2.070   6.691
 7653SOL    HW223859   0.407   2.052   6.699
 7654SOL     OW23860   6.137   3.362   5.246
 7654SOL    HW123861   6.126   3.461   5.247
 7654SOL    HW223862   6.187   3.333   5.327
 7655SOL     OW23863   2.773   0.859   3.610
 7655SOL    HW123864   2.733   0.798   3.542
 7655SOL    HW223865   2.731   0.949   3.604
 7656SOL     OW23866   6.729   3.812   6.732
 7656SOL    HW123867   6.768   3.728   6.695
 7656SOL    HW223868   6.795   3.855   6.793
 7657SOL     OW23869   1.481   4.029   4.787
 7657SOL    HW123870   1.536   4.033   4.871
 7657SOL    HW223871   1.434   4.117   4.774
 7658SOL     OW23872   2.304   0.468   0.676
 7658SOL    HW123873   2.392   0.506   0.705
 7658SOL    HW223874   2.256   0.430   0.756
 7659SOL     OW23875   4.871   3.957   5.212
 7659SOL    HW123876   4.870   3.941   5.114
 7659SOL    HW223877   4.884   3.870   5.260
 7660SOL     OW23878   6.984   4.966   4.238
 7660SOL    HW123879   6.912   5.030   4.212
 7660SOL    HW223880   7.010   4.981   4.333
 7661SOL     OW23881   4.602   2.281   5.534
 7661SOL    HW123882   4.613   2.245   5.442
 7661SOL    HW223883   4.679   2.251   5.591
 7662SOL     OW23884   1.177   1.910   2.394
 7662SOL    HW123885   1.221   1.843   2.335
 7662SOL    HW223886   1.081   1.920   2.367
 7663SOL     OW23887   6.022   4.845   5.615
 7663SOL    HW123888   5.934   4.878   5.581
 7663SOL    HW223889   6.040   4.886   5.705
 7664SOL     OW23890   4.115   1.408   3.060
 7664SOL    HW123891   4.096   1.487   3.118
 7664SOL    HW223892   4.030   1.376   3.019
 7665SOL     OW23893   4.100   2.180   4.155
 7665SOL    HW123894   4.009   2.169   4.193
 7665SOL    HW223895   4.161   2.217   4.225
 7666SOL     OW23896   6.375   5.186   3.504
 7666SOL    HW123897   6.445   5.118   3.483
 7666SOL    HW223898   6.297   5.142   3.549
 7667SOL     OW23899   5.243   5.809   2.301
 7667SOL    HW123900   5.287   5.736   2.352
 7667SOL    HW223901   5.174   5.853   2.359
 7668SOL     OW23902   2.121   5.350   1.064
 7668SOL    HW123903   2.181   5.330   1.141
 7668SOL    HW223904   2.026   5.346   1.093
 7669SOL     OW23905   3.169   6.495   6.005
 7669SOL    HW123906   3.095   6.505   5.940
 7669SOL    HW223907   3.253   6.535   5.967
 7670SOL     OW23908   0.196   6.594   6.878
 7670SOL    HW123909   0.210   6.660   6.805
 7670SOL    HW223910   0.169   6.641   6.961
 7671SOL     OW23911   5.507   0.460   1.902
 7671SOL    HW123912   5.525   0.525   1.828
 7671SOL    HW223913   5.522   0.505   1.990
 7672SOL     OW23914   5.489   4.904   2.940
 7672SOL    HW123915   5.433   4.857   3.008
 7672SOL    HW223916   5.558   4.959   2.986
 7673SOL     OW23917   0.983   5.460   3.736
 7673SOL    HW123918   1.073   5.501   3.721
 7673SOL    HW223919   0.993   5.366   3.768
 7674SOL     OW23920   3.706   0.110   4.362
 7674SOL    HW123921   3.759   0.191   4.335
 7674SOL    HW223922   3.623   0.105   4.306
 7675SOL     OW23923   3.780   6.690   2.725
 7675SOL    HW123924   3.686   6.724   2.729
 7675SOL    HW223925   3.831   6.741   2.655
 7676SOL     OW23926   2.799   3.302   5.790
 7676SOL    HW123927   2.887   3.254   5.796
 7676SOL    HW223928   2.815   3.398   5.764
 7677SOL     OW23929   5.797   4.299   1.434
 7677SOL    HW123930   5.729   4.307   1.506
 7677SOL    HW223931   5.760   4.243   1.360
 7678SOL     OW23932   1.483   1.750   5.665
 7678SOL    HW123933   1.462   1.749   5.763
 7678SOL    HW223934   1.505   1.657   5.635
 7679SOL     OW23935   1.907   5.553   4.927
 7679SOL    HW123936   1.874   5.647   4.915
 7679SOL    HW223937   1.933   5.516   4.839
 7680SOL     OW23938   1.911   0.647   5.311
 7680SOL    HW123939   1.862   0.601   5.237
 7680SOL    HW223940   2.010   0.635   5.298
 7681SOL     OW23941   3.284   2.859   6.121
 7681SOL    HW123942   3.334   2.883   6.037
 7681SOL    HW223943   3.310   2.768   6.151
 7682SOL     OW23944   2.566   1.893   3.223
 7682SOL    HW123945   2.514   1.968   3.264
 7682SOL    HW223946   2.512   1.809   3.225
 7683SOL     OW23947   0.195   1.234   4.619
 7683SOL    HW123948   0.252   1.260   4.697
 7683SOL    HW223949   0.099   1.246   4.642
 7684SOL     OW23950   4.076   2.454   1.684
 7684SOL    HW123951   3.984   2.429   1.654
 7684SOL    HW223952   4.078   2.551   1.705
 7685SOL     OW23953   2.802   0.751   0.293
 7685SOL    HW123954   2.847   0.786   0.376
 7685SOL    HW223955   2.850   0.669   0.261
 7686SOL     OW23956   4.943   0.372   4.277
 7686SOL    HW123957   5.024   0.423   4.306
 7686SOL    HW223958   4.971   0.291   4.226
 7687SOL     OW23959   5.763   5.057   4.321
 7687SOL    HW123960   5.801   5.097   4.404
 7687SOL    HW223961   5.754   5.128   4.251
 7688SOL     OW23962   0.755   5.031   6.119
 7688SOL    HW123963   0.832   5.004   6.176
 7688SOL    HW223964   0.709   4.949   6.085
 7689SOL     OW23965   5.061   0.450   1.876
 7689SOL    HW123966   5.099   0.414   1.961
 7689SOL    HW223967   4.970   0.488   1.895
 7690SOL     OW23968   6.426   4.998   0.751
 7690SOL    HW123969   6.520   5.031   0.756
 7690SOL    HW223970   6.422   4.916   0.695
 7691SOL     OW23971   4.316   4.592   3.537
 7691SOL    HW123972   4.399   4.619   3.585
 7691SOL    HW223973   4.280   4.507   3.576
 7692SOL     OW23974   1.100   6.258   2.269
 7692SOL    HW123975   1.053   6.227   2.186
 7692SOL    HW223976   1.037   6.253   2.346
 7693SOL     OW23977   2.496   1.005   1.059
 7693SOL    HW123978   2.593   0.982   1.048
 7693SOL    HW223979   2.476   1.090   1.011
 7694SOL     OW23980   6.214   2.608   4.570
 7694SOL    HW123981   6.205   2.673   4.646
 7694SOL    HW223982   6.277   2.646   4.502
 7695SOL     OW23983   6.245   0.459   3.128
 7695SOL    HW123984   6.345   0.461   3.129
 7695SOL    HW223985   6.210   0.529   3.065
 7696SOL     OW23986   0.576   2.281   6.919
 7696SOL    HW123987   0.628   2.316   6.997
 7696SOL    HW223988   0.478   2.281   6.942
 7697SOL     OW23989   4.127   0.271   3.004
 7697SOL    HW123990   4.105   0.364   2.975
 7697SOL    HW223991   4.210   0.240   2.957
 7698SOL     OW23992   6.521   1.918   6.883
 7698SOL    HW123993   6.581   1.955   6.813
 7698SOL    HW223994   6.556   1.830   6.915
 7699SOL     OW23995   3.582   5.446   6.356
 7699SOL    HW123996   3.599   5.495   6.270
 7699SOL    HW223997   3.654   5.469   6.422
 7700SOL     OW23998   4.799   5.763   2.600
 7700SOL    HW123999   4.719   5.807   2.641
 7700SOL    HW224000   4.771   5.676   2.559
 7701SOL     OW24001   0.334   2.799   6.081
 7701SOL    HW124002   0.279   2.738   6.024
 7701SOL    HW224003   0.350   2.885   6.033
 7702SOL     OW24004   4.463   0.059   4.566
 7702SOL    HW124005   4.499   0.082   4.476
 7702SOL    HW224006   4.410   0.136   4.602
 7703SOL     OW24007   6.580   6.332   4.324
 7703SOL    HW124008   6.561   6.352   4.420
 7703SOL    HW224009   6.510   6.377   4.267
 7704SOL     OW24010   6.078   1.385   4.110
 7704SOL    HW124011   6.056   1.478   4.082
 7704SOL    HW224012   6.105   1.385   4.206
 7705SOL     OW24013   2.059   4.825   0.366
 7705SOL    HW124014   2.084   4.728   0.367
 7705SOL    HW224015   2.014   4.849   0.452
 7706SOL     OW24016   3.470   2.854   2.649
 7706SOL    HW124017   3.566   2.869   2.673
 7706SOL    HW224018   3.459   2.862   2.550
 7707SOL     OW24019   6.586   5.554   6.857
 7707SOL    HW124020   6.543   5.486   6.916
 7707SOL    HW224021   6.651   5.508   6.796
 7708SOL     OW24022   2.360   6.853   4.476
 7708SOL    HW124023   2.309   6.768   4.461
 7708SOL    HW224024   2.391   6.855   4.571
 7709SOL     OW24025   6.748   4.555   0.991
 7709SOL    HW124026   6.728   4.550   1.088
 7709SOL    HW224027   6.847   4.549   0.976
 7710SOL     OW24028   1.474   3.372   0.876
 7710SOL    HW124029   1.514   3.289   0.913
 7710SOL    HW224030   1.475   3.369   0.776
 7711SOL     OW24031   6.266   4.546   5.366
 7711SOL    HW124032   6.346   4.491   5.340
 7711SOL    HW224033   6.296   4.623   5.423
 7712SOL     OW24034   6.584   4.967   6.337
 7712SOL    HW124035   6.637   4.984   6.254
 7712SOL    HW224036   6.497   4.923   6.313
 7713SOL     OW24037   1.866   4.856   0.573
 7713SOL    HW124038   1.799   4.842   0.646
 7713SOL    HW224039   1.873   4.772   0.518
 7714SOL     OW24040   6.719   0.680   4.083
 7714SOL    HW124041   6.642   0.730   4.123
 7714SOL    HW224042   6.689   0.591   4.051
 7715SOL     OW24043   1.839   2.850   6.209
 7715SOL    HW124044   1.754   2.903   6.210
 7715SOL    HW224045   1.879   2.849   6.300
 7716SOL     OW24046   0.726   5.635   6.535
 7716SOL    HW124047   0.807   5.692   6.547
 7716SOL    HW224048   0.733   5.584   6.450
 7717SOL     OW24049   1.397   1.873   6.805
 7717SOL    HW124050   1.468   1.942   6.794
 7717SOL    HW224051   1.364   1.845   6.715
 7718SOL     OW24052   1.591   4.193   2.600
 7718SOL    HW124053   1.646   4.219   2.680
 7718SOL    HW224054   1.497   4.224   2.613
 7719SOL     OW24055   1.912   4.035   4.645
 7719SOL    HW124056   1.859   3.962   4.689
 7719SOL    HW224057   2.006   4.033   4.679
 7720SOL     OW24058   6.497   1.727   6.538
 7720SOL    HW124059   6.434   1.789   6.585
 7720SOL    HW224060   6.569   1.699   6.601
 7721SOL     OW24061   1.098   0.234   2.766
 7721SOL    HW124062   1.123   0.325   2.733
 7721SOL    HW224063   1.108   0.168   2.692
 7722SOL     OW24064   2.392   5.742   4.018
 7722SOL    HW124065   2.359   5.651   3.994
 7722SOL    HW224066   2.324   5.810   3.993
 7723SOL     OW24067   4.882   3.460   0.174
 7723SOL    HW124068   4.878   3.557   0.148
 7723SOL    HW224069   4.851   3.404   0.097
 7724SOL     OW24070   2.863   4.135   1.547
 7724SOL    HW124071   2.876   4.146   1.449
 7724SOL    HW224072   2.796   4.063   1.564
 7725SOL     OW24073   5.733   2.903   2.758
 7725SOL    HW124074   5.813   2.904   2.697
 7725SOL    HW224075   5.763   2.883   2.852
 7726SOL     OW24076   0.332   3.239   6.294
 7726SOL    HW124077   0.404   3.292   6.249
 7726SOL    HW224078   0.351   3.233   6.392
 7727SOL     OW24079   4.784   2.561   2.208
 7727SOL    HW124080   4.831   2.619   2.273
 7727SOL    HW224081   4.698   2.528   2.248
 7728SOL     OW24082   2.179   3.200   4.981
 7728SOL    HW124083   2.246   3.132   5.009
 7728SOL    HW224084   2.154   3.257   5.059
 7729SOL     OW24085   5.767   2.269   3.204
 7729SOL    HW124086   5.718   2.339   3.255
 7729SOL    HW224087   5.777   2.187   3.260
 7730SOL     OW24088   5.846   4.715   5.113
 7730SOL    HW124089   5.945   4.704   5.117
 7730SOL    HW224090   5.811   4.734   5.205
 7731SOL     OW24091   5.586   0.013   0.342
 7731SOL    HW124092   5.636   7.016   0.426
 7731SOL    HW224093   5.592   0.110   0.321
 7732SOL     OW24094   4.514   0.427   6.343
 7732SOL    HW124095   4.578   0.440   6.267
 7732SOL    HW224096   4.428   0.390   6.307
 7733SOL     OW24097   6.488   6.107   2.138
 7733SOL    HW124098   6.555   6.034   2.153
 7733SOL    HW224099   6.531   6.195   2.156
 7734SOL     OW24100   2.764   4.260   5.365
 7734SOL    HW124101   2.758   4.160   5.366
 7734SOL    HW224102   2.853   4.287   5.328
 7735SOL     OW24103   6.429   6.272   0.195
 7735SOL    HW124104   6.330   6.287   0.197
 7735SOL    HW224105   6.450   6.192   0.140
 7736SOL     OW24106   3.055   2.850   0.533
 7736SOL    HW124107   3.143   2.807   0.556
 7736SOL    HW224108   3.054   2.876   0.437
 7737SOL     OW24109   3.996   5.023   1.226
 7737SOL    HW124110   3.958   5.096   1.283
 7737SOL    HW224111   3.949   4.938   1.245
 7738SOL     OW24112   2.907   6.171   6.743
 7738SOL    HW124113   2.883   6.231   6.667
 7738SOL    HW224114   2.844   6.186   6.819
 7739SOL     OW24115   1.398   2.661   1.544
 7739SOL    HW124116   1.356   2.737   1.595
 7739SOL    HW224117   1.431   2.694   1.456
 7740SOL     OW24118   1.096   0.978   3.964
 7740SOL    HW124119   1.119   1.064   4.007
 7740SOL    HW224120   1.164   0.955   3.895
 7741SOL     OW24121   1.722   4.933   6.055
 7741SOL    HW124122   1.741   4.934   5.957
 7741SOL    HW224123   1.793   4.985   6.103
 7742SOL     OW24124   3.712   1.514   4.060
 7742SOL    HW124125   3.731   1.560   4.147
 7742SOL    HW224126   3.776   1.439   4.048
 7743SOL     OW24127   5.133   1.073   6.486
 7743SOL    HW124128   5.040   1.054   6.454
 7743SOL    HW224129   5.168   1.155   6.441
 7744SOL     OW24130   0.420   5.852   4.663
 7744SOL    HW124131   0.444   5.942   4.626
 7744SOL    HW224132   0.434   5.782   4.592
 7745SOL     OW24133   1.645   6.558   0.040
 7745SOL    HW124134   1.648   6.601   0.130
 7745SOL    HW224135   1.553   6.569   0.001
 7746SOL     OW24136   1.152   6.459   0.925
 7746SOL    HW124137   1.151   6.543   0.870
 7746SOL    HW224138   1.093   6.471   1.005
 7747SOL     OW24139   0.155   6.371   0.701
 7747SOL    HW124140   0.244   6.416   0.686
 7747SOL    HW224141   0.084   6.440   0.710
 7748SOL     OW24142   4.211   2.542   5.875
 7748SOL    HW124143   4.123   2.501   5.852
 7748SOL    HW224144   4.219   2.631   5.829
 7749SOL     OW24145   3.275   3.643   3.896
 7749SOL    HW124146   3.348   3.696   3.939
 7749SOL    HW224147   3.279   3.548   3.929
 7750SOL     OW24148   5.971   4.399   5.733
 7750SOL    HW124149   6.026   4.386   5.816
 7750SOL    HW224150   5.907   4.323   5.724
 7751SOL     OW24151   0.041   1.684   4.945
 7751SOL    HW124152   0.113   1.638   4.893
 7751SOL    HW224153   7.005   1.615   4.987
 7752SOL     OW24154   5.769   5.563   5.043
 7752SOL    HW124155   5.761   5.648   4.990
 7752SOL    HW224156   5.797   5.488   4.983
 7753SOL     OW24157   2.234   0.652   4.143
 7753SOL    HW124158   2.180   0.570   4.126
 7753SOL    HW224159   2.217   0.718   4.070
 7754SOL     OW24160   5.880   0.437   1.152
 7754SOL    HW124161   5.806   0.459   1.089
 7754SOL    HW224162   5.954   0.503   1.141
 7755SOL     OW24163   6.960   5.990   5.457
 7755SOL    HW124164   6.926   5.925   5.389
 7755SOL    HW224165   6.906   5.983   5.541
 7756SOL     OW24166   2.798   4.779   2.435
 7756SOL    HW124167   2.755   4.748   2.350
 7756SOL    HW224168   2.891   4.810   2.416
 7757SOL     OW24169   4.565   6.442   5.301
 7757SOL    HW124170   4.574   6.511   5.229
 7757SOL    HW224171   4.478   6.454   5.348
 7758SOL     OW24172   2.343   2.416   6.205
 7758SOL    HW124173   2.320   2.507   6.240
 7758SOL    HW224174   2.426   2.422   6.150
 7759SOL     OW24175   2.031   0.423   4.400
 7759SOL    HW124176   1.964   0.496   4.391
 7759SOL    HW224177   2.064   0.397   4.309
 7760SOL     OW24178   5.614   3.174   1.899
 7760SOL    HW124179   5.608   3.207   1.994
 7760SOL    HW224180   5.638   3.250   1.839
 7761SOL     OW24181   3.185   0.029   6.470
 7761SOL    HW124182   3.192   6.970   6.413
 7761SOL    HW224183   3.143   0.005   6.558
 7762SOL     OW24184   4.121   1.443   0.634
 7762SOL    HW124185   4.041   1.497   0.659
 7762SOL    HW224186   4.093   1.356   0.594
 7763SOL     OW24187   1.531   1.379   1.049
 7763SOL    HW124188   1.569   1.462   1.006
 7763SOL    HW224189   1.562   1.374   1.144
 7764SOL     OW24190   3.984   3.037   2.463
 7764SOL    HW124191   3.967   2.939   2.466
 7764SOL    HW224192   3.989   3.067   2.368
 7765SOL     OW24193   6.309   3.390   3.238
 7765SOL    HW124194   6.309   3.418   3.334
 7765SOL    HW224195   6.324   3.291   3.232
 7766SOL     OW24196   6.367   1.503   0.123
 7766SOL    HW124197   6.327   1.544   0.205
 7766SOL    HW224198   6.340   1.556   0.043
 7767SOL     OW24199   3.797   6.236   3.850
 7767SOL    HW124200   3.826   6.248   3.945
 7767SOL    HW224201   3.834   6.151   3.814
 7768SOL     OW24202   3.529   4.943   2.174
 7768SOL    HW124203   3.573   4.875   2.115
 7768SOL    HW224204   3.438   4.965   2.138
 7769SOL     OW24205   4.706   2.179   0.862
 7769SOL    HW124206   4.747   2.207   0.775
 7769SOL    HW224207   4.675   2.084   0.856
 7770SOL     OW24208   2.948   4.907   1.778
 7770SOL    HW124209   2.987   4.989   1.736
 7770SOL    HW224210   2.848   4.914   1.779
 7771SOL     OW24211   2.739   1.840   4.936
 7771SOL    HW124212   2.836   1.846   4.957
 7771SOL    HW224213   2.726   1.826   4.838
 7772SOL     OW24214   4.731   0.884   3.905
 7772SOL    HW124215   4.800   0.953   3.930
 7772SOL    HW224216   4.661   0.881   3.976
 7773SOL     OW24217   4.287   3.663   6.131
 7773SOL    HW124218   4.205   3.620   6.167
 7773SOL    HW224219   4.327   3.723   6.201
 7774SOL     OW24220   5.562   1.505   6.296
 7774SOL    HW124221   5.480   1.480   6.244
 7774SOL    HW224222   5.604   1.585   6.254
 7775SOL     OW24223   3.637   6.837   3.005
 7775SOL    HW124224   3.554   6.852   3.059
 7775SOL    HW224225   3.612   6.806   2.913
 7776SOL     OW24226   3.710   3.179   6.085
 7776SOL    HW124227   3.695   3.131   5.998
 7776SOL    HW224228   3.625   3.222   6.115
 7777SOL     OW24229   2.079   1.145   6.777
 7777SOL    HW124230   2.016   1.106   6.710
 7777SOL    HW224231   2.034   1.220   6.825
 7778SOL     OW24232   5.431   0.541   6.925
 7778SOL    HW124233   5.490   0.555   6.845
 7778SOL    HW224234   5.426   0.443   6.945
 7779SOL     OW24235   3.476   2.222   1.233
 7779SOL    HW124236   3.574   2.214   1.251
 7779SOL    HW224237   3.459   2.203   1.136
 7780SOL     OW24238   1.022   6.232   4.112
 7780SOL    HW124239   1.073   6.301   4.165
 7780SOL    HW224240   0.929   6.226   4.147
 7781SOL     OW24241   1.663   3.590   5.788
 7781SOL    HW124242   1.746   3.642   5.769
 7781SOL    HW224243   1.583   3.650   5.784
 7782SOL     OW24244   2.533   4.193   6.522
 7782SOL    HW124245   2.553   4.198   6.424
 7782SOL    HW224246   2.440   4.158   6.535
 7783SOL     OW24247   2.537   6.136   6.676
 7783SOL    HW124248   2.508   6.232   6.682
 7783SOL    HW224249   2.508   6.097   6.589
 7784SOL     OW24250   0.687   2.475   0.107
 7784SOL    HW124251   0.602   2.447   0.150
 7784SOL    HW224252   0.765   2.436   0.157
 7785SOL     OW24253   2.222   6.505   3.552
 7785SOL    HW124254   2.177   6.429   3.505
 7785SOL    HW224255   2.321   6.498   3.538
 7786SOL     OW24256   3.217   4.677   5.325
 7786SOL    HW124257   3.190   4.727   5.407
 7786SOL    HW224258   3.135   4.646   5.276
 7787SOL     OW24259   2.277   2.811   5.240
 7787SOL    HW124260   2.323   2.884   5.189
 7787SOL    HW224261   2.284   2.725   5.189
 7788SOL     OW24262   1.222   1.897   1.651
 7788SOL    HW124263   1.285   1.820   1.664
 7788SOL    HW224264   1.221   1.922   1.554
 7789SOL     OW24265   2.706   0.668   0.926
 7789SOL    HW124266   2.763   0.586   0.923
 7789SOL    HW224267   2.636   0.663   0.854
 7790SOL     OW24268   6.595   4.035   3.147
 7790SOL    HW124269   6.679   4.036   3.093
 7790SOL    HW224270   6.576   3.942   3.179
 7791SOL     OW24271   2.645   5.945   4.563
 7791SOL    HW124272   2.565   5.989   4.522
 7791SOL    HW224273   2.720   6.011   4.570
 7792SOL     OW24274   2.132   5.961   6.442
 7792SOL    HW124275   2.163   5.986   6.350
 7792SOL    HW224276   2.152   5.864   6.459
 7793SOL     OW24277   1.738   1.171   5.641
 7793SOL    HW124278   1.718   1.165   5.544
 7793SOL    HW224279   1.821   1.225   5.656
 7794SOL     OW24280   4.910   5.307   4.256
 7794SOL    HW124281   4.924   5.209   4.271
 7794SOL    HW224282   4.992   5.357   4.285
 7795SOL     OW24283   1.970   4.064   5.663
 7795SOL    HW124284   2.008   4.005   5.591
 7795SOL    HW224285   1.881   4.099   5.633
 7796SOL     OW24286   3.724   4.039   3.702
 7796SOL    HW124287   3.763   4.125   3.736
 7796SOL    HW224288   3.633   4.026   3.740
 7797SOL     OW24289   0.405   6.336   3.011
 7797SOL    HW124290   0.409   6.435   3.017
 7797SOL    HW224291   0.460   6.297   3.085
 7798SOL     OW24292   3.330   5.633   6.965
 7798SOL    HW124293   3.391   5.586   6.901
 7798SOL    HW224294   3.275   5.700   6.915
 7799SOL     OW24295   6.660   5.363   0.956
 7799SOL    HW124296   6.720   5.436   0.922
 7799SOL    HW224297   6.613   5.320   0.879
 7800SOL     OW24298   0.270   4.928   1.847
 7800SOL    HW124299   0.252   5.014   1.897
 7800SOL    HW224300   0.348   4.942   1.785
 7801SOL     OW24301   2.324   1.067   0.286
 7801SOL    HW124302   2.262   1.074   0.208
 7801SOL    HW224303   2.417   1.053   0.253
 7802SOL     OW24304   5.677   2.799   1.946
 7802SOL    HW124305   5.638   2.863   1.880
 7802SOL    HW224306   5.628   2.712   1.942
 7803SOL     OW24307   4.360   3.891   5.719
 7803SOL    HW124308   4.301   3.956   5.671
 7803SOL    HW224309   4.393   3.933   5.804
 7804SOL     OW24310   5.519   1.269   4.610
 7804SOL    HW124311   5.431   1.272   4.563
 7804SOL    HW224312   5.507   1.305   4.703
 7805SOL     OW24313   5.328   1.916   2.109
 7805SOL    HW124314   5.332   1.877   2.017
 7805SOL    HW224315   5.350   2.014   2.104
 7806SOL     OW24316   5.569   3.042   6.088
 7806SOL    HW124317   5.521   3.124   6.057
 7806SOL    HW224318   5.621   3.003   6.013
 7807SOL     OW24319   0.406   4.718   6.275
 7807SOL    HW124320   0.420   4.671   6.187
 7807SOL    HW224321   0.486   4.704   6.333
 7808SOL     OW24322   0.625   1.468   4.811
 7808SOL    HW124323   0.698   1.485   4.745
 7808SOL    HW224324   0.665   1.438   4.898
 7809SOL     OW24325   1.998   5.477   4.396
 7809SOL    HW124326   2.020   5.558   4.343
 7809SOL    HW224327   2.054   5.475   4.479
 7810SOL     OW24328   2.987   0.683   5.558
 7810SOL    HW124329   3.058   0.753   5.551
 7810SOL    HW224330   2.948   0.685   5.651
 7811SOL     OW24331   5.690   4.761   3.820
 7811SOL    HW124332   5.675   4.763   3.918
 7811SOL    HW224333   5.627   4.697   3.777
 7812SOL     OW24334   1.374   1.784   4.590
 7812SOL    HW124335   1.374   1.740   4.680
 7812SOL    HW224336   1.402   1.879   4.600
 7813SOL     OW24337   5.357   2.923   0.037
 7813SOL    HW124338   5.397   3.015   0.036
 7813SOL    HW224339   5.317   2.904   6.971
 7814SOL     OW24340   0.035   2.849   3.446
 7814SOL    HW124341   0.047   2.936   3.494
 7814SOL    HW224342   0.124   2.814   3.418
 7815SOL     OW24343   5.452   1.600   6.880
 7815SOL    HW124344   5.465   1.670   6.950
 7815SOL    HW224345   5.495   1.630   6.795
 7816SOL     OW24346   0.691   3.694   5.761
 7816SOL    HW124347   0.724   3.735   5.847
 7816SOL    HW224348   0.764   3.697   5.693
 7817SOL     OW24349   5.612   4.118   4.414
 7817SOL    HW124350   5.577   4.083   4.327
 7817SOL    HW224351   5.642   4.213   4.402
 7818SOL     OW24352   6.093   6.638   1.192
 7818SOL    HW124353   6.162   6.710   1.182
 7818SOL    HW224354   6.064   6.632   1.287
 7819SOL     OW24355   6.869   2.708   1.045
 7819SOL    HW124356   6.832   2.688   1.135
 7819SOL    HW224357   6.853   2.631   0.984
 7820SOL     OW24358   2.234   1.808   5.469
 7820SOL    HW124359   2.272   1.847   5.553
 7820SOL    HW224360   2.134   1.805   5.476
 7821SOL     OW24361   3.881   5.684   0.886
 7821SOL    HW124362   3.902   5.779   0.907
 7821SOL    HW224363   3.887   5.628   0.969
 7822SOL     OW24364   0.484   6.089   5.120
 7822SOL    HW124365   0.554   6.040   5.068
 7822SOL    HW224366   0.438   6.154   5.061
 7823SOL     OW24367   2.263   4.299   4.938
 7823SOL    HW124368   2.300   4.207   4.935
 7823SOL    HW224369   2.264   4.333   5.032
 7824SOL     OW24370   0.071   2.644   4.977
 7824SOL    HW124371   0.030   2.603   4.896
 7824SOL    HW224372   0.066   2.578   5.053
 7825SOL     OW24373   2.078   2.585   6.546
 7825SOL    HW124374   2.045   2.643   6.621
 7825SOL    HW224375   2.002   2.535   6.506
 7826SOL     OW24376   6.423   2.240   0.582
 7826SOL    HW124377   6.464   2.265   0.670
 7826SOL    HW224378   6.463   2.154   0.550
 7827SOL     OW24379   0.185   6.065   2.845
 7827SOL    HW124380   0.232   6.097   2.762
 7827SOL    HW224381   0.202   5.967   2.856
 7828SOL     OW24382   6.862   3.599   6.639
 7828SOL    HW124383   6.829   3.521   6.585
 7828SOL    HW224384   6.959   3.615   6.621
 7829SOL     OW24385   3.317   2.916   1.248
 7829SOL    HW124386   3.284   2.996   1.297
 7829SOL    HW224387   3.243   2.876   1.194
 7830SOL     OW24388   3.088   5.350   4.600
 7830SOL    HW124389   3.090   5.289   4.679
 7830SOL    HW224390   2.993   5.365   4.573
 7831SOL     OW24391   1.800   1.630   1.437
 7831SOL    HW124392   1.718   1.673   1.398
 7831SOL    HW224393   1.834   1.687   1.513
 7832SOL     OW24394   5.644   0.735   4.960
 7832SOL    HW124395   5.686   0.648   4.989
 7832SOL    HW224396   5.606   0.724   4.868
 7833SOL     OW24397   1.405   0.077   4.070
 7833SOL    HW124398   1.493   0.098   4.113
 7833SOL    HW224399   1.346   0.158   4.074
 7834SOL     OW24400   6.555   2.540   4.328
 7834SOL    HW124401   6.533   2.443   4.315
 7834SOL    HW224402   6.478   2.595   4.297
 7835SOL     OW24403   4.361   1.725   5.309
 7835SOL    HW124404   4.459   1.739   5.318
 7835SOL    HW224405   4.340   1.628   5.321
 7836SOL     OW24406   3.806   4.257   5.104
 7836SOL    HW124407   3.893   4.261   5.154
 7836SOL    HW224408   3.816   4.194   5.027
 7837SOL     OW24409   6.102   6.490   0.333
 7837SOL    HW124410   6.045   6.420   0.376
 7837SOL    HW224411   6.117   6.565   0.398
 7838SOL     OW24412   5.499   5.558   1.326
 7838SOL    HW124413   5.435   5.629   1.356
 7838SOL    HW224414   5.507   5.488   1.397
 7839SOL     OW24415   6.436   4.458   4.519
 7839SOL    HW124416   6.473   4.492   4.432
 7839SOL    HW224417   6.410   4.536   4.576
 7840SOL     OW24418   1.706   4.448   3.572
 7840SOL    HW124419   1.727   4.408   3.661
 7840SOL    HW224420   1.608   4.460   3.563
 7841SOL     OW24421   5.061   2.019   6.540
 7841SOL    HW124422   5.107   1.961   6.607
 7841SOL    HW224423   4.998   2.081   6.587
 7842SOL     OW24424   2.116   1.301   2.761
 7842SOL    HW124425   2.051   1.275   2.832
 7842SOL    HW224426   2.125   1.401   2.759
 7843SOL     OW24427   6.984   6.532   4.180
 7843SOL    HW124428   6.947   6.475   4.253
 7843SOL    HW224429   6.957   6.494   4.091
 7844SOL     OW24430   3.424   1.168   2.439
 7844SOL    HW124431   3.472   1.163   2.527
 7844SOL    HW224432   3.326   1.150   2.453
 7845SOL     OW24433   5.863   1.583   2.128
 7845SOL    HW124434   5.894   1.499   2.082
 7845SOL    HW224435   5.769   1.571   2.159
 7846SOL     OW24436   1.189   2.704   0.265
 7846SOL    HW124437   1.250   2.772   0.222
 7846SOL    HW224438   1.152   2.644   0.195
 7847SOL     OW24439   6.014   2.453   4.196
 7847SOL    HW124440   6.075   2.390   4.148
 7847SOL    HW224441   5.982   2.410   4.280
 7848SOL     OW24442   2.708   4.565   0.893
 7848SOL    HW124443   2.689   4.502   0.968
 7848SOL    HW224444   2.637   4.555   0.823
 7849SOL     OW24445   5.435   3.488   5.675
 7849SOL    HW124446   5.347   3.484   5.722
 7849SOL    HW224447   5.430   3.436   5.590
 7850SOL     OW24448   0.058   1.560   3.598
 7850SOL    HW124449   0.097   1.601   3.681
 7850SOL    HW224450   7.003   1.503   3.623
 7851SOL     OW24451   1.239   4.131   1.215
 7851SOL    HW124452   1.269   4.042   1.181
 7851SOL    HW224453   1.298   4.160   1.291
 7852SOL     OW24454   2.418   1.650   0.372
 7852SOL    HW124455   2.447   1.699   0.455
 7852SOL    HW224456   2.475   1.569   0.361
 7853SOL     OW24457   3.534   3.198   1.657
 7853SOL    HW124458   3.456   3.255   1.681
 7853SOL    HW224459   3.516   3.104   1.685
 7854SOL     OW24460   4.629   1.893   6.213
 7854SOL    HW124461   4.593   1.959   6.148
 7854SOL    HW224462   4.575   1.810   6.211
 7855SOL     OW24463   5.179   6.911   4.582
 7855SOL    HW124464   5.174   6.812   4.581
 7855SOL    HW224465   5.269   6.940   4.615
 7856SOL     OW24466   1.931   4.999   4.610
 7856SOL    HW124467   1.992   5.019   4.687
 7856SOL    HW224468   1.986   4.990   4.527
 7857SOL     OW24469   5.184   3.958   0.501
 7857SOL    HW124470   5.153   4.051   0.520
 7857SOL    HW224471   5.283   3.958   0.488
 7858SOL     OW24472   0.250   5.478   5.772
 7858SOL    HW124473   0.234   5.429   5.858
 7858SOL    HW224474   0.169   5.471   5.714
 7859SOL     OW24475   5.241   3.008   6.438
 7859SOL    HW124476   5.165   3.073   6.436
 7859SOL    HW224477   5.294   3.023   6.521
 7860SOL     OW24478   2.979   1.082   4.847
 7860SOL    HW124479   2.950   1.005   4.791
 7860SOL    HW224480   2.899   1.126   4.887
 7861SOL     OW24481   2.462   5.934   1.288
 7861SOL    HW124482   2.381   5.879   1.266
 7861SOL    HW224483   2.544   5.890   1.251
 7862SOL     OW24484   2.929   5.919   1.457
 7862SOL    HW124485   3.016   5.876   1.481
 7862SOL    HW224486   2.856   5.879   1.513
 7863SOL     OW24487   6.716   4.401   3.526
 7863SOL    HW124488   6.698   4.481   3.468
 7863SOL    HW224489   6.629   4.359   3.552
 7864SOL     OW24490   2.482   5.792   6.039
 7864SOL    HW124491   2.552   5.721   6.026
 7864SOL    HW224492   2.434   5.807   5.952
 7865SOL     OW24493   6.545   6.280   3.929
 7865SOL    HW124494   6.577   6.195   3.970
 7865SOL    HW224495   6.471   6.261   3.864
 7866SOL     OW24496   2.148   0.475   6.111
 7866SOL    HW124497   2.048   0.468   6.113
 7866SOL    HW224498   2.182   0.497   6.203
 7867SOL     OW24499   5.551   0.500   3.899
 7867SOL    HW124500   5.636   0.503   3.952
 7867SOL    HW224501   5.475   0.528   3.957
 7868SOL     OW24502   4.338   6.057   0.893
 7868SOL    HW124503   4.302   6.085   0.982
 7868SOL    HW224504   4.330   6.133   0.829
 7869SOL     OW24505   5.983   4.089   5.410
 7869SOL    HW124506   6.012   4.183   5.393
 7869SOL    HW224507   5.920   4.060   5.338
 7870SOL     OW24508   4.234   6.232   5.037
 7870SOL    HW124509   4.262   6.231   4.941
 7870SOL    HW224510   4.188   6.319   5.057
 7871SOL     OW24511   5.278   1.439   2.187
 7871SOL    HW124512   5.294   1.351   2.232
 7871SOL    HW224513   5.227   1.499   2.249
 7872SOL     OW24514   1.836   5.153   2.576
 7872SOL    HW124515   1.849   5.062   2.616
 7872SOL    HW224516   1.779   5.208   2.636
 7873SOL     OW24517   0.069   1.076   0.692
 7873SOL    HW124518   0.073   1.021   0.776
 7873SOL    HW224519   0.152   1.059   0.638
 7874SOL     OW24520   5.645   2.641   1.171
 7874SOL    HW124521   5.712   2.612   1.239
 7874SOL    HW224522   5.559   2.590   1.184
 7875SOL     OW24523   3.841   4.151   7.021
 7875SOL    HW124524   3.786   4.145   6.938
 7875SOL    HW224525   3.915   4.084   7.017
 7876SOL     OW24526   0.369   7.013   2.527
 7876SOL    HW124527   0.340   0.085   2.534
 7876SOL    HW224528   0.299   6.954   2.568
 7877SOL     OW24529   6.612   1.829   3.241
 7877SOL    HW124530   6.592   1.739   3.204
 7877SOL    HW224531   6.642   1.890   3.167
 7878SOL     OW24532   4.812   4.611   3.719
 7878SOL    HW124533   4.813   4.701   3.763
 7878SOL    HW224534   4.768   4.545   3.780
 7879SOL     OW24535   2.848   4.989   3.553
 7879SOL    HW124536   2.869   4.946   3.465
 7879SOL    HW224537   2.749   5.002   3.561
 7880SOL     OW24538   2.162   3.986   1.627
 7880SOL    HW124539   2.143   3.938   1.712
 7880SOL    HW224540   2.248   3.952   1.589
 7881SOL     OW24541   4.922   3.443   4.484
 7881SOL    HW124542   4.895   3.497   4.564
 7881SOL    HW224543   4.918   3.346   4.508
 7882SOL     OW24544   2.298   3.407   1.234
 7882SOL    HW124545   2.215   3.371   1.276
 7882SOL    HW224546   2.378   3.374   1.284
 7883SOL     OW24547   0.698   1.136   5.264
 7883SOL    HW124548   0.750   1.218   5.288
 7883SOL    HW224549   0.744   1.087   5.190
 7884SOL     OW24550   0.567   3.190   4.654
 7884SOL    HW124551   0.577   3.246   4.737
 7884SOL    HW224552   0.631   3.114   4.658
 7885SOL     OW24553   5.882   5.188   0.727
 7885SOL    HW124554   5.850   5.277   0.760
 7885SOL    HW224555   5.980   5.180   0.745
 7886SOL     OW24556   4.797   5.216   0.114
 7886SOL    HW124557   4.790   5.244   0.210
 7886SOL    HW224558   4.743   5.278   0.057
 7887SOL     OW24559   4.935   1.907   0.144
 7887SOL    HW124560   4.901   1.999   0.162
 7887SOL    HW224561   4.916   1.849   0.222
 7888SOL     OW24562   4.930   0.500   4.635
 7888SOL    HW124563   4.970   0.526   4.547
 7888SOL    HW224564   4.837   0.536   4.642
 7889SOL     OW24565   0.370   5.597   2.456
 7889SOL    HW124566   0.449   5.582   2.397
 7889SOL    HW224567   0.359   5.695   2.472
 7890SOL     OW24568   1.996   3.902   2.363
 7890SOL    HW124569   2.071   3.959   2.396
 7890SOL    HW224570   1.911   3.929   2.410
 7891SOL     OW24571   2.660   4.721   2.204
 7891SOL    HW124572   2.648   4.813   2.167
 7891SOL    HW224573   2.692   4.660   2.132
 7892SOL     OW24574   2.179   2.519   5.519
 7892SOL    HW124575   2.272   2.524   5.555
 7892SOL    HW224576   2.179   2.466   5.434
 7893SOL     OW24577   5.726   6.494   0.454
 7893SOL    HW124578   5.741   6.550   0.535
 7893SOL    HW224579   5.662   6.540   0.392
 7894SOL     OW24580   2.471   6.071   2.308
 7894SOL    HW124581   2.564   6.077   2.272
 7894SOL    HW224582   2.455   6.145   2.373
 7895SOL     OW24583   6.242   0.900   4.780
 7895SOL    HW124584   6.259   0.850   4.695
 7895SOL    HW224585   6.257   0.998   4.764
 7896SOL     OW24586   5.204   4.118   5.738
 7896SOL    HW124587   5.188   4.134   5.641
 7896SOL    HW224588   5.117   4.102   5.784
 7897SOL     OW24589   2.506   3.730   0.073
 7897SOL    HW124590   2.504   3.664   7.021
 7897SOL    HW224591   2.586   3.714   0.130
 7898SOL     OW24592   4.142   2.217   3.889
 7898SOL    HW124593   4.139   2.186   3.984
 7898SOL    HW224594   4.134   2.316   3.886
 7899SOL     OW24595   5.851   2.529   2.465
 7899SOL    HW124596   5.770   2.558   2.516
 7899SOL    HW224597   5.861   2.586   2.384
 7900SOL     OW24598   1.706   5.867   1.213
 7900SOL    HW124599   1.716   5.885   1.115
 7900SOL    HW224600   1.735   5.947   1.265
 7901SOL     OW24601   6.700   6.481   6.435
 7901SOL    HW124602   6.783   6.426   6.436
 7901SOL    HW224603   6.653   6.469   6.348
 7902SOL     OW24604   4.525   4.652   0.881
 7902SOL    HW124605   4.455   4.638   0.811
 7902SOL    HW224606   4.496   4.608   0.966
 7903SOL     OW24607   6.815   1.679   0.165
 7903SOL    HW124608   6.841   1.776   0.159
 7903SOL    HW224609   6.804   1.654   0.261
 7904SOL     OW24610   0.319   1.547   2.572
 7904SOL    HW124611   0.274   1.627   2.531
 7904SOL    HW224612   0.251   1.492   2.620
 7905SOL     OW24613   4.392   0.846   1.096
 7905SOL    HW124614   4.451   0.916   1.136
 7905SOL    HW224615   4.407   0.842   0.997
 7906SOL     OW24616   5.640   5.684   6.600
 7906SOL    HW124617   5.567   5.664   6.535
 7906SOL    HW224618   5.728   5.670   6.556
 7907SOL     OW24619   6.965   2.673   3.875
 7907SOL    HW124620   6.954   2.587   3.924
 7907SOL    HW224621   6.882   2.729   3.885
 7908SOL     OW24622   6.933   1.213   4.112
 7908SOL    HW124623   6.917   1.195   4.014
 7908SOL    HW224624   6.872   1.287   4.142
 7909SOL     OW24625   4.850   4.386   4.730
 7909SOL    HW124626   4.928   4.404   4.791
 7909SOL    HW224627   4.780   4.455   4.744
 7910SOL     OW24628   4.621   3.484   5.605
 7910SOL    HW124629   4.541   3.539   5.631
 7910SOL    HW224630   4.639   3.416   5.675
 7911SOL     OW24631   6.353   4.491   0.635
 7911SOL    HW124632   6.363   4.393   0.622
 7911SOL    HW224633   6.300   4.529   0.559
 7912SOL     OW24634   6.046   4.423   6.112
 7912SOL    HW124635   5.982   4.481   6.062
 7912SOL    HW224636   6.126   4.478   6.140
 7913SOL     OW24637   6.791   5.428   6.713
 7913SOL    HW124638   6.841   5.435   6.800
 7913SOL    HW224639   6.833   5.488   6.645
 7914SOL     OW24640   6.250   3.695   1.124
 7914SOL    HW124641   6.325   3.695   1.190
 7914SOL    HW224642   6.286   3.698   1.031
 7915SOL     OW24643   4.046   1.645   3.520
 7915SOL    HW124644   3.979   1.572   3.535
 7915SOL    HW224645   3.997   1.730   3.500
 7916SOL     OW24646   5.419   3.095   5.750
 7916SOL    HW124647   5.514   3.066   5.746
 7916SOL    HW224648   5.386   3.116   5.658
 7917SOL     OW24649   4.187   3.434   4.865
 7917SOL    HW124650   4.185   3.432   4.965
 7917SOL    HW224651   4.267   3.484   4.834
 7918SOL     OW24652   6.573   1.106   2.666
 7918SOL    HW124653   6.526   1.080   2.751
 7918SOL    HW224654   6.599   1.202   2.671
 7919SOL     OW24655   5.633   4.991   2.063
 7919SOL    HW124656   5.579   4.935   2.126
 7919SOL    HW224657   5.580   5.010   1.981
 7920SOL     OW24658   0.201   4.969   1.541
 7920SOL    HW124659   0.264   4.945   1.467
 7920SOL    HW224660   0.252   4.979   1.627
 7921SOL     OW24661   2.658   0.025   1.696
 7921SOL    HW124662   2.629   0.109   1.651
 7921SOL    HW224663   2.747   7.021   1.660
 7922SOL     OW24664   1.066   5.363   6.667
 7922SOL    HW124665   0.997   5.420   6.711
 7922SOL    HW224666   1.148   5.360   6.725
 7923SOL     OW24667   1.085   1.189   3.301
 7923SOL    HW124668   1.139   1.176   3.217
 7923SOL    HW224669   1.087   1.286   3.327
 7924SOL     OW24670   2.940   0.251   3.696
 7924SOL    HW124671   2.848   0.248   3.657
 7924SOL    HW224672   2.985   0.163   3.681
 7925SOL     OW24673   6.333   1.638   6.307
 7925SOL    HW124674   6.383   1.553   6.326
 7925SOL    HW224675   6.386   1.716   6.338
 7926SOL     OW24676   3.034   0.509   2.599
 7926SOL    HW124677   2.951   0.529   2.650
 7926SOL    HW224678   3.055   0.585   2.537
 7927SOL     OW24679   3.996   5.110   5.072
 7927SOL    HW124680   3.980   5.209   5.071
 7927SOL    HW224681   4.062   5.088   5.145
 7928SOL     OW24682   2.341   5.363   2.891
 7928SOL    HW124683   2.381   5.311   2.967
 7928SOL    HW224684   2.318   5.300   2.817
 7929SOL     OW24685   3.997   3.545   4.685
 7929SOL    HW124686   4.007   3.476   4.614
 7929SOL    HW224687   4.061   3.526   4.760
 7930SOL     OW24688   4.155   5.347   3.579
 7930SOL    HW124689   4.136   5.249   3.584
 7930SOL    HW224690   4.160   5.376   3.483
 7931SOL     OW24691   2.081   2.211   0.542
 7931SOL    HW124692   2.099   2.129   0.596
 7931SOL    HW224693   2.127   2.290   0.585
 7932SOL     OW24694   2.048   6.986   7.021
 7932SOL    HW124695   1.964   6.987   0.053
 7932SOL    HW224696   2.118   0.018   0.043
 7933SOL     OW24697   1.051   0.094   6.779
 7933SOL    HW124698   1.107   0.062   6.703
 7933SOL    HW224699   0.983   0.158   6.745
 7934SOL     OW24700   2.999   3.820   0.370
 7934SOL    HW124701   2.967   3.802   0.463
 7934SOL    HW224702   3.055   3.743   0.339
 7935SOL     OW24703   4.948   6.057   0.932
 7935SOL    HW124704   4.937   6.042   1.030
 7935SOL    HW224705   4.864   6.096   0.894
 7936SOL     OW24706   4.191   6.486   3.103
 7936SOL    HW124707   4.152   6.462   3.015
 7936SOL    HW224708   4.289   6.506   3.092
 7937SOL     OW24709   5.977   6.400   5.712
 7937SOL    HW124710   5.885   6.360   5.716
 7937SOL    HW224711   6.022   6.389   5.800
 7938SOL     OW24712   4.312   5.440   4.754
 7938SOL    HW124713   4.391   5.459   4.811
 7938SOL    HW224714   4.231   5.484   4.794
 7939SOL     OW24715   0.323   1.283   5.402
 7939SOL    HW124716   0.355   1.309   5.311
 7939SOL    HW224717   0.402   1.270   5.462
 7940SOL     OW24718   2.085   5.385   1.610
 7940SOL    HW124719   2.079   5.313   1.679
 7940SOL    HW224720   2.181   5.406   1.591
 7941SOL     OW24721   0.384   0.924   0.749
 7941SOL    HW124722   0.403   1.022   0.737
 7941SOL    HW224723   0.338   0.910   0.837
 7942SOL     OW24724   0.220   7.020   1.826
 7942SOL    HW124725   0.218   0.044   1.915
 7942SOL    HW224726   0.128   7.020   1.787
 7943SOL     OW24727   5.303   2.357   0.747
 7943SOL    HW124728   5.243   2.347   0.827
 7943SOL    HW224729   5.301   2.452   0.716
 7944SOL     OW24730   0.436   3.824   1.087
 7944SOL    HW124731   0.509   3.880   1.125
 7944SOL    HW224732   0.349   3.851   1.129
 7945SOL     OW24733   5.255   6.675   2.910
 7945SOL    HW124734   5.203   6.590   2.910
 7945SOL    HW224735   5.217   6.737   2.979
 7946SOL     OW24736   1.934   2.578   6.178
 7946SOL    HW124737   1.890   2.663   6.209
 7946SOL    HW224738   1.913   2.564   6.081
 7947SOL     OW24739   4.039   2.794   6.632
 7947SOL    HW124740   4.136   2.789   6.654
 7947SOL    HW224741   4.027   2.800   6.532
 7948SOL     OW24742   6.543   6.991   0.609
 7948SOL    HW124743   6.450   6.985   0.643
 7948SOL    HW224744   6.603   6.931   0.663
 7949SOL     OW24745   5.378   5.071   3.439
 7949SOL    HW124746   5.373   5.170   3.429
 7949SOL    HW224747   5.384   5.048   3.536
 7950SOL     OW24748   4.299   4.681   4.291
 7950SOL    HW124749   4.229   4.704   4.223
 7950SOL    HW224750   4.273   4.719   4.380
 7951SOL     OW24751   3.150   3.545   0.510
 7951SOL    HW124752   3.141   3.484   0.431
 7951SOL    HW224753   3.089   3.514   0.583
 7952SOL     OW24754   6.194   2.664   0.487
 7952SOL    HW124755   6.273   2.713   0.450
 7952SOL    HW224756   6.209   2.565   0.480
 7953SOL     OW24757   2.671   2.433   3.368
 7953SOL    HW124758   2.632   2.458   3.280
 7953SOL    HW224759   2.728   2.351   3.357
 7954SOL     OW24760   4.275   5.049   4.973
 7954SOL    HW124761   4.215   5.105   4.916
 7954SOL    HW224762   4.222   4.976   5.017
 7955SOL     OW24763   0.111   6.183   6.765
 7955SOL    HW124764   0.042   6.172   6.836
 7955SOL    HW224765   0.090   6.123   6.688
 7956SOL     OW24766   0.150   6.319   3.613
 7956SOL    HW124767   0.213   6.312   3.691
 7956SOL    HW224768   0.198   6.362   3.536
 7957SOL     OW24769   1.107   1.380   0.700
 7957SOL    HW124770   1.063   1.467   0.681
 7957SOL    HW224771   1.145   1.380   0.793
 7958SOL     OW24772   2.946   5.514   3.662
 7958SOL    HW124773   2.991   5.570   3.732
 7958SOL    HW224774   2.926   5.570   3.582
 7959SOL     OW24775   6.195   4.891   0.471
 7959SOL    HW124776   6.273   4.833   0.449
 7959SOL    HW224777   6.130   4.841   0.528
 7960SOL     OW24778   2.648   1.078   1.300
 7960SOL    HW124779   2.681   1.163   1.259
 7960SOL    HW224780   2.576   1.039   1.242
 7961SOL     OW24781   1.586   5.983   6.034
 7961SOL    HW124782   1.564   5.963   6.130
 7961SOL    HW224783   1.515   6.040   5.995
 7962SOL     OW24784   2.187   0.959   1.942
 7962SOL    HW124785   2.126   0.895   1.895
 7962SOL    HW224786   2.276   0.961   1.896
 7963SOL     OW24787   0.571   0.939   5.626
 7963SOL    HW124788   0.543   0.923   5.532
 7963SOL    HW224789   0.508   0.892   5.688
 7964SOL     OW24790   5.602   5.267   2.944
 7964SOL    HW124791   5.617   5.360   2.977
 7964SOL    HW224792   5.520   5.264   2.887
 7965SOL     OW24793   5.019   2.630   0.613
 7965SOL    HW124794   4.991   2.716   0.572
 7965SOL    HW224795   5.116   2.614   0.594
 7966SOL     OW24796   0.537   5.235   4.239
 7966SOL    HW124797   0.572   5.145   4.268
 7966SOL    HW224798   0.554   5.302   4.311
 7967SOL     OW24799   3.307   6.163   2.695
 7967SOL    HW124800   3.362   6.094   2.648
 7967SOL    HW224801   3.222   6.178   2.645
 7968SOL     OW24802   2.175   2.425   3.850
 7968SOL    HW124803   2.129   2.405   3.764
 7968SOL    HW224804   2.134   2.506   3.892
 7969SOL     OW24805   3.928   0.961   3.470
 7969SOL    HW124806   4.000   0.929   3.531
 7969SOL    HW224807   3.963   1.035   3.413
 7970SOL     OW24808   0.193   4.366   3.002
 7970SOL    HW124809   0.206   4.350   3.099
 7970SOL    HW224810   0.241   4.450   2.975
 7971SOL     OW24811   3.700   0.551   1.533
 7971SOL    HW124812   3.677   0.565   1.437
 7971SOL    HW224813   3.748   0.463   1.543
 7972SOL     OW24814   6.803   4.216   1.628
 7972SOL    HW124815   6.740   4.279   1.672
 7972SOL    HW224816   6.754   4.160   1.561
 7973SOL     OW24817   4.884   3.252   3.802
 7973SOL    HW124818   4.890   3.264   3.702
 7973SOL    HW224819   4.897   3.341   3.846
 7974SOL     OW24820   5.116   0.568   4.385
 7974SOL    HW124821   5.200   0.570   4.439
 7974SOL    HW224822   5.093   0.660   4.355
 7975SOL     OW24823   3.256   1.048   4.866
 7975SOL    HW124824   3.163   1.071   4.892
 7975SOL    HW224825   3.275   1.083   4.774
 7976SOL     OW24826   1.028   6.238   4.814
 7976SOL    HW124827   1.113   6.193   4.841
 7976SOL    HW224828   0.951   6.181   4.840
 7977SOL     OW24829   5.157   6.132   1.857
 7977SOL    HW124830   5.071   6.174   1.884
 7977SOL    HW224831   5.147   6.033   1.853
 7978SOL     OW24832   4.660   3.300   5.869
 7978SOL    HW124833   4.757   3.302   5.891
 7978SOL    HW224834   4.615   3.382   5.905
 7979SOL     OW24835   2.641   0.222   4.558
 7979SOL    HW124836   2.594   0.297   4.510
 7979SOL    HW224837   2.678   0.159   4.490
 7980SOL     OW24838   3.868   5.879   0.332
 7980SOL    HW124839   3.944   5.881   0.397
 7980SOL    HW224840   3.830   5.971   0.322
 7981SOL     OW24841   1.286   5.294   2.126
 7981SOL    HW124842   1.385   5.306   2.125
 7981SOL    HW224843   1.263   5.206   2.087
 7982SOL     OW24844   6.511   2.587   0.897
 7982SOL    HW124845   6.560   2.502   0.916
 7982SOL    HW224846   6.415   2.566   0.880
 7983SOL     OW24847   5.330   1.571   2.636
 7983SOL    HW124848   5.289   1.660   2.655
 7983SOL    HW224849   5.260   1.500   2.640
 7984SOL     OW24850   0.411   2.672   2.275
 7984SOL    HW124851   0.354   2.708   2.349
 7984SOL    HW224852   0.495   2.633   2.314
 7985SOL     OW24853   1.214   0.451   2.261
 7985SOL    HW124854   1.278   0.377   2.240
 7985SOL    HW224855   1.236   0.530   2.205
 7986SOL     OW24856   4.034   1.398   6.333
 7986SOL    HW124857   4.040   1.450   6.249
 7986SOL    HW224858   4.118   1.346   6.347
 7987SOL     OW24859   0.769   2.933   5.284
 7987SOL    HW124860   0.853   2.884   5.260
 7987SOL    HW224861   0.690   2.880   5.255
 7988SOL     OW24862   2.920   2.024   4.236
 7988SOL    HW124863   2.921   2.097   4.167
 7988SOL    HW224864   3.010   1.982   4.242
 7989SOL     OW24865   3.183   2.374   5.683
 7989SOL    HW124866   3.206   2.293   5.738
 7989SOL    HW224867   3.228   2.368   5.594
 7990SOL     OW24868   1.125   2.671   4.147
 7990SOL    HW124869   1.187   2.728   4.093
 7990SOL    HW224870   1.178   2.602   4.196
 7991SOL     OW24871   0.388   2.843   5.700
 7991SOL    HW124872   0.402   2.942   5.693
 7991SOL    HW224873   0.463   2.803   5.752
 7992SOL     OW24874   1.752   0.011   0.820
 7992SOL    HW124875   1.756   6.955   0.759
 7992SOL    HW224876   1.661   0.016   0.862
 7993SOL     OW24877   1.813   5.407   6.990
 7993SOL    HW124878   1.809   5.486   0.028
 7993SOL    HW224879   1.722   5.365   6.984
 7994SOL     OW24880   4.660   0.782   3.648
 7994SOL    HW124881   4.616   0.869   3.625
 7994SOL    HW224882   4.750   0.800   3.688
 7995SOL     OW24883   3.475   5.237   3.611
 7995SOL    HW124884   3.552   5.180   3.640
 7995SOL    HW224885   3.412   5.249   3.688
 7996SOL     OW24886   3.423   0.169   4.626
 7996SOL    HW124887   3.375   0.152   4.540
 7996SOL    HW224888   3.375   0.121   4.700
 7997SOL     OW24889   6.218   2.456   1.191
 7997SOL    HW124890   6.285   2.440   1.264
 7997SOL    HW224891   6.212   2.554   1.172
 7998SOL     OW24892   5.896   4.576   0.320
 7998SOL    HW124893   5.902   4.570   0.220
 7998SOL    HW224894   5.834   4.650   0.346
 7999SOL     OW24895   1.420   0.221   5.345
 7999SOL    HW124896   1.404   0.229   5.246
 7999SOL    HW224897   1.436   0.312   5.383
 8000SOL     OW24898   6.554   0.114   5.568
 8000SOL    HW124899   6.649   0.123   5.541
 8000SOL    HW224900   6.504   0.061   5.499
 8001SOL     OW24901   1.517   6.550   1.641
 8001SOL    HW124902   1.552   6.639   1.673
 8001SOL    HW224903   1.542   6.479   1.706
 8002SOL     OW24904   6.491   3.899   5.131
 8002SOL    HW124905   6.504   3.880   5.034
 8002SOL    HW224906   6.555   3.971   5.160
 8003SOL     OW24907   3.791   4.908   3.107
 8003SOL    HW124908   3.878   4.862   3.121
 8003SOL    HW224909   3.730   4.889   3.184
 8004SOL     OW24910   2.521   4.498   3.275
 8004SOL    HW124911   2.529   4.406   3.315
 8004SOL    HW224912   2.612   4.536   3.261
 8005SOL     OW24913   3.554   0.205   1.805
 8005SOL    HW124914   3.462   0.198   1.843
 8005SOL    HW224915   3.591   0.296   1.824
 8006SOL     OW24916   2.463   6.186   0.388
 8006SOL    HW124917   2.383   6.183   0.448
 8006SOL    HW224918   2.514   6.101   0.395
 8007SOL     OW24919   0.232   0.512   4.299
 8007SOL    HW124920   0.325   0.546   4.287
 8007SOL    HW224921   0.189   0.498   4.210
 8008SOL     OW24922   6.441   6.689   6.964
 8008SOL    HW124923   6.412   6.628   0.014
 8008SOL    HW224924   6.363   6.710   6.904
 8009SOL     OW24925   0.058   0.598   3.111
 8009SOL    HW124926   0.127   0.556   3.052
 8009SOL    HW224927   0.073   0.569   3.206
 8010SOL     OW24928   2.127   1.911   0.492
 8010SOL    HW124929   2.137   1.826   0.440
 8010SOL    HW224930   2.031   1.923   0.518
 8011SOL     OW24931   2.874   2.345   1.236
 8011SOL    HW124932   2.915   2.323   1.324
 8011SOL    HW224933   2.881   2.444   1.220
 8012SOL     OW24934   2.027   6.507   1.762
 8012SOL    HW124935   2.075   6.593   1.777
 8012SOL    HW224936   2.089   6.431   1.778
 8013SOL     OW24937   6.117   5.050   3.879
 8013SOL    HW124938   6.187   4.980   3.867
 8013SOL    HW224939   6.097   5.063   3.976
 8014SOL     OW24940   2.006   6.102   6.673
 8014SOL    HW124941   2.037   6.052   6.592
 8014SOL    HW224942   1.915   6.070   6.699
 8015SOL     OW24943   2.534   2.709   0.990
 8015SOL    HW124944   2.521   2.677   1.084
 8015SOL    HW224945   2.483   2.650   0.928
 8016SOL     OW24946   4.444   0.072   0.765
 8016SOL    HW124947   4.438   0.104   0.670
 8016SOL    HW224948   4.358   0.026   0.790
 8017SOL     OW24949   6.926   4.824   4.720
 8017SOL    HW124950   6.951   4.768   4.641
 8017SOL    HW224951   6.832   4.803   4.747
 8018SOL     OW24952   4.704   1.960   5.904
 8018SOL    HW124953   4.719   1.893   5.977
 8018SOL    HW224954   4.715   2.052   5.941
 8019SOL     OW24955   1.799   5.836   0.305
 8019SOL    HW124956   1.780   5.786   0.390
 8019SOL    HW224957   1.886   5.884   0.313
 8020SOL     OW24958   5.319   5.451   6.984
 8020SOL    HW124959   5.411   5.429   6.951
 8020SOL    HW224960   5.324   5.482   0.056
 8021SOL     OW24961   1.025   1.340   1.158
 8021SOL    HW124962   1.042   1.252   1.115
 8021SOL    HW224963   1.071   1.412   1.106
 8022SOL     OW24964   4.611   6.639   2.867
 8022SOL    HW124965   4.601   6.732   2.902
 8022SOL    HW224966   4.576   6.574   2.934
 8023SOL     OW24967   6.226   6.074   2.084
 8023SOL    HW124968   6.325   6.079   2.097
 8023SOL    HW224969   6.191   5.990   2.125
 8024SOL     OW24970   4.501   5.504   6.034
 8024SOL    HW124971   4.453   5.419   6.017
 8024SOL    HW224972   4.583   5.485   6.089
 8025SOL     OW24973   3.582   6.331   6.727
 8025SOL    HW124974   3.602   6.239   6.760
 8025SOL    HW224975   3.523   6.325   6.646
 8026SOL     OW24976   1.299   3.665   6.602
 8026SOL    HW124977   1.305   3.750   6.549
 8026SOL    HW224978   1.203   3.635   6.605
 8027SOL     OW24979   4.631   1.984   5.298
 8027SOL    HW124980   4.707   1.997   5.363
 8027SOL    HW224981   4.611   2.070   5.252
 8028SOL     OW24982   4.888   5.010   5.959
 8028SOL    HW124983   4.886   5.108   5.940
 8028SOL    HW224984   4.974   4.972   5.924
 8029SOL     OW24985   4.276   4.707   0.313
 8029SOL    HW124986   4.342   4.681   0.243
 8029SOL    HW224987   4.219   4.629   0.336
 8030SOL     OW24988   5.741   4.280   5.396
 8030SOL    HW124989   5.762   4.224   5.476
 8030SOL    HW224990   5.656   4.330   5.412
 8031SOL     OW24991   4.149   5.480   1.556
 8031SOL    HW124992   4.235   5.530   1.572
 8031SOL    HW224993   4.167   5.382   1.558
 8032SOL     OW24994   5.590   4.167   5.098
 8032SOL    HW124995   5.569   4.111   5.018
 8032SOL    HW224996   5.565   4.117   5.181
 8033SOL     OW24997   5.647   2.648   6.978
 8033SOL    HW124998   5.725   2.679   0.009
 8033SOL    HW224999   5.564   2.652   0.010
 8034SOL     OW25000   5.026   6.896   4.935
 8034SOL    HW125001   5.034   6.954   4.854
 8034SOL    HW225002   4.945   6.838   4.926
 8035SOL     OW25003   5.744   6.129   6.677
 8035SOL    HW125004   5.762   6.090   6.586
 8035SOL    HW225005   5.674   6.200   6.670
 8036SOL     OW25006   2.133   3.831   1.865
 8036SOL    HW125007   2.080   3.900   1.915
 8036SOL    HW225008   2.116   3.741   1.904
 8037SOL     OW25009   1.774   3.291   0.900
 8037SOL    HW125010   1.835   3.284   0.979
 8037SOL    HW225011   1.706   3.217   0.905
 8038SOL     OW25012   6.874   1.962   3.505
 8038SOL    HW125013   6.883   1.947   3.406
 8038SOL    HW225014   6.917   2.048   3.530
 8039SOL     OW25015   2.142   0.274   2.989
 8039SOL    HW125016   2.129   0.180   3.021
 8039SOL    HW225017   2.053   0.320   2.984
 8040SOL     OW25018   0.427   5.353   1.211
 8040SOL    HW125019   0.348   5.415   1.206
 8040SOL    HW225020   0.411   5.287   1.284
 8041SOL     OW25021   3.877   1.392   0.938
 8041SOL    HW125022   3.817   1.414   0.861
 8041SOL    HW225023   3.896   1.475   0.990
 8042SOL     OW25024   3.208   2.969   2.676
 8042SOL    HW125025   3.187   2.989   2.581
 8042SOL    HW225026   3.305   2.947   2.686
 8043SOL     OW25027   2.539   0.319   1.485
 8043SOL    HW125028   2.512   0.411   1.459
 8043SOL    HW225029   2.467   0.277   1.540
 8044SOL     OW25030   3.256   3.192   1.374
 8044SOL    HW125031   3.249   3.265   1.443
 8044SOL    HW225032   3.300   3.229   1.292
 8045SOL     OW25033   6.350   2.397   2.853
 8045SOL    HW125034   6.392   2.357   2.772
 8045SOL    HW225035   6.255   2.367   2.861
 8046SOL     OW25036   5.516   4.516   5.308
 8046SOL    HW125037   5.418   4.533   5.294
 8046SOL    HW225038   5.556   4.484   5.223
 8047SOL     OW25039   3.732   5.983   4.968
 8047SOL    HW125040   3.719   6.022   4.877
 8047SOL    HW225041   3.644   5.951   5.003
 8048SOL     OW25042   6.592   0.479   5.538
 8048SOL    HW125043   6.599   0.501   5.441
 8048SOL    HW225044   6.497   0.456   5.560
 8049SOL     OW25045   1.133   6.423   1.491
 8049SOL    HW125046   1.108   6.510   1.533
 8049SOL    HW225047   1.218   6.433   1.439
 8050SOL     OW25048   1.656   3.678   0.659
 8050SOL    HW125049   1.565   3.660   0.624
 8050SOL    HW225050   1.661   3.772   0.693
 8051SOL     OW25051   4.239   0.929   2.942
 8051SOL    HW125052   4.165   0.992   2.918
 8051SOL    HW225053   4.269   0.947   3.035
 8052SOL     OW25054   2.672   1.521   3.142
 8052SOL    HW125055   2.715   1.490   3.056
 8052SOL    HW225056   2.720   1.602   3.175
 8053SOL     OW25057   3.630   4.101   2.974
 8053SOL    HW125058   3.538   4.070   2.949
 8053SOL    HW225059   3.657   4.175   2.912
 8054SOL     OW25060   5.176   6.625   4.580
 8054SOL    HW125061   5.142   6.539   4.618
 8054SOL    HW225062   5.255   6.607   4.522
 8055SOL     OW25063   1.247   0.197   6.037
 8055SOL    HW125064   1.271   0.109   5.997
 8055SOL    HW225065   1.323   0.230   6.094
 8056SOL     OW25066   4.742   1.646   2.978
 8056SOL    HW125067   4.832   1.603   2.967
 8056SOL    HW225068   4.704   1.620   3.067
 8057SOL     OW25069   2.656   6.895   3.308
 8057SOL    HW125070   2.694   6.967   3.366
 8057SOL    HW225071   2.674   6.916   3.212
 8058SOL     OW25072   2.661   0.613   2.246
 8058SOL    HW125073   2.602   0.545   2.202
 8058SOL    HW225074   2.755   0.601   2.215
 8059SOL     OW25075   3.237   2.083   4.836
 8059SOL    HW125076   3.324   2.041   4.862
 8059SOL    HW225077   3.207   2.145   4.908
 8060SOL     OW25078   6.728   1.138   4.866
 8060SOL    HW125079   6.650   1.079   4.890
 8060SOL    HW225080   6.811   1.102   4.909
 8061SOL     OW25081   6.566   5.929   2.374
 8061SOL    HW125082   6.659   5.900   2.398
 8061SOL    HW225083   6.561   6.029   2.372
 8062SOL     OW25084   1.600   4.004   4.185
 8062SOL    HW125085   1.543   3.949   4.246
 8062SOL    HW225086   1.626   4.089   4.231
 8063SOL     OW25087   3.262   3.165   6.812
 8063SOL    HW125088   3.355   3.188   6.841
 8063SOL    HW225089   3.210   3.249   6.797
 8064SOL     OW25090   0.636   4.083   0.410
 8064SOL    HW125091   0.635   4.074   0.311
 8064SOL    HW225092   0.722   4.048   0.447
 8065SOL     OW25093   4.802   0.120   4.325
 8065SOL    HW125094   4.885   0.068   4.345
 8065SOL    HW225095   4.827   0.213   4.297
 8066SOL     OW25096   1.673   1.034   1.156
 8066SOL    HW125097   1.633   1.058   1.068
 8066SOL    HW225098   1.650   0.940   1.179
 8067SOL     OW25099   4.249   3.034   1.594
 8067SOL    HW125100   4.277   2.939   1.579
 8067SOL    HW225101   4.254   3.083   1.507
 8068SOL     OW25102   0.756   4.407   4.579
 8068SOL    HW125103   0.685   4.346   4.614
 8068SOL    HW225104   0.714   4.476   4.520
 8069SOL     OW25105   1.455   6.364   0.933
 8069SOL    HW125106   1.490   6.374   1.026
 8069SOL    HW225107   1.370   6.416   0.924
 8070SOL     OW25108   3.910   6.212   1.776
 8070SOL    HW125109   3.954   6.128   1.746
 8070SOL    HW225110   3.812   6.207   1.756
 8071SOL     OW25111   3.673   6.626   5.661
 8071SOL    HW125112   3.630   6.709   5.697
 8071SOL    HW225113   3.619   6.592   5.583
 8072SOL     OW25114   4.575   1.228   0.497
 8072SOL    HW125115   4.659   1.267   0.458
 8072SOL    HW225116   4.496   1.262   0.447
 8073SOL     OW25117   4.378   6.167   5.872
 8073SOL    HW125118   4.331   6.243   5.828
 8073SOL    HW225119   4.315   6.123   5.937
 8074SOL     OW25120   3.386   3.675   0.567
 8074SOL    HW125121   3.424   3.645   0.655
 8074SOL    HW225122   3.301   3.625   0.550
 8075SOL     OW25123   0.159   1.107   2.734
 8075SOL    HW125124   0.125   1.193   2.772
 8075SOL    HW225125   0.082   1.053   2.701
 8076SOL     OW25126   5.541   2.390   5.409
 8076SOL    HW125127   5.619   2.354   5.461
 8076SOL    HW225128   5.458   2.341   5.436
 8077SOL     OW25129   0.749   6.970   1.148
 8077SOL    HW125130   0.680   6.916   1.196
 8077SOL    HW225131   0.794   6.913   1.079
 8078SOL     OW25132   6.672   2.755   0.733
 8078SOL    HW125133   6.638   2.844   0.700
 8078SOL    HW225134   6.603   2.712   0.791
 8079SOL     OW25135   6.786   2.245   3.011
 8079SOL    HW125136   6.777   2.217   3.107
 8079SOL    HW225137   6.718   2.316   2.992
 8080SOL     OW25138   2.645   4.188   0.640
 8080SOL    HW125139   2.666   4.169   0.544
 8080SOL    HW225140   2.590   4.114   0.678
 8081SOL     OW25141   6.326   0.904   5.052
 8081SOL    HW125142   6.293   0.874   4.963
 8081SOL    HW225143   6.267   0.865   5.124
 8082SOL     OW25144   6.597   2.547   3.584
 8082SOL    HW125145   6.568   2.461   3.626
 8082SOL    HW225146   6.697   2.554   3.589
 8083SOL     OW25147   4.554   2.568   2.819
 8083SOL    HW125148   4.512   2.642   2.766
 8083SOL    HW225149   4.509   2.561   2.908
 8084SOL     OW25150   6.604   6.202   1.223
 8084SOL    HW125151   6.675   6.271   1.235
 8084SOL    HW225152   6.577   6.165   1.312
 8085SOL     OW25153   5.449   0.442   0.781
 8085SOL    HW125154   5.402   0.530   0.788
 8085SOL    HW225155   5.446   0.410   0.686
 8086SOL     OW25156   3.871   0.434   4.687
 8086SOL    HW125157   3.910   0.351   4.728
 8086SOL    HW225158   3.836   0.493   4.760
 8087SOL     OW25159   2.628   2.350   1.050
 8087SOL    HW125160   2.548   2.349   1.109
 8087SOL    HW225161   2.710   2.365   1.106
 8088SOL     OW25162   5.768   1.061   2.202
 8088SOL    HW125163   5.862   1.085   2.180
 8088SOL    HW225164   5.713   1.145   2.205
 8089SOL     OW25165   5.246   2.962   0.445
 8089SOL    HW125166   5.158   2.915   0.451
 8089SOL    HW225167   5.317   2.897   0.417
 8090SOL     OW25168   5.233   2.023   6.269
 8090SOL    HW125169   5.183   2.018   6.355
 8090SOL    HW225170   5.295   1.945   6.262
 8091SOL     OW25171   3.271   4.715   6.490
 8091SOL    HW125172   3.247   4.813   6.491
 8091SOL    HW225173   3.353   4.700   6.546
 8092SOL     OW25174   1.566   1.272   5.169
 8092SOL    HW125175   1.623   1.333   5.114
 8092SOL    HW225176   1.488   1.241   5.114
 8093SOL     OW25177   6.008   5.944   1.328
 8093SOL    HW125178   6.082   6.001   1.364
 8093SOL    HW225179   6.038   5.899   1.245
 8094SOL     OW25180   1.346   3.901   6.457
 8094SOL    HW125181   1.336   3.859   6.367
 8094SOL    HW225182   1.443   3.904   6.481
 8095SOL     OW25183   5.685   3.355   4.994
 8095SOL    HW125184   5.710   3.273   4.942
 8095SOL    HW225185   5.755   3.425   4.982
 8096SOL     OW25186   3.291   5.917   1.633
 8096SOL    HW125187   3.364   5.969   1.587
 8096SOL    HW225188   3.285   5.826   1.592
 8097SOL     OW25189   4.905   1.027   3.525
 8097SOL    HW125190   4.813   1.016   3.489
 8097SOL    HW225191   4.966   1.061   3.453
 8098SOL     OW25192   3.240   5.981   4.334
 8098SOL    HW125193   3.194   6.031   4.260
 8098SOL    HW225194   3.179   5.911   4.370
 8099SOL     OW25195   5.057   6.408   4.708
 8099SOL    HW125196   5.123   6.333   4.710
 8099SOL    HW225197   5.042   6.441   4.801
 8100SOL     OW25198   6.840   6.859   0.670
 8100SOL    HW125199   6.870   6.923   0.740
 8100SOL    HW225200   6.788   6.785   0.712
 8101SOL     OW25201   1.312   6.107   3.988
 8101SOL    HW125202   1.234   6.053   3.957
 8101SOL    HW225203   1.281   6.200   4.008
 8102SOL     OW25204   0.005   5.406   5.654
 8102SOL    HW125205   6.961   5.342   5.692
 8102SOL    HW225206   6.995   5.500   5.664
 8103SOL     OW25207   3.746   1.664   2.387
 8103SOL    HW125208   3.647   1.670   2.370
 8103SOL    HW225209   3.787   1.599   2.323
 8104SOL     OW25210   2.641   6.778   5.625
 8104SOL    HW125211   2.702   6.856   5.635
 8104SOL    HW225212   2.599   6.757   5.714
 8105SOL     OW25213   2.279   2.171   3.570
 8105SOL    HW125214   2.279   2.084   3.619
 8105SOL    HW225215   2.185   2.196   3.547
 8106SOL     OW25216   1.023   4.268   3.309
 8106SOL    HW125217   1.079   4.189   3.288
 8106SOL    HW225218   0.958   4.245   3.381
 8107SOL     OW25219   1.800   6.295   5.796
 8107SOL    HW125220   1.879   6.325   5.850
 8107SOL    HW225221   1.829   6.225   5.730
 8108SOL     OW25222   0.562   3.803   4.492
 8108SOL    HW125223   0.544   3.801   4.591
 8108SOL    HW225224   0.577   3.897   4.462
 8109SOL     OW25225   1.684   4.588   4.894
 8109SOL    HW125226   1.607   4.571   4.956
 8109SOL    HW225227   1.652   4.581   4.800
 8110SOL     OW25228   2.108   6.200   0.825
 8110SOL    HW125229   2.031   6.261   0.846
 8110SOL    HW225230   2.146   6.165   0.911
 8111SOL     OW25231   2.938   5.652   4.604
 8111SOL    HW125232   2.856   5.662   4.547
 8111SOL    HW225233   3.018   5.679   4.552
 8112SOL     OW25234   2.495   0.309   5.648
 8112SOL    HW125235   2.452   0.341   5.563
 8112SOL    HW225236   2.465   0.366   5.724
 8113SOL     OW25237   3.920   2.559   6.481
 8113SOL    HW125238   3.964   2.633   6.531
 8113SOL    HW225239   3.856   2.597   6.415
 8114SOL     OW25240   2.312   2.841   2.613
 8114SOL    HW125241   2.385   2.773   2.625
 8114SOL    HW225242   2.293   2.852   2.515
 8115SOL     OW25243   3.116   1.207   1.384
 8115SOL    HW125244   3.144   1.112   1.396
 8115SOL    HW225245   3.192   1.268   1.404
 8116SOL     OW25246   6.130   6.779   5.076
 8116SOL    HW125247   6.120   6.700   5.137
 8116SOL    HW225248   6.145   6.861   5.130
 8117SOL     OW25249   1.391   1.726   4.874
 8117SOL    HW125250   1.353   1.645   4.918
 8117SOL    HW225251   1.375   1.806   4.932
 8118SOL     OW25252   1.095   4.177   5.417
 8118SOL    HW125253   1.088   4.078   5.428
 8118SOL    HW225254   1.165   4.199   5.349
 8119SOL     OW25255   0.785   5.952   3.015
 8119SOL    HW125256   0.765   6.047   2.991
 8119SOL    HW225257   0.830   5.907   2.939
 8120SOL     OW25258   4.106   4.385   1.105
 8120SOL    HW125259   4.079   4.294   1.073
 8120SOL    HW225260   4.106   4.386   1.205
 8121SOL     OW25261   6.793   0.766   2.626
 8121SOL    HW125262   6.697   0.777   2.602
 8121SOL    HW225263   6.819   0.670   2.619
 8122SOL     OW25264   6.700   6.307   2.144
 8122SOL    HW125265   6.677   6.381   2.207
 8122SOL    HW225266   6.691   6.339   2.050
 8123SOL     OW25267   1.428   6.409   6.097
 8123SOL    HW125268   1.467   6.482   6.154
 8123SOL    HW225269   1.366   6.353   6.152
 8124SOL     OW25270   0.931   5.593   1.845
 8124SOL    HW125271   0.927   5.493   1.834
 8124SOL    HW225272   1.018   5.627   1.809
 8125SOL     OW25273   5.901   4.205   3.201
 8125SOL    HW125274   5.919   4.235   3.107
 8125SOL    HW225275   5.936   4.274   3.265
 8126SOL     OW25276   5.835   4.164   2.618
 8126SOL    HW125277   5.771   4.163   2.694
 8126SOL    HW225278   5.798   4.110   2.542
 8127SOL     OW25279   2.037   5.060   0.152
 8127SOL    HW125280   2.010   5.120   0.227
 8127SOL    HW225281   1.979   5.078   0.072
 8128SOL     OW25282   3.520   2.605   5.882
 8128SOL    HW125283   3.435   2.556   5.903
 8128SOL    HW225284   3.569   2.556   5.810
 8129SOL     OW25285   5.513   0.641   6.439
 8129SOL    HW125286   5.493   0.558   6.388
 8129SOL    HW225287   5.476   0.721   6.391
 8130SOL     OW25288   1.293   5.292   6.807
 8130SOL    HW125289   1.357   5.300   6.730
 8130SOL    HW225290   1.277   5.196   6.827
 8131SOL     OW25291   2.677   0.654   0.559
 8131SOL    HW125292   2.645   0.717   0.488
 8131SOL    HW225293   2.777   0.656   0.562
 8132SOL     OW25294   5.920   5.667   4.023
 8132SOL    HW125295   5.887   5.733   4.090
 8132SOL    HW225296   6.002   5.622   4.059
 8133SOL     OW25297   2.618   5.229   2.776
 8133SOL    HW125298   2.659   5.277   2.854
 8133SOL    HW225299   2.549   5.287   2.733
 8134SOL     OW25300   2.194   2.163   3.940
 8134SOL    HW125301   2.180   2.262   3.942
 8134SOL    HW225302   2.290   2.143   3.921
 8135SOL     OW25303   4.119   5.466   2.494
 8135SOL    HW125304   4.066   5.381   2.486
 8135SOL    HW225305   4.084   5.533   2.428
 8136SOL     OW25306   4.206   5.834   2.684
 8136SOL    HW125307   4.244   5.793   2.767
 8136SOL    HW225308   4.240   5.786   2.604
 8137SOL     OW25309   2.168   4.030   4.709
 8137SOL    HW125310   2.228   4.019   4.629
 8137SOL    HW225311   2.223   4.040   4.791
 8138SOL     OW25312   5.346   1.170   2.314
 8138SOL    HW125313   5.288   1.091   2.294
 8138SOL    HW225314   5.368   1.171   2.411
 8139SOL     OW25315   1.742   2.785   2.956
 8139SOL    HW125316   1.803   2.854   2.916
 8139SOL    HW225317   1.768   2.695   2.921
 8140SOL     OW25318   4.974   0.517   0.668
 8140SOL    HW125319   4.884   0.500   0.629
 8140SOL    HW225320   4.997   0.444   0.733
 8141SOL     OW25321   4.799   1.698   5.998
 8141SOL    HW125322   4.734   1.651   6.058
 8141SOL    HW225323   4.807   1.647   5.912
 8142SOL     OW25324   2.079   6.219   0.245
 8142SOL    HW125325   2.017   6.234   0.322
 8142SOL    HW225326   2.096   6.305   0.198
 8143SOL     OW25327   5.725   4.776   0.404
 8143SOL    HW125328   5.674   4.861   0.393
 8143SOL    HW225329   5.663   4.703   0.434
 8144SOL     OW25330   6.961   4.997   5.939
 8144SOL    HW125331   6.957   4.897   5.942
 8144SOL    HW225332   0.031   5.028   5.959
 8145SOL     OW25333   5.555   5.611   6.833
 8145SOL    HW125334   5.554   5.512   6.846
 8145SOL    HW225335   5.576   5.632   6.738
 8146SOL     OW25336   5.922   0.464   4.553
 8146SOL    HW125337   5.895   0.451   4.649
 8146SOL    HW225338   5.871   0.541   4.514
 8147SOL     OW25339   0.862   0.939   5.608
 8147SOL    HW125340   0.870   1.039   5.608
 8147SOL    HW225341   0.778   0.912   5.654
 8148SOL     OW25342   3.956   4.835   0.169
 8148SOL    HW125343   4.056   4.837   0.163
 8148SOL    HW225344   3.919   4.770   0.103
 8149SOL     OW25345   1.512   6.092   4.125
 8149SOL    HW125346   1.432   6.111   4.068
 8149SOL    HW225347   1.577   6.168   4.117
 8150SOL     OW25348   1.341   3.180   1.102
 8150SOL    HW125349   1.328   3.214   1.195
 8150SOL    HW225350   1.296   3.241   1.037
 8151SOL     OW25351   5.862   4.459   4.084
 8151SOL    HW125352   5.887   4.550   4.050
 8151SOL    HW225353   5.819   4.407   4.011
 8152SOL     OW25354   4.564   2.156   3.024
 8152SOL    HW125355   4.653   2.185   2.989
 8152SOL    HW225356   4.549   2.060   3.004
 8153SOL     OW25357   0.019   2.134   3.854
 8153SOL    HW125358   0.005   2.217   3.800
 8153SOL    HW225359   6.955   2.106   3.895
 8154SOL     OW25360   1.719   1.610   3.520
 8154SOL    HW125361   1.696   1.537   3.584
 8154SOL    HW225362   1.672   1.595   3.433
 8155SOL     OW25363   1.595   5.033   1.812
 8155SOL    HW125364   1.511   5.050   1.864
 8155SOL    HW225365   1.614   4.935   1.812
 8156SOL     OW25366   5.780   5.104   1.611
 8156SOL    HW125367   5.708   5.166   1.641
 8156SOL    HW225368   5.854   5.156   1.569
 8157SOL     OW25369   6.790   2.908   6.412
 8157SOL    HW125370   6.796   2.965   6.330
 8157SOL    HW225371   6.868   2.925   6.471
 8158SOL     OW25372   5.540   4.556   6.075
 8158SOL    HW125373   5.486   4.627   6.120
 8158SOL    HW225374   5.581   4.594   5.992
 8159SOL     OW25375   3.577   6.103   5.847
 8159SOL    HW125376   3.640   6.099   5.925
 8159SOL    HW225377   3.625   6.142   5.768
 8160SOL     OW25378   5.217   1.411   3.440
 8160SOL    HW125379   5.226   1.446   3.533
 8160SOL    HW225380   5.308   1.391   3.403
 8161SOL     OW25381   5.748   3.273   0.946
 8161SOL    HW125382   5.650   3.275   0.970
 8161SOL    HW225383   5.758   3.260   0.848
 8162SOL     OW25384   0.374   4.968   6.564
 8162SOL    HW125385   0.426   4.885   6.542
 8162SOL    HW225386   0.389   4.992   6.660
 8163SOL     OW25387   4.479   4.867   5.267
 8163SOL    HW125388   4.469   4.964   5.244
 8163SOL    HW225389   4.554   4.855   5.332
 8164SOL     OW25390   5.809   1.265   0.116
 8164SOL    HW125391   5.758   1.332   0.062
 8164SOL    HW225392   5.788   1.173   0.084
 8165SOL     OW25393   0.200   1.972   6.259
 8165SOL    HW125394   0.127   1.929   6.312
 8165SOL    HW225395   0.209   1.926   6.170
 8166SOL     OW25396   1.611   2.326   4.523
 8166SOL    HW125397   1.534   2.391   4.522
 8166SOL    HW225398   1.687   2.365   4.471
 8167SOL     OW25399   6.696   2.669   4.150
 8167SOL    HW125400   6.646   2.620   4.221
 8167SOL    HW225401   6.788   2.630   4.141
 8168SOL     OW25402   2.712   0.443   1.876
 8168SOL    HW125403   2.727   0.405   1.967
 8168SOL    HW225404   2.731   0.373   1.807
 8169SOL     OW25405   5.369   1.978   0.907
 8169SOL    HW125406   5.406   2.016   0.822
 8169SOL    HW225407   5.429   1.904   0.939
 8170SOL     OW25408   6.287   4.502   2.347
 8170SOL    HW125409   6.343   4.533   2.270
 8170SOL    HW225410   6.326   4.417   2.383
 8171SOL     OW25411   1.914   1.247   0.392
 8171SOL    HW125412   1.850   1.172   0.406
 8171SOL    HW225413   1.879   1.330   0.435
 8172SOL     OW25414   0.852   2.993   1.612
 8172SOL    HW125415   0.804   3.079   1.600
 8172SOL    HW225416   0.929   3.006   1.675
 8173SOL     OW25417   5.491   1.562   2.018
 8173SOL    HW125418   5.408   1.519   2.053
 8173SOL    HW225419   5.468   1.624   1.944
 8174SOL     OW25420   1.913   5.432   2.656
 8174SOL    HW125421   1.909   5.524   2.618
 8174SOL    HW225422   1.822   5.390   2.650
 8175SOL     OW25423   0.445   2.301   4.512
 8175SOL    HW125424   0.488   2.387   4.541
 8175SOL    HW225425   0.348   2.303   4.535
 8176SOL     OW25426   2.059   4.494   0.878
 8176SOL    HW125427   2.158   4.479   0.871
 8176SOL    HW225428   2.020   4.430   0.944
 8177SOL     OW25429   3.348   1.393   2.810
 8177SOL    HW125430   3.333   1.476   2.756
 8177SOL    HW225431   3.446   1.378   2.822
 8178SOL     OW25432   2.135   6.351   1.200
 8178SOL    HW125433   2.060   6.294   1.234
 8178SOL    HW225434   2.171   6.407   1.275
 8179SOL     OW25435   5.532   0.974   3.344
 8179SOL    HW125436   5.476   1.021   3.412
 8179SOL    HW225437   5.595   0.911   3.391
 8180SOL     OW25438   5.169   6.280   7.011
 8180SOL    HW125439   5.241   6.229   6.965
 8180SOL    HW225440   5.141   6.357   6.954
 8181SOL     OW25441   0.818   0.950   1.221
 8181SOL    HW125442   0.868   0.961   1.135
 8181SOL    HW225443   0.862   1.003   1.293
 8182SOL     OW25444   2.928   3.696   4.667
 8182SOL    HW125445   2.938   3.602   4.701
 8182SOL    HW225446   2.911   3.694   4.569
 8183SOL     OW25447   0.000   0.312   4.825
 8183SOL    HW125448   7.000   0.249   4.899
 8183SOL    HW225449   6.942   0.363   4.797
 8184SOL     OW25450   0.436   6.529   6.765
 8184SOL    HW125451   0.474   6.603   6.710
 8184SOL    HW225452   0.349   6.558   6.805
 8185SOL     OW25453   0.823   6.920   0.094
 8185SOL    HW125454   0.886   6.948   0.023
 8185SOL    HW225455   0.742   6.879   0.053
 8186SOL     OW25456   1.209   4.982   6.350
 8186SOL    HW125457   1.240   5.026   6.434
 8186SOL    HW225458   1.242   4.887   6.349
 8187SOL     OW25459   1.502   1.465   5.580
 8187SOL    HW125460   1.478   1.420   5.494
 8187SOL    HW225461   1.602   1.467   5.590
 8188SOL     OW25462   3.265   1.747   3.896
 8188SOL    HW125463   3.328   1.823   3.881
 8188SOL    HW225464   3.197   1.745   3.823
 8189SOL     OW25465   4.768   4.761   4.192
 8189SOL    HW125466   4.704   4.833   4.221
 8189SOL    HW225467   4.804   4.784   4.101
 8190SOL     OW25468   5.622   3.359   3.222
 8190SOL    HW125469   5.717   3.365   3.253
 8190SOL    HW225470   5.607   3.426   3.150
 8191SOL     OW25471   4.097   5.211   1.568
 8191SOL    HW125472   4.160   5.147   1.525
 8191SOL    HW225473   4.006   5.201   1.527
 8192SOL     OW25474   1.630   5.112   3.782
 8192SOL    HW125475   1.698   5.105   3.709
 8192SOL    HW225476   1.666   5.070   3.865
 8193SOL     OW25477   0.025   4.906   5.122
 8193SOL    HW125478   6.968   4.874   5.172
 8193SOL    HW225479   0.107   4.897   5.179
 8194SOL     OW25480   4.600   6.891   1.984
 8194SOL    HW125481   4.510   6.915   1.948
 8194SOL    HW225482   4.626   6.800   1.951
 8195SOL     OW25483   5.606   6.713   3.330
 8195SOL    HW125484   5.558   6.712   3.418
 8195SOL    HW225485   5.689   6.769   3.338
 8196SOL     OW25486   4.491   0.282   0.067
 8196SOL    HW125487   4.511   0.285   0.165
 8196SOL    HW225488   4.572   0.311   0.016
 8197SOL     OW25489   5.384   1.976   1.339
 8197SOL    HW125490   5.354   2.020   1.254
 8197SOL    HW225491   5.308   1.975   1.404
 8198SOL     OW25492   2.241   0.111   2.289
 8198SOL    HW125493   2.201   0.093   2.379
 8198SOL    HW225494   2.251   0.210   2.276
 8199SOL     OW25495   5.633   2.715   5.889
 8199SOL    HW125496   5.536   2.738   5.878
 8199SOL    HW225497   5.685   2.798   5.909
 8200SOL     OW25498   4.897   3.357   1.312
 8200SOL    HW125499   4.838   3.429   1.275
 8200SOL    HW225500   4.849   3.310   1.386
 8201SOL     OW25501   0.185   6.989   5.076
 8201SOL    HW125502   0.197   6.984   5.175
 8201SOL    HW225503   0.274   6.979   5.031
 8202SOL     OW25504   0.412   6.482   2.713
 8202SOL    HW125505   0.327   6.502   2.665
 8202SOL    HW225506   0.418   6.384   2.731
 8203SOL     OW25507   1.926   2.901   0.808
 8203SOL    HW125508   1.934   2.802   0.794
 8203SOL    HW225509   1.868   2.940   0.736
 8204SOL     OW25510   4.462   3.579   1.193
 8204SOL    HW125511   4.475   3.480   1.187
 8204SOL    HW225512   4.388   3.606   1.132
 8205SOL     OW25513   1.160   3.460   0.576
 8205SOL    HW125514   1.075   3.489   0.533
 8205SOL    HW225515   1.155   3.362   0.596
 8206SOL     OW25516   4.204   1.430   7.007
 8206SOL    HW125517   4.166   1.482   6.931
 8206SOL    HW225518   4.300   1.453   7.019
 8207SOL     OW25519   3.862   3.027   4.228
 8207SOL    HW125520   3.809   2.942   4.228
 8207SOL    HW225521   3.802   3.103   4.202
 8208SOL     OW25522   0.939   1.062   0.462
 8208SOL    HW125523   0.956   0.975   0.415
 8208SOL    HW225524   1.022   1.092   0.509
 8209SOL     OW25525   6.420   1.195   5.494
 8209SOL    HW125526   6.461   1.112   5.454
 8209SOL    HW225527   6.425   1.269   5.427
 8210SOL     OW25528   1.907   2.882   0.430
 8210SOL    HW125529   1.975   2.809   0.442
 8210SOL    HW225530   1.844   2.858   0.356
 8211SOL     OW25531   2.964   3.635   1.413
 8211SOL    HW125532   2.981   3.696   1.491
 8211SOL    HW225533   3.036   3.649   1.345
 8212SOL     OW25534   1.886   2.466   2.865
 8212SOL    HW125535   1.879   2.424   2.956
 8212SOL    HW225536   1.980   2.460   2.832
 8213SOL     OW25537   0.420   5.129   1.420
 8213SOL    HW125538   0.440   5.157   1.514
 8213SOL    HW225539   0.471   5.045   1.399
 8214SOL     OW25540   5.992   4.379   3.369
 8214SOL    HW125541   6.079   4.330   3.373
 8214SOL    HW225542   6.009   4.478   3.365
 8215SOL     OW25543   3.717   4.963   4.714
 8215SOL    HW125544   3.799   4.936   4.764
 8215SOL    HW225545   3.676   5.043   4.758
 8216SOL     OW25546   5.282   4.382   4.033
 8216SOL    HW125547   5.262   4.323   4.111
 8216SOL    HW225548   5.200   4.433   4.007
 8217SOL     OW25549   1.656   5.956   0.708
 8217SOL    HW125550   1.588   6.006   0.762
 8217SOL    HW225551   1.714   6.021   0.660
 8218SOL     OW25552   0.572   1.770   0.070
 8218SOL    HW125553   0.527   1.685   0.043
 8218SOL    HW225554   0.624   1.806   7.015
 8219SOL     OW25555   5.221   1.963   0.173
 8219SOL    HW125556   5.136   1.912   0.161
 8219SOL    HW225557   5.277   1.956   0.091
 8220SOL     OW25558   3.494   3.767   2.423
 8220SOL    HW125559   3.580   3.717   2.414
 8220SOL    HW225560   3.454   3.748   2.513
 8221SOL     OW25561   4.828   6.052   4.153
 8221SOL    HW125562   4.869   5.993   4.082
 8221SOL    HW225563   4.756   6.108   4.112
 8222SOL     OW25564   5.747   1.867   2.232
 8222SOL    HW125565   5.703   1.777   2.235
 8222SOL    HW225566   5.729   1.909   2.143
 8223SOL     OW25567   0.792   4.533   5.964
 8223SOL    HW125568   0.742   4.580   6.036
 8223SOL    HW225569   0.752   4.442   5.949
 8224SOL     OW25570   0.741   2.824   2.726
 8224SOL    HW125571   0.787   2.742   2.761
 8224SOL    HW225572   0.644   2.819   2.747
 8225SOL     OW25573   4.874   1.021   6.348
 8225SOL    HW125574   4.784   0.979   6.363
 8225SOL    HW225575   4.864   1.121   6.348
 8226SOL     OW25576   5.408   0.676   1.471
 8226SOL    HW125577   5.457   0.651   1.387
 8226SOL    HW225578   5.439   0.767   1.501
 8227SOL     OW25579   6.656   3.153   3.880
 8227SOL    HW125580   6.577   3.168   3.820
 8227SOL    HW225581   6.738   3.191   3.836
 8228SOL     OW25582   0.405   2.520   5.189
 8228SOL    HW125583   0.316   2.475   5.181
 8228SOL    HW225584   0.475   2.463   5.146
 8229SOL     OW25585   2.927   5.700   0.194
 8229SOL    HW125586   2.983   5.632   0.146
 8229SOL    HW225587   2.856   5.653   0.247
 8230SOL     OW25588   5.120   0.581   5.134
 8230SOL    HW125589   5.056   0.545   5.066
 8230SOL    HW225590   5.082   0.565   5.226
 8231SOL     OW25591   5.020   5.688   1.814
 8231SOL    HW125592   5.083   5.695   1.737
 8231SOL    HW225593   5.060   5.731   1.895
 8232SOL     OW25594   3.915   1.516   0.375
 8232SOL    HW125595   3.869   1.430   0.395
 8232SOL    HW225596   4.013   1.499   0.359
 8233SOL     OW25597   0.243   5.343   5.998
 8233SOL    HW125598   0.227   5.380   6.089
 8233SOL    HW225599   0.245   5.243   6.003
 8234SOL     OW25600   2.887   2.709   0.249
 8234SOL    HW125601   2.929   2.638   0.192
 8234SOL    HW225602   2.842   2.776   0.190
 8235SOL     OW25603   3.129   3.667   0.835
 8235SOL    HW125604   3.090   3.575   0.833
 8235SOL    HW225605   3.080   3.725   0.769
 8236SOL     OW25606   6.693   3.295   6.964
 8236SOL    HW125607   6.610   3.242   6.979
 8236SOL    HW225608   6.769   3.253   7.014
 8237SOL     OW25609   4.673   5.739   5.403
 8237SOL    HW125610   4.727   5.803   5.457
 8237SOL    HW225611   4.617   5.790   5.337
 8238SOL     OW25612   1.638   3.912   6.969
 8238SOL    HW125613   1.605   3.823   6.939
 8238SOL    HW225614   1.634   3.918   0.046
 8239SOL     OW25615   6.298   1.905   5.490
 8239SOL    HW125616   6.217   1.962   5.474
 8239SOL    HW225617   6.359   1.912   5.411
 8240SOL     OW25618   3.260   3.747   2.934
 8240SOL    HW125619   3.325   3.812   2.892
 8240SOL    HW225620   3.181   3.736   2.875
 8241SOL     OW25621   3.624   6.968   1.050
 8241SOL    HW125622   3.551   6.941   1.113
 8241SOL    HW225623   3.694   7.019   1.100
 8242SOL     OW25624   0.767   4.353   5.681
 8242SOL    HW125625   0.862   4.375   5.660
 8242SOL    HW225626   0.762   4.264   5.727
 8243SOL     OW25627   0.190   3.212   5.904
 8243SOL    HW125628   0.095   3.189   5.886
 8243SOL    HW225629   0.220   3.282   5.839
 8244SOL     OW25630   0.654   0.165   4.069
 8244SOL    HW125631   0.659   0.066   4.059
 8244SOL    HW225632   0.567   0.198   4.032
 8245SOL     OW25633   4.718   1.826   1.335
 8245SOL    HW125634   4.782   1.787   1.401
 8245SOL    HW225635   4.624   1.814   1.367
 8246SOL     OW25636   6.354   4.116   6.164
 8246SOL    HW125637   6.396   4.164   6.241
 8246SOL    HW225638   6.266   4.158   6.143
 8247SOL     OW25639   0.766   0.709   1.595
 8247SOL    HW125640   0.772   0.803   1.560
 8247SOL    HW225641   0.707   0.708   1.676
 8248SOL     OW25642   5.926   4.727   3.715
 8248SOL    HW125643   5.839   4.756   3.755
 8248SOL    HW225644   5.922   4.629   3.694
 8249SOL     OW25645   2.118   4.727   4.239
 8249SOL    HW125646   2.085   4.635   4.258
 8249SOL    HW225647   2.173   4.726   4.155
 8250SOL     OW25648   3.442   3.823   2.745
 8250SOL    HW125649   3.533   3.794   2.774
 8250SOL    HW225650   3.450   3.903   2.686
 8251SOL     OW25651   4.865   2.047   4.944
 8251SOL    HW125652   4.836   2.045   4.848
 8251SOL    HW225653   4.845   2.136   4.983
 8252SOL     OW25654   3.456   3.652   6.334
 8252SOL    HW125655   3.474   3.559   6.366
 8252SOL    HW225656   3.361   3.659   6.304
 8253SOL     OW25657   3.511   3.063   5.215
 8253SOL    HW125658   3.511   3.005   5.296
 8253SOL    HW225659   3.511   3.159   5.243
 8254SOL     OW25660   4.315   4.741   4.702
 8254SOL    HW125661   4.317   4.698   4.792
 8254SOL    HW225662   4.351   4.678   4.633
 8255SOL     OW25663   3.953   6.211   4.209
 8255SOL    HW125664   3.904   6.285   4.163
 8255SOL    HW225665   3.888   6.141   4.237
 8256SOL     OW25666   5.986   0.667   3.774
 8256SOL    HW125667   6.029   0.742   3.723
 8256SOL    HW225668   5.987   0.584   3.719
 8257SOL     OW25669   6.004   4.881   3.125
 8257SOL    HW125670   5.943   4.863   3.049
 8257SOL    HW225671   6.097   4.895   3.091
 8258SOL     OW25672   4.722   1.286   0.280
 8258SOL    HW125673   4.791   1.353   0.253
 8258SOL    HW225674   4.714   1.216   0.209
 8259SOL     OW25675   4.334   1.381   3.395
 8259SOL    HW125676   4.313   1.437   3.314
 8259SOL    HW225677   4.249   1.359   3.443
 8260SOL     OW25678   2.570   6.848   2.106
 8260SOL    HW125679   2.515   6.898   2.040
 8260SOL    HW225680   2.667   6.852   2.080
 8261SOL     OW25681   5.579   1.204   1.156
 8261SOL    HW125682   5.586   1.120   1.101
 8261SOL    HW225683   5.671   1.242   1.171
 8262SOL     OW25684   1.176   2.504   1.443
 8262SOL    HW125685   1.142   2.448   1.518
 8262SOL    HW225686   1.264   2.544   1.469
 8263SOL     OW25687   0.163   1.264   1.249
 8263SOL    HW125688   0.115   1.180   1.276
 8263SOL    HW225689   0.219   1.297   1.325
 8264SOL     OW25690   1.279   5.936   2.212
 8264SOL    HW125691   1.293   5.987   2.127
 8264SOL    HW225692   1.181   5.922   2.227
 8265SOL     OW25693   1.809   0.170   1.502
 8265SOL    HW125694   1.773   0.177   1.409
 8265SOL    HW225695   1.749   0.111   1.556
 8266SOL     OW25696   2.039   6.747   2.677
 8266SOL    HW125697   2.133   6.714   2.663
 8266SOL    HW225698   1.983   6.722   2.598
 8267SOL     OW25699   1.912   3.543   1.058
 8267SOL    HW125700   1.900   3.544   0.959
 8267SOL    HW225701   1.895   3.634   1.095
 8268SOL     OW25702   2.046   6.352   5.957
 8268SOL    HW125703   2.008   6.330   6.047
 8268SOL    HW225704   2.073   6.448   5.955
 8269SOL     OW25705   6.013   1.699   1.059
 8269SOL    HW125706   6.024   1.795   1.085
 8269SOL    HW225707   5.916   1.674   1.066
 8270SOL     OW25708   2.967   6.750   4.272
 8270SOL    HW125709   2.980   6.675   4.208
 8270SOL    HW225710   2.887   6.804   4.244
 8271SOL     OW25711   0.036   1.310   2.864
 8271SOL    HW125712   6.977   1.275   2.909
 8271SOL    HW225713   0.092   1.359   2.930
 8272SOL     OW25714   5.100   0.845   2.031
 8272SOL    HW125715   5.027   0.777   2.020
 8272SOL    HW225716   5.113   0.894   1.944
 8273SOL     OW25717   2.044   6.525   1.021
 8273SOL    HW125718   2.086   6.613   1.037
 8273SOL    HW225719   2.093   6.454   1.072
 8274SOL     OW25720   4.367   5.110   2.823
 8274SOL    HW125721   4.359   5.142   2.729
 8274SOL    HW225722   4.314   5.025   2.834
 8275SOL     OW25723   4.784   2.194   5.976
 8275SOL    HW125724   4.733   2.270   6.018
 8275SOL    HW225725   4.866   2.176   6.031
 8276SOL     OW25726   0.915   2.149   3.787
 8276SOL    HW125727   0.919   2.051   3.804
 8276SOL    HW225728   1.008   2.186   3.785
 8277SOL     OW25729   0.070   1.056   6.352
 8277SOL    HW125730   0.134   1.029   6.423
 8277SOL    HW225731   7.007   1.086   6.394
 8278SOL     OW25732   2.089   2.220   6.610
 8278SOL    HW125733   2.155   2.293   6.627
 8278SOL    HW225734   2.076   2.209   6.512
 8279SOL     OW25735   0.649   6.044   4.672
 8279SOL    HW125736   0.698   5.956   4.672
 8279SOL    HW225737   0.711   6.117   4.644
 8280SOL     OW25738   2.864   2.834   6.900
 8280SOL    HW125739   2.833   2.861   6.991
 8280SOL    HW225740   2.923   2.906   6.863
 8281SOL     OW25741   1.104   5.540   1.472
 8281SOL    HW125742   1.182   5.602   1.472
 8281SOL    HW225743   1.117   5.469   1.403
 8282SOL     OW25744   5.812   2.766   6.461
 8282SOL    HW125745   5.800   2.673   6.425
 8282SOL    HW225746   5.807   2.831   6.386
 8283SOL     OW25747   1.558   4.762   5.906
 8283SOL    HW125748   1.613   4.769   5.990
 8283SOL    HW225749   1.612   4.715   5.836
 8284SOL     OW25750   0.467   4.534   1.963
 8284SOL    HW125751   0.400   4.555   1.893
 8284SOL    HW225752   0.421   4.522   2.051
 8285SOL     OW25753   4.031   3.252   5.194
 8285SOL    HW125754   4.000   3.183   5.129
 8285SOL    HW225755   4.034   3.212   5.286
 8286SOL     OW25756   5.910   2.274   5.751
 8286SOL    HW125757   5.987   2.211   5.758
 8286SOL    HW225758   5.892   2.315   5.840
 8287SOL     OW25759   1.221   5.911   4.637
 8287SOL    HW125760   1.160   5.858   4.696
 8287SOL    HW225761   1.268   5.849   4.574
 8288SOL     OW25762   2.682   2.302   2.912
 8288SOL    HW125763   2.741   2.224   2.932
 8288SOL    HW225764   2.675   2.315   2.813
 8289SOL     OW25765   0.460   0.070   0.490
 8289SOL    HW125766   0.507   0.137   0.433
 8289SOL    HW225767   0.527   0.008   0.530
 8290SOL     OW25768   6.546   1.511   0.351
 8290SOL    HW125769   6.553   1.468   0.261
 8290SOL    HW225770   6.455   1.551   0.362
 8291SOL     OW25771   5.118   0.082   0.066
 8291SOL    HW125772   5.095   7.008   0.057
 8291SOL    HW225773   5.151   0.099   0.159
 8292SOL     OW25774   2.856   6.332   0.528
 8292SOL    HW125775   2.811   6.254   0.573
 8292SOL    HW225776   2.788   6.403   0.509
 8293SOL     OW25777   4.010   0.073   6.278
 8293SOL    HW125778   3.957   0.022   6.210
 8293SOL    HW225779   4.103   0.087   6.244
 8294SOL     OW25780   6.127   3.495   6.147
 8294SOL    HW125781   6.084   3.409   6.119
 8294SOL    HW225782   6.110   3.510   6.245
 8295SOL     OW25783   5.471   4.957   1.865
 8295SOL    HW125784   5.481   4.861   1.839
 8295SOL    HW225785   5.400   4.999   1.809
 8296SOL     OW25786   1.518   6.634   6.201
 8296SOL    HW125787   1.495   6.649   6.297
 8296SOL    HW225788   1.588   6.700   6.173
 8297SOL     OW25789   6.374   2.704   3.224
 8297SOL    HW125790   6.318   2.636   3.271
 8297SOL    HW225791   6.360   2.695   3.125
 8298SOL     OW25792   5.264   1.343   1.582
 8298SOL    HW125793   5.331   1.274   1.557
 8298SOL    HW225794   5.311   1.429   1.605
 8299SOL     OW25795   0.376   2.621   1.841
 8299SOL    HW125796   0.399   2.687   1.912
 8299SOL    HW225797   0.334   2.540   1.882
 8300SOL     OW25798   0.334   4.964   5.411
 8300SOL    HW125799   0.408   4.981   5.345
 8300SOL    HW225800   0.370   4.911   5.488
 8301SOL     OW25801   4.450   1.794   1.381
 8301SOL    HW125802   4.433   1.753   1.470
 8301SOL    HW225803   4.402   1.882   1.376
 8302SOL     OW25804   6.125   6.034   6.262
 8302SOL    HW125805   6.063   6.091   6.316
 8302SOL    HW225806   6.213   6.081   6.251
 8303SOL     OW25807   6.838   0.453   4.475
 8303SOL    HW125808   6.859   0.452   4.377
 8303SOL    HW225809   6.918   0.425   4.527
 8304SOL     OW25810   1.116   3.400   6.471
 8304SOL    HW125811   1.123   3.453   6.387
 8304SOL    HW225812   1.021   3.398   6.501
 8305SOL     OW25813   3.860   4.977   3.914
 8305SOL    HW125814   3.898   5.067   3.933
 8305SOL    HW225815   3.851   4.925   3.999
 8306SOL     OW25816   0.322   3.088   4.697
 8306SOL    HW125817   0.411   3.121   4.667
 8306SOL    HW225818   0.281   3.155   4.758
 8307SOL     OW25819   3.859   5.163   1.457
 8307SOL    HW125820   3.836   5.227   1.531
 8307SOL    HW225821   3.788   5.094   1.449
 8308SOL     OW25822   4.528   6.687   1.730
 8308SOL    HW125823   4.593   6.735   1.671
 8308SOL    HW225824   4.438   6.731   1.721
 8309SOL     OW25825   5.480   5.672   2.884
 8309SOL    HW125826   5.452   5.584   2.923
 8309SOL    HW225827   5.512   5.658   2.791
 8310SOL     OW25828   0.905   4.570   0.503
 8310SOL    HW125829   0.894   4.482   0.548
 8310SOL    HW225830   0.839   4.578   0.428
 8311SOL     OW25831   0.408   0.965   5.931
 8311SOL    HW125832   0.320   0.948   5.886
 8311SOL    HW225833   0.395   1.030   6.006
 8312SOL     OW25834   5.233   6.324   1.696
 8312SOL    HW125835   5.208   6.244   1.751
 8312SOL    HW225836   5.171   6.330   1.617
 8313SOL     OW25837   3.729   1.611   2.663
 8313SOL    HW125838   3.823   1.609   2.698
 8313SOL    HW225839   3.730   1.642   2.568
 8314SOL     OW25840   4.898   6.497   0.756
 8314SOL    HW125841   4.882   6.476   0.659
 8314SOL    HW225842   4.866   6.590   0.775
 8315SOL     OW25843   4.240   3.341   0.931
 8315SOL    HW125844   4.200   3.288   1.005
 8315SOL    HW225845   4.299   3.282   0.876
 8316SOL     OW25846   0.575   3.425   1.552
 8316SOL    HW125847   0.518   3.507   1.547
 8316SOL    HW225848   0.521   3.345   1.523
 8317SOL     OW25849   2.174   3.206   2.462
 8317SOL    HW125850   2.184   3.135   2.392
 8317SOL    HW225851   2.162   3.295   2.418
 8318SOL     OW25852   4.237   2.014   4.991
 8318SOL    HW125853   4.198   1.951   5.058
 8318SOL    HW225854   4.326   1.980   4.961
 8319SOL     OW25855   3.205   1.524   5.759
 8319SOL    HW125856   3.240   1.530   5.666
 8319SOL    HW225857   3.116   1.570   5.765
 8320SOL     OW25858   3.442   4.863   1.108
 8320SOL    HW125859   3.442   4.766   1.083
 8320SOL    HW225860   3.409   4.917   1.031
 8321SOL     OW25861   0.731   1.123   6.169
 8321SOL    HW125862   0.678   1.061   6.226
 8321SOL    HW225863   0.800   1.169   6.225
 8322SOL     OW25864   0.070   7.015   6.835
 8322SOL    HW125865   0.088   0.017   6.930
 8322SOL    HW225866   0.154   6.978   6.794
 8323SOL     OW25867   6.958   6.858   2.403
 8323SOL    HW125868   6.957   6.800   2.322
 8323SOL    HW225869   6.962   6.954   2.374
 8324SOL     OW25870   6.610   0.497   2.288
 8324SOL    HW125871   6.700   0.492   2.332
 8324SOL    HW225872   6.542   0.452   2.346
 8325SOL     OW25873   3.916   3.041   4.496
 8325SOL    HW125874   3.994   3.102   4.508
 8325SOL    HW225875   3.916   3.004   4.403
 8326SOL     OW25876   4.430   3.649   5.590
 8326SOL    HW125877   4.453   3.661   5.493
 8326SOL    HW225878   4.425   3.738   5.635
 8327SOL     OW25879   4.802   2.247   5.717
 8327SOL    HW125880   4.902   2.238   5.715
 8327SOL    HW225881   4.766   2.196   5.795
 8328SOL     OW25882   2.548   3.922   6.191
 8328SOL    HW125883   2.502   3.838   6.220
 8328SOL    HW225884   2.641   3.900   6.159
 8329SOL     OW25885   0.018   3.216   5.522
 8329SOL    HW125886   0.111   3.181   5.514
 8329SOL    HW225887   6.988   3.158   5.585
 8330SOL     OW25888   2.029   6.780   0.741
 8330SOL    HW125889   2.039   6.857   0.804
 8330SOL    HW225890   1.994   6.812   0.653
 8331SOL     OW25891   3.008   6.908   0.803
 8331SOL    HW125892   3.024   7.006   0.789
 8331SOL    HW225893   3.027   6.858   0.718
 8332SOL     OW25894   4.576   5.202   2.471
 8332SOL    HW125895   4.492   5.254   2.490
 8332SOL    HW225896   4.637   5.257   2.414
 8333SOL     OW25897   6.935   5.692   0.086
 8333SOL    HW125898   6.974   5.727   0.171
 8333SOL    HW225899   6.961   5.751   0.010
 8334SOL     OW25900   5.902   1.187   4.178
 8334SOL    HW125901   5.965   1.114   4.206
 8334SOL    HW225902   5.954   1.268   4.152
 8335SOL     OW25903   6.197   5.339   5.617
 8335SOL    HW125904   6.203   5.409   5.546
 8335SOL    HW225905   6.161   5.380   5.701
 8336SOL     OW25906   6.765   0.965   2.989
 8336SOL    HW125907   6.753   0.923   2.899
 8336SOL    HW225908   6.678   0.964   3.038
 8337SOL     OW25909   0.574   6.941   3.923
 8337SOL    HW125910   0.620   6.888   3.851
 8337SOL    HW225911   0.496   6.990   3.883
 8338SOL     OW25912   2.183   5.028   1.923
 8338SOL    HW125913   2.248   4.962   1.887
 8338SOL    HW225914   2.186   5.026   2.023
 8339SOL     OW25915   6.840   1.125   2.413
 8339SOL    HW125916   6.748   1.140   2.450
 8339SOL    HW225917   6.833   1.101   2.316
 8340SOL     OW25918   4.843   3.688   0.979
 8340SOL    HW125919   4.789   3.703   0.896
 8340SOL    HW225920   4.921   3.751   0.979
 8341SOL     OW25921   2.067   6.927   0.312
 8341SOL    HW125922   2.106   7.006   0.265
 8341SOL    HW225923   2.142   6.871   0.348
 8342SOL     OW25924   4.016   6.856   1.087
 8342SOL    HW125925   3.974   6.833   0.999
 8342SOL    HW225926   3.958   6.825   1.162
 8343SOL     OW25927   1.475   5.217   5.886
 8343SOL    HW125928   1.561   5.266   5.874
 8343SOL    HW225929   1.410   5.274   5.937
 8344SOL     OW25930   4.650   6.432   5.706
 8344SOL    HW125931   4.563   6.480   5.692
 8344SOL    HW225932   4.648   6.384   5.794
 8345SOL     OW25933   5.524   2.000   3.412
 8345SOL    HW125934   5.503   1.964   3.321
 8345SOL    HW225935   5.439   2.016   3.462
 8346SOL     OW25936   2.444   4.885   0.376
 8346SOL    HW125937   2.481   4.922   0.461
 8346SOL    HW225938   2.451   4.785   0.377
 8347SOL     OW25939   2.630   6.760   4.964
 8347SOL    HW125940   2.711   6.815   4.983
 8347SOL    HW225941   2.552   6.820   4.948
 8348SOL     OW25942   1.258   0.026   1.375
 8348SOL    HW125943   1.167   0.027   1.334
 8348SOL    HW225944   1.263   0.097   1.446
 8349SOL     OW25945   5.723   3.626   1.127
 8349SOL    HW125946   5.705   3.581   1.214
 8349SOL    HW225947   5.819   3.650   1.121
 8350SOL     OW25948   5.560   0.670   4.714
 8350SOL    HW125949   5.536   0.607   4.640
 8350SOL    HW225950   5.518   0.759   4.697
 8351SOL     OW25951   3.599   5.149   4.129
 8351SOL    HW125952   3.615   5.171   4.226
 8351SOL    HW225953   3.506   5.173   4.104
 8352SOL     OW25954   6.652   0.097   1.587
 8352SOL    HW125955   6.561   0.057   1.596
 8352SOL    HW225956   6.711   0.033   1.537
 8353SOL     OW25957   5.692   3.809   2.362
 8353SOL    HW125958   5.719   3.804   2.266
 8353SOL    HW225959   5.688   3.905   2.391
 8354SOL     OW25960   3.196   1.383   6.370
 8354SOL    HW125961   3.142   1.299   6.363
 8354SOL    HW225962   3.257   1.390   6.291
 8355SOL     OW25963   2.764   0.784   6.952
 8355SOL    HW125964   2.741   0.845   6.875
 8355SOL    HW225965   2.807   0.701   6.916
 8356SOL     OW25966   0.934   6.452   0.687
 8356SOL    HW125967   0.843   6.449   0.645
 8356SOL    HW225968   0.997   6.394   0.636
 8357SOL     OW25969   4.064   5.524   5.611
 8357SOL    HW125970   4.138   5.529   5.678
 8357SOL    HW225971   4.048   5.428   5.587
 8358SOL     OW25972   2.157   2.738   5.806
 8358SOL    HW125973   2.162   2.786   5.893
 8358SOL    HW225974   2.234   2.675   5.798
 8359SOL     OW25975   3.868   5.835   4.743
 8359SOL    HW125976   3.821   5.879   4.820
 8359SOL    HW225977   3.966   5.852   4.750
 8360SOL     OW25978   3.824   0.214   2.828
 8360SOL    HW125979   3.842   0.150   2.904
 8360SOL    HW225980   3.734   0.195   2.790
 8361SOL     OW25981   1.804   1.000   2.196
 8361SOL    HW125982   1.894   1.005   2.238
 8361SOL    HW225983   1.740   1.058   2.246
 8362SOL     OW25984   2.833   2.248   0.556
 8362SOL    HW125985   2.839   2.200   0.468
 8362SOL    HW225986   2.770   2.325   0.549
 8363SOL     OW25987   0.885   3.072   0.686
 8363SOL    HW125988   0.800   3.121   0.667
 8363SOL    HW225989   0.865   2.975   0.698
 8364SOL     OW25990   0.433   3.670   2.902
 8364SOL    HW125991   0.373   3.722   2.841
 8364SOL    HW225992   0.528   3.698   2.888
 8365SOL     OW25993   1.835   3.884   0.862
 8365SOL    HW125994   1.921   3.924   0.829
 8365SOL    HW225995   1.854   3.825   0.940
 8366SOL     OW25996   4.590   5.933   2.105
 8366SOL    HW125997   4.670   5.891   2.063
 8366SOL    HW225998   4.595   5.923   2.205
 8367SOL     OW25999   4.724   6.446   4.112
 8367SOL    HW126000   4.683   6.385   4.044
 8367SOL    HW226001   4.715   6.541   4.083
 8368SOL     OW26002   2.761   6.051   6.126
 8368SOL    HW126003   2.743   6.146   6.153
 8368SOL    HW226004   2.675   6.000   6.126
 8369SOL     OW26005   1.841   0.979   6.977
 8369SOL    HW126006   1.900   0.919   6.924
 8369SOL    HW226007   1.766   1.012   6.920
 8370SOL     OW26008   2.918   2.365   5.714
 8370SOL    HW126009   3.016   2.360   5.696
 8370SOL    HW226010   2.903   2.383   5.811
 8371SOL     OW26011   1.660   3.489   0.281
 8371SOL    HW126012   1.574   3.535   0.261
 8371SOL    HW226013   1.669   3.409   0.223
 8372SOL     OW26014   0.760   6.817   2.717
 8372SOL    HW126015   0.684   6.756   2.739
 8372SOL    HW226016   0.845   6.765   2.711
 8373SOL     OW26017   0.685   6.691   5.366
 8373SOL    HW126018   0.624   6.623   5.406
 8373SOL    HW226019   0.700   6.765   5.432
 8374SOL     OW26020   0.204   1.103   0.018
 8374SOL    HW126021   0.283   1.068   6.991
 8374SOL    HW226022   0.174   1.034   0.084
 8375SOL     OW26023   3.313   6.124   5.864
 8375SOL    HW126024   3.271   6.042   5.903
 8375SOL    HW226025   3.412   6.117   5.871
 8376SOL     OW26026   2.375   0.720   4.634
 8376SOL    HW126027   2.444   0.711   4.705
 8376SOL    HW226028   2.340   0.629   4.609
 8377SOL     OW26029   5.896   5.852   1.591
 8377SOL    HW126030   5.808   5.820   1.555
 8377SOL    HW226031   5.957   5.873   1.515
 8378SOL     OW26032   4.915   4.037   3.303
 8378SOL    HW126033   4.895   3.941   3.323
 8378SOL    HW226034   4.898   4.092   3.385
 8379SOL     OW26035   6.678   3.632   1.797
 8379SOL    HW126036   6.588   3.589   1.808
 8379SOL    HW226037   6.701   3.639   1.700
 8380SOL     OW26038   6.321   1.041   2.185
 8380SOL    HW126039   6.376   0.957   2.175
 8380SOL    HW226040   6.286   1.046   2.279
 8381SOL     OW26041   0.805   5.176   4.631
 8381SOL    HW126042   0.858   5.191   4.714
 8381SOL    HW226043   0.725   5.120   4.653
 8382SOL     OW26044   1.158   1.417   2.153
 8382SOL    HW126045   1.233   1.481   2.134
 8382SOL    HW226046   1.181   1.327   2.117
 8383SOL     OW26047   2.825   2.003   6.606
 8383SOL    HW126048   2.804   1.994   6.704
 8383SOL    HW226049   2.741   1.994   6.553
 8384SOL     OW26050   0.124   6.794   0.857
 8384SOL    HW126051   0.096   6.871   0.801
 8384SOL    HW226052   0.048   6.728   0.863
 8385SOL     OW26053   5.631   2.528   1.942
 8385SOL    HW126054   5.552   2.468   1.931
 8385SOL    HW226055   5.714   2.474   1.941
 8386SOL     OW26056   1.074   4.219   2.506
 8386SOL    HW126057   1.020   4.166   2.572
 8386SOL    HW226058   1.091   4.164   2.425
 8387SOL     OW26059   1.370   1.050   0.747
 8387SOL    HW126060   1.403   0.959   0.721
 8387SOL    HW226061   1.365   1.056   0.847
 8388SOL     OW26062   2.662   5.897   1.851
 8388SOL    HW126063   2.629   5.937   1.765
 8388SOL    HW226064   2.587   5.850   1.897
 8389SOL     OW26065   5.320   3.542   2.043
 8389SOL    HW126066   5.285   3.472   2.106
 8389SOL    HW226067   5.254   3.556   1.969
 8390SOL     OW26068   4.139   2.135   6.685
 8390SOL    HW126069   4.074   2.184   6.626
 8390SOL    HW226070   4.207   2.088   6.628
 8391SOL     OW26071   5.900   6.807   0.716
 8391SOL    HW126072   5.965   6.753   0.663
 8391SOL    HW226073   5.910   6.785   0.813
 8392SOL     OW26074   6.416   3.726   4.100
 8392SOL    HW126075   6.393   3.821   4.124
 8392SOL    HW226076   6.442   3.676   4.183
 8393SOL     OW26077   5.254   0.560   2.188
 8393SOL    HW126078   5.328   0.602   2.136
 8393SOL    HW226079   5.250   0.601   2.280
 8394SOL     OW26080   5.895   3.693   2.502
 8394SOL    HW126081   5.859   3.608   2.540
 8394SOL    HW226082   5.819   3.753   2.476
 8395SOL     OW26083   2.138   0.257   5.283
 8395SOL    HW126084   2.057   0.209   5.319
 8395SOL    HW226085   2.159   0.335   5.342
 8396SOL     OW26086   3.971   4.938   4.397
 8396SOL    HW126087   4.023   5.024   4.393
 8396SOL    HW226088   4.006   4.881   4.472
 8397SOL     OW26089   6.805   1.450   4.221
 8397SOL    HW126090   6.863   1.494   4.288
 8397SOL    HW226091   6.755   1.520   4.169
 8398SOL     OW26092   4.898   1.841   6.334
 8398SOL    HW126093   4.955   1.913   6.374
 8398SOL    HW226094   4.816   1.882   6.295
 8399SOL     OW26095   7.019   5.808   6.726
 8399SOL    HW126096   0.004   5.882   6.659
 8399SOL    HW226097   0.086   5.788   6.765
 8400SOL     OW26098   1.514   2.307   4.242
 8400SOL    HW126099   1.599   2.309   4.295
 8400SOL    HW226100   1.536   2.306   4.144
 8401SOL     OW26101   2.305   0.244   5.086
 8401SOL    HW126102   2.377   0.307   5.116
 8401SOL    HW226103   2.226   0.253   5.148
 8402SOL     OW26104   4.743   0.689   6.382
 8402SOL    HW126105   4.790   0.645   6.459
 8402SOL    HW226106   4.651   0.652   6.374
 8403SOL     OW26107   6.636   4.783   3.848
 8403SOL    HW126108   6.687   4.819   3.926
 8403SOL    HW226109   6.610   4.688   3.866
 8404SOL     OW26110   2.665   1.821   6.247
 8404SOL    HW126111   2.628   1.735   6.212
 8404SOL    HW226112   2.764   1.813   6.256
 8405SOL     OW26113   3.836   1.814   5.852
 8405SOL    HW126114   3.776   1.797   5.931
 8405SOL    HW226115   3.790   1.784   5.768
 8406SOL     OW26116   4.796   0.653   6.959
 8406SOL    HW126117   4.765   0.737   7.003
 8406SOL    HW226118   4.882   0.672   6.910
 8407SOL     OW26119   4.153   6.279   3.514
 8407SOL    HW126120   4.087   6.304   3.584
 8407SOL    HW226121   4.225   6.348   3.508
 8408SOL     OW26122   5.647   6.881   0.676
 8408SOL    HW126123   5.650   6.981   0.680
 8408SOL    HW226124   5.739   6.845   0.686
 8409SOL     OW26125   4.259   2.296   1.882
 8409SOL    HW126126   4.287   2.390   1.863
 8409SOL    HW226127   4.161   2.286   1.862
 8410SOL     OW26128   6.760   2.003   1.586
 8410SOL    HW126129   6.727   2.001   1.680
 8410SOL    HW226130   6.859   2.016   1.585
 8411SOL     OW26131   0.318   5.971   1.451
 8411SOL    HW126132   0.302   6.066   1.426
 8411SOL    HW226133   0.230   5.929   1.477
 8412SOL     OW26134   3.240   3.096   0.801
 8412SOL    HW126135   3.292   3.011   0.797
 8412SOL    HW226136   3.212   3.113   0.896
 8413SOL     OW26137   4.024   5.464   6.117
 8413SOL    HW126138   4.089   5.415   6.176
 8413SOL    HW226139   3.932   5.431   6.135
 8414SOL     OW26140   1.756   1.066   2.621
 8414SOL    HW126141   1.846   1.041   2.586
 8414SOL    HW226142   1.719   0.991   2.675
 8415SOL     OW26143   3.066   0.121   4.192
 8415SOL    HW126144   3.008   0.203   4.201
 8415SOL    HW226145   3.138   0.124   4.261
 8416SOL     OW26146   5.660   1.557   4.922
 8416SOL    HW126147   5.565   1.564   4.892
 8416SOL    HW226148   5.664   1.523   5.016
 8417SOL     OW26149   1.499   3.341   5.233
 8417SOL    HW126150   1.483   3.391   5.318
 8417SOL    HW226151   1.597   3.323   5.222
 8418SOL     OW26152   0.897   5.505   2.278
 8418SOL    HW126153   0.908   5.406   2.276
 8418SOL    HW226154   0.918   5.539   2.370
 8419SOL     OW26155   5.485   0.955   2.974
 8419SOL    HW126156   5.554   1.026   2.986
 8419SOL    HW226157   5.530   0.867   2.958
 8420SOL     OW26158   3.760   6.991   2.245
 8420SOL    HW126159   3.662   6.990   2.223
 8420SOL    HW226160   3.777   0.033   2.319
 8421SOL     OW26161   3.627   6.466   6.348
 8421SOL    HW126162   3.701   6.403   6.370
 8421SOL    HW226163   3.582   6.436   6.264
 8422SOL     OW26164   4.700   2.746   2.459
 8422SOL    HW126165   4.624   2.699   2.413
 8422SOL    HW226166   4.732   2.821   2.401
 8423SOL     OW26167   5.136   4.543   5.507
 8423SOL    HW126168   5.206   4.538   5.436
 8423SOL    HW226169   5.115   4.451   5.541
 8424SOL     OW26170   2.146   0.200   3.443
 8424SOL    HW126171   2.219   0.256   3.483
 8424SOL    HW226172   2.077   0.259   3.401
 8425SOL     OW26173   3.290   4.086   3.594
 8425SOL    HW126174   3.273   4.097   3.496
 8425SOL    HW226175   3.205   4.098   3.644
 8426SOL     OW26176   3.876   3.348   2.444
 8426SOL    HW126177   3.798   3.302   2.488
 8426SOL    HW226178   3.947   3.365   2.512
 8427SOL     OW26179   2.965   3.273   3.364
 8427SOL    HW126180   2.913   3.356   3.342
 8427SOL    HW226181   3.018   3.245   3.284
 8428SOL     OW26182   0.119   0.211   0.728
 8428SOL    HW126183   0.190   0.259   0.677
 8428SOL    HW226184   0.034   0.209   0.675
 8429SOL     OW26185   2.023   5.550   6.325
 8429SOL    HW126186   2.065   5.487   6.260
 8429SOL    HW226187   1.979   5.625   6.275
 8430SOL     OW26188   3.972   5.281   4.518
 8430SOL    HW126189   4.004   5.281   4.423
 8430SOL    HW226190   3.936   5.371   4.541
 8431SOL     OW26191   2.934   3.074   6.617
 8431SOL    HW126192   2.946   3.006   6.689
 8431SOL    HW226193   2.916   3.163   6.659
 8432SOL     OW26194   6.686   5.371   6.421
 8432SOL    HW126195   6.760   5.408   6.477
 8432SOL    HW226196   6.708   5.385   6.324
 8433SOL     OW26197   4.394   2.583   1.320
 8433SOL    HW126198   4.446   2.509   1.276
 8433SOL    HW226199   4.318   2.609   1.260
 8434SOL     OW26200   1.860   5.351   4.731
 8434SOL    HW126201   1.839   5.283   4.661
 8434SOL    HW226202   1.776   5.375   4.781
 8435SOL     OW26203   5.151   1.116   2.598
 8435SOL    HW126204   5.069   1.066   2.571
 8435SOL    HW226205   5.231   1.057   2.588
 8436SOL     OW26206   2.789   6.252   3.536
 8436SOL    HW126207   2.834   6.259   3.625
 8436SOL    HW226208   2.815   6.165   3.493
 8437SOL     OW26209   2.201   3.077   2.704
 8437SOL    HW126210   2.201   3.133   2.621
 8437SOL    HW226211   2.214   2.981   2.679
 8438SOL     OW26212   1.793   3.796   3.165
 8438SOL    HW126213   1.761   3.755   3.250
 8438SOL    HW226214   1.753   3.887   3.154
 8439SOL     OW26215   6.093   5.215   3.660
 8439SOL    HW126216   6.100   5.136   3.721
 8439SOL    HW226217   6.147   5.291   3.698
 8440SOL     OW26218   2.085   1.641   3.245
 8440SOL    HW126219   2.165   1.605   3.293
 8440SOL    HW226220   2.046   1.570   3.186
 8441SOL     OW26221   5.552   5.989   5.306
 8441SOL    HW126222   5.456   5.978   5.334
 8441SOL    HW226223   5.592   5.899   5.290
 8442SOL     OW26224   3.826   0.936   5.597
 8442SOL    HW126225   3.824   0.972   5.504
 8442SOL    HW226226   3.902   0.977   5.647
 8443SOL     OW26227   1.792   4.843   3.534
 8443SOL    HW126228   1.858   4.863   3.462
 8443SOL    HW226229   1.822   4.764   3.587
 8444SOL     OW26230   4.565   6.610   2.575
 8444SOL    HW126231   4.590   6.638   2.668
 8444SOL    HW226232   4.646   6.615   2.516
 8445SOL     OW26233   2.733   6.844   6.903
 8445SOL    HW126234   2.660   6.874   6.965
 8445SOL    HW226235   2.822   6.864   6.945
 8446SOL     OW26236   0.005   6.481   5.252
 8446SOL    HW126237   0.092   6.436   5.235
 8446SOL    HW226238   0.021   6.577   5.276
 8447SOL     OW26239   4.414   1.536   2.745
 8447SOL    HW126240   4.419   1.518   2.843
 8447SOL    HW226241   4.506   1.550   2.709
 8448SOL     OW26242   4.945   6.513   3.297
 8448SOL    HW126243   4.910   6.475   3.382
 8448SOL    HW226244   5.025   6.570   3.317
 8449SOL     OW26245   1.838   2.979   3.319
 8449SOL    HW126246   1.827   3.067   3.271
 8449SOL    HW226247   1.773   2.913   3.281
 8450SOL     OW26248   0.136   0.794   6.738
 8450SOL    HW126249   0.161   0.891   6.740
 8450SOL    HW226250   0.084   0.775   6.655
 8451SOL     OW26251   3.680   1.148   0.993
 8451SOL    HW126252   3.698   1.124   1.089
 8451SOL    HW226253   3.712   1.241   0.976
 8452SOL     OW26254   5.365   1.683   4.621
 8452SOL    HW126255   5.316   1.745   4.558
 8452SOL    HW226256   5.326   1.591   4.614
 8453SOL     OW26257   1.056   5.761   6.921
 8453SOL    HW126258   1.005   5.704   6.857
 8453SOL    HW226259   0.992   5.816   6.975
 8454SOL     OW26260   0.967   4.354   6.971
 8454SOL    HW126261   0.920   4.353   0.036
 8454SOL    HW226262   1.052   4.300   6.978
 8455SOL     OW26263   0.870   0.311   2.441
 8455SOL    HW126264   0.854   0.403   2.476
 8455SOL    HW226265   0.914   0.318   2.351
 8456SOL     OW26266   4.855   0.286   3.375
 8456SOL    HW126267   4.834   0.345   3.297
 8456SOL    HW226268   4.949   0.302   3.405
 8457SOL     OW26269   6.043   6.627   4.690
 8457SOL    HW126270   6.111   6.694   4.722
 8457SOL    HW226271   6.083   6.536   4.694
 8458SOL     OW26272   0.498   6.835   0.338
 8458SOL    HW126273   0.476   6.919   0.288
 8458SOL    HW226274   0.434   6.823   0.413
 8459SOL     OW26275   1.155   5.420   3.326
 8459SOL    HW126276   1.092   5.363   3.379
 8459SOL    HW226277   1.103   5.490   3.278
 8460SOL     OW26278   4.054   4.222   5.262
 8460SOL    HW126279   4.108   4.146   5.225
 8460SOL    HW226280   4.115   4.295   5.293
 8461SOL     OW26281   6.860   3.033   4.668
 8461SOL    HW126282   6.948   2.987   4.677
 8461SOL    HW226283   6.841   3.050   4.571
 8462SOL     OW26284   2.765   1.772   1.055
 8462SOL    HW126285   2.790   1.841   1.122
 8462SOL    HW226286   2.848   1.736   1.012
 8463SOL     OW26287   6.074   0.658   2.196
 8463SOL    HW126288   6.174   0.655   2.201
 8463SOL    HW226289   6.038   0.565   2.209
 8464SOL     OW26290   6.091   3.186   4.705
 8464SOL    HW126291   6.038   3.129   4.643
 8464SOL    HW226292   6.029   3.237   4.765
 8465SOL     OW26293   1.249   1.914   0.757
 8465SOL    HW126294   1.288   1.823   0.740
 8465SOL    HW226295   1.180   1.907   0.829
 8466SOL     OW26296   0.965   5.691   3.444
 8466SOL    HW126297   0.903   5.618   3.470
 8466SOL    HW226298   1.019   5.662   3.364
 8467SOL     OW26299   2.830   5.463   0.801
 8467SOL    HW126300   2.791   5.524   0.870
 8467SOL    HW226301   2.922   5.493   0.777
 8468SOL     OW26302   3.969   2.099   0.096
 8468SOL    HW126303   3.921   2.153   0.165
 8468SOL    HW226304   3.978   2.005   0.129
 8469SOL     OW26305   3.067   2.806   6.613
 8469SOL    HW126306   3.139   2.870   6.585
 8469SOL    HW226307   2.995   2.806   6.544
 8470SOL     OW26308   2.186   2.659   0.837
 8470SOL    HW126309   2.209   2.755   0.821
 8470SOL    HW226310   2.235   2.601   0.772
 8471SOL     OW26311   3.286   0.519   4.424
 8471SOL    HW126312   3.301   0.465   4.508
 8471SOL    HW226313   3.189   0.517   4.401
 8472SOL     OW26314   0.504   6.892   4.453
 8472SOL    HW126315   0.533   6.906   4.359
 8472SOL    HW226316   0.413   6.931   4.466
 8473SOL     OW26317   6.570   4.941   0.177
 8473SOL    HW126318   6.643   5.002   0.146
 8473SOL    HW226319   6.585   4.915   0.272
 8474SOL     OW26320   3.323   2.870   1.542
 8474SOL    HW126321   3.333   2.844   1.446
 8474SOL    HW226322   3.285   2.793   1.593
 8475SOL     OW26323   6.145   1.791   2.782
 8475SOL    HW126324   6.228   1.786   2.837
 8475SOL    HW226325   6.067   1.813   2.841
 8476SOL     OW26326   5.599   0.143   2.132
 8476SOL    HW126327   5.595   0.057   2.183
 8476SOL    HW226328   5.535   0.139   2.055
 8477SOL     OW26329   2.753   6.795   1.202
 8477SOL    HW126330   2.779   6.762   1.111
 8477SOL    HW226331   2.691   6.729   1.245
 8478SOL     OW26332   1.880   0.737   5.583
 8478SOL    HW126333   1.793   0.782   5.604
 8478SOL    HW226334   1.880   0.707   5.488
 8479SOL     OW26335   6.093   1.032   0.410
 8479SOL    HW126336   6.183   0.993   0.424
 8479SOL    HW226337   6.057   1.067   0.496
 8480SOL     OW26338   3.329   0.518   1.222
 8480SOL    HW126339   3.371   0.523   1.312
 8480SOL    HW226340   3.248   0.460   1.226
 8481SOL     OW26341   3.842   1.376   4.730
 8481SOL    HW126342   3.902   1.308   4.688
 8481SOL    HW226343   3.756   1.333   4.757
 8482SOL     OW26344   1.442   0.259   2.271
 8482SOL    HW126345   1.380   0.249   2.350
 8482SOL    HW226346   1.519   0.317   2.297
 8483SOL     OW26347   3.537   5.763   1.987
 8483SOL    HW126348   3.538   5.859   1.959
 8483SOL    HW226349   3.624   5.740   2.030
 8484SOL     OW26350   0.694   4.717   4.267
 8484SOL    HW126351   0.609   4.756   4.303
 8484SOL    HW226352   0.735   4.780   4.202
 8485SOL     OW26353   2.468   4.020   0.338
 8485SOL    HW126354   2.468   3.995   0.241
 8485SOL    HW226355   2.558   4.054   0.364
 8486SOL     OW26356   6.036   1.065   2.405
 8486SOL    HW126357   6.003   0.975   2.432
 8486SOL    HW226358   5.980   1.100   2.330
 8487SOL     OW26359   5.522   0.243   1.389
 8487SOL    HW126360   5.597   0.308   1.400
 8487SOL    HW226361   5.553   0.165   1.334
 8488SOL     OW26362   5.201   4.416   4.486
 8488SOL    HW126363   5.238   4.470   4.562
 8488SOL    HW226364   5.118   4.460   4.451
 8489SOL     OW26365   5.189   4.270   1.306
 8489SOL    HW126366   5.221   4.269   1.400
 8489SOL    HW226367   5.103   4.322   1.300
 8490SOL     OW26368   4.407   5.889   3.001
 8490SOL    HW126369   4.427   5.846   3.089
 8490SOL    HW226370   4.308   5.898   2.990
 8491SOL     OW26371   2.637   0.830   2.085
 8491SOL    HW126372   2.587   0.916   2.094
 8491SOL    HW226373   2.642   0.785   2.175
 8492SOL     OW26374   6.024   2.913   5.529
 8492SOL    HW126375   6.013   2.836   5.466
 8492SOL    HW226376   5.994   2.997   5.484
 8493SOL     OW26377   4.327   1.751   0.195
 8493SOL    HW126378   4.398   1.789   0.253
 8493SOL    HW226379   4.358   1.753   0.099
 8494SOL     OW26380   2.630   5.774   6.929
 8494SOL    HW126381   2.609   5.723   6.845
 8494SOL    HW226382   2.621   5.714   7.008
 8495SOL     OW26383   6.636   2.361   1.013
 8495SOL    HW126384   6.652   2.282   1.073
 8495SOL    HW226385   6.722   2.412   1.003
 8496SOL     OW26386   0.406   2.214   3.261
 8496SOL    HW126387   0.501   2.246   3.259
 8496SOL    HW226388   0.392   2.156   3.342
 8497SOL     OW26389   5.935   5.308   4.068
 8497SOL    HW126390   5.989   5.392   4.067
 8497SOL    HW226391   5.994   5.231   4.091
 8498SOL     OW26392   0.311   0.032   1.297
 8498SOL    HW126393   0.363   0.045   1.212
 8498SOL    HW226394   0.271   0.118   1.326
 8499SOL     OW26395   3.130   4.976   6.334
 8499SOL    HW126396   3.113   5.036   6.256
 8499SOL    HW226397   3.224   4.986   6.365
 8500SOL     OW26398   2.239   6.554   5.959
 8500SOL    HW126399   2.324   6.571   5.909
 8500SOL    HW226400   2.261   6.537   6.055
 8501SOL     OW26401   2.066   3.716   6.559
 8501SOL    HW126402   2.123   3.643   6.597
 8501SOL    HW226403   2.045   3.783   6.630
 8502SOL     OW26404   6.987   6.200   1.412
 8502SOL    HW126405   6.924   6.267   1.451
 8502SOL    HW226406   6.996   6.215   1.314
 8503SOL     OW26407   2.378   5.112   3.524
 8503SOL    HW126408   2.307   5.162   3.474
 8503SOL    HW226409   2.443   5.177   3.563
 8504SOL     OW26410   1.812   5.892   3.279
 8504SOL    HW126411   1.819   5.969   3.343
 8504SOL    HW226412   1.787   5.926   3.188
 8505SOL     OW26413   5.454   4.202   3.869
 8505SOL    HW126414   5.474   4.164   3.960
 8505SOL    HW226415   5.359   4.181   3.844
 8506SOL     OW26416   1.140   6.399   0.484
 8506SOL    HW126417   1.187   6.441   0.407
 8506SOL    HW226418   1.112   6.306   0.459
 8507SOL     OW26419   2.274   0.953   6.125
 8507SOL    HW126420   2.330   1.036   6.121
 8507SOL    HW226421   2.184   0.976   6.164
 8508SOL     OW26422   0.059   2.655   5.408
 8508SOL    HW126423   6.985   2.631   5.420
 8508SOL    HW226424   0.100   2.596   5.339
 8509SOL     OW26425   5.984   1.227   4.636
 8509SOL    HW126426   5.926   1.243   4.556
 8509SOL    HW226427   5.944   1.273   4.716
 8510SOL     OW26428   5.641   5.523   3.049
 8510SOL    HW126429   5.643   5.601   2.987
 8510SOL    HW226430   5.583   5.543   3.128
 8511SOL     OW26431   6.637   4.365   0.829
 8511SOL    HW126432   6.657   4.378   0.732
 8511SOL    HW226433   6.661   4.448   0.879
 8512SOL     OW26434   4.246   2.422   6.928
 8512SOL    HW126435   4.149   2.440   6.915
 8512SOL    HW226436   4.259   2.365   7.009
 8513SOL     OW26437   5.714   3.585   0.863
 8513SOL    HW126438   5.616   3.571   0.846
 8513SOL    HW226439   5.728   3.610   0.958
 8514SOL     OW26440   2.412   1.685   4.664
 8514SOL    HW126441   2.366   1.597   4.672
 8514SOL    HW226442   2.388   1.743   4.742
 8515SOL     OW26443   0.310   1.516   6.801
 8515SOL    HW126444   0.251   1.596   6.788
 8515SOL    HW226445   0.341   1.482   6.713
 8516SOL     OW26446   6.240   2.778   2.353
 8516SOL    HW126447   6.236   2.681   2.330
 8516SOL    HW226448   6.290   2.790   2.439
 8517SOL     OW26449   2.446   2.559   5.765
 8517SOL    HW126450   2.472   2.585   5.858
 8517SOL    HW226451   2.413   2.464   5.764
 8518SOL     OW26452   4.984   4.724   6.440
 8518SOL    HW126453   4.896   4.734   6.487
 8518SOL    HW226454   5.058   4.750   6.502
 8519SOL     OW26455   1.435   4.605   0.700
 8519SOL    HW126456   1.514   4.544   0.707
 8519SOL    HW226457   1.381   4.579   0.619
 8520SOL     OW26458   4.226   3.752   5.172
 8520SOL    HW126459   4.155   3.795   5.116
 8520SOL    HW226460   4.229   3.654   5.152
 8521SOL     OW26461   1.091   6.647   5.260
 8521SOL    HW126462   1.170   6.598   5.298
 8521SOL    HW226463   1.027   6.581   5.219
 8522SOL     OW26464   1.176   6.834   0.125
 8522SOL    HW126465   1.120   6.827   0.043
 8522SOL    HW226466   1.120   6.864   0.202
 8523SOL     OW26467   2.859   6.710   6.370
 8523SOL    HW126468   2.813   6.779   6.314
 8523SOL    HW226469   2.923   6.659   6.312
 8524SOL     OW26470   1.291   5.271   4.930
 8524SOL    HW126471   1.332   5.206   4.867
 8524SOL    HW226472   1.250   5.347   4.879
 8525SOL     OW26473   6.399   4.548   0.933
 8525SOL    HW126474   6.343   4.631   0.934
 8525SOL    HW226475   6.391   4.503   0.844
 8526SOL     OW26476   2.572   6.493   0.642
 8526SOL    HW126477   2.532   6.468   0.730
 8526SOL    HW226478   2.520   6.450   0.569
 8527SOL     OW26479   3.374   0.289   6.782
 8527SOL    HW126480   3.460   0.338   6.764
 8527SOL    HW226481   3.321   0.283   6.697
 8528SOL     OW26482   4.765   1.927   1.084
 8528SOL    HW126483   4.733   1.886   1.169
 8528SOL    HW226484   4.761   2.027   1.091
 8529SOL     OW26485   0.779   6.448   6.419
 8529SOL    HW126486   0.794   6.388   6.340
 8529SOL    HW226487   0.721   6.401   6.485
 8530SOL     OW26488   2.996   3.298   4.139
 8530SOL    HW126489   2.946   3.384   4.148
 8530SOL    HW226490   2.998   3.271   4.042
 8531SOL     OW26491   6.642   5.775   3.502
 8531SOL    HW126492   6.622   5.684   3.538
 8531SOL    HW226493   6.601   5.785   3.411
 8532SOL     OW26494   3.345   6.415   4.098
 8532SOL    HW126495   3.325   6.395   4.002
 8532SOL    HW226496   3.419   6.356   4.130
 8533SOL     OW26497   0.593   6.201   0.003
 8533SOL    HW126498   0.537   6.120   7.008
 8533SOL    HW226499   0.533   6.278   0.028
 8534SOL     OW26500   4.396   2.115   4.088
 8534SOL    HW126501   4.382   2.157   4.177
 8534SOL    HW226502   4.430   2.183   4.023
 8535SOL     OW26503   5.467   0.869   3.645
 8535SOL    HW126504   5.556   0.837   3.676
 8535SOL    HW226505   5.409   0.791   3.623
 8536SOL     OW26506   0.545   1.503   4.557
 8536SOL    HW126507   0.587   1.582   4.513
 8536SOL    HW226508   0.548   1.513   4.656
 8537SOL     OW26509   5.816   1.354   3.383
 8537SOL    HW126510   5.725   1.335   3.421
 8537SOL    HW226511   5.848   1.443   3.417
 8538SOL     OW26512   1.333   1.465   0.260
 8538SOL    HW126513   1.261   1.454   0.191
 8538SOL    HW226514   1.422   1.457   0.217
 8539SOL     OW26515   6.291   2.662   2.958
 8539SOL    HW126516   6.206   2.702   2.923
 8539SOL    HW226517   6.315   2.582   2.903
 8540SOL     OW26518   4.474   0.204   6.817
 8540SOL    HW126519   4.483   0.265   6.738
 8540SOL    HW226520   4.463   0.260   6.900
 8541SOL     OW26521   2.516   2.179   4.226
 8541SOL    HW126522   2.558   2.088   4.227
 8541SOL    HW226523   2.583   2.246   4.258
 8542SOL     OW26524   3.675   4.321   6.516
 8542SOL    HW126525   3.719   4.403   6.479
 8542SOL    HW226526   3.665   4.253   6.444
 8543SOL     OW26527   1.826   2.290   0.101
 8543SOL    HW126528   1.848   2.224   0.173
 8543SOL    HW226529   1.911   2.322   0.058
 8544SOL     OW26530   5.317   2.503   4.417
 8544SOL    HW126531   5.341   2.601   4.418
 8544SOL    HW226532   5.340   2.463   4.506
 8545SOL     OW26533   4.903   6.508   5.636
 8545SOL    HW126534   4.875   6.584   5.577
 8545SOL    HW226535   4.822   6.460   5.670
 8546SOL     OW26536   5.797   1.555   3.726
 8546SOL    HW126537   5.819   1.478   3.666
 8546SOL    HW226538   5.871   1.623   3.722
 8547SOL     OW26539   1.593   5.349   4.814
 8547SOL    HW126540   1.563   5.323   4.906
 8547SOL    HW226541   1.515   5.344   4.751
 8548SOL     OW26542   5.790   1.506   5.750
 8548SOL    HW126543   5.850   1.540   5.677
 8548SOL    HW226544   5.728   1.579   5.778
 8549SOL     OW26545   6.443   4.261   3.875
 8549SOL    HW126546   6.521   4.200   3.889
 8549SOL    HW226547   6.358   4.211   3.888
 8550SOL     OW26548   1.357   5.333   6.497
 8550SOL    HW126549   1.410   5.260   6.455
 8550SOL    HW226550   1.263   5.329   6.465
 8551SOL     OW26551   3.391   4.322   6.500
 8551SOL    HW126552   3.487   4.342   6.519
 8551SOL    HW226553   3.334   4.357   6.575
 8552SOL     OW26554   3.434   5.611   3.102
 8552SOL    HW126555   3.412   5.702   3.067
 8552SOL    HW226556   3.447   5.616   3.201
 8553SOL     OW26557   5.226   6.750   0.078
 8553SOL    HW126558   5.231   6.825   0.145
 8553SOL    HW226559   5.132   6.739   0.048
 8554SOL     OW26560   0.510   4.476   0.203
 8554SOL    HW126561   0.423   4.436   0.231
 8554SOL    HW226562   0.494   4.542   0.129
 8555SOL     OW26563   0.871   0.801   3.479
 8555SOL    HW126564   0.775   0.777   3.488
 8555SOL    HW226565   0.912   0.813   3.570
 8556SOL     OW26566   6.884   0.732   3.730
 8556SOL    HW126567   6.821   0.809   3.717
 8556SOL    HW226568   6.949   0.754   3.803
 8557SOL     OW26569   0.017   6.470   1.463
 8557SOL    HW126570   0.010   6.541   1.393
 8557SOL    HW226571   0.108   6.473   1.505
 8558SOL     OW26572   2.227   5.690   2.533
 8558SOL    HW126573   2.130   5.672   2.515
 8558SOL    HW226574   2.281   5.663   2.454
 8559SOL     OW26575   0.655   0.940   1.432
 8559SOL    HW126576   0.682   1.032   1.460
 8559SOL    HW226577   0.699   0.917   1.345
 8560SOL     OW26578   6.971   1.327   0.649
 8560SOL    HW126579   7.020   1.244   0.677
 8560SOL    HW226580   0.013   1.392   0.609
 8561SOL     OW26581   4.620   6.231   2.416
 8561SOL    HW126582   4.719   6.235   2.405
 8561SOL    HW226583   4.576   6.276   2.338
 8562SOL     OW26584   3.757   6.573   4.310
 8562SOL    HW126585   3.800   6.652   4.353
 8562SOL    HW226586   3.731   6.506   4.380
 8563SOL     OW26587   2.545   3.136   0.141
 8563SOL    HW126588   2.455   3.141   0.183
 8563SOL    HW226589   2.536   3.111   0.045
 8564SOL     OW26590   0.799   0.275   3.696
 8564SOL    HW126591   0.772   0.370   3.683
 8564SOL    HW226592   0.889   0.259   3.654
 8565SOL     OW26593   4.136   0.015   0.652
 8565SOL    HW126594   4.141   0.093   0.589
 8565SOL    HW226595   4.115   6.955   0.600
 8566SOL     OW26596   1.049   2.558   3.006
 8566SOL    HW126597   1.104   2.591   3.083
 8566SOL    HW226598   0.980   2.493   3.039
 8567SOL     OW26599   5.738   1.583   1.151
 8567SOL    HW126600   5.654   1.567   1.203
 8567SOL    HW226601   5.745   1.518   1.076
 8568SOL     OW26602   4.931   1.928   0.602
 8568SOL    HW126603   4.997   1.933   0.526
 8568SOL    HW226604   4.937   2.011   0.657
 8569SOL     OW26605   4.804   0.985   4.585
 8569SOL    HW126606   4.788   1.046   4.663
 8569SOL    HW226607   4.795   1.037   4.500
 8570SOL     OW26608   0.989   4.079   6.594
 8570SOL    HW126609   1.087   4.093   6.611
 8570SOL    HW226610   0.975   3.989   6.554
 8571SOL     OW26611   6.845   4.239   4.607
 8571SOL    HW126612   6.893   4.231   4.520
 8571SOL    HW226613   6.794   4.325   4.610
 8572SOL     OW26614   2.024   4.849   5.329
 8572SOL    HW126615   2.053   4.933   5.283
 8572SOL    HW226616   1.984   4.787   5.262
 8573SOL     OW26617   4.726   6.438   6.509
 8573SOL    HW126618   4.683   6.424   6.419
 8573SOL    HW226619   4.825   6.441   6.498
 8574SOL     OW26620   0.389   3.904   6.082
 8574SOL    HW126621   0.344   3.891   5.994
 8574SOL    HW226622   0.411   3.815   6.122
 8575SOL     OW26623   2.491   2.808   0.433
 8575SOL    HW126624   2.582   2.789   0.469
 8575SOL    HW226625   2.465   2.902   0.456
 8576SOL     OW26626   1.109   6.932   1.711
 8576SOL    HW126627   1.077   6.897   1.623
 8576SOL    HW226628   1.193   6.885   1.738
 8577SOL     OW26629   6.315   5.644   2.999
 8577SOL    HW126630   6.359   5.607   3.081
 8577SOL    HW226631   6.252   5.717   3.026
 8578SOL     OW26632   4.853   0.151   3.987
 8578SOL    HW126633   4.773   0.161   4.046
 8578SOL    HW226634   4.932   0.125   4.043
 8579SOL     OW26635   1.223   4.917   3.395
 8579SOL    HW126636   1.159   4.979   3.441
 8579SOL    HW226637   1.304   4.904   3.452
 8580SOL     OW26638   1.235   6.074   1.945
 8580SOL    HW126639   1.189   6.010   1.883
 8580SOL    HW226640   1.201   6.166   1.928
 8581SOL     OW26641   3.301   1.790   1.307
 8581SOL    HW126642   3.283   1.695   1.333
 8581SOL    HW226643   3.333   1.793   1.212
 8582SOL     OW26644   4.420   4.673   2.106
 8582SOL    HW126645   4.452   4.628   2.023
 8582SOL    HW226646   4.321   4.662   2.114
 8583SOL     OW26647   6.741   0.066   5.815
 8583SOL    HW126648   6.698   0.119   5.741
 8583SOL    HW226649   6.779   7.005   5.777
 8584SOL     OW26650   6.806   4.558   0.387
 8584SOL    HW126651   6.900   4.536   0.415
 8584SOL    HW226652   6.744   4.486   0.419
 8585SOL     OW26653   0.211   0.653   0.418
 8585SOL    HW126654   0.233   0.646   0.515
 8585SOL    HW226655   0.258   0.732   0.378
 8586SOL     OW26656   3.884   6.149   3.152
 8586SOL    HW126657   3.825   6.114   3.225
 8586SOL    HW226658   3.955   6.207   3.192
 8587SOL     OW26659   7.004   1.955   2.378
 8587SOL    HW126660   6.987   1.983   2.472
 8587SOL    HW226661   0.041   2.023   2.334
 8588SOL     OW26662   3.881   2.467   0.724
 8588SOL    HW126663   3.926   2.530   0.660
 8588SOL    HW226664   3.849   2.517   0.804
 8589SOL     OW26665   3.504   1.023   4.956
 8589SOL    HW126666   3.406   1.030   4.941
 8589SOL    HW226667   3.542   1.113   4.978
 8590SOL     OW26668   6.303   5.303   4.094
 8590SOL    HW126669   6.372   5.246   4.049
 8590SOL    HW226670   6.293   5.276   4.189
 8591SOL     OW26671   1.241   3.476   6.222
 8591SOL    HW126672   1.253   3.478   6.122
 8591SOL    HW226673   1.328   3.452   6.265
 8592SOL     OW26674   6.985   4.276   1.318
 8592SOL    HW126675   0.018   4.248   1.240
 8592SOL    HW226676   6.890   4.250   1.302
 8593SOL     OW26677   1.524   6.701   2.142
 8593SOL    HW126678   1.462   6.744   2.207
 8593SOL    HW226679   1.488   6.613   2.114
 8594SOL     OW26680   3.033   3.732   3.978
 8594SOL    HW126681   3.120   3.705   3.936
 8594SOL    HW226682   3.041   3.824   4.015
 8595SOL     OW26683   1.638   1.832   2.344
 8595SOL    HW126684   1.629   1.887   2.260
 8595SOL    HW226685   1.604   1.884   2.422
 8596SOL     OW26686   5.352   5.011   1.477
 8596SOL    HW126687   5.303   5.025   1.563
 8596SOL    HW226688   5.352   4.913   1.454
 8597SOL     OW26689   2.944   1.374   0.577
 8597SOL    HW126690   2.934   1.469   0.604
 8597SOL    HW226691   2.880   1.354   0.502
 8598SOL     OW26692   6.449   3.517   0.736
 8598SOL    HW126693   6.549   3.512   0.725
 8598SOL    HW226694   6.425   3.607   0.772
 8599SOL     OW26695   0.916   2.842   3.568
 8599SOL    HW126696   0.891   2.781   3.643
 8599SOL    HW226697   0.919   2.790   3.482
 8600SOL     OW26698   6.826   4.801   6.450
 8600SOL    HW126699   6.751   4.852   6.408
 8600SOL    HW226700   6.795   4.761   6.537
 8601SOL     OW26701   6.940   0.788   4.175
 8601SOL    HW126702   6.930   0.874   4.226
 8601SOL    HW226703   6.851   0.757   4.144
 8602SOL     OW26704   2.850   5.861   2.563
 8602SOL    HW126705   2.772   5.923   2.549
 8602SOL    HW226706   2.831   5.800   2.640
 8603SOL     OW26707   3.801   3.438   0.462
 8603SOL    HW126708   3.868   3.470   0.396
 8603SOL    HW226709   3.791   3.506   0.535
 8604SOL     OW26710   5.496   2.804   3.638
 8604SOL    HW126711   5.510   2.716   3.592
 8604SOL    HW226712   5.473   2.873   3.571
 8605SOL     OW26713   3.152   5.655   3.915
 8605SOL    HW126714   3.251   5.637   3.911
 8605SOL    HW226715   3.133   5.745   3.878
 8606SOL     OW26716   3.066   4.828   5.940
 8606SOL    HW126717   3.023   4.913   5.971
 8606SOL    HW226718   3.018   4.795   5.859
 8607SOL     OW26719   4.110   5.887   2.016
 8607SOL    HW126720   4.195   5.939   2.027
 8607SOL    HW226721   4.080   5.893   1.921
 8608SOL     OW26722   3.966   4.985   2.886
 8608SOL    HW126723   3.971   5.084   2.888
 8608SOL    HW226724   3.908   4.953   2.961
 8609SOL     OW26725   3.546   0.396   4.892
 8609SOL    HW126726   3.496   0.393   4.978
 8609SOL    HW226727   3.559   0.302   4.858
 8610SOL     OW26728   0.845   6.747   3.425
 8610SOL    HW126729   0.865   6.658   3.465
 8610SOL    HW226730   0.854   6.742   3.325
 8611SOL     OW26731   1.524   2.020   4.621
 8611SOL    HW126732   1.619   2.004   4.647
 8611SOL    HW226733   1.517   2.103   4.566
 8612SOL     OW26734   3.305   2.608   6.977
 8612SOL    HW126735   3.241   2.632   6.904
 8612SOL    HW226736   3.346   2.519   6.958
 8613SOL     OW26737   1.815   1.484   1.135
 8613SOL    HW126738   1.772   1.437   1.212
 8613SOL    HW226739   1.885   1.547   1.168
 8614SOL     OW26740   1.017   3.926   3.080
 8614SOL    HW126741   0.982   3.940   3.172
 8614SOL    HW226742   1.111   3.892   3.085
 8615SOL     OW26743   4.190   2.146   6.124
 8615SOL    HW126744   4.123   2.210   6.162
 8615SOL    HW226745   4.142   2.076   6.071
 8616SOL     OW26746   1.240   4.978   6.776
 8616SOL    HW126747   1.284   4.921   6.845
 8616SOL    HW226748   1.290   4.970   6.689
 8617SOL     OW26749   6.355   2.300   0.998
 8617SOL    HW126750   6.304   2.356   1.063
 8617SOL    HW226751   6.454   2.310   1.015
 8618SOL     OW26752   4.665   0.435   2.926
 8618SOL    HW126753   4.604   0.486   2.987
 8618SOL    HW226754   4.733   0.387   2.981
 8619SOL     OW26755   4.440   5.030   6.793
 8619SOL    HW126756   4.481   5.121   6.781
 8619SOL    HW226757   4.370   5.017   6.723
 8620SOL     OW26758   5.499   0.026   2.600
 8620SOL    HW126759   5.434   6.985   2.641
 8620SOL    HW226760   5.502   0.110   2.653
 8621SOL     OW26761   6.143   0.970   3.900
 8621SOL    HW126762   6.200   0.899   3.858
 8621SOL    HW226763   6.069   0.995   3.838
 8622SOL     OW26764   5.086   5.101   0.140
 8622SOL    HW126765   4.994   5.117   0.103
 8622SOL    HW226766   5.086   5.118   0.238
 8623SOL     OW26767   1.102   4.082   2.873
 8623SOL    HW126768   1.097   4.022   2.952
 8623SOL    HW226769   1.047   4.045   2.798
 8624SOL     OW26770   1.215   4.483   3.330
 8624SOL    HW126771   1.168   4.395   3.328
 8624SOL    HW226772   1.295   4.476   3.390
 8625SOL     OW26773   4.733   0.692   4.644
 8625SOL    HW126774   4.757   0.789   4.643
 8625SOL    HW226775   4.649   0.678   4.591
 8626SOL     OW26776   3.382   3.206   4.235
 8626SOL    HW126777   3.467   3.158   4.212
 8626SOL    HW226778   3.306   3.142   4.235
 8627SOL     OW26779   1.000   0.517   1.201
 8627SOL    HW126780   1.003   0.421   1.173
 8627SOL    HW226781   0.970   0.523   1.296
 8628SOL     OW26782   6.551   1.077   6.945
 8628SOL    HW126783   6.548   1.038   6.853
 8628SOL    HW226784   6.640   1.059   6.986
 8629SOL     OW26785   0.864   4.845   4.046
 8629SOL    HW126786   0.951   4.814   4.006
 8629SOL    HW226787   0.797   4.858   3.973
 8630SOL     OW26788   5.682   3.625   4.016
 8630SOL    HW126789   5.592   3.659   4.043
 8630SOL    HW226790   5.753   3.682   4.058
 8631SOL     OW26791   4.018   5.445   5.050
 8631SOL    HW126792   3.984   5.524   5.102
 8631SOL    HW226793   4.114   5.429   5.074
 8632SOL     OW26794   3.731   0.225   3.636
 8632SOL    HW126795   3.689   0.200   3.549
 8632SOL    HW226796   3.723   0.149   3.700
 8633SOL     OW26797   5.673   1.229   3.968
 8633SOL    HW126798   5.748   1.283   4.006
 8633SOL    HW226799   5.606   1.290   3.925
 8634SOL     OW26800   6.154   4.239   1.931
 8634SOL    HW126801   6.238   4.247   1.877
 8634SOL    HW226802   6.141   4.143   1.958
 8635SOL     OW26803   6.207   3.879   6.116
 8635SOL    HW126804   6.269   3.811   6.077
 8635SOL    HW226805   6.259   3.960   6.143
 8636SOL     OW26806   6.189   5.629   0.591
 8636SOL    HW126807   6.127   5.698   0.552
 8636SOL    HW226808   6.254   5.599   0.522
 8637SOL     OW26809   1.604   0.653   0.158
 8637SOL    HW126810   1.578   0.602   0.240
 8637SOL    HW226811   1.587   0.750   0.172
 8638SOL     OW26812   2.469   4.407   0.066
 8638SOL    HW126813   2.486   4.434   6.994
 8638SOL    HW226814   2.421   4.320   0.068
 8639SOL     OW26815   5.285   2.962   2.268
 8639SOL    HW126816   5.299   3.032   2.198
 8639SOL    HW226817   5.367   2.904   2.274
 8640SOL     OW26818   4.568   4.185   0.793
 8640SOL    HW126819   4.622   4.264   0.763
 8640SOL    HW226820   4.625   4.125   0.849
 8641SOL     OW26821   0.464   4.389   3.421
 8641SOL    HW126822   0.448   4.452   3.497
 8641SOL    HW226823   0.554   4.407   3.381
 8642SOL     OW26824   4.949   0.999   1.806
 8642SOL    HW126825   4.923   0.924   1.744
 8642SOL    HW226826   4.896   1.081   1.783
 8643SOL     OW26827   4.237   0.498   6.635
 8643SOL    HW126828   4.236   0.477   6.733
 8643SOL    HW226829   4.328   0.483   6.599
 8644SOL     OW26830   5.582   2.533   4.901
 8644SOL    HW126831   5.493   2.546   4.943
 8644SOL    HW226832   5.625   2.622   4.885
 8645SOL     OW26833   6.641   3.790   1.213
 8645SOL    HW126834   6.639   3.874   1.159
 8645SOL    HW226835   6.702   3.724   1.170
 8646SOL     OW26836   5.189   1.472   0.611
 8646SOL    HW126837   5.268   1.511   0.563
 8646SOL    HW226838   5.112   1.535   0.605
 8647SOL     OW26839   3.844   5.008   6.935
 8647SOL    HW126840   3.846   5.049   0.003
 8647SOL    HW226841   3.762   5.037   6.886
 8648SOL     OW26842   5.592   0.335   4.611
 8648SOL    HW126843   5.517   0.268   4.611
 8648SOL    HW226844   5.674   0.292   4.573
 8649SOL     OW26845   6.303   4.222   5.426
 8649SOL    HW126846   6.322   4.138   5.376
 8649SOL    HW226847   6.205   4.243   5.420
 8650SOL     OW26848   2.069   5.287   4.153
 8650SOL    HW126849   2.093   5.373   4.197
 8650SOL    HW226850   2.130   5.214   4.185
 8651SOL     OW26851   3.653   1.864   0.432
 8651SOL    HW126852   3.735   1.822   0.392
 8651SOL    HW226853   3.575   1.848   0.373
 8652SOL     OW26854   2.234   4.185   3.331
 8652SOL    HW126855   2.234   4.175   3.231
 8652SOL    HW226856   2.256   4.097   3.373
 8653SOL     OW26857   0.263   2.303   6.311
 8653SOL    HW126858   0.347   2.307   6.365
 8653SOL    HW226859   0.225   2.211   6.314
 8654SOL     OW26860   0.193   6.799   3.305
 8654SOL    HW126861   0.109   6.848   3.282
 8654SOL    HW226862   0.172   6.725   3.369
 8655SOL     OW26863   6.064   6.817   3.996
 8655SOL    HW126864   5.982   6.780   3.952
 8655SOL    HW226865   6.077   6.912   3.967
 8656SOL     OW26866   6.125   0.851   1.008
 8656SOL    HW126867   6.178   0.917   0.954
 8656SOL    HW226868   6.061   0.900   1.067
 8657SOL     OW26869   5.119   5.020   6.234
 8657SOL    HW126870   5.074   4.940   6.273
 8657SOL    HW226871   5.172   4.993   6.153
 8658SOL     OW26872   5.271   4.837   0.056
 8658SOL    HW126873   5.231   4.748   0.036
 8658SOL    HW226874   5.269   4.854   0.155
 8659SOL     OW26875   4.312   0.807   3.395
 8659SOL    HW126876   4.383   0.742   3.422
 8659SOL    HW226877   4.241   0.759   3.344
 8660SOL     OW26878   6.220   4.085   0.190
 8660SOL    HW126879   6.230   4.148   0.113
 8660SOL    HW226880   6.304   4.031   0.200
 8661SOL     OW26881   6.125   3.967   1.996
 8661SOL    HW126882   6.108   3.870   1.981
 8661SOL    HW226883   6.096   3.992   2.089
 8662SOL     OW26884   5.931   6.415   0.885
 8662SOL    HW126885   6.028   6.436   0.899
 8662SOL    HW226886   5.879   6.500   0.880
 8663SOL     OW26887   2.068   5.258   0.801
 8663SOL    HW126888   2.158   5.224   0.775
 8663SOL    HW226889   2.075   5.313   0.884
 8664SOL     OW26890   4.668   5.852   0.423
 8664SOL    HW126891   4.607   5.922   0.459
 8664SOL    HW226892   4.751   5.894   0.386
 8665SOL     OW26893   4.841   5.881   5.543
 8665SOL    HW126894   4.834   5.934   5.628
 8665SOL    HW226895   4.929   5.834   5.541
 8666SOL     OW26896   4.846   2.045   5.439
 8666SOL    HW126897   4.891   2.133   5.457
 8666SOL    HW226898   4.825   2.000   5.526
 8667SOL     OW26899   5.142   1.853   3.144
 8667SOL    HW126900   5.176   1.786   3.077
 8667SOL    HW226901   5.158   1.945   3.109
 8668SOL     OW26902   5.685   2.448   4.205
 8668SOL    HW126903   5.758   2.471   4.140
 8668SOL    HW226904   5.655   2.532   4.252
 8669SOL     OW26905   4.486   1.336   6.270
 8669SOL    HW126906   4.503   1.304   6.363
 8669SOL    HW226907   4.405   1.289   6.233
 8670SOL     OW26908   3.609   5.585   4.836
 8670SOL    HW126909   3.680   5.615   4.771
 8670SOL    HW226910   3.537   5.655   4.840
 8671SOL     OW26911   5.907   6.648   3.828
 8671SOL    HW126912   5.879   6.640   3.732
 8671SOL    HW226913   5.971   6.574   3.850
 8672SOL     OW26914   2.588   5.437   4.500
 8672SOL    HW126915   2.634   5.390   4.424
 8672SOL    HW226916   2.602   5.536   4.491
 8673SOL     OW26917   0.253   2.054   0.305
 8673SOL    HW126918   0.207   2.037   0.392
 8673SOL    HW226919   0.184   2.066   0.233
 8674SOL     OW26920   0.116   6.639   2.950
 8674SOL    HW126921   0.113   6.736   2.977
 8674SOL    HW226922   0.054   6.624   2.874
 8675SOL     OW26923   2.726   1.800   4.000
 8675SOL    HW126924   2.682   1.855   4.071
 8675SOL    HW226925   2.815   1.840   3.978
 8676SOL     OW26926   3.450   0.457   2.468
 8676SOL    HW126927   3.396   0.520   2.524
 8676SOL    HW226928   3.438   0.480   2.371
 8677SOL     OW26929   2.947   5.328   6.428
 8677SOL    HW126930   2.859   5.353   6.389
 8677SOL    HW226931   3.020   5.363   6.370
 8678SOL     OW26932   1.483   0.298   6.704
 8678SOL    HW126933   1.482   0.266   6.799
 8678SOL    HW226934   1.411   0.251   6.652
 8679SOL     OW26935   5.909   1.785   5.162
 8679SOL    HW126936   5.919   1.757   5.066
 8679SOL    HW226937   5.992   1.762   5.212
 8680SOL     OW26938   1.837   3.789   0.484
 8680SOL    HW126939   1.919   3.754   0.437
 8680SOL    HW226940   1.800   3.717   0.543
 8681SOL     OW26941   4.583   4.685   0.399
 8681SOL    HW126942   4.533   4.686   0.313
 8681SOL    HW226943   4.584   4.778   0.437
 8682SOL     OW26944   2.819   6.806   2.792
 8682SOL    HW126945   2.812   6.836   2.697
 8682SOL    HW226946   2.905   6.840   2.831
 8683SOL     OW26947   1.094   3.291   1.557
 8683SOL    HW126948   1.063   3.356   1.627
 8683SOL    HW226949   1.016   3.253   1.509
 8684SOL     OW26950   6.164   2.925   5.127
 8684SOL    HW126951   6.224   2.947   5.050
 8684SOL    HW226952   6.220   2.906   5.208
 8685SOL     OW26953   1.116   2.073   6.241
 8685SOL    HW126954   1.125   2.124   6.156
 8685SOL    HW226955   1.197   2.015   6.254
 8686SOL     OW26956   6.899   1.950   2.090
 8686SOL    HW126957   6.972   2.000   2.044
 8686SOL    HW226958   6.874   1.997   2.174
 8687SOL     OW26959   3.520   6.810   2.758
 8687SOL    HW126960   3.471   6.765   2.683
 8687SOL    HW226961   3.471   6.892   2.786
 8688SOL     OW26962   2.749   6.950   0.933
 8688SOL    HW126963   2.776   0.012   0.977
 8688SOL    HW226964   2.828   6.911   0.885
 8689SOL     OW26965   4.079   5.737   0.220
 8689SOL    HW126966   4.124   5.805   0.161
 8689SOL    HW226967   4.005   5.781   0.271
 8690SOL     OW26968   1.473   1.884   3.721
 8690SOL    HW126969   1.378   1.904   3.697
 8690SOL    HW226970   1.531   1.896   3.640
 8691SOL     OW26971   4.738   2.892   6.524
 8691SOL    HW126972   4.710   2.797   6.510
 8691SOL    HW226973   4.660   2.952   6.505
 8692SOL     OW26974   3.350   2.021   3.845
 8692SOL    HW126975   3.322   2.114   3.825
 8692SOL    HW226976   3.433   2.022   3.901
 8693SOL     OW26977   5.697   2.493   0.811
 8693SOL    HW126978   5.644   2.419   0.852
 8693SOL    HW226979   5.728   2.556   0.883
 8694SOL     OW26980   5.078   0.169   6.467
 8694SOL    HW126981   5.009   0.209   6.528
 8694SOL    HW226982   5.115   0.087   6.509
 8695SOL     OW26983   4.886   3.043   5.845
 8695SOL    HW126984   4.854   3.075   5.756
 8695SOL    HW226985   4.892   3.120   5.908
 8696SOL     OW26986   3.498   5.545   0.924
 8696SOL    HW126987   3.435   5.484   0.971
 8696SOL    HW226988   3.479   5.640   0.950
 8697SOL     OW26989   6.442   3.309   0.543
 8697SOL    HW126990   6.353   3.291   0.500
 8697SOL    HW226991   6.429   3.374   0.618
 8698SOL     OW26992   5.492   5.908   4.181
 8698SOL    HW126993   5.398   5.879   4.195
 8698SOL    HW226994   5.550   5.828   4.167
 8699SOL     OW26995   1.379   2.744   5.288
 8699SOL    HW126996   1.354   2.704   5.200
 8699SOL    HW226997   1.394   2.670   5.354
 8700SOL     OW26998   1.959   1.041   4.607
 8700SOL    HW126999   1.937   0.976   4.533
 8700SOL    HW227000   2.014   0.995   4.676
 8701SOL     OW27001   0.768   1.299   5.736
 8701SOL    HW127002   0.727   1.379   5.780
 8701SOL    HW227003   0.748   1.217   5.790
 8702SOL     OW27004   5.364   4.449   0.149
 8702SOL    HW127005   5.388   4.426   0.055
 8702SOL    HW227006   5.291   4.517   0.150
 8703SOL     OW27007   2.982   5.930   1.164
 8703SOL    HW127008   2.961   5.972   1.253
 8703SOL    HW227009   2.963   5.996   1.092
 8704SOL     OW27010   6.309   4.290   2.661
 8704SOL    HW127011   6.264   4.244   2.738
 8704SOL    HW227012   6.279   4.386   2.659
 8705SOL     OW27013   5.032   0.878   6.642
 8705SOL    HW127014   5.090   0.831   6.709
 8705SOL    HW227015   5.088   0.939   6.586
 8706SOL     OW27016   4.618   2.302   0.089
 8706SOL    HW127017   4.614   2.359   0.007
 8706SOL    HW227018   4.551   2.335   0.156
 8707SOL     OW27019   3.866   3.147   0.142
 8707SOL    HW127020   3.855   3.235   0.188
 8707SOL    HW227021   3.953   3.106   0.168
 8708SOL     OW27022   3.604   0.449   1.874
 8708SOL    HW127023   3.569   0.409   1.959
 8708SOL    HW227024   3.692   0.494   1.892
 8709SOL     OW27025   0.161   4.541   0.265
 8709SOL    HW127026   0.149   4.442   0.250
 8709SOL    HW227027   0.189   4.583   0.179
 8710SOL     OW27028   1.182   3.256   3.271
 8710SOL    HW127029   1.185   3.224   3.176
 8710SOL    HW227030   1.088   3.252   3.304
 8711SOL     OW27031   0.252   0.270   2.571
 8711SOL    HW127032   0.217   0.281   2.664
 8711SOL    HW227033   0.314   0.345   2.550
 8712SOL     OW27034   3.747   1.694   4.258
 8712SOL    HW127035   3.691   1.744   4.325
 8712SOL    HW227036   3.789   1.759   4.195
 8713SOL     OW27037   6.858   4.473   3.765
 8713SOL    HW127038   6.811   4.435   3.685
 8713SOL    HW227039   6.931   4.534   3.735
 8714SOL     OW27040   1.845   0.935   5.937
 8714SOL    HW127041   1.927   0.877   5.931
 8714SOL    HW227042   1.794   0.930   5.852
 8715SOL     OW27043   5.664   0.636   0.715
 8715SOL    HW127044   5.612   0.685   0.645
 8715SOL    HW227045   5.639   0.539   0.714
 8716SOL     OW27046   0.809   1.357   1.333
 8716SOL    HW127047   0.770   1.447   1.315
 8716SOL    HW227048   0.887   1.342   1.272
 8717SOL     OW27049   4.146   3.598   2.112
 8717SOL    HW127050   4.095   3.619   2.195
 8717SOL    HW227051   4.242   3.584   2.134
 8718SOL     OW27052   0.056   2.672   4.524
 8718SOL    HW127053   0.145   2.634   4.550
 8718SOL    HW227054   0.055   2.770   4.541
 8719SOL     OW27055   1.444   0.863   5.717
 8719SOL    HW127056   1.372   0.801   5.750
 8719SOL    HW227057   1.421   0.894   5.625
 8720SOL     OW27058   6.266   5.160   4.935
 8720SOL    HW127059   6.313   5.113   5.009
 8720SOL    HW227060   6.248   5.255   4.962
 8721SOL     OW27061   6.169   2.360   4.662
 8721SOL    HW127062   6.178   2.456   4.636
 8721SOL    HW227063   6.260   2.317   4.661
 8722SOL     OW27064   3.515   1.593   0.109
 8722SOL    HW127065   3.485   1.681   0.147
 8722SOL    HW227066   3.557   1.539   0.181
 8723SOL     OW27067   6.167   5.556   0.928
 8723SOL    HW127068   6.100   5.563   0.854
 8723SOL    HW227069   6.248   5.610   0.905
 8724SOL     OW27070   5.841   0.189   5.695
 8724SOL    HW127071   5.827   0.092   5.712
 8724SOL    HW227072   5.752   0.235   5.690
 8725SOL     OW27073   2.083   0.298   0.543
 8725SOL    HW127074   2.170   0.258   0.517
 8725SOL    HW227075   2.098   0.390   0.579
 8726SOL     OW27076   6.024   0.062   1.337
 8726SOL    HW127077   6.003   0.126   1.411
 8726SOL    HW227078   6.020   0.110   1.249
 8727SOL     OW27079   6.548   6.588   1.983
 8727SOL    HW127080   6.529   6.490   1.973
 8727SOL    HW227081   6.515   6.637   1.903
 8728SOL     OW27082   3.057   0.034   5.286
 8728SOL    HW127083   3.043   0.119   5.235
 8728SOL    HW227084   3.155   0.018   5.297
 8729SOL     OW27085   4.531   5.547   3.016
 8729SOL    HW127086   4.501   5.599   3.096
 8729SOL    HW227087   4.625   5.517   3.029
 8730SOL     OW27088   0.244   5.793   2.895
 8730SOL    HW127089   0.179   5.757   2.962
 8730SOL    HW227090   0.201   5.798   2.805
 8731SOL     OW27091   1.635   2.148   3.323
 8731SOL    HW127092   1.602   2.089   3.396
 8731SOL    HW227093   1.735   2.157   3.330
 8732SOL     OW27094   4.813   4.437   2.114
 8732SOL    HW127095   4.782   4.351   2.154
 8732SOL    HW227096   4.832   4.503   2.186
 8733SOL     OW27097   0.856   6.147   2.754
 8733SOL    HW127098   0.801   6.173   2.834
 8733SOL    HW227099   0.818   6.190   2.672
 8734SOL     OW27100   0.543   4.882   1.406
 8734SOL    HW127101   0.618   4.821   1.430
 8734SOL    HW227102   0.481   4.835   1.343
 8735SOL     OW27103   0.683   1.927   0.244
 8735SOL    HW127104   0.688   1.878   0.331
 8735SOL    HW227105   0.645   1.868   0.173
 8736SOL     OW27106   0.857   6.249   0.119
 8736SOL    HW127107   0.915   6.331   0.113
 8736SOL    HW227108   0.781   6.257   0.055
 8737SOL     OW27109   3.781   6.115   6.082
 8737SOL    HW127110   3.847   6.069   6.023
 8737SOL    HW227111   3.829   6.180   6.142
 8738SOL     OW27112   1.407   3.869   4.314
 8738SOL    HW127113   1.316   3.837   4.341
 8738SOL    HW227114   1.460   3.893   4.395
 8739SOL     OW27115   6.903   4.089   6.238
 8739SOL    HW127116   6.853   4.007   6.266
 8739SOL    HW227117   6.967   4.065   6.165
 8740SOL     OW27118   3.325   0.515   5.752
 8740SOL    HW127119   3.327   0.557   5.661
 8740SOL    HW227120   3.405   0.544   5.804
 8741SOL     OW27121   1.444   2.338   2.374
 8741SOL    HW127122   1.467   2.395   2.453
 8741SOL    HW227123   1.359   2.288   2.392
 8742SOL     OW27124   4.960   6.245   1.220
 8742SOL    HW127125   4.865   6.266   1.197
 8742SOL    HW227126   5.013   6.330   1.226
 8743SOL     OW27127   2.058   5.453   2.153
 8743SOL    HW127128   2.117   5.392   2.099
 8743SOL    HW227129   2.114   5.526   2.193
 8744SOL     OW27130   4.432   2.749   6.432
 8744SOL    HW127131   4.441   2.695   6.348
 8744SOL    HW227132   4.464   2.842   6.414
 8745SOL     OW27133   6.225   1.971   5.075
 8745SOL    HW127134   6.155   1.978   5.146
 8745SOL    HW227135   6.311   1.940   5.116
 8746SOL     OW27136   4.570   4.319   5.728
 8746SOL    HW127137   4.574   4.416   5.751
 8746SOL    HW227138   4.486   4.280   5.765
 8747SOL     OW27139   0.859   2.699   3.336
 8747SOL    HW127140   0.793   2.751   3.281
 8747SOL    HW227141   0.847   2.601   3.318
 8748SOL     OW27142   0.926   0.318   6.671
 8748SOL    HW127143   0.901   0.333   6.576
 8748SOL    HW227144   0.963   0.402   6.710
 8749SOL     OW27145   3.148   0.790   4.148
 8749SOL    HW127146   3.200   0.712   4.183
 8749SOL    HW227147   3.104   0.764   4.062
 8750SOL     OW27148   2.185   2.302   5.346
 8750SOL    HW127149   2.142   2.211   5.352
 8750SOL    HW227150   2.278   2.293   5.311
 8751SOL     OW27151   6.808   0.159   2.438
 8751SOL    HW127152   6.777   0.112   2.520
 8751SOL    HW227153   6.907   0.148   2.429
 8752SOL     OW27154   2.729   4.086   6.690
 8752SOL    HW127155   2.801   4.156   6.686
 8752SOL    HW227156   2.654   4.111   6.629
 8753SOL     OW27157   5.002   1.729   4.627
 8753SOL    HW127158   5.088   1.752   4.582
 8753SOL    HW227159   4.999   1.769   4.718
 8754SOL     OW27160   0.656   2.105   5.640
 8754SOL    HW127161   0.707   2.041   5.697
 8754SOL    HW227162   0.702   2.194   5.640
 8755SOL     OW27163   2.106   0.788   0.188
 8755SOL    HW127164   2.007   0.792   0.177
 8755SOL    HW227165   2.147   0.873   0.156
 8756SOL     OW27166   2.177   2.865   3.706
 8756SOL    HW127167   2.207   2.924   3.781
 8756SOL    HW227168   2.136   2.922   3.634
 8757SOL     OW27169   4.523   6.520   5.002
 8757SOL    HW127170   4.517   6.620   5.001
 8757SOL    HW227171   4.433   6.481   4.985
 8758SOL     OW27172   5.425   6.536   2.024
 8758SOL    HW127173   5.342   6.572   1.982
 8758SOL    HW227174   5.431   6.437   2.007
 8759SOL     OW27175   4.876   1.014   5.827
 8759SOL    HW127176   4.889   0.970   5.916
 8759SOL    HW227177   4.912   0.954   5.755
 8760SOL     OW27178   2.047   1.579   4.587
 8760SOL    HW127179   2.070   1.676   4.600
 8760SOL    HW227180   1.952   1.564   4.611
 8761SOL     OW27181   5.222   0.667   0.282
 8761SOL    HW127182   5.234   0.693   0.378
 8761SOL    HW227183   5.191   0.746   0.229
 8762SOL     OW27184   1.475   3.332   2.159
 8762SOL    HW127185   1.436   3.241   2.142
 8762SOL    HW227186   1.559   3.322   2.213
 8763SOL     OW27187   6.447   6.006   5.363
 8763SOL    HW127188   6.505   5.926   5.349
 8763SOL    HW227189   6.435   6.022   5.461
 8764SOL     OW27190   5.169   1.583   3.811
 8764SOL    HW127191   5.074   1.611   3.796
 8764SOL    HW227192   5.196   1.605   3.905
 8765SOL     OW27193   5.666   6.744   4.947
 8765SOL    HW127194   5.714   6.759   4.860
 8765SOL    HW227195   5.726   6.766   5.023
 8766SOL     OW27196   3.271   4.885   3.434
 8766SOL    HW127197   3.263   4.984   3.423
 8766SOL    HW227198   3.317   4.864   3.520
 8767SOL     OW27199   4.495   1.159   3.044
 8767SOL    HW127200   4.464   1.095   3.114
 8767SOL    HW227201   4.420   1.180   2.982
 8768SOL     OW27202   1.417   2.798   0.149
 8768SOL    HW127203   1.453   2.890   0.163
 8768SOL    HW227204   1.436   2.742   0.230
 8769SOL     OW27205   0.679   0.259   5.529
 8769SOL    HW127206   0.762   0.203   5.537
 8769SOL    HW227207   0.610   0.226   5.593
 8770SOL     OW27208   5.205   3.904   1.887
 8770SOL    HW127209   5.160   3.858   1.811
 8770SOL    HW227210   5.159   3.881   1.973
 8771SOL     OW27211   1.854   1.678   6.648
 8771SOL    HW127212   1.865   1.740   6.726
 8771SOL    HW227213   1.762   1.638   6.650
 8772SOL     OW27214   6.527   1.013   6.663
 8772SOL    HW127215   6.451   0.947   6.658
 8772SOL    HW227216   6.610   0.971   6.628
 8773SOL     OW27217   3.604   2.014   3.320
 8773SOL    HW127218   3.584   2.034   3.416
 8773SOL    HW227219   3.612   1.916   3.307
 8774SOL     OW27220   0.750   1.155   0.761
 8774SOL    HW127221   0.772   1.219   0.834
 8774SOL    HW227222   0.761   1.201   0.672
 8775SOL     OW27223   5.941   6.558   3.204
 8775SOL    HW127224   5.926   6.470   3.159
 8775SOL    HW227225   5.881   6.566   3.284
 8776SOL     OW27226   3.293   3.420   5.071
 8776SOL    HW127227   3.317   3.505   5.022
 8776SOL    HW227228   3.333   3.342   5.023
 8777SOL     OW27229   6.614   4.954   1.445
 8777SOL    HW127230   6.685   4.925   1.381
 8777SOL    HW227231   6.554   4.877   1.465
 8778SOL     OW27232   0.266   2.097   3.018
 8778SOL    HW127233   0.277   2.180   2.964
 8778SOL    HW227234   0.309   2.109   3.107
 8779SOL     OW27235   1.675   4.470   1.694
 8779SOL    HW127236   1.601   4.487   1.629
 8779SOL    HW227237   1.638   4.428   1.777
 8780SOL     OW27238   1.153   5.940   4.292
 8780SOL    HW127239   1.120   5.963   4.200
 8780SOL    HW227240   1.248   5.971   4.302
 8781SOL     OW27241   0.591   1.521   2.979
 8781SOL    HW127242   0.648   1.470   3.044
 8781SOL    HW227243   0.648   1.556   2.905
 8782SOL     OW27244   4.671   1.321   2.640
 8782SOL    HW127245   4.680   1.415   2.671
 8782SOL    HW227246   4.574   1.298   2.630
 8783SOL     OW27247   5.777   3.880   4.417
 8783SOL    HW127248   5.782   3.805   4.483
 8783SOL    HW227249   5.698   3.938   4.439
 8784SOL     OW27250   5.593   5.667   5.628
 8784SOL    HW127251   5.568   5.683   5.723
 8784SOL    HW227252   5.541   5.729   5.569
 8785SOL     OW27253   5.876   4.150   6.673
 8785SOL    HW127254   5.847   4.245   6.682
 8785SOL    HW227255   5.886   4.127   6.577
 8786SOL     OW27256   1.352   6.255   6.506
 8786SOL    HW127257   1.446   6.269   6.537
 8786SOL    HW227258   1.289   6.281   6.579
 8787SOL     OW27259   2.075   3.228   1.903
 8787SOL    HW127260   2.134   3.305   1.926
 8787SOL    HW227261   2.036   3.189   1.987
 8788SOL     OW27262   6.747   2.169   5.326
 8788SOL    HW127263   6.778   2.074   5.312
 8788SOL    HW227264   6.751   2.218   5.239
 8789SOL     OW27265   6.700   0.551   6.023
 8789SOL    HW127266   6.703   0.569   5.925
 8789SOL    HW227267   6.647   0.622   6.069
 8790SOL     OW27268   0.061   1.711   6.924
 8790SOL    HW127269   0.112   1.764   6.992
 8790SOL    HW227270   0.045   1.619   6.959
 8791SOL     OW27271   5.232   6.983   5.409
 8791SOL    HW127272   5.331   6.989   5.396
 8791SOL    HW227273   5.190   6.949   5.325
 8792SOL     OW27274   4.555   0.193   3.318
 8792SOL    HW127275   4.588   0.197   3.413
 8792SOL    HW227276   4.516   0.103   3.300
 8793SOL     OW27277   2.921   6.118   3.955
 8793SOL    HW127278   2.916   6.053   3.879
 8793SOL    HW227279   2.880   6.077   4.037
 8794SOL     OW27280   2.192   6.882   2.945
 8794SOL    HW127281   2.264   6.938   2.903
 8794SOL    HW227282   2.112   6.882   2.885
 8795SOL     OW27283   1.558   6.720   5.493
 8795SOL    HW127284   1.629   6.650   5.504
 8795SOL    HW227285   1.486   6.704   5.560
 8796SOL     OW27286   4.637   1.703   5.404
 8796SOL    HW127287   4.688   1.774   5.355
 8796SOL    HW227288   4.698   1.625   5.423
 8797SOL     OW27289   0.945   6.989   5.996
 8797SOL    HW127290   0.978   6.894   5.994
 8797SOL    HW227291   0.927   7.015   6.091
 8798SOL     OW27292   5.831   3.596   5.012
 8798SOL    HW127293   5.835   3.636   5.104
 8798SOL    HW227294   5.833   3.670   4.944
 8799SOL     OW27295   2.742   4.845   2.988
 8799SOL    HW127296   2.836   4.860   3.018
 8799SOL    HW227297   2.741   4.825   2.890
 8800SOL     OW27298   4.340   4.457   6.092
 8800SOL    HW127299   4.297   4.372   6.121
 8800SOL    HW227300   4.287   4.534   6.127
 8801SOL     OW27301   2.072   1.306   4.379
 8801SOL    HW127302   2.108   1.222   4.418
 8801SOL    HW227303   1.977   1.320   4.409
 8802SOL     OW27304   1.553   6.348   2.377
 8802SOL    HW127305   1.495   6.419   2.416
 8802SOL    HW227306   1.500   6.263   2.367
 8803SOL     OW27307   2.102   5.540   7.007
 8803SOL    HW127308   2.164   5.615   6.984
 8803SOL    HW227309   2.016   5.552   6.958
 8804SOL     OW27310   4.226   0.435   1.222
 8804SOL    HW127311   4.218   0.360   1.157
 8804SOL    HW227312   4.150   0.498   1.209
 8805SOL     OW27313   1.146   0.093   3.305
 8805SOL    HW127314   1.201   0.024   3.258
 8805SOL    HW227315   1.052   0.090   3.272
 8806SOL     OW27316   1.346   5.425   0.386
 8806SOL    HW127317   1.346   5.331   0.421
 8806SOL    HW227318   1.252   5.458   0.378
 8807SOL     OW27319   6.441   5.907   6.040
 8807SOL    HW127320   6.536   5.878   6.028
 8807SOL    HW227321   6.413   5.894   6.135
 8808SOL     OW27322   5.480   1.298   0.432
 8808SOL    HW127323   5.556   1.362   0.426
 8808SOL    HW227324   5.459   1.280   0.528
 8809SOL     OW27325   5.441   3.608   1.650
 8809SOL    HW127326   5.464   3.616   1.747
 8809SOL    HW227327   5.370   3.539   1.638
 8810SOL     OW27328   5.095   1.759   4.030
 8810SOL    HW127329   5.103   1.826   3.956
 8810SOL    HW227330   5.000   1.758   4.063
 8811SOL     OW27331   2.153   1.594   3.547
 8811SOL    HW127332   2.133   1.682   3.504
 8811SOL    HW227333   2.072   1.535   3.541
 8812SOL     OW27334   0.868   0.768   0.673
 8812SOL    HW127335   0.897   0.850   0.625
 8812SOL    HW227336   0.769   0.758   0.665
 8813SOL     OW27337   0.906   5.902   1.869
 8813SOL    HW127338   0.943   5.882   1.778
 8813SOL    HW227339   0.886   5.817   1.917
 8814SOL     OW27340   6.653   0.656   6.663
 8814SOL    HW127341   6.574   0.637   6.722
 8814SOL    HW227342   6.734   0.612   6.701
 8815SOL     OW27343   0.089   5.561   1.608
 8815SOL    HW127344   0.135   5.473   1.592
 8815SOL    HW227345   0.024   5.578   1.534
 8816SOL     OW27346   1.085   6.173   1.015
 8816SOL    HW127347   1.117   6.267   1.009
 8816SOL    HW227348   1.162   6.110   1.000
 8817SOL     OW27349   1.518   5.661   5.389
 8817SOL    HW127350   1.561   5.654   5.479
 8817SOL    HW227351   1.580   5.625   5.319
 8818SOL     OW27352   6.975   4.054   4.102
 8818SOL    HW127353   6.973   4.106   4.016
 8818SOL    HW227354   6.939   4.110   4.176
 8819SOL     OW27355   4.780   6.601   4.377
 8819SOL    HW127356   4.782   6.505   4.352
 8819SOL    HW227357   4.826   6.655   4.306
 8820SOL     OW27358   1.984   2.845   4.292
 8820SOL    HW127359   1.915   2.911   4.320
 8820SOL    HW227360   1.952   2.796   4.210
 8821SOL     OW27361   2.231   0.244   6.300
 8821SOL    HW127362   2.165   0.317   6.281
 8821SOL    HW227363   2.223   0.215   6.395
 8822SOL     OW27364   0.842   1.430   3.524
 8822SOL    HW127365   0.797   1.519   3.533
 8822SOL    HW227366   0.775   1.357   3.533
 8823SOL     OW27367   2.014   6.992   0.884
 8823SOL    HW127368   1.922   7.018   0.857
 8823SOL    HW227369   2.073   0.050   0.886
 8824SOL     OW27370   2.812   3.625   0.892
 8824SOL    HW127371   2.769   3.563   0.958
 8824SOL    HW227372   2.885   3.578   0.844
 8825SOL     OW27373   2.024   1.055   2.340
 8825SOL    HW127374   2.110   1.015   2.310
 8825SOL    HW227375   2.038   1.105   2.426
 8826SOL     OW27376   5.764   0.784   6.771
 8826SOL    HW127377   5.731   0.874   6.742
 8826SOL    HW227378   5.819   0.793   6.854
 8827SOL     OW27379   2.466   1.706   2.667
 8827SOL    HW127380   2.539   1.639   2.673
 8827SOL    HW227381   2.445   1.741   2.759
 8828SOL     OW27382   3.243   6.133   3.497
 8828SOL    HW127383   3.264   6.136   3.399
 8828SOL    HW227384   3.322   6.096   3.546
 8829SOL     OW27385   0.334   2.963   6.593
 8829SOL    HW127386   0.379   2.988   6.508
 8829SOL    HW227387   0.398   2.911   6.650
 8830SOL     OW27388   0.476   1.080   7.003
 8830SOL    HW127389   0.488   1.125   6.915
 8830SOL    HW227390   0.513   0.987   6.998
 8831SOL     OW27391   5.917   0.507   2.892
 8831SOL    HW127392   5.941   0.414   2.865
 8831SOL    HW227393   5.908   0.511   2.991
 8832SOL     OW27394   0.186   0.068   2.131
 8832SOL    HW127395   0.195   0.149   2.189
 8832SOL    HW227396   0.265   0.009   2.145
 8833SOL     OW27397   2.704   5.692   4.453
 8833SOL    HW127398   2.688   5.701   4.354
 8833SOL    HW227399   2.669   5.773   4.500
 8834SOL     OW27400   6.258   3.043   4.905
 8834SOL    HW127401   6.348   3.087   4.911
 8834SOL    HW227402   6.204   3.088   4.834
 8835SOL     OW27403   6.463   7.016   5.328
 8835SOL    HW127404   6.440   6.920   5.345
 8835SOL    HW227405   6.542   7.020   5.267
 8836SOL     OW27406   4.057   1.121   0.617
 8836SOL    HW127407   3.970   1.146   0.657
 8836SOL    HW227408   4.128   1.120   0.687
 8837SOL     OW27409   0.418   0.877   1.721
 8837SOL    HW127410   0.332   0.827   1.730
 8837SOL    HW227411   0.487   0.836   1.780
 8838SOL     OW27412   2.566   4.981   3.354
 8838SOL    HW127413   2.595   4.894   3.393
 8838SOL    HW227414   2.509   5.030   3.420
 8839SOL     OW27415   6.425   6.311   3.140
 8839SOL    HW127416   6.431   6.211   3.134
 8839SOL    HW227417   6.341   6.336   3.188
 8840SOL     OW27418   5.248   2.298   2.339
 8840SOL    HW127419   5.235   2.232   2.413
 8840SOL    HW227420   5.164   2.350   2.325
 8841SOL     OW27421   0.975   2.185   5.386
 8841SOL    HW127422   0.966   2.224   5.477
 8841SOL    HW227423   1.023   2.250   5.327
 8842SOL     OW27424   2.495   2.727   1.523
 8842SOL    HW127425   2.453   2.770   1.603
 8842SOL    HW227426   2.511   2.796   1.453
 8843SOL     OW27427   1.450   3.007   5.048
 8843SOL    HW127428   1.534   2.963   5.081
 8843SOL    HW227429   1.384   3.014   5.123
 8844SOL     OW27430   6.142   1.250   6.140
 8844SOL    HW127431   6.137   1.175   6.074
 8844SOL    HW227432   6.237   1.281   6.148
 8845SOL     OW27433   4.576   3.743   0.238
 8845SOL    HW127434   4.594   3.820   0.299
 8845SOL    HW227435   4.649   3.736   0.171
 8846SOL     OW27436   1.935   4.904   4.114
 8846SOL    HW127437   2.026   4.873   4.140
 8846SOL    HW227438   1.908   4.862   4.028
 8847SOL     OW27439   2.971   0.164   2.688
 8847SOL    HW127440   2.986   0.207   2.599
 8847SOL    HW227441   2.875   0.137   2.696
 8848SOL     OW27442   1.863   0.595   1.758
 8848SOL    HW127443   1.864   0.630   1.852
 8848SOL    HW227444   1.935   0.640   1.705
 8849SOL     OW27445   1.810   6.303   2.348
 8849SOL    HW127446   1.716   6.331   2.366
 8849SOL    HW227447   1.812   6.206   2.323
 8850SOL     OW27448   3.091   2.414   6.698
 8850SOL    HW127449   3.094   2.507   6.736
 8850SOL    HW227450   3.002   2.374   6.716
 8851SOL     OW27451   1.628   4.584   2.225
 8851SOL    HW127452   1.603   4.525   2.302
 8851SOL    HW227453   1.704   4.544   2.174
 8852SOL     OW27454   1.418   1.447   5.825
 8852SOL    HW127455   1.354   1.520   5.847
 8852SOL    HW227456   1.428   1.440   5.726
 8853SOL     OW27457   3.400   0.718   1.050
 8853SOL    HW127458   3.348   0.696   1.133
 8853SOL    HW227459   3.393   0.641   0.986
 8854SOL     OW27460   1.531   3.127   4.810
 8854SOL    HW127461   1.555   3.220   4.838
 8854SOL    HW227462   1.506   3.073   4.891
 8855SOL     OW27463   5.488   5.145   1.307
 8855SOL    HW127464   5.518   5.217   1.370
 8855SOL    HW227465   5.433   5.079   1.358
 8856SOL     OW27466   0.324   5.375   6.539
 8856SOL    HW127467   0.227   5.371   6.516
 8856SOL    HW227468   0.378   5.340   6.463
 8857SOL     OW27469   6.441   1.454   5.337
 8857SOL    HW127470   6.397   1.516   5.402
 8857SOL    HW227471   6.380   1.439   5.259
 8858SOL     OW27472   6.110   4.779   5.173
 8858SOL    HW127473   6.149   4.866   5.201
 8858SOL    HW227474   6.175   4.705   5.193
 8859SOL     OW27475   0.504   1.104   3.630
 8859SOL    HW127476   0.439   1.056   3.570
 8859SOL    HW227477   0.564   1.037   3.674
 8860SOL     OW27478   6.487   2.581   1.690
 8860SOL    HW127479   6.522   2.653   1.630
 8860SOL    HW227480   6.548   2.569   1.768
 8861SOL     OW27481   4.427   1.644   1.607
 8861SOL    HW127482   4.477   1.632   1.693
 8861SOL    HW227483   4.339   1.688   1.626
 8862SOL     OW27484   4.539   5.422   5.373
 8862SOL    HW127485   4.610   5.374   5.424
 8862SOL    HW227486   4.528   5.514   5.409
 8863SOL     OW27487   2.117   4.360   3.608
 8863SOL    HW127488   2.159   4.433   3.660
 8863SOL    HW227489   2.133   4.374   3.510
 8864SOL     OW27490   5.600   2.232   6.348
 8864SOL    HW127491   5.668   2.260   6.416
 8864SOL    HW227492   5.546   2.157   6.385
 8865SOL     OW27493   2.370   1.655   6.447
 8865SOL    HW127494   2.326   1.605   6.522
 8865SOL    HW227495   2.370   1.753   6.467
 8866SOL     OW27496   5.715   6.165   2.045
 8866SOL    HW127497   5.712   6.226   2.124
 8866SOL    HW227498   5.692   6.216   1.962
 8867SOL     OW27499   6.482   3.504   2.808
 8867SOL    HW127500   6.499   3.540   2.899
 8867SOL    HW227501   6.501   3.574   2.739
 8868SOL     OW27502   6.844   3.700   3.260
 8868SOL    HW127503   6.823   3.630   3.192
 8868SOL    HW227504   6.921   3.756   3.228
 8869SOL     OW27505   3.468   6.042   3.622
 8869SOL    HW127506   3.485   5.977   3.696
 8869SOL    HW227507   3.555   6.081   3.592
 8870SOL     OW27508   1.613   0.038   1.668
 8870SOL    HW127509   1.531   0.057   1.616
 8870SOL    HW227510   1.619   0.101   1.746
 8871SOL     OW27511   1.265   0.764   2.584
 8871SOL    HW127512   1.190   0.761   2.518
 8871SOL    HW227513   1.251   0.840   2.646
 8872SOL     OW27514   0.232   4.396   5.333
 8872SOL    HW127515   0.331   4.392   5.321
 8872SOL    HW227516   0.189   4.321   5.283
 8873SOL     OW27517   1.523   0.633   2.009
 8873SOL    HW127518   1.495   0.641   2.105
 8873SOL    HW227519   1.494   0.543   1.974
 8874SOL     OW27520   2.293   5.372   0.309
 8874SOL    HW127521   2.343   5.332   0.386
 8874SOL    HW227522   2.302   5.313   0.230
 8875SOL     OW27523   0.332   3.002   3.389
 8875SOL    HW127524   0.414   3.032   3.340
 8875SOL    HW227525   0.321   3.059   3.471
 8876SOL     OW27526   3.557   0.591   6.010
 8876SOL    HW127527   3.597   0.641   6.087
 8876SOL    HW227528   3.479   0.538   6.043
 8877SOL     OW27529   1.828   3.789   1.132
 8877SOL    HW127530   1.872   3.797   1.222
 8877SOL    HW227531   1.730   3.774   1.144
 8878SOL     OW27532   3.912   4.663   0.640
 8878SOL    HW127533   3.906   4.762   0.646
 8878SOL    HW227534   3.902   4.634   0.545
 8879SOL     OW27535   6.292   4.521   3.093
 8879SOL    HW127536   6.259   4.614   3.079
 8879SOL    HW227537   6.310   4.506   3.190
 8880SOL     OW27538   4.835   6.591   3.766
 8880SOL    HW127539   4.879   6.675   3.734
 8880SOL    HW227540   4.774   6.613   3.843
 8881SOL     OW27541   3.850   4.882   4.154
 8881SOL    HW127542   3.763   4.834   4.155
 8881SOL    HW227543   3.881   4.898   4.248
 8882SOL     OW27544   3.887   0.718   0.908
 8882SOL    HW127545   3.966   0.660   0.887
 8882SOL    HW227546   3.803   0.670   0.884
 8883SOL     OW27547   0.200   6.090   5.435
 8883SOL    HW127548   0.258   6.014   5.405
 8883SOL    HW227549   0.110   6.054   5.460
 8884SOL     OW27550   5.547   3.753   4.937
 8884SOL    HW127551   5.540   3.754   5.037
 8884SOL    HW227552   5.494   3.677   4.901
 8885SOL     OW27553   5.786   5.502   0.484
 8885SOL    HW127554   5.829   5.413   0.465
 8885SOL    HW227555   5.745   5.537   0.400
 8886SOL     OW27556   3.017   6.256   0.319
 8886SOL    HW127557   2.971   6.203   0.248
 8886SOL    HW227558   2.955   6.271   0.396
 8887SOL     OW27559   4.595   1.904   0.866
 8887SOL    HW127560   4.645   1.911   0.952
 8887SOL    HW227561   4.598   1.809   0.833
 8888SOL     OW27562   2.157   1.874   3.389
 8888SOL    HW127563   2.215   1.926   3.326
 8888SOL    HW227564   2.100   1.811   3.337
 8889SOL     OW27565   0.139   6.422   6.640
 8889SOL    HW127566   0.134   6.336   6.691
 8889SOL    HW227567   0.229   6.463   6.653
 8890SOL     OW27568   0.328   6.950   6.821
 8890SOL    HW127569   0.382   6.900   6.889
 8890SOL    HW227570   0.386   6.974   6.744
 8891SOL     OW27571   6.121   4.559   6.752
 8891SOL    HW127572   6.099   4.533   6.846
 8891SOL    HW227573   6.206   4.515   6.724
 8892SOL     OW27574   3.244   5.162   3.450
 8892SOL    HW127575   3.305   5.209   3.514
 8892SOL    HW227576   3.150   5.173   3.480
 8893SOL     OW27577   1.100   5.270   4.565
 8893SOL    HW127578   1.029   5.334   4.593
 8893SOL    HW227579   1.061   5.179   4.555
 8894SOL     OW27580   4.083   2.542   0.322
 8894SOL    HW127581   3.998   2.527   0.271
 8894SOL    HW227582   4.093   2.470   0.392
 8895SOL     OW27583   0.776   4.005   0.982
 8895SOL    HW127584   0.685   3.988   1.021
 8895SOL    HW227585   0.810   4.093   1.015
 8896SOL     OW27586   0.222   2.375   3.993
 8896SOL    HW127587   0.250   2.281   4.016
 8896SOL    HW227588   0.158   2.408   4.062
 8897SOL     OW27589   2.119   3.893   3.724
 8897SOL    HW127590   2.064   3.976   3.718
 8897SOL    HW227591   2.078   3.830   3.791
 8898SOL     OW27592   5.020   3.457   2.926
 8898SOL    HW127593   5.068   3.386   2.875
 8898SOL    HW227594   5.033   3.545   2.882
 8899SOL     OW27595   6.978   3.794   6.394
 8899SOL    HW127596   0.015   3.852   6.339
 8899SOL    HW227597   6.885   3.830   6.391
 8900SOL     OW27598   5.814   2.527   3.938
 8900SOL    HW127599   5.880   2.522   3.863
 8900SOL    HW227600   5.736   2.583   3.910
 8901SOL     OW27601   1.308   2.035   3.996
 8901SOL    HW127602   1.399   2.068   3.973
 8901SOL    HW227603   1.281   1.964   3.930
 8902SOL     OW27604   1.115   4.554   6.808
 8902SOL    HW127605   1.070   4.479   6.856
 8902SOL    HW227606   1.123   4.531   6.711
 8903SOL     OW27607   1.489   1.142   4.775
 8903SOL    HW127608   1.489   1.225   4.719
 8903SOL    HW227609   1.426   1.154   4.852
 8904SOL     OW27610   0.805   1.069   3.370
 8904SOL    HW127611   0.833   0.974   3.382
 8904SOL    HW227612   0.882   1.122   3.335
 8905SOL     OW27613   1.556   3.569   2.031
 8905SOL    HW127614   1.531   3.489   2.086
 8905SOL    HW227615   1.563   3.542   1.935
 8906SOL     OW27616   6.860   0.274   0.691
 8906SOL    HW127617   6.871   0.371   0.710
 8906SOL    HW227618   6.786   0.237   0.747
 8907SOL     OW27619   3.657   2.867   5.077
 8907SOL    HW127620   3.598   2.941   5.110
 8907SOL    HW227621   3.751   2.901   5.067
 8908SOL     OW27622   1.389   6.133   0.411
 8908SOL    HW127623   1.479   6.099   0.383
 8908SOL    HW227624   1.337   6.160   0.330
 8909SOL     OW27625   2.899   1.052   6.613
 8909SOL    HW127626   2.960   1.121   6.652
 8909SOL    HW227627   2.843   1.011   6.685
 8910SOL     OW27628   1.267   2.556   4.572
 8910SOL    HW127629   1.364   2.568   4.550
 8910SOL    HW227630   1.245   2.459   4.573
 8911SOL     OW27631   4.841   2.079   3.991
 8911SOL    HW127632   4.777   2.131   3.935
 8911SOL    HW227633   4.831   2.104   4.087
 8912SOL     OW27634   3.646   3.854   4.963
 8912SOL    HW127635   3.633   3.887   5.057
 8912SOL    HW227636   3.713   3.912   4.917
 8913SOL     OW27637   5.005   5.790   6.792
 8913SOL    HW127638   4.960   5.877   6.811
 8913SOL    HW227639   4.958   5.717   6.842
 8914SOL     OW27640   5.212   6.320   5.698
 8914SOL    HW127641   5.195   6.378   5.778
 8914SOL    HW227642   5.151   6.347   5.624
 8915SOL     OW27643   0.557   1.571   3.578
 8915SOL    HW127644   0.545   1.570   3.478
 8915SOL    HW227645   0.575   1.479   3.611
 8916SOL     OW27646   5.218   1.453   6.806
 8916SOL    HW127647   5.291   1.509   6.845
 8916SOL    HW227648   5.198   1.377   6.867
 8917SOL     OW27649   5.995   1.613   0.238
 8917SOL    HW127650   6.002   1.706   0.272
 8917SOL    HW227651   6.009   1.549   0.314
 8918SOL     OW27652   1.335   4.876   1.542
 8918SOL    HW127653   1.299   4.959   1.500
 8918SOL    HW227654   1.278   4.850   1.621
 8919SOL     OW27655   5.818   4.431   6.625
 8919SOL    HW127656   5.754   4.377   6.571
 8919SOL    HW227657   5.905   4.438   6.576
 8920SOL     OW27658   0.121   1.275   6.584
 8920SOL    HW127659   0.023   1.259   6.589
 8920SOL    HW227660   0.139   1.356   6.529
 8921SOL     OW27661   1.218   2.855   1.017
 8921SOL    HW127662   1.270   2.853   1.103
 8921SOL    HW227663   1.176   2.765   1.002
 8922SOL     OW27664   3.542   0.400   3.847
 8922SOL    HW127665   3.619   0.352   3.805
 8922SOL    HW227666   3.457   0.356   3.820
 8923SOL     OW27667   2.120   2.023   5.809
 8923SOL    HW127668   2.024   2.000   5.792
 8923SOL    HW227669   2.128   2.067   5.899
 8924SOL     OW27670   5.167   4.795   4.871
 8924SOL    HW127671   5.192   4.885   4.834
 8924SOL    HW227672   5.164   4.800   4.971
 8925SOL     OW27673   0.924   0.872   2.871
 8925SOL    HW127674   0.978   0.886   2.954
 8925SOL    HW227675   0.918   0.958   2.820
 8926SOL     OW27676   6.648   3.833   5.609
 8926SOL    HW127677   6.605   3.844   5.519
 8926SOL    HW227678   6.707   3.752   5.608
 8927SOL     OW27679   6.816   2.110   6.128
 8927SOL    HW127680   6.820   2.089   6.225
 8927SOL    HW227681   6.845   2.030   6.075
 8928SOL     OW27682   2.215   6.819   5.320
 8928SOL    HW127683   2.280   6.879   5.367
 8928SOL    HW227684   2.128   6.821   5.368
 8929SOL     OW27685   6.859   2.339   5.111
 8929SOL    HW127686   6.809   2.422   5.087
 8929SOL    HW227687   6.869   2.282   5.029
 8930SOL     OW27688   1.499   4.114   3.498
 8930SOL    HW127689   1.512   4.016   3.513
 8930SOL    HW227690   1.401   4.135   3.493
 8931SOL     OW27691   3.425   2.975   1.764
 8931SOL    HW127692   3.364   2.958   1.841
 8931SOL    HW227693   3.381   2.949   1.679
 8932SOL     OW27694   7.008   2.356   2.917
 8932SOL    HW127695   0.033   2.295   2.855
 8932SOL    HW227696   6.923   2.312   2.948
 8933SOL     OW27697   3.422   1.927   6.197
 8933SOL    HW127698   3.352   1.960   6.259
 8933SOL    HW227699   3.498   1.888   6.249
 8934SOL     OW27700   3.474   5.628   3.911
 8934SOL    HW127701   3.502   5.569   3.987
 8934SOL    HW227702   3.473   5.576   3.826
 8935SOL     OW27703   6.782   5.035   1.079
 8935SOL    HW127704   6.834   4.980   1.145
 8935SOL    HW227705   6.690   4.997   1.070
 8936SOL     OW27706   2.071   3.468   0.640
 8936SOL    HW127707   2.083   3.553   0.588
 8936SOL    HW227708   1.993   3.478   0.702
 8937SOL     OW27709   6.868   6.299   5.451
 8937SOL    HW127710   6.807   6.247   5.393
 8937SOL    HW227711   6.900   6.381   5.402
 8938SOL     OW27712   6.244   5.212   1.467
 8938SOL    HW127713   6.273   5.118   1.488
 8938SOL    HW227714   6.164   5.210   1.407
 8939SOL     OW27715   5.091   2.078   4.592
 8939SOL    HW127716   5.120   2.091   4.687
 8939SOL    HW227717   5.131   2.150   4.535
 8940SOL     OW27718   6.287   0.701   3.540
 8940SOL    HW127719   6.199   0.743   3.558
 8940SOL    HW227720   6.361   0.763   3.568
 8941SOL     OW27721   5.606   2.222   6.071
 8941SOL    HW127722   5.508   2.236   6.058
 8941SOL    HW227723   5.625   2.202   6.167
 8942SOL     OW27724   0.516   2.829   5.227
 8942SOL    HW127725   0.457   2.820   5.307
 8942SOL    HW227726   0.536   2.739   5.190
 8943SOL     OW27727   4.742   3.557   1.224
 8943SOL    HW127728   4.647   3.563   1.256
 8943SOL    HW227729   4.746   3.573   1.126
 8944SOL     OW27730   5.023   5.685   0.174
 8944SOL    HW127731   5.054   5.591   0.190
 8944SOL    HW227732   5.076   5.725   0.099
 8945SOL     OW27733   2.611   0.631   4.753
 8945SOL    HW127734   2.644   0.619   4.660
 8945SOL    HW227735   2.637   0.552   4.808
 8946SOL     OW27736   3.577   1.818   5.242
 8946SOL    HW127737   3.605   1.751   5.173
 8946SOL    HW227738   3.486   1.852   5.219
 8947SOL     OW27739   3.607   3.547   5.746
 8947SOL    HW127740   3.517   3.522   5.783
 8947SOL    HW227741   3.595   3.614   5.673
 8948SOL     OW27742   5.419   4.896   3.238
 8948SOL    HW127743   5.403   4.817   3.297
 8948SOL    HW227744   5.428   4.978   3.293
 8949SOL     OW27745   1.902   6.496   6.941
 8949SOL    HW127746   1.903   6.591   6.909
 8949SOL    HW227747   1.812   6.474   6.978
 8950SOL     OW27748   5.060   3.065   5.005
 8950SOL    HW127749   4.968   3.070   5.043
 8950SOL    HW227750   5.114   3.000   5.058
 8951SOL     OW27751   1.997   2.740   5.492
 8951SOL    HW127752   2.058   2.661   5.500
 8951SOL    HW227753   2.034   2.817   5.544
 8952SOL     OW27754   1.372   1.484   3.141
 8952SOL    HW127755   1.445   1.536   3.097
 8952SOL    HW227756   1.381   1.490   3.240
 8953SOL     OW27757   1.694   3.280   0.099
 8953SOL    HW127758   1.679   3.315   0.006
 8953SOL    HW227759   1.790   3.253   0.108
 8954SOL     OW27760   0.785   6.060   6.328
 8954SOL    HW127761   0.863   6.088   6.272
 8954SOL    HW227762   0.813   6.058   6.424
 8955SOL     OW27763   0.083   4.589   3.613
 8955SOL    HW127764   0.085   4.555   3.519
 8955SOL    HW227765   0.065   4.687   3.614
 8956SOL     OW27766   0.703   1.104   5.901
 8956SOL    HW127767   0.716   1.121   5.999
 8956SOL    HW227768   0.698   1.005   5.885
 8957SOL     OW27769   2.704   4.807   1.816
 8957SOL    HW127770   2.750   4.733   1.865
 8957SOL    HW227771   2.689   4.779   1.721
 8958SOL     OW27772   0.974   0.244   3.900
 8958SOL    HW127773   0.915   0.267   3.977
 8958SOL    HW227774   0.931   0.274   3.815
 8959SOL     OW27775   1.288   4.866   0.604
 8959SOL    HW127776   1.343   4.787   0.631
 8959SOL    HW227777   1.291   4.935   0.676
 8960SOL     OW27778   4.322   5.651   2.505
 8960SOL    HW127779   4.290   5.694   2.421
 8960SOL    HW227780   4.252   5.586   2.537
 8961SOL     OW27781   1.315   1.446   4.224
 8961SOL    HW127782   1.406   1.404   4.225
 8961SOL    HW227783   1.246   1.374   4.213
 8962SOL     OW27784   5.640   0.197   2.950
 8962SOL    HW127785   5.602   0.108   2.922
 8962SOL    HW227786   5.740   0.194   2.941
 8963SOL     OW27787   5.389   7.003   4.171
 8963SOL    HW127788   5.360   0.057   4.227
 8963SOL    HW227789   5.395   0.008   4.075
 8964SOL     OW27790   4.816   4.711   1.930
 8964SOL    HW127791   4.845   4.654   2.007
 8964SOL    HW227792   4.893   4.727   1.869
 8965SOL     OW27793   1.324   5.236   1.221
 8965SOL    HW127794   1.308   5.166   1.151
 8965SOL    HW227795   1.346   5.192   1.308
 8966SOL     OW27796   1.616   2.591   6.077
 8966SOL    HW127797   1.561   2.644   6.012
 8966SOL    HW227798   1.574   2.596   6.168
 8967SOL     OW27799   3.855   0.057   1.159
 8967SOL    HW127800   3.863   0.049   1.259
 8967SOL    HW227801   3.929   0.006   1.116
 8968SOL     OW27802   5.305   6.011   1.551
 8968SOL    HW127803   5.336   6.092   1.600
 8968SOL    HW227804   5.216   6.028   1.510
 8969SOL     OW27805   5.872   0.531   3.151
 8969SOL    HW127806   5.945   0.548   3.218
 8969SOL    HW227807   5.829   0.443   3.171
 8970SOL     OW27808   3.514   2.518   0.838
 8970SOL    HW127809   3.418   2.527   0.811
 8970SOL    HW227810   3.560   2.456   0.775
 8971SOL     OW27811   3.576   5.972   2.323
 8971SOL    HW127812   3.617   5.881   2.315
 8971SOL    HW227813   3.622   6.035   2.260
 8972SOL     OW27814   5.241   6.465   6.137
 8972SOL    HW127815   5.296   6.382   6.122
 8972SOL    HW227816   5.279   6.540   6.084
 8973SOL     OW27817   1.287   4.749   0.982
 8973SOL    HW127818   1.366   4.785   1.032
 8973SOL    HW227819   1.312   4.666   0.933
 8974SOL     OW27820   1.310   4.297   6.613
 8974SOL    HW127821   1.286   4.211   6.659
 8974SOL    HW227822   1.227   4.344   6.585
 8975SOL     OW27823   2.626   0.384   0.650
 8975SOL    HW127824   2.680   0.451   0.598
 8975SOL    HW227825   2.657   0.292   0.625
 8976SOL     OW27826   1.367   5.245   4.659
 8976SOL    HW127827   1.279   5.264   4.616
 8976SOL    HW227828   1.427   5.198   4.594
 8977SOL     OW27829   6.250   1.350   5.780
 8977SOL    HW127830   6.309   1.338   5.860
 8977SOL    HW227831   6.176   1.283   5.782
 8978SOL     OW27832   5.523   5.896   0.388
 8978SOL    HW127833   5.563   5.933   0.472
 8978SOL    HW227834   5.563   5.942   0.309
 8979SOL     OW27835   1.803   3.956   5.039
 8979SOL    HW127836   1.848   3.880   5.085
 8979SOL    HW227837   1.866   4.034   5.035
 8980SOL     OW27838   3.364   3.518   5.554
 8980SOL    HW127839   3.353   3.562   5.465
 8980SOL    HW227840   3.365   3.419   5.542
 8981SOL     OW27841   3.688   1.559   5.642
 8981SOL    HW127842   3.708   1.515   5.730
 8981SOL    HW227843   3.741   1.515   5.570
 8982SOL     OW27844   2.068   3.604   0.198
 8982SOL    HW127845   2.150   3.660   0.185
 8982SOL    HW227846   1.988   3.654   0.166
 8983SOL     OW27847   3.847   6.117   7.006
 8983SOL    HW127848   3.763   6.079   6.966
 8983SOL    HW227849   3.915   6.044   7.016
 8984SOL     OW27850   2.353   6.236   2.942
 8984SOL    HW127851   2.419   6.178   2.896
 8984SOL    HW227852   2.396   6.279   3.022
 8985SOL     OW27853   3.329   2.665   0.275
 8985SOL    HW127854   3.363   2.583   0.230
 8985SOL    HW227855   3.241   2.691   0.234
 8986SOL     OW27856   3.370   5.027   2.984
 8986SOL    HW127857   3.299   5.074   2.932
 8986SOL    HW227858   3.453   5.019   2.927
 8987SOL     OW27859   5.154   6.122   2.815
 8987SOL    HW127860   5.210   6.039   2.814
 8987SOL    HW227861   5.068   6.103   2.862
 8988SOL     OW27862   0.332   6.017   3.410
 8988SOL    HW127863   0.410   6.056   3.457
 8988SOL    HW227864   0.286   6.088   3.356
 8989SOL     OW27865   5.019   3.099   6.220
 8989SOL    HW127866   4.984   3.097   6.314
 8989SOL    HW227867   5.119   3.093   6.221
 8990SOL     OW27868   0.875   5.169   3.766
 8990SOL    HW127869   0.886   5.149   3.863
 8990SOL    HW227870   0.812   5.104   3.725
 8991SOL     OW27871   1.477   2.957   4.596
 8991SOL    HW127872   1.563   2.906   4.586
 8991SOL    HW227873   1.482   3.016   4.676
 8992SOL     OW27874   5.345   1.652   0.400
 8992SOL    HW127875   5.339   1.695   0.490
 8992SOL    HW227876   5.377   1.720   0.333
 8993SOL     OW27877   4.375   3.366   6.624
 8993SOL    HW127878   4.332   3.276   6.632
 8993SOL    HW227879   4.336   3.414   6.545
 8994SOL     OW27880   2.127   4.677   4.680
 8994SOL    HW127881   2.125   4.723   4.769
 8994SOL    HW227882   2.159   4.583   4.692
 8995SOL     OW27883   6.294   1.570   1.408
 8995SOL    HW127884   6.355   1.546   1.333
 8995SOL    HW227885   6.263   1.664   1.398
 8996SOL     OW27886   5.450   3.850   6.487
 8996SOL    HW127887   5.543   3.885   6.476
 8996SOL    HW227888   5.395   3.915   6.539
 8997SOL     OW27889   4.976   1.052   5.429
 8997SOL    HW127890   4.879   1.071   5.411
 8997SOL    HW227891   5.032   1.106   5.367
 8998SOL     OW27892   6.151   3.757   4.167
 8998SOL    HW127893   6.131   3.663   4.197
 8998SOL    HW227894   6.222   3.754   4.096
 8999SOL     OW27895   4.631   6.930   5.929
 8999SOL    HW127896   4.627   6.967   6.022
 8999SOL    HW227897   4.607   6.833   5.930
 9000SOL     OW27898   1.334   3.625   1.482
 9000SOL    HW127899   1.288   3.702   1.437
 9000SOL    HW227900   1.414   3.658   1.532
 9001SOL     OW27901   0.144   4.741   2.135
 9001SOL    HW127902   0.095   4.827   2.124
 9001SOL    HW227903   0.098   4.670   2.081
 9002SOL     OW27904   1.230   4.479   5.363
 9002SOL    HW127905   1.202   4.571   5.392
 9002SOL    HW227906   1.167   4.446   5.292
 9003SOL     OW27907   5.233   2.975   1.525
 9003SOL    HW127908   5.186   2.944   1.607
 9003SOL    HW227909   5.180   2.949   1.444
 9004SOL     OW27910   4.528   4.853   1.152
 9004SOL    HW127911   4.547   4.757   1.174
 9004SOL    HW227912   4.429   4.865   1.143
 9005SOL     OW27913   5.633   1.251   6.019
 9005SOL    HW127914   5.570   1.328   6.022
 9005SOL    HW227915   5.716   1.273   6.070
 9006SOL     OW27916   2.960   6.729   0.993
 9006SOL    HW127917   2.994   6.810   0.945
 9006SOL    HW227918   2.917   6.668   0.927
 9007SOL     OW27919   2.226   1.224   1.954
 9007SOL    HW127920   2.207   1.129   1.930
 9007SOL    HW227921   2.201   1.284   1.878
 9008SOL     OW27922   0.258   5.114   3.075
 9008SOL    HW127923   0.221   5.025   3.049
 9008SOL    HW227924   0.206   5.187   3.029
 9009SOL     OW27925   3.571   4.987   0.654
 9009SOL    HW127926   3.583   4.889   0.635
 9009SOL    HW227927   3.615   5.009   0.741
 9010SOL     OW27928   2.179   6.636   4.399
 9010SOL    HW127929   2.128   6.717   4.367
 9010SOL    HW227930   2.115   6.564   4.423
 9011SOL     OW27931   3.680   1.126   2.040
 9011SOL    HW127932   3.583   1.145   2.029
 9011SOL    HW227933   3.732   1.174   1.969
 9012SOL     OW27934   2.229   5.685   0.414
 9012SOL    HW127935   2.277   5.773   0.415
 9012SOL    HW227936   2.267   5.627   0.341
 9013SOL     OW27937   0.819   0.522   4.630
 9013SOL    HW127938   0.818   0.430   4.591
 9013SOL    HW227939   0.843   0.589   4.559
 9014SOL     OW27940   6.021   2.948   1.131
 9014SOL    HW127941   5.940   3.003   1.109
 9014SOL    HW227942   6.082   3.002   1.191
 9015SOL     OW27943   4.931   2.490   1.134
 9015SOL    HW127944   4.916   2.500   1.035
 9015SOL    HW227945   4.877   2.413   1.168
 9016SOL     OW27946   5.554   4.953   6.425
 9016SOL    HW127947   5.526   5.012   6.500
 9016SOL    HW227948   5.591   5.008   6.350
 9017SOL     OW27949   3.852   1.108   4.866
 9017SOL    HW127950   3.790   1.172   4.911
 9017SOL    HW227951   3.898   1.052   4.934
 9018SOL     OW27952   3.786   3.660   6.578
 9018SOL    HW127953   3.772   3.650   6.677
 9018SOL    HW227954   3.747   3.747   6.548
 9019SOL     OW27955   1.339   4.260   2.632
 9019SOL    HW127956   1.338   4.214   2.721
 9019SOL    HW227957   1.249   4.252   2.589
 9020SOL     OW27958   6.535   4.351   1.417
 9020SOL    HW127959   6.558   4.418   1.346
 9020SOL    HW227960   6.590   4.368   1.498
 9021SOL     OW27961   0.079   0.813   3.903
 9021SOL    HW127962   0.046   0.805   3.997
 9021SOL    HW227963   0.155   0.878   3.899
 9022SOL     OW27964   3.529   2.100   0.045
 9022SOL    HW127965   3.432   2.101   0.023
 9022SOL    HW227966   3.582   2.117   6.985
 9023SOL     OW27967   4.246   3.235   1.384
 9023SOL    HW127968   4.205   3.229   1.293
 9023SOL    HW227969   4.235   3.328   1.419
 9024SOL     OW27970   0.743   4.708   5.544
 9024SOL    HW127971   0.726   4.804   5.565
 9024SOL    HW227972   0.816   4.674   5.604
 9025SOL     OW27973   0.068   5.624   0.944
 9025SOL    HW127974   6.997   5.629   0.911
 9025SOL    HW227975   0.113   5.544   0.904
 9026SOL     OW27976   3.047   1.822   0.616
 9026SOL    HW127977   3.132   1.807   0.566
 9026SOL    HW227978   3.032   1.920   0.628
 9027SOL     OW27979   1.019   4.172   3.968
 9027SOL    HW127980   1.104   4.170   4.021
 9027SOL    HW227981   0.986   4.266   3.963
 9028SOL     OW27982   3.835   2.926   5.418
 9028SOL    HW127983   3.743   2.945   5.384
 9028SOL    HW227984   3.884   2.868   5.353
 9029SOL     OW27985   4.128   0.696   4.945
 9029SOL    HW127986   4.122   0.739   4.855
 9029SOL    HW227987   4.216   0.718   4.987
 9030SOL     OW27988   2.082   2.606   4.017
 9030SOL    HW127989   2.012   2.675   4.035
 9030SOL    HW227990   2.143   2.599   4.096
 9031SOL     OW27991   4.200   0.254   4.369
 9031SOL    HW127992   4.155   0.314   4.302
 9031SOL    HW227993   4.211   0.163   4.330
 9032SOL     OW27994   4.691   4.053   0.984
 9032SOL    HW127995   4.641   4.100   1.057
 9032SOL    HW227996   4.784   4.032   1.016
 9033SOL     OW27997   0.606   4.841   2.766
 9033SOL    HW127998   0.515   4.861   2.803
 9033SOL    HW227999   0.674   4.852   2.838
 9034SOL     OW28000   3.619   6.069   4.698
 9034SOL    HW128001   3.523   6.040   4.694
 9034SOL    HW228002   3.674   6.008   4.641
 9035SOL     OW28003   1.649   6.276   0.070
 9035SOL    HW128004   1.701   6.246   7.013
 9035SOL    HW228005   1.658   6.375   0.080
 9036SOL     OW28006   1.593   3.853   5.573
 9036SOL    HW128007   1.539   3.783   5.620
 9036SOL    HW228008   1.677   3.870   5.624
 9037SOL     OW28009   1.130   2.879   4.398
 9037SOL    HW128010   1.174   2.800   4.441
 9037SOL    HW228011   1.199   2.935   4.352
 9038SOL     OW28012   4.626   3.378   6.513
 9038SOL    HW128013   4.540   3.344   6.554
 9038SOL    HW228014   4.605   3.437   6.435
 9039SOL     OW28015   3.195   4.757   7.019
 9039SOL    HW128016   3.199   4.702   0.079
 9039SOL    HW228017   3.111   4.736   6.969
 9040SOL     OW28018   2.823   2.222   2.343
 9040SOL    HW128019   2.859   2.262   2.259
 9040SOL    HW228020   2.879   2.251   2.421
 9041SOL     OW28021   0.710   2.656   0.914
 9041SOL    HW128022   0.773   2.722   0.872
 9041SOL    HW228023   0.761   2.596   0.975
 9042SOL     OW28024   3.781   6.311   5.050
 9042SOL    HW128025   3.714   6.267   5.111
 9042SOL    HW228026   3.806   6.247   4.977
 9043SOL     OW28027   2.189   1.403   6.590
 9043SOL    HW128028   2.258   1.458   6.637
 9043SOL    HW228029   2.143   1.344   6.656
 9044SOL     OW28030   0.572   0.911   6.608
 9044SOL    HW128031   0.647   0.964   6.648
 9044SOL    HW228032   0.580   0.815   6.636
 9045SOL     OW28033   4.004   0.368   3.403
 9045SOL    HW128034   4.090   0.320   3.387
 9045SOL    HW228035   3.974   0.353   3.497
 9046SOL     OW28036   4.072   3.451   2.628
 9046SOL    HW128037   4.081   3.356   2.658
 9046SOL    HW228038   4.132   3.509   2.683
 9047SOL     OW28039   1.292   3.952   5.238
 9047SOL    HW128040   1.327   3.906   5.156
 9047SOL    HW228041   1.360   4.018   5.270
 9048SOL     OW28042   6.271   2.450   6.288
 9048SOL    HW128043   6.315   2.393   6.219
 9048SOL    HW228044   6.305   2.425   6.379
 9049SOL     OW28045   3.759   6.286   5.691
 9049SOL    HW128046   3.837   6.343   5.717
 9049SOL    HW228047   3.770   6.258   5.595
 9050SOL     OW28048   0.761   4.167   1.575
 9050SOL    HW128049   0.695   4.108   1.622
 9050SOL    HW228050   0.828   4.202   1.641
 9051SOL     OW28051   2.764   0.737   1.533
 9051SOL    HW128052   2.851   0.710   1.576
 9051SOL    HW228053   2.716   0.656   1.500
 9052SOL     OW28054   1.713   3.265   4.081
 9052SOL    HW128055   1.758   3.296   4.165
 9052SOL    HW228056   1.779   3.215   4.024
 9053SOL     OW28057   2.316   1.190   0.753
 9053SOL    HW128058   2.219   1.199   0.732
 9053SOL    HW228059   2.333   1.220   0.847
 9054SOL     OW28060   2.146   5.651   4.243
 9054SOL    HW128061   2.124   5.689   4.154
 9054SOL    HW228062   2.222   5.587   4.235
 9055SOL     OW28063   6.670   4.724   4.730
 9055SOL    HW128064   6.602   4.787   4.690
 9055SOL    HW228065   6.624   4.664   4.795
 9056SOL     OW28066   6.615   2.106   2.439
 9056SOL    HW128067   6.655   2.017   2.419
 9056SOL    HW228068   6.529   2.116   2.388
 9057SOL     OW28069   4.709   1.866   4.423
 9057SOL    HW128070   4.716   1.930   4.500
 9057SOL    HW228071   4.615   1.834   4.415
 9058SOL     OW28072   1.416   0.588   6.657
 9058SOL    HW128073   1.466   0.647   6.720
 9058SOL    HW228074   1.455   0.496   6.659
 9059SOL     OW28075   1.178   2.604   2.276
 9059SOL    HW128076   1.241   2.680   2.265
 9059SOL    HW228077   1.198   2.534   2.207
 9060SOL     OW28078   5.534   3.098   5.196
 9060SOL    HW128079   5.613   3.158   5.181
 9060SOL    HW228080   5.478   3.095   5.114
 9061SOL     OW28081   4.330   5.279   2.569
 9061SOL    HW128082   4.289   5.235   2.488
 9061SOL    HW228083   4.271   5.355   2.598
 9062SOL     OW28084   1.094   5.338   1.669
 9062SOL    HW128085   1.012   5.339   1.725
 9062SOL    HW228086   1.089   5.411   1.601
 9063SOL     OW28087   2.840   1.385   3.940
 9063SOL    HW128088   2.877   1.341   4.022
 9063SOL    HW228089   2.742   1.366   3.933
 9064SOL     OW28090   6.488   3.600   6.770
 9064SOL    HW128091   6.511   3.609   6.673
 9064SOL    HW228092   6.463   3.505   6.789
 9065SOL     OW28093   3.223   0.582   0.315
 9065SOL    HW128094   3.164   0.603   0.237
 9065SOL    HW228095   3.177   0.515   0.374
 9066SOL     OW28096   5.717   0.082   0.068
 9066SOL    HW128097   5.694   7.008   0.054
 9066SOL    HW228098   5.779   0.090   0.147
 9067SOL     OW28099   1.850   0.159   3.118
 9067SOL    HW128100   1.866   0.069   3.080
 9067SOL    HW228101   1.790   0.211   3.057
 9068SOL     OW28102   1.237   6.242   5.146
 9068SOL    HW128103   1.196   6.317   5.094
 9068SOL    HW228104   1.178   6.220   5.224
 9069SOL     OW28105   1.498   2.744   6.375
 9069SOL    HW128106   1.521   2.749   6.472
 9069SOL    HW228107   1.551   2.813   6.325
 9070SOL     OW28108   1.882   3.847   4.431
 9070SOL    HW128109   1.891   3.909   4.509
 9070SOL    HW228110   1.965   3.791   4.423
 9071SOL     OW28111   6.406   6.663   0.559
 9071SOL    HW128112   6.429   6.573   0.521
 9071SOL    HW228113   6.459   6.679   0.642
 9072SOL     OW28114   6.937   3.693   0.599
 9072SOL    HW128115   6.905   3.743   0.519
 9072SOL    HW228116   6.979   3.607   0.571
 9073SOL     OW28117   2.261   1.092   1.567
 9073SOL    HW128118   2.248   1.190   1.551
 9073SOL    HW228119   2.341   1.078   1.626
 9074SOL     OW28120   1.613   6.644   2.479
 9074SOL    HW128121   1.671   6.599   2.547
 9074SOL    HW228122   1.660   6.648   2.391
 9075SOL     OW28123   6.526   0.849   2.226
 9075SOL    HW128124   6.600   0.864   2.291
 9075SOL    HW228125   6.564   0.840   2.134
 9076SOL     OW28126   6.830   1.324   6.048
 9076SOL    HW128127   6.864   1.353   6.137
 9076SOL    HW228128   6.888   1.251   6.012
 9077SOL     OW28129   4.745   6.614   2.366
 9077SOL    HW128130   4.777   6.522   2.348
 9077SOL    HW228131   4.666   6.634   2.308
 9078SOL     OW28132   3.945   3.584   5.085
 9078SOL    HW128133   4.040   3.577   5.114
 9078SOL    HW228134   3.909   3.493   5.064
 9079SOL     OW28135   3.281   6.589   4.417
 9079SOL    HW128136   3.298   6.498   4.378
 9079SOL    HW228137   3.214   6.581   4.490
 9080SOL     OW28138   5.343   2.557   0.054
 9080SOL    HW128139   5.341   2.642   0.001
 9080SOL    HW228140   5.295   2.485   0.004
 9081SOL     OW28141   5.386   6.323   2.510
 9081SOL    HW128142   5.361   6.377   2.430
 9081SOL    HW228143   5.326   6.244   2.517
 9082SOL     OW28144   2.426   0.603   3.717
 9082SOL    HW128145   2.372   0.637   3.793
 9082SOL    HW228146   2.413   0.663   3.638
 9083SOL     OW28147   4.615   4.527   5.202
 9083SOL    HW128148   4.590   4.461   5.273
 9083SOL    HW228149   4.677   4.483   5.136
 9084SOL     OW28150   3.327   3.682   3.195
 9084SOL    HW128151   3.369   3.762   3.238
 9084SOL    HW228152   3.314   3.700   3.097
 9085SOL     OW28153   2.433   1.710   1.341
 9085SOL    HW128154   2.451   1.802   1.373
 9085SOL    HW228155   2.471   1.698   1.249
 9086SOL     OW28156   0.592   4.019   1.205
 9086SOL    HW128157   0.655   3.986   1.275
 9086SOL    HW228158   0.585   4.119   1.212
 9087SOL     OW28159   4.887   3.599   2.182
 9087SOL    HW128160   4.927   3.534   2.246
 9087SOL    HW228161   4.787   3.594   2.187
 9088SOL     OW28162   6.705   0.720   6.385
 9088SOL    HW128163   6.796   0.692   6.353
 9088SOL    HW228164   6.693   0.691   6.480
 9089SOL     OW28165   4.689   6.920   5.670
 9089SOL    HW128166   4.771   6.862   5.665
 9089SOL    HW228167   4.669   6.941   5.765
 9090SOL     OW28168   5.655   0.030   4.775
 9090SOL    HW128169   5.698   0.063   4.859
 9090SOL    HW228170   5.725   0.005   4.709
 9091SOL     OW28171   3.314   3.867   0.260
 9091SOL    HW128172   3.413   3.866   0.274
 9091SOL    HW228173   3.271   3.924   0.331
 9092SOL     OW28174   0.079   2.128   0.112
 9092SOL    HW128175   0.074   2.223   0.080
 9092SOL    HW228176   0.007   2.074   0.068
 9093SOL     OW28177   1.425   6.966   5.317
 9093SOL    HW128178   1.437   0.039   5.345
 9093SOL    HW228179   1.490   6.946   5.243
 9094SOL     OW28180   0.303   3.471   1.956
 9094SOL    HW128181   0.366   3.446   2.029
 9094SOL    HW228182   0.224   3.518   1.995
 9095SOL     OW28183   5.114   5.773   5.594
 9095SOL    HW128184   5.111   5.674   5.591
 9095SOL    HW228185   5.194   5.803   5.647
 9096SOL     OW28186   6.588   5.525   2.571
 9096SOL    HW128187   6.511   5.506   2.631
 9096SOL    HW228188   6.554   5.547   2.479
 9097SOL     OW28189   0.494   3.082   5.681
 9097SOL    HW128190   0.564   3.022   5.720
 9097SOL    HW228191   0.506   3.175   5.716
 9098SOL     OW28192   1.923   2.526   4.695
 9098SOL    HW128193   1.847   2.480   4.649
 9098SOL    HW228194   1.898   2.545   4.790
 9099SOL     OW28195   2.296   3.309   6.818
 9099SOL    HW128196   2.388   3.309   6.777
 9099SOL    HW228197   2.303   3.328   6.915
 9100SOL     OW28198   1.318   4.526   2.475
 9100SOL    HW128199   1.275   4.547   2.563
 9100SOL    HW228200   1.415   4.505   2.489
 9101SOL     OW28201   2.123   1.374   1.762
 9101SOL    HW128202   2.169   1.395   1.676
 9101SOL    HW228203   2.040   1.430   1.769
 9102SOL     OW28204   4.422   6.033   2.553
 9102SOL    HW128205   4.483   6.090   2.498
 9102SOL    HW228206   4.340   6.010   2.500
 9103SOL     OW28207   6.542   1.969   0.438
 9103SOL    HW128208   6.600   1.893   0.409
 9103SOL    HW228209   6.452   1.934   0.464
 9104SOL     OW28210   6.861   0.978   0.076
 9104SOL    HW128211   6.887   0.882   0.072
 9104SOL    HW228212   6.874   1.012   0.169
 9105SOL     OW28213   1.895   6.866   6.209
 9105SOL    HW128214   1.985   6.891   6.244
 9105SOL    HW228215   1.899   6.856   6.110
 9106SOL     OW28216   0.922   4.996   6.336
 9106SOL    HW128217   0.868   4.996   6.420
 9106SOL    HW228218   1.019   4.992   6.359
 9107SOL     OW28219   2.579   1.148   0.201
 9107SOL    HW128220   2.603   1.078   0.134
 9107SOL    HW228221   2.603   1.117   0.292
 9108SOL     OW28222   5.280   5.679   5.832
 9108SOL    HW128223   5.308   5.608   5.767
 9108SOL    HW228224   5.205   5.645   5.889
 9109SOL     OW28225   5.006   2.427   2.337
 9109SOL    HW128226   4.931   2.414   2.402
 9109SOL    HW228227   4.971   2.474   2.256
 9110SOL     OW28228   1.599   5.617   4.905
 9110SOL    HW128229   1.603   5.527   4.861
 9110SOL    HW228230   1.571   5.686   4.838
 9111SOL     OW28231   4.557   2.731   5.163
 9111SOL    HW128232   4.650   2.712   5.134
 9111SOL    HW228233   4.558   2.801   5.235
 9112SOL     OW28234   2.206   5.136   2.198
 9112SOL    HW128235   2.263   5.193   2.138
 9112SOL    HW228236   2.127   5.190   2.228
 9113SOL     OW28237   4.684   1.852   3.338
 9113SOL    HW128238   4.738   1.786   3.389
 9113SOL    HW228239   4.742   1.929   3.311
 9114SOL     OW28240   1.469   6.340   4.972
 9114SOL    HW128241   1.408   6.263   4.991
 9114SOL    HW228242   1.540   6.345   5.043
 9115SOL     OW28243   5.749   4.333   3.869
 9115SOL    HW128244   5.680   4.401   3.845
 9115SOL    HW228245   5.705   4.251   3.905
 9116SOL     OW28246   0.634   0.039   3.648
 9116SOL    HW128247   0.645   0.100   3.726
 9116SOL    HW228248   0.722   7.022   3.624
 9117SOL     OW28249   4.069   0.880   0.048
 9117SOL    HW128250   4.032   0.840   0.132
 9117SOL    HW228251   4.009   0.858   6.994
 9118SOL     OW28252   5.959   3.811   0.865
 9118SOL    HW128253   5.960   3.903   0.906
 9118SOL    HW228254   5.885   3.806   0.798
 9119SOL     OW28255   3.681   7.008   0.778
 9119SOL    HW128256   3.686   0.081   0.753
 9119SOL    HW228257   3.648   6.999   0.872
 9120SOL     OW28258   5.743   2.551   5.651
 9120SOL    HW128259   5.755   2.461   5.610
 9120SOL    HW228260   5.674   2.546   5.723
 9121SOL     OW28261   3.318   0.315   5.336
 9121SOL    HW128262   3.308   0.318   5.436
 9121SOL    HW228263   3.290   0.403   5.297
 9122SOL     OW28264   2.295   4.319   2.160
 9122SOL    HW128265   2.219   4.382   2.146
 9122SOL    HW228266   2.361   4.360   2.223
 9123SOL     OW28267   0.922   1.076   3.783
 9123SOL    HW128268   0.887   1.165   3.815
 9123SOL    HW228269   0.979   1.036   3.855
 9124SOL     OW28270   3.154   5.707   1.467
 9124SOL    HW128271   3.168   5.667   1.558
 9124SOL    HW228272   3.081   5.657   1.420
 9125SOL     OW28273   4.626   6.596   0.626
 9125SOL    HW128274   4.526   6.591   0.630
 9125SOL    HW228275   4.654   6.691   0.611
 9126SOL     OW28276   3.767   4.735   0.327
 9126SOL    HW128277   3.800   4.644   0.350
 9126SOL    HW228278   3.831   4.779   0.264
 9127SOL     OW28279   0.167   3.852   5.411
 9127SOL    HW128280   0.242   3.915   5.435
 9127SOL    HW228281   0.205   3.766   5.377
 9128SOL     OW28282   5.861   3.685   5.267
 9128SOL    HW128283   5.812   3.746   5.329
 9128SOL    HW228284   5.959   3.690   5.286
 9129SOL     OW28285   1.334   1.667   0.728
 9129SOL    HW128286   1.422   1.624   0.748
 9129SOL    HW228287   1.292   1.622   0.649
 9130SOL     OW28288   2.610   3.885   5.259
 9130SOL    HW128289   2.564   3.947   5.196
 9130SOL    HW228290   2.652   3.938   5.333
 9131SOL     OW28291   5.819   2.674   0.972
 9131SOL    HW128292   5.742   2.691   1.033
 9131SOL    HW228293   5.892   2.627   1.022
 9132SOL     OW28294   0.629   4.177   3.766
 9132SOL    HW128295   0.645   4.157   3.862
 9132SOL    HW228296   0.671   4.105   3.710
 9133SOL     OW28297   4.770   0.741   0.953
 9133SOL    HW128298   4.851   0.686   0.971
 9133SOL    HW228299   4.748   0.795   1.034
 9134SOL     OW28300   4.433   5.368   0.992
 9134SOL    HW128301   4.459   5.334   1.083
 9134SOL    HW228302   4.345   5.415   0.998
 9135SOL     OW28303   0.702   7.000   2.937
 9135SOL    HW128304   0.771   0.048   2.925
 9135SOL    HW228305   0.716   6.928   2.869
 9136SOL     OW28306   6.303   4.531   6.445
 9136SOL    HW128307   6.269   4.495   6.531
 9136SOL    HW228308   6.401   4.514   6.438
 9137SOL     OW28309   5.252   6.446   6.419
 9137SOL    HW128310   5.228   6.446   6.322
 9137SOL    HW228311   5.173   6.416   6.473
 9138SOL     OW28312   3.083   3.381   1.061
 9138SOL    HW128313   3.060   3.291   1.025
 9138SOL    HW228314   3.182   3.386   1.078
 9139SOL     OW28315   6.616   0.509   1.242
 9139SOL    HW128316   6.581   0.594   1.282
 9139SOL    HW228317   6.647   0.448   1.315
 9140SOL     OW28318   1.037   4.377   2.909
 9140SOL    HW128319   0.966   4.393   2.978
 9140SOL    HW228320   1.053   4.278   2.901
 9141SOL     OW28321   6.669   5.691   5.571
 9141SOL    HW128322   6.630   5.707   5.480
 9141SOL    HW228323   6.667   5.777   5.623
 9142SOL     OW28324   1.230   4.113   3.580
 9142SOL    HW128325   1.191   4.079   3.494
 9142SOL    HW228326   1.227   4.042   3.649
 9143SOL     OW28327   6.257   3.151   2.514
 9143SOL    HW128328   6.183   3.165   2.448
 9143SOL    HW228329   6.293   3.239   2.543
 9144SOL     OW28330   2.541   4.414   5.413
 9144SOL    HW128331   2.463   4.382   5.358
 9144SOL    HW228332   2.622   4.360   5.388
 9145SOL     OW28333   1.413   6.204   5.910
 9145SOL    HW128334   1.439   6.285   5.963
 9145SOL    HW228335   1.447   6.213   5.817
 9146SOL     OW28336   6.286   3.108   3.155
 9146SOL    HW128337   6.310   3.096   3.058
 9146SOL    HW228338   6.193   3.077   3.171
 9147SOL     OW28339   4.625   6.954   4.233
 9147SOL    HW128340   4.703   7.013   4.256
 9147SOL    HW228341   4.591   6.978   4.142
 9148SOL     OW28342   6.192   6.528   1.637
 9148SOL    HW128343   6.242   6.589   1.576
 9148SOL    HW228344   6.200   6.434   1.604
 9149SOL     OW28345   0.267   3.779   1.835
 9149SOL    HW128346   0.336   3.710   1.815
 9149SOL    HW228347   0.182   3.756   1.786
 9150SOL     OW28348   2.824   2.637   1.178
 9150SOL    HW128349   2.895   2.661   1.244
 9150SOL    HW228350   2.862   2.645   1.085
 9151SOL     OW28351   1.810   3.239   3.618
 9151SOL    HW128352   1.891   3.254   3.562
 9151SOL    HW228353   1.742   3.188   3.565
 9152SOL     OW28354   2.401   5.285   3.177
 9152SOL    HW128355   2.489   5.240   3.195
 9152SOL    HW228356   2.327   5.227   3.211
 9153SOL     OW28357   6.425   3.297   0.176
 9153SOL    HW128358   6.485   3.375   0.189
 9153SOL    HW228359   6.341   3.326   0.129
 9154SOL     OW28360   5.643   4.442   2.805
 9154SOL    HW128361   5.707   4.470   2.876
 9154SOL    HW228362   5.675   4.474   2.716
 9155SOL     OW28363   0.950   6.586   3.031
 9155SOL    HW128364   1.013   6.509   3.018
 9155SOL    HW228365   0.885   6.588   2.955
 9156SOL     OW28366   6.924   3.911   0.306
 9156SOL    HW128367   7.000   3.912   0.372
 9156SOL    HW228368   6.960   3.925   0.214
 9157SOL     OW28369   2.150   5.349   6.176
 9157SOL    HW128370   2.186   5.272   6.228
 9157SOL    HW228371   2.175   5.339   6.080
 9158SOL     OW28372   6.710   3.433   4.725
 9158SOL    HW128373   6.716   3.515   4.668
 9158SOL    HW228374   6.616   3.419   4.755
 9159SOL     OW28375   3.853   1.442   3.560
 9159SOL    HW128376   3.794   1.375   3.516
 9159SOL    HW228377   3.798   1.520   3.590
 9160SOL     OW28378   6.963   4.309   0.811
 9160SOL    HW128379   7.007   4.221   0.831
 9160SOL    HW228380   6.866   4.293   0.791
 9161SOL     OW28381   6.427   4.117   1.350
 9161SOL    HW128382   6.344   4.080   1.391
 9161SOL    HW228383   6.451   4.203   1.395
 9162SOL     OW28384   4.144   2.188   1.593
 9162SOL    HW128385   4.126   2.214   1.687
 9162SOL    HW228386   4.175   2.268   1.541
 9163SOL     OW28387   1.634   2.820   3.196
 9163SOL    HW128388   1.684   2.807   3.111
 9163SOL    HW228389   1.581   2.904   3.191
 9164SOL     OW28390   2.721   0.479   0.072
 9164SOL    HW128391   2.660   0.558   0.072
 9164SOL    HW228392   2.690   0.413   0.003
 9165SOL     OW28393   5.037   1.663   6.203
 9165SOL    HW128394   5.127   1.671   6.245
 9165SOL    HW228395   4.973   1.724   6.250
 9166SOL     OW28396   5.235   5.658   1.632
 9166SOL    HW128397   5.210   5.693   1.542
 9166SOL    HW228398   5.331   5.630   1.631
 9167SOL     OW28399   1.676   1.440   5.005
 9167SOL    HW128400   1.772   1.469   5.003
 9167SOL    HW228401   1.633   1.463   4.918
 9168SOL     OW28402   6.551   6.077   4.162
 9168SOL    HW128403   6.585   6.160   4.207
 9168SOL    HW228404   6.460   6.055   4.197
 9169SOL     OW28405   6.453   5.800   0.642
 9169SOL    HW128406   6.412   5.779   0.553
 9169SOL    HW228407   6.526   5.867   0.631
 9170SOL     OW28408   1.649   1.330   5.875
 9170SOL    HW128409   1.561   1.374   5.854
 9170SOL    HW228410   1.681   1.279   5.795
 9171SOL     OW28411   3.266   4.566   0.196
 9171SOL    HW128412   3.359   4.600   0.213
 9171SOL    HW228413   3.270   4.473   0.160
 9172SOL     OW28414   4.825   1.330   4.256
 9172SOL    HW128415   4.855   1.421   4.227
 9172SOL    HW228416   4.739   1.337   4.307
 9173SOL     OW28417   5.367   2.762   4.478
 9173SOL    HW128418   5.356   2.839   4.415
 9173SOL    HW228419   5.324   2.784   4.566
 9174SOL     OW28420   0.298   4.545   0.491
 9174SOL    HW128421   0.394   4.566   0.472
 9174SOL    HW228422   0.248   4.533   0.404
 9175SOL     OW28423   1.626   6.698   6.758
 9175SOL    HW128424   1.631   6.598   6.748
 9175SOL    HW228425   1.707   6.731   6.805
 9176SOL     OW28426   1.914   1.513   2.546
 9176SOL    HW128427   2.012   1.508   2.567
 9176SOL    HW228428   1.898   1.585   2.478
 9177SOL     OW28429   0.744   4.126   4.001
 9177SOL    HW128430   0.700   4.050   4.050
 9177SOL    HW228431   0.843   4.124   4.019
 9178SOL     OW28432   2.303   5.845   0.661
 9178SOL    HW128433   2.330   5.843   0.757
 9178SOL    HW228434   2.347   5.770   0.612
 9179SOL     OW28435   3.244   5.549   5.057
 9179SOL    HW128436   3.158   5.535   5.105
 9179SOL    HW228437   3.308   5.475   5.081
 9180SOL     OW28438   6.965   1.042   4.957
 9180SOL    HW128439   0.036   1.073   4.972
 9180SOL    HW228440   6.952   1.019   4.860
 9181SOL     OW28441   3.552   1.888   4.069
 9181SOL    HW128442   3.466   1.841   4.085
 9181SOL    HW228443   3.610   1.833   4.009
 9182SOL     OW28444   1.329   1.248   2.604
 9182SOL    HW128445   1.423   1.228   2.632
 9182SOL    HW228446   1.308   1.343   2.626
 9183SOL     OW28447   0.214   2.565   5.926
 9183SOL    HW128448   0.176   2.529   6.011
 9183SOL    HW228449   0.275   2.497   5.886
 9184SOL     OW28450   2.947   3.120   0.354
 9184SOL    HW128451   2.991   3.148   0.440
 9184SOL    HW228452   3.001   3.047   0.311
 9185SOL     OW28453   1.476   0.884   6.269
 9185SOL    HW128454   1.493   0.866   6.172
 9185SOL    HW228455   1.429   0.806   6.310
 9186SOL     OW28456   5.476   1.243   6.542
 9186SOL    HW128457   5.456   1.145   6.544
 9186SOL    HW228458   5.554   1.259   6.481
 9187SOL     OW28459   5.115   2.230   0.528
 9187SOL    HW128460   5.136   2.230   0.625
 9187SOL    HW228461   5.163   2.154   0.483
 9188SOL     OW28462   1.345   0.151   1.612
 9188SOL    HW128463   1.308   0.108   1.694
 9188SOL    HW228464   1.343   0.250   1.623
 9189SOL     OW28465   4.326   0.834   4.335
 9189SOL    HW128466   4.317   0.926   4.374
 9189SOL    HW228467   4.364   0.772   4.405
 9190SOL     OW28468   6.291   2.620   5.457
 9190SOL    HW128469   6.194   2.643   5.470
 9190SOL    HW228470   6.306   2.523   5.474
 9191SOL     OW28471   5.594   6.272   0.461
 9191SOL    HW128472   5.498   6.301   0.464
 9191SOL    HW228473   5.654   6.351   0.474
 9192SOL     OW28474   6.200   5.113   4.659
 9192SOL    HW128475   6.224   5.100   4.755
 9192SOL    HW228476   6.248   5.046   4.603
 9193SOL     OW28477   3.818   3.317   3.770
 9193SOL    HW128478   3.885   3.244   3.781
 9193SOL    HW228479   3.794   3.326   3.674
 9194SOL     OW28480   3.292   5.977   2.340
 9194SOL    HW128481   3.378   5.945   2.301
 9194SOL    HW228482   3.249   5.903   2.391
 9195SOL     OW28483   6.451   3.589   3.059
 9195SOL    HW128484   6.488   3.663   3.114
 9195SOL    HW228485   6.426   3.513   3.119
 9196SOL     OW28486   4.669   0.074   3.806
 9196SOL    HW128487   4.678   0.083   3.707
 9196SOL    HW228488   4.708   0.155   3.850
 9197SOL     OW28489   3.486   3.313   6.156
 9197SOL    HW128490   3.441   3.314   6.245
 9197SOL    HW228491   3.506   3.407   6.128
 9198SOL     OW28492   5.150   2.833   5.104
 9198SOL    HW128493   5.169   2.806   5.198
 9198SOL    HW228494   5.120   2.753   5.051
 9199SOL     OW28495   1.235   4.038   6.691
 9199SOL    HW128496   1.241   3.964   6.625
 9199SOL    HW228497   1.239   4.000   6.784
 9200SOL     OW28498   6.169   0.308   6.976
 9200SOL    HW128499   6.211   0.364   6.905
 9200SOL    HW228500   6.078   0.280   6.946
 9201SOL     OW28501   1.762   4.178   3.393
 9201SOL    HW128502   1.666   4.153   3.402
 9201SOL    HW228503   1.775   4.272   3.424
 9202SOL     OW28504   3.070   5.181   4.089
 9202SOL    HW128505   3.011   5.244   4.039
 9202SOL    HW228506   3.091   5.219   4.179
 9203SOL     OW28507   5.090   0.706   6.400
 9203SOL    HW128508   5.024   0.771   6.437
 9203SOL    HW228509   5.052   0.662   6.318
 9204SOL     OW28510   4.517   4.446   2.279
 9204SOL    HW128511   4.509   4.522   2.215
 9204SOL    HW228512   4.497   4.360   2.232
 9205SOL     OW28513   5.070   2.889   2.911
 9205SOL    HW128514   5.004   2.955   2.949
 9205SOL    HW228515   5.062   2.888   2.812
 9206SOL     OW28516   0.481   0.349   3.725
 9206SOL    HW128517   0.441   0.348   3.633
 9206SOL    HW228518   0.561   0.408   3.727
 9207SOL     OW28519   4.189   7.002   0.018
 9207SOL    HW128520   4.174   0.050   0.087
 9207SOL    HW228521   4.202   0.023   6.951
 9208SOL     OW28522   4.874   4.684   2.306
 9208SOL    HW128523   4.863   4.688   2.406
 9208SOL    HW228524   4.971   4.684   2.283
 9209SOL     OW28525   3.802   1.145   2.710
 9209SOL    HW128526   3.896   1.177   2.724
 9209SOL    HW228527   3.803   1.049   2.683
 9210SOL     OW28528   0.998   0.050   1.270
 9210SOL    HW128529   1.000   0.135   1.217
 9210SOL    HW228530   0.904   0.018   1.279
 9211SOL     OW28531   4.872   1.086   6.884
 9211SOL    HW128532   4.948   1.025   6.907
 9211SOL    HW228533   4.817   1.045   6.812
 9212SOL     OW28534   5.819   3.751   4.794
 9212SOL    HW128535   5.868   3.839   4.794
 9212SOL    HW228536   5.723   3.766   4.814
 9213SOL     OW28537   6.190   0.011   2.614
 9213SOL    HW128538   6.104   6.984   2.605
 9213SOL    HW228539   6.258   6.974   2.658
 9214SOL     OW28540   1.811   2.321   5.833
 9214SOL    HW128541   1.845   2.414   5.848
 9214SOL    HW228542   1.865   2.257   5.887
 9215SOL     OW28543   0.855   3.321   3.006
 9215SOL    HW128544   0.852   3.221   3.002
 9215SOL    HW228545   0.765   3.357   2.983
 9216SOL     OW28546   2.678   5.784   4.908
 9216SOL    HW128547   2.680   5.842   4.827
 9216SOL    HW228548   2.583   5.757   4.928
 9217SOL     OW28549   4.439   0.944   6.456
 9217SOL    HW128550   4.489   0.937   6.370
 9217SOL    HW228551   4.432   0.854   6.498
 9218SOL     OW28552   5.937   5.440   6.705
 9218SOL    HW128553   5.929   5.426   6.804
 9218SOL    HW228554   6.022   5.490   6.686
 9219SOL     OW28555   3.544   2.921   5.454
 9219SOL    HW128556   3.536   2.982   5.532
 9219SOL    HW228557   3.509   2.830   5.478
 9220SOL     OW28558   0.729   6.311   3.675
 9220SOL    HW128559   0.714   6.404   3.708
 9220SOL    HW228560   0.803   6.268   3.727
 9221SOL     OW28561   2.575   1.206   0.674
 9221SOL    HW128562   2.635   1.226   0.752
 9221SOL    HW228563   2.480   1.208   0.704
 9222SOL     OW28564   1.266   3.639   3.606
 9222SOL    HW128565   1.207   3.561   3.623
 9222SOL    HW228566   1.358   3.607   3.583
 9223SOL     OW28567   0.943   3.764   4.951
 9223SOL    HW128568   0.844   3.756   4.966
 9223SOL    HW228569   0.966   3.722   4.863
 9224SOL     OW28570   2.206   4.660   3.606
 9224SOL    HW128571   2.198   4.758   3.589
 9224SOL    HW228572   2.197   4.611   3.520
 9225SOL     OW28573   4.997   6.535   6.491
 9225SOL    HW128574   4.993   6.558   6.394
 9225SOL    HW228575   5.048   6.606   6.540
 9226SOL     OW28576   1.210   0.547   0.977
 9226SOL    HW128577   1.165   0.504   1.056
 9226SOL    HW228578   1.142   0.590   0.918
 9227SOL     OW28579   2.306   5.122   0.807
 9227SOL    HW128580   2.289   5.026   0.828
 9227SOL    HW228581   2.305   5.176   0.891
 9228SOL     OW28582   3.097   2.850   5.670
 9228SOL    HW128583   3.133   2.813   5.584
 9228SOL    HW228584   3.002   2.878   5.656
 9229SOL     OW28585   0.489   4.646   7.011
 9229SOL    HW128586   0.539   4.726   0.022
 9229SOL    HW228587   0.522   4.623   6.919
 9230SOL     OW28588   4.606   1.808   4.837
 9230SOL    HW128589   4.508   1.791   4.823
 9230SOL    HW228590   4.634   1.773   4.926
 9231SOL     OW28591   6.757   5.853   3.748
 9231SOL    HW128592   6.716   5.844   3.657
 9231SOL    HW228593   6.848   5.813   3.748
 9232SOL     OW28594   1.337   5.082   1.946
 9232SOL    HW128595   1.321   5.014   2.017
 9232SOL    HW228596   1.269   5.070   1.873
 9233SOL     OW28597   0.541   6.456   0.123
 9233SOL    HW128598   0.498   6.389   0.183
 9233SOL    HW228599   0.626   6.489   0.165
 9234SOL     OW28600   2.212   4.414   0.420
 9234SOL    HW128601   2.251   4.332   0.462
 9234SOL    HW228602   2.287   4.476   0.396
 9235SOL     OW28603   1.937   2.088   3.781
 9235SOL    HW128604   1.930   1.988   3.778
 9235SOL    HW228605   2.026   2.114   3.818
 9236SOL     OW28606   2.751   3.200   6.822
 9236SOL    HW128607   2.729   3.275   6.885
 9236SOL    HW228608   2.698   3.119   6.847
 9237SOL     OW28609   5.714   4.721   3.105
 9237SOL    HW128610   5.704   4.758   3.198
 9237SOL    HW228611   5.667   4.780   3.040
 9238SOL     OW28612   2.016   2.908   5.256
 9238SOL    HW128613   1.981   2.858   5.336
 9238SOL    HW228614   2.102   2.866   5.226
 9239SOL     OW28615   1.065   4.861   6.591
 9239SOL    HW128616   0.976   4.905   6.594
 9239SOL    HW228617   1.107   4.863   6.682
 9240SOL     OW28618   4.251   2.348   2.688
 9240SOL    HW128619   4.318   2.346   2.763
 9240SOL    HW228620   4.184   2.421   2.706
 9241SOL     OW28621   5.940   6.766   0.986
 9241SOL    HW128622   5.984   6.726   1.066
 9241SOL    HW228623   5.847   6.731   0.978
 9242SOL     OW28624   1.605   2.674   0.584
 9242SOL    HW128625   1.687   2.618   0.571
 9242SOL    HW228626   1.546   2.667   0.503
 9243SOL     OW28627   0.877   0.592   6.808
 9243SOL    HW128628   0.916   0.664   6.866
 9243SOL    HW228629   0.849   0.631   6.721
 9244SOL     OW28630   3.922   6.576   5.594
 9244SOL    HW128631   3.939   6.626   5.509
 9244SOL    HW228632   3.823   6.575   5.612
 9245SOL     OW28633   1.145   4.693   3.142
 9245SOL    HW128634   1.188   4.633   3.210
 9245SOL    HW228635   1.060   4.651   3.111
 9246SOL     OW28636   6.271   0.441   5.553
 9246SOL    HW128637   6.265   0.359   5.609
 9246SOL    HW228638   6.183   0.489   5.553
 9247SOL     OW28639   3.899   6.766   3.084
 9247SOL    HW128640   3.812   6.773   3.034
 9247SOL    HW228641   3.916   6.670   3.106
 9248SOL     OW28642   2.497   1.172   6.341
 9248SOL    HW128643   2.399   1.178   6.362
 9248SOL    HW228644   2.537   1.264   6.345
 9249SOL     OW28645   3.589   5.421   1.407
 9249SOL    HW128646   3.545   5.353   1.466
 9249SOL    HW228647   3.683   5.435   1.437
 9250SOL     OW28648   0.756   2.949   4.196
 9250SOL    HW128649   0.804   2.878   4.145
 9250SOL    HW228650   0.791   2.953   4.290
 9251SOL     OW28651   3.013   2.905   1.135
 9251SOL    HW128652   3.019   2.867   1.227
 9251SOL    HW228653   3.080   2.860   1.076
 9252SOL     OW28654   4.999   1.892   5.981
 9252SOL    HW128655   4.993   1.965   6.050
 9252SOL    HW228656   4.948   1.812   6.013
 9253SOL     OW28657   0.969   5.004   5.379
 9253SOL    HW128658   0.990   4.979   5.474
 9253SOL    HW228659   1.054   5.005   5.326
 9254SOL     OW28660   6.702   5.104   2.641
 9254SOL    HW128661   6.681   5.026   2.582
 9254SOL    HW228662   6.768   5.077   2.711
 9255SOL     OW28663   0.042   4.059   0.904
 9255SOL    HW128664   6.976   4.017   0.916
 9255SOL    HW228665   0.109   3.989   0.880
 9256SOL     OW28666   1.735   6.316   2.042
 9256SOL    HW128667   1.807   6.252   2.017
 9256SOL    HW228668   1.668   6.270   2.101
 9257SOL     OW28669   6.298   6.079   4.250
 9257SOL    HW128670   6.324   6.151   4.314
 9257SOL    HW228671   6.237   6.117   4.180
 9258SOL     OW28672   3.729   5.212   1.055
 9258SOL    HW128673   3.651   5.248   1.003
 9258SOL    HW228674   3.696   5.145   1.121
 9259SOL     OW28675   1.931   1.366   6.820
 9259SOL    HW128676   1.901   1.452   6.859
 9259SOL    HW228677   1.900   1.359   6.725
 9260SOL     OW28678   6.174   3.853   4.847
 9260SOL    HW128679   6.100   3.909   4.810
 9260SOL    HW228680   6.145   3.757   4.849
 9261SOL     OW28681   3.504   2.537   1.715
 9261SOL    HW128682   3.544   2.627   1.731
 9261SOL    HW228683   3.567   2.467   1.749
 9262SOL     OW28684   6.138   5.871   4.359
 9262SOL    HW128685   6.171   5.960   4.330
 9262SOL    HW228686   6.214   5.806   4.363
 9263SOL     OW28687   1.962   3.792   3.924
 9263SOL    HW128688   1.937   3.855   3.998
 9263SOL    HW228689   1.884   3.733   3.902
 9264SOL     OW28690   4.367   3.609   0.036
 9264SOL    HW128691   4.411   3.554   6.988
 9264SOL    HW228692   4.431   3.625   0.111
 9265SOL     OW28693   5.761   1.876   6.968
 9265SOL    HW128694   5.798   1.784   6.981
 9265SOL    HW228695   5.785   1.933   0.023
 9266SOL     OW28696   1.188   4.434   1.406
 9266SOL    HW128697   1.263   4.470   1.351
 9266SOL    HW228698   1.193   4.470   1.499
 9267SOL     OW28699   6.571   0.885   4.938
 9267SOL    HW128700   6.476   0.872   4.966
 9267SOL    HW228701   6.591   0.826   4.860
 9268SOL     OW28702   0.579   7.004   2.081
 9268SOL    HW128703   0.625   0.014   2.164
 9268SOL    HW228704   0.594   0.047   2.007
 9269SOL     OW28705   4.372   0.890   0.842
 9269SOL    HW128706   4.447   0.911   0.779
 9269SOL    HW228707   4.304   0.963   0.839
 9270SOL     OW28708   1.994   0.178   6.047
 9270SOL    HW128709   2.013   0.201   5.951
 9270SOL    HW228710   1.971   0.261   6.097
 9271SOL     OW28711   1.611   6.784   4.534
 9271SOL    HW128712   1.540   6.738   4.481
 9271SOL    HW228713   1.645   6.723   4.605
 9272SOL     OW28714   6.687   6.739   5.645
 9272SOL    HW128715   6.767   6.680   5.662
 9272SOL    HW228716   6.664   6.735   5.548
 9273SOL     OW28717   4.914   5.058   4.364
 9273SOL    HW128718   4.976   5.021   4.294
 9273SOL    HW228719   4.913   4.997   4.443
 9274SOL     OW28720   0.586   2.715   0.308
 9274SOL    HW128721   0.676   2.701   0.267
 9274SOL    HW228722   0.546   2.627   0.332
 9275SOL     OW28723   0.305   0.733   6.962
 9275SOL    HW128724   0.232   0.752   6.897
 9275SOL    HW228725   0.301   0.636   6.988
 9276SOL     OW28726   2.919   5.273   0.060
 9276SOL    HW128727   2.894   5.330   7.004
 9276SOL    HW228728   2.954   5.331   0.133
 9277SOL     OW28729   5.155   5.797   2.036
 9277SOL    HW128730   5.236   5.825   1.984
 9277SOL    HW228731   5.180   5.784   2.132
 9278SOL     OW28732   0.861   1.036   5.052
 9278SOL    HW128733   0.789   1.038   4.982
 9278SOL    HW228734   0.913   0.951   5.045
 9279SOL     OW28735   4.649   6.262   1.619
 9279SOL    HW128736   4.606   6.340   1.664
 9279SOL    HW228737   4.727   6.294   1.565
 9280SOL     OW28738   1.634   6.917   2.797
 9280SOL    HW128739   1.721   6.943   2.838
 9280SOL    HW228740   1.616   6.820   2.814
 9281SOL     OW28741   2.586   5.132   6.643
 9281SOL    HW128742   2.551   5.081   6.564
 9281SOL    HW228743   2.683   5.114   6.655
 9282SOL     OW28744   2.981   6.731   4.959
 9282SOL    HW128745   2.944   6.788   5.032
 9282SOL    HW228746   3.066   6.771   4.925
 9283SOL     OW28747   4.896   5.937   0.275
 9283SOL    HW128748   4.924   5.852   0.229
 9283SOL    HW228749   4.929   6.016   0.222
 9284SOL     OW28750   3.320   3.985   4.987
 9284SOL    HW128751   3.232   4.014   4.949
 9284SOL    HW228752   3.308   3.956   5.082
 9285SOL     OW28753   0.377   4.933   2.584
 9285SOL    HW128754   0.336   4.851   2.546
 9285SOL    HW228755   0.463   4.910   2.630
 9286SOL     OW28756   4.835   5.960   1.169
 9286SOL    HW128757   4.851   5.885   1.105
 9286SOL    HW228758   4.738   5.983   1.170
 9287SOL     OW28759   3.423   4.595   6.262
 9287SOL    HW128760   3.383   4.574   6.352
 9287SOL    HW228761   3.350   4.602   6.194
 9288SOL     OW28762   3.993   2.062   2.890
 9288SOL    HW128763   4.009   2.084   2.793
 9288SOL    HW228764   3.902   2.022   2.901
 9289SOL     OW28765   5.016   6.613   6.969
 9289SOL    HW128766   4.960   6.562   0.011
 9289SOL    HW228767   5.074   6.549   6.918
 9290SOL     OW28768   5.126   0.782   3.858
 9290SOL    HW128769   5.150   0.814   3.950
 9290SOL    HW228770   5.111   0.683   3.860
 9291SOL     OW28771   1.111   4.886   6.065
 9291SOL    HW128772   1.146   4.925   6.150
 9291SOL    HW228773   1.106   4.957   5.995
 9292SOL     OW28774   2.026   1.567   6.446
 9292SOL    HW128775   2.079   1.482   6.452
 9292SOL    HW228776   1.981   1.584   6.533
 9293SOL     OW28777   5.295   2.572   4.840
 9293SOL    HW128778   5.271   2.650   4.782
 9293SOL    HW228779   5.313   2.492   4.783
 9294SOL     OW28780   4.402   1.418   0.390
 9294SOL    HW128781   4.474   1.459   0.334
 9294SOL    HW228782   4.313   1.440   0.352
 9295SOL     OW28783   0.367   1.351   4.878
 9295SOL    HW128784   0.303   1.427   4.885
 9295SOL    HW228785   0.451   1.381   4.833
 9296SOL     OW28786   1.554   5.091   0.126
 9296SOL    HW128787   1.623   5.052   0.065
 9296SOL    HW228788   1.596   5.115   0.213
 9297SOL     OW28789   5.747   5.463   2.389
 9297SOL    HW128790   5.824   5.522   2.367
 9297SOL    HW228791   5.716   5.417   2.306
 9298SOL     OW28792   1.359   5.576   6.213
 9298SOL    HW128793   1.371   5.543   6.307
 9298SOL    HW228794   1.285   5.642   6.210
 9299SOL     OW28795   1.899   2.549   5.021
 9299SOL    HW128796   1.964   2.475   5.040
 9299SOL    HW228797   1.818   2.537   5.079
 9300SOL     OW28798   1.502   5.229   5.585
 9300SOL    HW128799   1.501   5.252   5.682
 9300SOL    HW228800   1.455   5.142   5.570
 9301SOL     OW28801   7.001   4.414   4.881
 9301SOL    HW128802   6.911   4.380   4.909
 9301SOL    HW228803   0.010   4.483   4.947
 9302SOL     OW28804   2.153   3.721   4.761
 9302SOL    HW128805   2.212   3.692   4.836
 9302SOL    HW228806   2.161   3.820   4.748
 9303SOL     OW28807   2.247   4.768   0.798
 9303SOL    HW128808   2.247   4.705   0.876
 9303SOL    HW228809   2.194   4.727   0.724
 9304SOL     OW28810   4.397   5.401   0.068
 9304SOL    HW128811   4.301   5.373   0.058
 9304SOL    HW228812   4.421   5.404   0.165
 9305SOL     OW28813   1.914   1.913   1.280
 9305SOL    HW128814   2.005   1.944   1.306
 9305SOL    HW228815   1.860   1.990   1.246
 9306SOL     OW28816   6.703   5.272   4.452
 9306SOL    HW128817   6.668   5.190   4.497
 9306SOL    HW228818   6.627   5.323   4.413
 9307SOL     OW28819   2.510   3.101   1.628
 9307SOL    HW128820   2.476   3.021   1.679
 9307SOL    HW228821   2.592   3.075   1.577
 9308SOL     OW28822   1.912   3.855   2.097
 9308SOL    HW128823   1.951   3.895   2.181
 9308SOL    HW228824   1.955   3.767   2.079
 9309SOL     OW28825   5.101   5.572   6.027
 9309SOL    HW128826   5.101   5.608   6.120
 9309SOL    HW228827   5.033   5.622   5.972
 9310SOL     OW28828   5.633   6.097   0.249
 9310SOL    HW128829   5.717   6.125   0.202
 9310SOL    HW228830   5.616   6.158   0.326
 9311SOL     OW28831   4.446   3.614   1.476
 9311SOL    HW128832   4.443   3.615   1.376
 9311SOL    HW228833   4.507   3.687   1.508
 9312SOL     OW28834   0.485   2.792   2.043
 9312SOL    HW128835   0.575   2.822   2.074
 9312SOL    HW228836   0.437   2.749   2.119
 9313SOL     OW28837   0.284   6.782   2.315
 9313SOL    HW128838   0.229   6.851   2.362
 9313SOL    HW228839   0.223   6.722   2.261
 9314SOL     OW28840   4.942   3.590   0.419
 9314SOL    HW128841   4.901   3.680   0.410
 9314SOL    HW228842   4.937   3.542   0.331
 9315SOL     OW28843   5.327   0.777   5.992
 9315SOL    HW128844   5.238   0.753   6.029
 9315SOL    HW228845   5.389   0.699   6.000
 9316SOL     OW28846   4.521   0.652   5.469
 9316SOL    HW128847   4.448   0.593   5.434
 9316SOL    HW228848   4.574   0.603   5.538
 9317SOL     OW28849   3.956   6.538   3.229
 9317SOL    HW128850   3.971   6.540   3.328
 9317SOL    HW228851   4.040   6.512   3.183
 9318SOL     OW28852   4.942   6.678   1.453
 9318SOL    HW128853   5.032   6.704   1.490
 9318SOL    HW228854   4.872   6.694   1.523
 9319SOL     OW28855   2.818   3.883   0.148
 9319SOL    HW128856   2.909   3.869   0.188
 9319SOL    HW228857   2.815   3.970   0.100
 9320SOL     OW28858   6.535   6.255   6.838
 9320SOL    HW128859   6.537   6.164   6.797
 9320SOL    HW228860   6.608   6.311   6.798
 9321SOL     OW28861   1.030   3.781   4.673
 9321SOL    HW128862   1.115   3.827   4.695
 9321SOL    HW228863   1.047   3.710   4.605
 9322SOL     OW28864   6.084   3.543   6.415
 9322SOL    HW128865   6.086   3.642   6.405
 9322SOL    HW228866   5.993   3.514   6.446
 9323SOL     OW28867   1.580   2.220   4.956
 9323SOL    HW128868   1.515   2.248   4.885
 9323SOL    HW228869   1.608   2.300   5.009
 9324SOL     OW28870   0.636   4.446   1.589
 9324SOL    HW128871   0.650   4.348   1.576
 9324SOL    HW228872   0.540   4.469   1.570
 9325SOL     OW28873   0.979   4.966   3.125
 9325SOL    HW128874   1.017   4.904   3.194
 9325SOL    HW228875   1.041   4.971   3.047
 9326SOL     OW28876   4.490   4.496   1.530
 9326SOL    HW128877   4.400   4.519   1.568
 9326SOL    HW228878   4.559   4.559   1.566
 9327SOL     OW28879   4.279   0.203   4.025
 9327SOL    HW128880   4.195   0.235   4.070
 9327SOL    HW228881   4.288   0.248   3.936
 9328SOL     OW28882   2.427   0.079   4.412
 9328SOL    HW128883   2.434   7.004   4.432
 9328SOL    HW228884   2.507   0.107   4.359
 9329SOL     OW28885   0.107   5.157   6.718
 9329SOL    HW128886   0.194   5.200   6.742
 9329SOL    HW228887   0.067   5.206   6.640
 9330SOL     OW28888   6.457   5.104   6.767
 9330SOL    HW128889   6.537   5.136   6.716
 9330SOL    HW228890   6.447   5.006   6.755
 9331SOL     OW28891   2.048   2.829   4.682
 9331SOL    HW128892   2.002   2.831   4.771
 9331SOL    HW228893   2.099   2.744   4.672
 9332SOL     OW28894   4.853   5.700   1.034
 9332SOL    HW128895   4.850   5.733   0.940
 9332SOL    HW228896   4.944   5.664   1.055
 9333SOL     OW28897   3.769   4.582   1.206
 9333SOL    HW128898   3.791   4.488   1.234
 9333SOL    HW228899   3.834   4.613   1.137
 9334SOL     OW28900   5.996   6.056   5.740
 9334SOL    HW128901   6.079   6.087   5.787
 9334SOL    HW228902   5.932   6.019   5.807
 9335SOL     OW28903   1.439   3.037   1.421
 9335SOL    HW128904   1.415   3.134   1.435
 9335SOL    HW228905   1.537   3.030   1.402
 9336SOL     OW28906   6.122   6.621   5.341
 9336SOL    HW128907   6.081   6.620   5.433
 9336SOL    HW228908   6.209   6.572   5.343
 9337SOL     OW28909   2.790   0.210   6.723
 9337SOL    HW128910   2.816   0.138   6.658
 9337SOL    HW228911   2.866   0.273   6.734
 9338SOL     OW28912   5.861   6.839   6.890
 9338SOL    HW128913   5.783   6.900   6.879
 9338SOL    HW228914   5.930   6.883   6.948
 9339SOL     OW28915   6.545   4.239   5.332
 9339SOL    HW128916   6.456   4.241   5.379
 9339SOL    HW228917   6.566   4.329   5.295
 9340SOL     OW28918   4.292   5.849   1.738
 9340SOL    HW128919   4.275   5.853   1.640
 9340SOL    HW228920   4.245   5.770   1.777
 9341SOL     OW28921   4.840   4.207   7.000
 9341SOL    HW128922   4.771   4.255   0.031
 9341SOL    HW228923   4.852   4.253   6.912
 9342SOL     OW28924   2.931   0.350   4.323
 9342SOL    HW128925   2.965   0.444   4.326
 9342SOL    HW228926   2.929   0.312   4.416
 9343SOL     OW28927   4.601   4.242   1.617
 9343SOL    HW128928   4.577   4.338   1.599
 9343SOL    HW228929   4.557   4.212   1.701
 9344SOL     OW28930   5.833   5.746   4.845
 9344SOL    HW128931   5.872   5.809   4.912
 9344SOL    HW228932   5.747   5.784   4.811
 9345SOL     OW28933   6.858   6.402   1.020
 9345SOL    HW128934   6.883   6.460   1.097
 9345SOL    HW228935   6.890   6.445   0.935
 9346SOL     OW28936   5.928   5.943   1.015
 9346SOL    HW128937   5.908   6.036   1.043
 9346SOL    HW228938   5.842   5.893   1.000
 9347SOL     OW28939   3.684   5.576   0.747
 9347SOL    HW128940   3.610   5.555   0.810
 9347SOL    HW228941   3.767   5.598   0.798
 9348SOL     OW28942   1.908   6.025   1.716
 9348SOL    HW128943   1.856   6.036   1.631
 9348SOL    HW228944   1.884   5.938   1.759
 9349SOL     OW28945   6.032   5.852   1.843
 9349SOL    HW128946   5.965   5.916   1.881
 9349SOL    HW228947   6.008   5.832   1.748
 9350SOL     OW28948   0.045   0.326   5.491
 9350SOL    HW128949   0.087   0.255   5.434
 9350SOL    HW228950   0.099   0.410   5.484
 9351SOL     OW28951   3.030   1.559   6.482
 9351SOL    HW128952   3.044   1.655   6.455
 9351SOL    HW228953   3.100   1.502   6.437
 9352SOL     OW28954   3.725   2.178   6.376
 9352SOL    HW128955   3.666   2.197   6.455
 9352SOL    HW228956   3.696   2.236   6.299
 9353SOL     OW28957   1.195   3.346   0.905
 9353SOL    HW128958   1.289   3.360   0.876
 9353SOL    HW228959   1.147   3.433   0.907
 9354SOL     OW28960   4.795   2.226   1.241
 9354SOL    HW128961   4.872   2.165   1.260
 9354SOL    HW228962   4.712   2.189   1.282
 9355SOL     OW28963   6.958   6.942   3.262
 9355SOL    HW128964   6.916   6.851   3.267
 9355SOL    HW228965   6.889   7.012   3.278
 9356SOL     OW28966   4.411   4.761   2.386
 9356SOL    HW128967   4.424   4.678   2.441
 9356SOL    HW228968   4.426   4.740   2.290
 9357SOL     OW28969   3.303   2.306   0.956
 9357SOL    HW128970   3.321   2.371   0.882
 9357SOL    HW228971   3.242   2.348   1.023
 9358SOL     OW28972   6.401   4.739   2.493
 9358SOL    HW128973   6.393   4.644   2.464
 9358SOL    HW228974   6.325   4.762   2.553
 9359SOL     OW28975   6.738   4.172   5.840
 9359SOL    HW128976   6.836   4.191   5.835
 9359SOL    HW228977   6.694   4.201   5.755
 9360SOL     OW28978   2.501   1.030   6.915
 9360SOL    HW128979   2.425   1.096   6.918
 9360SOL    HW228980   2.481   0.953   6.976
 9361SOL     OW28981   2.872   6.437   2.402
 9361SOL    HW128982   2.860   6.350   2.356
 9361SOL    HW228983   2.836   6.511   2.345
 9362SOL     OW28984   2.368   1.372   2.521
 9362SOL    HW128985   2.307   1.452   2.523
 9362SOL    HW228986   2.452   1.394   2.569
 9363SOL     OW28987   3.363   6.422   2.437
 9363SOL    HW128988   3.434   6.374   2.489
 9363SOL    HW228989   3.279   6.427   2.491
 9364SOL     OW28990   4.517   3.462   0.260
 9364SOL    HW128991   4.568   3.405   0.325
 9364SOL    HW228992   4.542   3.558   0.273
 9365SOL     OW28993   2.495   1.976   5.013
 9365SOL    HW128994   2.575   1.921   4.987
 9365SOL    HW228995   2.480   2.048   4.945
 9366SOL     OW28996   2.469   1.815   0.604
 9366SOL    HW128997   2.498   1.868   0.684
 9366SOL    HW228998   2.405   1.869   0.549
 9367SOL     OW28999   6.787   5.918   2.766
 9367SOL    HW129000   6.822   6.011   2.766
 9367SOL    HW229001   6.738   5.900   2.851
 9368SOL     OW29002   2.905   1.779   1.905
 9368SOL    HW129003   2.972   1.810   1.838
 9368SOL    HW229004   2.842   1.853   1.926
 9369SOL     OW29005   0.241   2.428   4.741
 9369SOL    HW129006   0.196   2.386   4.663
 9369SOL    HW229007   0.269   2.521   4.717
 9370SOL     OW29008   6.331   0.683   2.769
 9370SOL    HW129009   6.259   0.679   2.839
 9370SOL    HW229010   6.295   0.727   2.687
 9371SOL     OW29011   0.228   6.214   0.466
 9371SOL    HW129012   0.227   6.117   0.442
 9371SOL    HW229013   0.203   6.225   0.562
 9372SOL     OW29014   6.239   6.751   3.755
 9372SOL    HW129015   6.203   6.790   3.840
 9372SOL    HW229016   6.311   6.810   3.719
 9373SOL     OW29017   3.801   1.597   3.210
 9373SOL    HW129018   3.769   1.673   3.265
 9373SOL    HW229019   3.775   1.511   3.253
 9374SOL     OW29020   5.047   2.950   0.116
 9374SOL    HW129021   4.976   2.882   0.134
 9374SOL    HW229022   5.134   2.904   0.099
 9375SOL     OW29023   0.663   1.343   3.275
 9375SOL    HW129024   0.646   1.246   3.259
 9375SOL    HW229025   0.577   1.389   3.298
 9376SOL     OW29026   2.795   4.070   0.970
 9376SOL    HW129027   2.829   4.147   0.915
 9376SOL    HW229028   2.707   4.095   1.011
 9377SOL     OW29029   6.300   5.624   3.701
 9377SOL    HW129030   6.266   5.708   3.744
 9377SOL    HW229031   6.392   5.641   3.665
 9378SOL     OW29032   2.176   0.128   0.174
 9378SOL    HW129033   2.103   0.195   0.184
 9378SOL    HW229034   2.261   0.174   0.146
 9379SOL     OW29035   4.928   5.386   3.740
 9379SOL    HW129036   4.918   5.466   3.680
 9379SOL    HW229037   4.872   5.399   3.822
 9380SOL     OW29038   6.208   6.968   5.587
 9380SOL    HW129039   6.170   6.925   5.669
 9380SOL    HW229040   6.263   6.902   5.536
 9381SOL     OW29041   2.684   2.004   5.878
 9381SOL    HW129042   2.622   2.076   5.910
 9381SOL    HW229043   2.762   1.997   5.940
 9382SOL     OW29044   4.045   1.621   2.441
 9382SOL    HW129045   4.103   1.571   2.505
 9382SOL    HW229046   3.966   1.564   2.415
 9383SOL     OW29047   4.202   6.487   3.993
 9383SOL    HW129048   4.126   6.526   3.940
 9383SOL    HW229049   4.231   6.552   4.063
 9384SOL     OW29050   5.050   6.345   2.140
 9384SOL    HW129051   5.123   6.283   2.112
 9384SOL    HW229052   5.090   6.429   2.176
 9385SOL     OW29053   4.166   0.919   3.620
 9385SOL    HW129054   4.213   0.981   3.684
 9385SOL    HW229055   4.234   0.872   3.563
 9386SOL     OW29056   2.840   6.513   5.702
 9386SOL    HW129057   2.853   6.457   5.620
 9386SOL    HW229058   2.802   6.456   5.776
 9387SOL     OW29059   3.127   6.792   1.619
 9387SOL    HW129060   3.203   6.773   1.557
 9387SOL    HW229061   3.045   6.745   1.585
 9388SOL     OW29062   0.420   0.473   2.516
 9388SOL    HW129063   0.439   0.538   2.443
 9388SOL    HW229064   0.452   0.510   2.603
 9389SOL     OW29065   2.633   0.922   5.826
 9389SOL    HW129066   2.623   0.987   5.751
 9389SOL    HW229067   2.630   0.970   5.913
 9390SOL     OW29068   3.258   5.325   2.384
 9390SOL    HW129069   3.160   5.313   2.367
 9390SOL    HW229070   3.280   5.423   2.386
 9391SOL     OW29071   0.860   1.316   5.347
 9391SOL    HW129072   0.898   1.404   5.373
 9391SOL    HW229073   0.902   1.244   5.402
 9392SOL     OW29074   1.690   6.585   4.741
 9392SOL    HW129075   1.771   6.542   4.781
 9392SOL    HW229076   1.625   6.514   4.714
 9393SOL     OW29077   3.621   2.221   5.320
 9393SOL    HW129078   3.585   2.227   5.413
 9393SOL    HW229079   3.546   2.237   5.255
 9394SOL     OW29080   6.867   3.117   3.025
 9394SOL    HW129081   6.928   3.075   2.957
 9394SOL    HW229082   6.783   3.064   3.032
 9395SOL     OW29083   2.600   3.229   0.893
 9395SOL    HW129084   2.508   3.192   0.882
 9395SOL    HW229085   2.609   3.314   0.841
 9396SOL     OW29086   6.083   0.102   6.034
 9396SOL    HW129087   6.150   0.160   5.990
 9396SOL    HW229088   6.043   0.040   5.966
 9397SOL     OW29089   2.351   0.232   0.514
 9397SOL    HW129090   2.360   0.303   0.583
 9397SOL    HW229091   2.400   0.259   0.431
 9398SOL     OW29092   2.764   1.362   6.529
 9398SOL    HW129093   2.820   1.439   6.501
 9398SOL    HW229094   2.823   1.287   6.560
 9399SOL     OW29095   6.647   1.530   6.142
 9399SOL    HW129096   6.686   1.582   6.218
 9399SOL    HW229097   6.693   1.442   6.134
 9400SOL     OW29098   5.252   3.323   2.202
 9400SOL    HW129099   5.283   3.267   2.125
 9400SOL    HW229100   5.319   3.319   2.275
 9401SOL     OW29101   3.071   6.193   3.703
 9401SOL    HW129102   3.034   6.118   3.758
 9401SOL    HW229103   3.121   6.154   3.625
 9402SOL     OW29104   2.555   4.909   6.153
 9402SOL    HW129105   2.475   4.849   6.152
 9402SOL    HW229106   2.625   4.872   6.091
 9403SOL     OW29107   5.277   1.374   3.706
 9403SOL    HW129108   5.210   1.301   3.710
 9403SOL    HW229109   5.238   1.458   3.744
 9404SOL     OW29110   1.029   5.069   6.946
 9404SOL    HW129111   1.115   5.053   6.896
 9404SOL    HW229112   1.045   5.053   0.020
 9405SOL     OW29113   6.237   6.871   1.153
 9405SOL    HW129114   6.175   6.927   1.209
 9405SOL    HW229115   6.300   6.930   1.104
 9406SOL     OW29116   6.917   1.873   5.374
 9406SOL    HW129117   6.965   1.897   5.289
 9406SOL    HW229118   6.984   1.845   5.443
 9407SOL     OW29119   3.233   5.978   3.237
 9407SOL    HW129120   3.243   6.069   3.197
 9407SOL    HW229121   3.315   5.955   3.290
 9408SOL     OW29122   3.933   2.220   6.890
 9408SOL    HW129123   3.952   2.163   6.970
 9408SOL    HW229124   3.983   2.185   6.811
 9409SOL     OW29125   5.838   3.393   3.699
 9409SOL    HW129126   5.909   3.419   3.633
 9409SOL    HW229127   5.878   3.389   3.790
 9410SOL     OW29128   4.204   6.313   2.293
 9410SOL    HW129129   4.126   6.320   2.231
 9410SOL    HW229130   4.197   6.385   2.363
 9411SOL     OW29131   4.589   5.695   0.639
 9411SOL    HW129132   4.632   5.716   0.552
 9411SOL    HW229133   4.509   5.637   0.624
 9412SOL     OW29134   0.126   2.535   1.258
 9412SOL    HW129135   0.137   2.470   1.183
 9412SOL    HW229136   0.121   2.628   1.220
 9413SOL     OW29137   4.176   5.955   5.340
 9413SOL    HW129138   4.107   5.933   5.272
 9413SOL    HW229139   4.243   6.019   5.301
 9414SOL     OW29140   3.136   1.315   2.984
 9414SOL    HW129141   3.217   1.348   2.935
 9414SOL    HW229142   3.110   1.226   2.948
 9415SOL     OW29143   2.081   6.248   2.254
 9415SOL    HW129144   2.143   6.310   2.206
 9415SOL    HW229145   1.992   6.292   2.267
 9416SOL     OW29146   1.399   1.913   1.945
 9416SOL    HW129147   1.452   1.883   1.865
 9416SOL    HW229148   1.334   1.984   1.917
 9417SOL     OW29149   2.459   5.622   5.629
 9417SOL    HW129150   2.422   5.549   5.572
 9417SOL    HW229151   2.501   5.693   5.571
 9418SOL     OW29152   2.309   5.517   1.927
 9418SOL    HW129153   2.223   5.564   1.907
 9418SOL    HW229154   2.362   5.508   1.842
 9419SOL     OW29155   3.097   6.485   4.994
 9419SOL    HW129156   3.153   6.520   5.069
 9419SOL    HW229157   3.062   6.561   4.939
 9420SOL     OW29158   6.576   1.333   4.969
 9420SOL    HW129159   6.507   1.370   4.907
 9420SOL    HW229160   6.655   1.302   4.917
 9421SOL     OW29161   1.417   4.046   5.506
 9421SOL    HW129162   1.476   3.980   5.553
 9421SOL    HW229163   1.433   4.138   5.542
 9422SOL     OW29164   5.508   0.373   2.278
 9422SOL    HW129165   5.533   0.283   2.243
 9422SOL    HW229166   5.450   0.362   2.359
 9423SOL     OW29167   4.086   1.307   3.510
 9423SOL    HW129168   4.050   1.246   3.438
 9423SOL    HW229169   4.009   1.354   3.554
 9424SOL     OW29170   4.359   0.301   5.190
 9424SOL    HW129171   4.400   0.213   5.215
 9424SOL    HW229172   4.302   0.290   5.108
 9425SOL     OW29173   0.510   4.242   5.539
 9425SOL    HW129174   0.600   4.255   5.581
 9425SOL    HW229175   0.483   4.326   5.493
 9426SOL     OW29176   2.962   0.586   6.835
 9426SOL    HW129177   2.984   0.488   6.829
 9426SOL    HW229178   2.919   0.616   6.750
 9427SOL     OW29179   2.776   5.481   4.856
 9427SOL    HW129180   2.810   5.549   4.792
 9427SOL    HW229181   2.690   5.443   4.822
 9428SOL     OW29182   5.292   0.558   2.903
 9428SOL    HW129183   5.311   0.645   2.859
 9428SOL    HW229184   5.378   0.513   2.928
 9429SOL     OW29185   0.904   4.370   2.055
 9429SOL    HW129186   0.850   4.430   2.114
 9429SOL    HW229187   0.942   4.296   2.109
 9430SOL     OW29188   6.762   6.356   1.836
 9430SOL    HW129189   6.858   6.337   1.818
 9430SOL    HW229190   6.712   6.270   1.847
 9431SOL     OW29191   6.491   3.573   0.162
 9431SOL    HW129192   6.581   3.608   0.184
 9431SOL    HW229193   6.481   3.567   0.062
 9432SOL     OW29194   5.826   0.289   3.253
 9432SOL    HW129195   5.797   0.209   3.201
 9432SOL    HW229196   5.834   0.265   3.350
 9433SOL     OW29197   3.435   5.081   5.336
 9433SOL    HW129198   3.500   5.036   5.276
 9433SOL    HW229199   3.428   5.178   5.312
 9434SOL     OW29200   5.693   3.910   2.957
 9434SOL    HW129201   5.775   3.883   2.906
 9434SOL    HW229202   5.619   3.930   2.893
 9435SOL     OW29203   1.826   1.532   4.194
 9435SOL    HW129204   1.817   1.629   4.169
 9435SOL    HW229205   1.916   1.517   4.235
 9436SOL     OW29206   1.755   4.051   0.523
 9436SOL    HW129207   1.780   3.959   0.492
 9436SOL    HW229208   1.711   4.100   0.447
 9437SOL     OW29209   1.332   5.018   3.171
 9437SOL    HW129210   1.345   5.117   3.182
 9437SOL    HW229211   1.275   4.983   3.244
 9438SOL     OW29212   0.543   6.688   2.326
 9438SOL    HW129213   0.448   6.717   2.338
 9438SOL    HW229214   0.604   6.750   2.376
 9439SOL     OW29215   0.030   3.595   2.019
 9439SOL    HW129216   7.007   3.589   2.108
 9439SOL    HW229217   0.031   3.690   1.988
 9440SOL     OW29218   5.105   6.436   5.460
 9440SOL    HW129219   5.093   6.386   5.374
 9440SOL    HW229220   5.016   6.450   5.503
 9441SOL     OW29221   1.698   4.868   4.689
 9441SOL    HW129222   1.785   4.900   4.652
 9441SOL    HW229223   1.715   4.811   4.769
 9442SOL     OW29224   7.003   2.387   0.340
 9442SOL    HW129225   6.975   2.303   0.387
 9442SOL    HW229226   6.940   2.406   0.265
 9443SOL     OW29227   1.839   4.688   0.824
 9443SOL    HW129228   1.933   4.658   0.838
 9443SOL    HW229229   1.791   4.692   0.911
 9444SOL     OW29230   0.348   2.801   0.113
 9444SOL    HW129231   0.254   2.779   0.139
 9444SOL    HW229232   0.407   2.794   0.194
 9445SOL     OW29233   5.246   3.772   2.378
 9445SOL    HW129234   5.181   3.708   2.419
 9445SOL    HW229235   5.339   3.746   2.402
 9446SOL     OW29236   6.339   6.437   2.378
 9446SOL    HW129237   6.351   6.438   2.279
 9446SOL    HW229238   6.266   6.372   2.401
 9447SOL     OW29239   4.945   3.800   2.366
 9447SOL    HW129240   4.939   3.770   2.271
 9447SOL    HW229241   5.040   3.825   2.387
 9448SOL     OW29242   5.997   6.213   6.430
 9448SOL    HW129243   5.938   6.284   6.468
 9448SOL    HW229244   5.966   6.124   6.462
 9449SOL     OW29245   6.140   5.746   5.481
 9449SOL    HW129246   6.050   5.704   5.468
 9449SOL    HW229247   6.145   5.831   5.427
 9450SOL     OW29248   2.244   5.077   4.321
 9450SOL    HW129249   2.259   5.153   4.384
 9450SOL    HW229250   2.212   4.997   4.373
 9451SOL     OW29251   4.873   5.496   6.864
 9451SOL    HW129252   4.799   5.491   6.931
 9451SOL    HW229253   4.949   5.437   6.892
 9452SOL     OW29254   2.365   3.881   1.146
 9452SOL    HW129255   2.303   3.804   1.162
 9452SOL    HW229256   2.456   3.860   1.182
 9453SOL     OW29257   1.876   5.188   3.152
 9453SOL    HW129258   1.913   5.223   3.066
 9453SOL    HW229259   1.822   5.106   3.133
 9454SOL     OW29260   1.452   4.204   6.103
 9454SOL    HW129261   1.384   4.244   6.042
 9454SOL    HW229262   1.534   4.261   6.104
 9455SOL     OW29263   3.080   1.072   2.883
 9455SOL    HW129264   3.130   1.004   2.937
 9455SOL    HW229265   3.049   1.031   2.797
 9456SOL     OW29266   0.989   3.876   1.116
 9456SOL    HW129267   0.951   3.783   1.118
 9456SOL    HW229268   0.939   3.932   1.051
 9457SOL     OW29269   1.621   3.335   6.830
 9457SOL    HW129270   1.709   3.326   6.783
 9457SOL    HW229271   1.571   3.413   6.793
 9458SOL     OW29272   6.729   5.096   6.130
 9458SOL    HW129273   6.691   5.060   6.045
 9458SOL    HW229274   6.827   5.078   6.133
 9459SOL     OW29275   6.033   5.288   1.634
 9459SOL    HW129276   6.115   5.251   1.590
 9459SOL    HW229277   6.013   5.378   1.597
 9460SOL     OW29278   0.510   2.525   4.921
 9460SOL    HW129279   0.566   2.592   4.971
 9460SOL    HW229280   0.534   2.433   4.952
 9461SOL     OW29281   0.569   1.065   3.237
 9461SOL    HW129282   0.640   1.056   3.307
 9461SOL    HW229283   0.480   1.044   3.277
 9462SOL     OW29284   1.182   3.112   3.035
 9462SOL    HW129285   1.129   3.167   2.970
 9462SOL    HW229286   1.133   3.028   3.056
 9463SOL     OW29287   6.818   0.942   0.731
 9463SOL    HW129288   6.742   0.999   0.761
 9463SOL    HW229289   6.904   0.988   0.750
 9464SOL     OW29290   5.948   6.670   6.603
 9464SOL    HW129291   5.930   6.697   6.698
 9464SOL    HW229292   6.046   6.653   6.591
 9465SOL     OW29293   6.772   0.576   3.198
 9465SOL    HW129294   6.714   0.545   3.123
 9465SOL    HW229295   6.867   0.577   3.169
 9466SOL     OW29296   2.489   3.064   6.142
 9466SOL    HW129297   2.569   3.070   6.082
 9466SOL    HW229298   2.504   2.991   6.209
 9467SOL     OW29299   1.865   2.446   1.895
 9467SOL    HW129300   1.854   2.353   1.928
 9467SOL    HW229301   1.898   2.505   1.969
 9468SOL     OW29302   6.476   2.998   6.045
 9468SOL    HW129303   6.491   2.904   6.074
 9468SOL    HW229304   6.431   3.049   6.119
 9469SOL     OW29305   6.215   5.826   2.206
 9469SOL    HW129306   6.289   5.835   2.272
 9469SOL    HW229307   6.150   5.756   2.237
 9470SOL     OW29308   4.823   3.746   0.057
 9470SOL    HW129309   4.821   3.714   6.986
 9470SOL    HW229310   4.848   3.843   0.059
 9471SOL     OW29311   6.735   2.771   5.797
 9471SOL    HW129312   6.651   2.826   5.800
 9471SOL    HW229313   6.812   2.829   5.773
 9472SOL     OW29314   5.886   4.685   4.352
 9472SOL    HW129315   5.877   4.585   4.359
 9472SOL    HW229316   5.890   4.711   4.256
 9473SOL     OW29317   3.203   6.416   6.474
 9473SOL    HW129318   3.170   6.425   6.568
 9473SOL    HW229319   3.270   6.488   6.455
 9474SOL     OW29320   5.196   4.487   2.083
 9474SOL    HW129321   5.293   4.462   2.088
 9474SOL    HW229322   5.142   4.405   2.065
 9475SOL     OW29323   3.080   3.624   1.165
 9475SOL    HW129324   3.075   3.537   1.115
 9475SOL    HW229325   3.042   3.697   1.108
 9476SOL     OW29326   4.260   3.486   5.439
 9476SOL    HW129327   4.236   3.394   5.470
 9476SOL    HW229328   4.330   3.524   5.498
 9477SOL     OW29329   1.235   2.343   0.892
 9477SOL    HW129330   1.293   2.341   0.810
 9477SOL    HW229331   1.267   2.275   0.957
 9478SOL     OW29332   5.078   4.066   5.457
 9478SOL    HW129333   4.988   4.046   5.420
 9478SOL    HW229334   5.138   4.100   5.384
 9479SOL     OW29335   5.829   5.303   6.519
 9479SOL    HW129336   5.895   5.357   6.571
 9479SOL    HW229337   5.862   5.209   6.510
 9480SOL     OW29338   4.667   4.216   6.665
 9480SOL    HW129339   4.738   4.241   6.599
 9480SOL    HW229340   4.614   4.139   6.629
 9481SOL     OW29341   0.107   4.117   1.973
 9481SOL    HW129342   0.204   4.098   1.986
 9481SOL    HW229343   0.084   4.110   1.875
 9482SOL     OW29344   4.958   0.773   2.827
 9482SOL    HW129345   4.964   0.873   2.833
 9482SOL    HW229346   5.017   0.732   2.896
 9483SOL     OW29347   1.522   1.840   1.227
 9483SOL    HW129348   1.457   1.789   1.171
 9483SOL    HW229349   1.611   1.839   1.182
 9484SOL     OW29350   6.069   0.881   3.598
 9484SOL    HW129351   6.048   0.882   3.500
 9484SOL    HW229352   6.000   0.934   3.647
 9485SOL     OW29353   1.038   1.158   1.936
 9485SOL    HW129354   1.120   1.159   1.994
 9485SOL    HW229355   1.065   1.170   1.841
 9486SOL     OW29356   2.567   5.684   0.541
 9486SOL    HW129357   2.538   5.749   0.471
 9486SOL    HW229358   2.604   5.734   0.619
 9487SOL     OW29359   3.476   4.039   3.804
 9487SOL    HW129360   3.464   4.090   3.889
 9487SOL    HW229361   3.434   4.089   3.728
 9488SOL     OW29362   1.804   6.225   1.039
 9488SOL    HW129363   1.771   6.144   0.990
 9488SOL    HW229364   1.810   6.302   0.977
 9489SOL     OW29365   4.227   4.600   1.568
 9489SOL    HW129366   4.220   4.654   1.484
 9489SOL    HW229367   4.135   4.575   1.599
 9490SOL     OW29368   5.300   0.657   0.821
 9490SOL    HW129369   5.233   0.732   0.824
 9490SOL    HW229370   5.317   0.625   0.914
 9491SOL     OW29371   6.401   4.926   3.839
 9491SOL    HW129372   6.472   4.856   3.833
 9491SOL    HW229373   6.331   4.908   3.771
 9492SOL     OW29374   3.267   3.854   2.046
 9492SOL    HW129375   3.170   3.868   2.027
 9492SOL    HW229376   3.321   3.926   2.004
 9493SOL     OW29377   4.813   5.530   3.043
 9493SOL    HW129378   4.838   5.451   3.099
 9493SOL    HW229379   4.815   5.504   2.946
 9494SOL     OW29380   5.198   3.327   0.275
 9494SOL    HW129381   5.197   3.305   0.372
 9494SOL    HW229382   5.188   3.426   0.263
 9495SOL     OW29383   6.494   2.261   4.213
 9495SOL    HW129384   6.505   2.308   4.125
 9495SOL    HW229385   6.399   2.231   4.223
 9496SOL     OW29386   5.418   4.157   6.880
 9496SOL    HW129387   5.409   4.210   6.796
 9496SOL    HW229388   5.491   4.195   6.936
 9497SOL     OW29389   5.212   4.588   1.023
 9497SOL    HW129390   5.286   4.585   0.957
 9497SOL    HW229391   5.246   4.623   1.111
 9498SOL     OW29392   3.858   6.867   5.250
 9498SOL    HW129393   3.796   6.849   5.174
 9498SOL    HW229394   3.930   6.929   5.220
 9499SOL     OW29395   2.865   3.688   5.433
 9499SOL    HW129396   2.808   3.623   5.383
 9499SOL    HW229397   2.856   3.779   5.392
 9500SOL     OW29398   4.478   6.225   1.353
 9500SOL    HW129399   4.422   6.255   1.430
 9500SOL    HW229400   4.553   6.168   1.386
 9501SOL     OW29401   3.425   1.763   4.429
 9501SOL    HW129402   3.447   1.845   4.481
 9501SOL    HW229403   3.394   1.789   4.338
 9502SOL     OW29404   6.639   2.898   4.771
 9502SOL    HW129405   6.702   2.947   4.711
 9502SOL    HW229406   6.591   2.964   4.829
 9503SOL     OW29407   0.377   0.349   1.914
 9503SOL    HW129408   0.420   0.290   1.983
 9503SOL    HW229409   0.316   0.414   1.959
 9504SOL     OW29410   0.234   2.607   0.919
 9504SOL    HW129411   0.320   2.652   0.946
 9504SOL    HW229412   0.160   2.675   0.919
 9505SOL     OW29413   6.083   3.732   3.096
 9505SOL    HW129414   6.034   3.746   3.010
 9505SOL    HW229415   6.102   3.820   3.139
 9506SOL     OW29416   0.191   3.004   6.906
 9506SOL    HW129417   0.190   2.958   6.995
 9506SOL    HW229418   0.099   3.035   6.884
 9507SOL     OW29419   1.437   0.976   3.940
 9507SOL    HW129420   1.381   0.981   4.023
 9507SOL    HW229421   1.403   0.903   3.882
 9508SOL     OW29422   5.532   2.011   0.437
 9508SOL    HW129423   5.603   1.977   0.375
 9508SOL    HW229424   5.530   1.955   0.519
 9509SOL     OW29425   1.602   6.828   5.157
 9509SOL    HW129426   1.623   6.876   5.072
 9509SOL    HW229427   1.561   6.739   5.136
 9510SOL     OW29428   6.921   4.196   2.458
 9510SOL    HW129429   6.973   4.279   2.479
 9510SOL    HW229430   6.913   4.186   2.359
 9511SOL     OW29431   0.468   2.537   0.525
 9511SOL    HW129432   0.417   2.533   0.439
 9511SOL    HW229433   0.496   2.631   0.543
 9512SOL     OW29434   7.004   2.378   3.744
 9512SOL    HW129435   0.023   2.346   3.660
 9512SOL    HW229436   0.050   2.421   3.802
 9513SOL     OW29437   2.223   3.944   4.232
 9513SOL    HW129438   2.278   3.878   4.180
 9513SOL    HW229439   2.200   3.904   4.321
 9514SOL     OW29440   2.248   3.538   6.647
 9514SOL    HW129441   2.269   3.485   6.729
 9514SOL    HW229442   2.322   3.527   6.580
 9515SOL     OW29443   1.202   6.360   6.706
 9515SOL    HW129444   1.235   6.373   6.800
 9515SOL    HW229445   1.109   6.324   6.708
 9516SOL     OW29446   4.871   3.503   3.878
 9516SOL    HW129447   4.925   3.556   3.813
 9516SOL    HW229448   4.778   3.538   3.881
 9517SOL     OW29449   1.065   5.433   1.226
 9517SOL    HW129450   1.092   5.428   1.129
 9517SOL    HW229451   0.996   5.505   1.237
 9518SOL     OW29452   0.695   2.932   5.746
 9518SOL    HW129453   0.783   2.974   5.769
 9518SOL    HW229454   0.707   2.871   5.668
 9519SOL     OW29455   3.195   3.056   2.950
 9519SOL    HW129456   3.175   3.032   2.855
 9519SOL    HW229457   3.177   3.154   2.963
 9520SOL     OW29458   6.850   1.194   5.179
 9520SOL    HW129459   6.882   1.129   5.110
 9520SOL    HW229460   6.760   1.229   5.152
 9521SOL     OW29461   3.632   6.106   1.682
 9521SOL    HW129462   3.548   6.134   1.635
 9521SOL    HW229463   3.698   6.073   1.615
 9522SOL     OW29464   4.311   5.327   1.825
 9522SOL    HW129465   4.336   5.302   1.919
 9522SOL    HW229466   4.392   5.319   1.767
 9523SOL     OW29467   2.556   5.091   4.599
 9523SOL    HW129468   2.580   5.058   4.690
 9523SOL    HW229469   2.584   5.186   4.589
 9524SOL     OW29470   1.361   4.193   0.901
 9524SOL    HW129471   1.402   4.109   0.937
 9524SOL    HW229472   1.264   4.195   0.922
 9525SOL     OW29473   1.587   2.286   5.675
 9525SOL    HW129474   1.659   2.280   5.745
 9525SOL    HW229475   1.535   2.370   5.687
 9526SOL     OW29476   5.468   5.112   6.607
 9526SOL    HW129477   5.493   5.209   6.613
 9526SOL    HW229478   5.465   5.074   6.700
 9527SOL     OW29479   3.125   6.886   3.870
 9527SOL    HW129480   3.157   6.797   3.837
 9527SOL    HW229481   3.089   6.877   3.962
 9528SOL     OW29482   6.254   1.084   0.907
 9528SOL    HW129483   6.327   1.057   0.843
 9528SOL    HW229484   6.291   1.148   0.974
 9529SOL     OW29485   6.075   2.801   1.757
 9529SOL    HW129486   6.172   2.797   1.732
 9529SOL    HW229487   6.031   2.877   1.709
 9530SOL     OW29488   0.912   5.701   4.468
 9530SOL    HW129489   0.896   5.605   4.490
 9530SOL    HW229490   0.982   5.707   4.396
 9531SOL     OW29491   4.469   4.678   3.750
 9531SOL    HW129492   4.509   4.770   3.750
 9531SOL    HW229493   4.532   4.615   3.795
 9532SOL     OW29494   6.244   4.919   1.861
 9532SOL    HW129495   6.279   4.932   1.954
 9532SOL    HW229496   6.150   4.952   1.856
 9533SOL     OW29497   1.116   5.642   4.289
 9533SOL    HW129498   1.181   5.580   4.245
 9533SOL    HW229499   1.161   5.730   4.305
 9534SOL     OW29500   6.086   5.092   4.138
 9534SOL    HW129501   6.040   5.011   4.175
 9534SOL    HW229502   6.152   5.127   4.205
 9535SOL     OW29503   2.042   1.681   6.137
 9535SOL    HW129504   2.006   1.668   6.230
 9535SOL    HW229505   2.094   1.599   6.110
 9536SOL     OW29506   3.502   3.329   5.284
 9536SOL    HW129507   3.418   3.351   5.235
 9536SOL    HW229508   3.562   3.409   5.286
 9537SOL     OW29509   1.904   1.801   3.784
 9537SOL    HW129510   1.833   1.752   3.834
 9537SOL    HW229511   1.994   1.772   3.816
 9538SOL     OW29512   3.682   0.880   4.782
 9538SOL    HW129513   3.743   0.959   4.783
 9538SOL    HW229514   3.602   0.899   4.839
 9539SOL     OW29515   3.533   3.008   3.955
 9539SOL    HW129516   3.519   2.997   3.857
 9539SOL    HW229517   3.540   3.106   3.976
 9540SOL     OW29518   4.865   5.125   4.008
 9540SOL    HW129519   4.779   5.144   3.959
 9540SOL    HW229520   4.923   5.207   4.005
 9541SOL     OW29521   0.903   0.700   5.464
 9541SOL    HW129522   0.832   0.643   5.421
 9541SOL    HW229523   0.861   0.783   5.501
 9542SOL     OW29524   5.459   4.683   4.130
 9542SOL    HW129525   5.517   4.760   4.101
 9542SOL    HW229526   5.420   4.703   4.220
 9543SOL     OW29527   3.186   6.803   6.044
 9543SOL    HW129528   3.088   6.803   6.024
 9543SOL    HW229529   3.203   6.852   6.130
 9544SOL     OW29530   4.875   3.940   3.720
 9544SOL    HW129531   4.822   3.944   3.805
 9544SOL    HW229532   4.866   4.027   3.671
 9545SOL     OW29533   0.878   4.766   1.912
 9545SOL    HW129534   0.814   4.818   1.856
 9545SOL    HW229535   0.850   4.670   1.914
 9546SOL     OW29536   3.226   1.273   5.897
 9546SOL    HW129537   3.133   1.240   5.912
 9546SOL    HW229538   3.224   1.370   5.874
 9547SOL     OW29539   3.316   5.720   4.541
 9547SOL    HW129540   3.389   5.671   4.494
 9547SOL    HW229541   3.292   5.671   4.625
 9548SOL     OW29542   0.794   5.200   5.467
 9548SOL    HW129543   0.838   5.135   5.405
 9548SOL    HW229544   0.864   5.246   5.522
 9549SOL     OW29545   4.088   1.219   2.694
 9549SOL    HW129546   4.089   1.153   2.619
 9549SOL    HW229547   4.115   1.309   2.660
 9550SOL     OW29548   5.783   2.556   1.381
 9550SOL    HW129549   5.879   2.532   1.396
 9550SOL    HW229550   5.730   2.532   1.462
 9551SOL     OW29551   6.051   2.543   5.926
 9551SOL    HW129552   6.098   2.595   5.998
 9551SOL    HW229553   5.954   2.540   5.947
 9552SOL     OW29554   2.482   0.655   6.710
 9552SOL    HW129555   2.579   0.636   6.729
 9552SOL    HW229556   2.475   0.735   6.651
 9553SOL     OW29557   5.102   2.124   0.787
 9553SOL    HW129558   5.057   2.154   0.872
 9553SOL    HW229559   5.169   2.053   0.809
 9554SOL     OW29560   2.612   6.530   3.834
 9554SOL    HW129561   2.668   6.609   3.811
 9554SOL    HW229562   2.670   6.450   3.846
 9555SOL     OW29563   6.869   1.619   3.903
 9555SOL    HW129564   6.855   1.533   3.853
 9555SOL    HW229565   6.806   1.688   3.867
 9556SOL     OW29566   1.394   4.532   1.271
 9556SOL    HW129567   1.404   4.516   1.173
 9556SOL    HW229568   1.421   4.625   1.293
 9557SOL     OW29569   5.054   6.769   1.846
 9557SOL    HW129570   5.126   6.706   1.818
 9557SOL    HW229571   5.093   6.843   1.901
 9558SOL     OW29572   6.074   6.310   5.961
 9558SOL    HW129573   6.041   6.241   6.025
 9558SOL    HW229574   6.172   6.295   5.944
 9559SOL     OW29575   1.512   3.561   6.709
 9559SOL    HW129576   1.597   3.598   6.671
 9559SOL    HW229577   1.435   3.592   6.654
 9560SOL     OW29578   3.633   0.787   2.208
 9560SOL    HW129579   3.673   0.787   2.117
 9560SOL    HW229580   3.570   0.864   2.217
 9561SOL     OW29581   0.550   6.941   1.391
 9561SOL    HW129582   0.589   6.982   1.474
 9561SOL    HW229583   0.465   6.988   1.368
 9562SOL     OW29584   3.359   6.002   4.571
 9562SOL    HW129585   3.331   6.021   4.477
 9562SOL    HW229586   3.390   5.907   4.578
 9563SOL     OW29587   0.143   6.664   0.510
 9563SOL    HW129588   0.146   6.763   0.498
 9563SOL    HW229589   0.216   6.636   0.573
 9564SOL     OW29590   1.144   1.225   1.561
 9564SOL    HW129591   1.207   1.298   1.535
 9564SOL    HW229592   1.178   1.179   1.643
 9565SOL     OW29593   2.800   1.526   4.485
 9565SOL    HW129594   2.857   1.587   4.539
 9565SOL    HW229595   2.800   1.553   4.389
 9566SOL     OW29596   2.720   6.156   0.667
 9566SOL    HW129597   2.769   6.069   0.668
 9566SOL    HW229598   2.634   6.146   0.717
 9567SOL     OW29599   6.445   4.199   0.422
 9567SOL    HW129600   6.349   4.184   0.444
 9567SOL    HW229601   6.470   4.146   0.341
 9568SOL     OW29602   3.563   1.444   0.333
 9568SOL    HW129603   3.514   1.442   0.420
 9568SOL    HW229604   3.579   1.350   0.302
 9569SOL     OW29605   0.132   0.815   2.527
 9569SOL    HW129606   0.065   0.877   2.567
 9569SOL    HW229607   0.168   0.754   2.598
 9570SOL     OW29608   0.466   2.740   0.985
 9570SOL    HW129609   0.556   2.701   0.963
 9570SOL    HW229610   0.457   2.829   0.940
 9571SOL     OW29611   2.115   2.986   6.210
 9571SOL    HW129612   2.100   3.085   6.202
 9571SOL    HW229613   2.047   2.947   6.271
 9572SOL     OW29614   2.291   4.251   3.002
 9572SOL    HW129615   2.305   4.324   3.069
 9572SOL    HW229616   2.336   4.275   2.917
 9573SOL     OW29617   6.249   1.072   5.672
 9573SOL    HW129618   6.307   1.138   5.624
 9573SOL    HW229619   6.212   1.005   5.608
 9574SOL     OW29620   3.899   3.012   1.990
 9574SOL    HW129621   3.944   3.080   2.048
 9574SOL    HW229622   3.936   3.019   1.897
 9575SOL     OW29623   5.959   0.250   2.821
 9575SOL    HW129624   5.877   0.229   2.768
 9575SOL    HW229625   5.998   0.166   2.858
 9576SOL     OW29626   1.757   1.718   0.343
 9576SOL    HW129627   1.697   1.691   0.268
 9576SOL    HW229628   1.703   1.733   0.426
 9577SOL     OW29629   6.759   5.458   0.155
 9577SOL    HW129630   6.791   5.377   0.106
 9577SOL    HW229631   6.819   5.535   0.137
 9578SOL     OW29632   1.393   2.721   2.978
 9578SOL    HW129633   1.442   2.800   3.015
 9578SOL    HW229634   1.379   2.732   2.880
 9579SOL     OW29635   6.157   6.823   1.926
 9579SOL    HW129636   6.168   6.833   2.024
 9579SOL    HW229637   6.200   6.900   1.879
 9580SOL     OW29638   4.940   4.054   1.256
 9580SOL    HW129639   5.018   4.028   1.314
 9580SOL    HW229640   4.880   4.116   1.306
 9581SOL     OW29641   0.274   0.568   6.271
 9581SOL    HW129642   0.202   0.636   6.286
 9581SOL    HW229643   0.344   0.606   6.211
 9582SOL     OW29644   3.491   5.570   4.395
 9582SOL    HW129645   3.588   5.588   4.410
 9582SOL    HW229646   3.467   5.482   4.435
 9583SOL     OW29647   3.193   4.694   1.514
 9583SOL    HW129648   3.137   4.678   1.596
 9583SOL    HW229649   3.234   4.785   1.520
 9584SOL     OW29650   1.640   4.668   5.530
 9584SOL    HW129651   1.663   4.612   5.450
 9584SOL    HW229652   1.686   4.631   5.611
 9585SOL     OW29653   5.394   6.815   1.840
 9585SOL    HW129654   5.316   6.865   1.876
 9585SOL    HW229655   5.361   6.740   1.782
 9586SOL     OW29656   4.630   5.443   1.971
 9586SOL    HW129657   4.711   5.431   1.913
 9586SOL    HW229658   4.585   5.529   1.947
 9587SOL     OW29659   1.496   6.118   2.657
 9587SOL    HW129660   1.591   6.144   2.646
 9587SOL    HW229661   1.450   6.184   2.717
 9588SOL     OW29662   6.063   6.227   0.714
 9588SOL    HW129663   6.065   6.130   0.738
 9588SOL    HW229664   6.016   6.278   0.786
 9589SOL     OW29665   1.864   4.077   6.959
 9589SOL    HW129666   1.885   4.112   0.027
 9589SOL    HW229667   1.774   4.034   6.959
 9590SOL     OW29668   6.077   2.247   1.974
 9590SOL    HW129669   6.048   2.177   2.040
 9590SOL    HW229670   6.169   2.226   1.941
 9591SOL     OW29671   3.826   6.742   6.532
 9591SOL    HW129672   3.790   6.746   6.439
 9591SOL    HW229673   3.794   6.659   6.577
 9592SOL     OW29674   3.368   4.955   6.920
 9592SOL    HW129675   3.339   4.868   6.960
 9592SOL    HW229676   3.336   5.030   6.978
 9593SOL     OW29677   1.355   1.955   5.480
 9593SOL    HW129678   1.390   1.897   5.554
 9593SOL    HW229679   1.409   2.039   5.475
 9594SOL     OW29680   2.989   6.265   4.452
 9594SOL    HW129681   3.079   6.264   4.495
 9594SOL    HW229682   2.984   6.341   4.387
 9595SOL     OW29683   0.447   3.410   3.446
 9595SOL    HW129684   0.491   3.491   3.484
 9595SOL    HW229685   0.501   3.377   3.368
 9596SOL     OW29686   0.980   5.544   0.557
 9596SOL    HW129687   1.056   5.577   0.612
 9596SOL    HW229688   0.926   5.478   0.609
 9597SOL     OW29689   0.187   4.363   1.475
 9597SOL    HW129690   0.105   4.331   1.428
 9597SOL    HW229691   0.267   4.314   1.441
 9598SOL     OW29692   2.160   3.995   2.954
 9598SOL    HW129693   2.210   4.080   2.974
 9598SOL    HW229694   2.135   3.950   3.039
 9599SOL     OW29695   3.208   6.861   4.366
 9599SOL    HW129696   3.259   6.775   4.373
 9599SOL    HW229697   3.111   6.841   4.352
 9600SOL     OW29698   2.821   0.405   0.848
 9600SOL    HW129699   2.884   0.329   0.832
 9600SOL    HW229700   2.742   0.397   0.788
 9601SOL     OW29701   5.585   4.208   0.513
 9601SOL    HW129702   5.525   4.140   0.556
 9601SOL    HW229703   5.680   4.185   0.533
 9602SOL     OW29704   5.089   3.787   5.774
 9602SOL    HW129705   5.107   3.806   5.870
 9602SOL    HW229706   4.993   3.807   5.754
 9603SOL     OW29707   5.378   6.944   6.248
 9603SOL    HW129708   5.451   6.995   6.292
 9603SOL    HW229709   5.417   6.877   6.185
 9604SOL     OW29710   5.172   7.005   1.448
 9604SOL    HW129711   5.184   0.005   1.351
 9604SOL    HW229712   5.236   0.036   1.503
 9605SOL     OW29713   0.608   5.660   2.764
 9605SOL    HW129714   0.526   5.648   2.821
 9605SOL    HW229715   0.615   5.585   2.699
 9606SOL     OW29716   1.808   0.814   6.457
 9606SOL    HW129717   1.790   0.737   6.519
 9606SOL    HW229718   1.782   0.789   6.364
 9607SOL     OW29719   2.751   1.292   6.996
 9607SOL    HW129720   2.678   1.346   0.013
 9607SOL    HW229721   2.823   1.352   6.962
 9608SOL     OW29722   6.874   4.944   2.217
 9608SOL    HW129723   6.935   4.934   2.138
 9608SOL    HW229724   6.792   4.889   2.203
 9609SOL     OW29725   4.108   3.293   0.080
 9609SOL    HW129726   4.208   3.285   0.084
 9609SOL    HW229727   4.078   3.363   0.144
 9610SOL     OW29728   1.821   4.590   2.877
 9610SOL    HW129729   1.731   4.629   2.898
 9610SOL    HW229730   1.886   4.616   2.948
 9611SOL     OW29731   1.727   6.529   0.522
 9611SOL    HW129732   1.653   6.461   0.519
 9611SOL    HW229733   1.814   6.485   0.502
 9612SOL     OW29734   0.571   3.637   1.824
 9612SOL    HW129735   0.510   3.611   1.749
 9612SOL    HW229736   0.590   3.557   1.880
 9613SOL     OW29737   5.303   6.396   3.329
 9613SOL    HW129738   5.264   6.405   3.237
 9613SOL    HW229739   5.403   6.404   3.323
 9614SOL     OW29740   3.602   1.819   2.129
 9614SOL    HW129741   3.699   1.842   2.125
 9614SOL    HW229742   3.589   1.735   2.183
 9615SOL     OW29743   2.702   1.309   1.172
 9615SOL    HW129744   2.802   1.307   1.170
 9615SOL    HW229745   2.671   1.387   1.227
 9616SOL     OW29746   3.648   3.761   1.039
 9616SOL    HW129747   3.681   3.683   0.986
 9616SOL    HW229748   3.719   3.793   1.100
 9617SOL     OW29749   1.834   2.857   3.540
 9617SOL    HW129750   1.876   2.767   3.526
 9617SOL    HW229751   1.867   2.920   3.470
 9618SOL     OW29752   2.744   0.192   1.070
 9618SOL    HW129753   2.832   0.160   1.106
 9618SOL    HW229754   2.750   0.290   1.050
 9619SOL     OW29755   2.233   0.449   5.444
 9619SOL    HW129756   2.184   0.514   5.503
 9619SOL    HW229757   2.289   0.500   5.378
 9620SOL     OW29758   4.251   0.211   4.656
 9620SOL    HW129759   4.210   0.291   4.698
 9620SOL    HW229760   4.231   0.212   4.558
 9621SOL     OW29761   1.717   3.225   1.768
 9621SOL    HW129762   1.737   3.206   1.672
 9621SOL    HW229763   1.701   3.139   1.817
 9622SOL     OW29764   6.269   1.735   0.780
 9622SOL    HW129765   6.272   1.637   0.764
 9622SOL    HW229766   6.175   1.767   0.772
 9623SOL     OW29767   2.397   3.296   6.251
 9623SOL    HW129768   2.418   3.212   6.200
 9623SOL    HW229769   2.437   3.375   6.205
 9624SOL     OW29770   5.710   4.013   3.193
 9624SOL    HW129771   5.706   3.972   3.102
 9624SOL    HW229772   5.783   4.081   3.196
 9625SOL     OW29773   5.560   5.284   0.314
 9625SOL    HW129774   5.488   5.261   0.248
 9625SOL    HW229775   5.647   5.296   0.265
 9626SOL     OW29776   3.995   5.154   0.636
 9626SOL    HW129777   4.083   5.142   0.680
 9626SOL    HW229778   4.008   5.204   0.550
 9627SOL     OW29779   0.810   6.310   6.159
 9627SOL    HW129780   0.867   6.300   6.078
 9627SOL    HW229781   0.738   6.242   6.158
 9628SOL     OW29782   5.450   4.697   0.917
 9628SOL    HW129783   5.541   4.692   0.877
 9628SOL    HW229784   5.446   4.776   0.979
 9629SOL     OW29785   2.031   0.565   1.446
 9629SOL    HW129786   2.031   0.465   1.443
 9629SOL    HW229787   1.998   0.601   1.359
 9630SOL     OW29788   6.061   6.347   4.775
 9630SOL    HW129789   6.043   6.399   4.858
 9630SOL    HW229790   6.044   6.249   4.792
 9631SOL     OW29791   6.896   6.688   5.847
 9631SOL    HW129792   6.980   6.741   5.860
 9631SOL    HW229793   6.817   6.750   5.850
 9632SOL     OW29794   1.328   6.596   2.906
 9632SOL    HW129795   1.273   6.512   2.903
 9632SOL    HW229796   1.425   6.572   2.913
 9633SOL     OW29797   5.603   4.682   6.441
 9633SOL    HW129798   5.604   4.782   6.430
 9633SOL    HW229799   5.511   4.647   6.422
 9634SOL     OW29800   1.156   6.528   4.014
 9634SOL    HW129801   1.142   6.554   3.918
 9634SOL    HW229802   1.240   6.475   4.022
 9635SOL     OW29803   2.134   6.102   4.824
 9635SOL    HW129804   2.232   6.088   4.816
 9635SOL    HW229805   2.086   6.041   4.762
 9636SOL     OW29806   4.196   1.702   5.566
 9636SOL    HW129807   4.227   1.695   5.471
 9636SOL    HW229808   4.181   1.610   5.603
 9637SOL     OW29809   2.265   2.427   6.624
 9637SOL    HW129810   2.205   2.498   6.588
 9637SOL    HW229811   2.343   2.416   6.563
 9638SOL     OW29812   6.958   3.769   6.026
 9638SOL    HW129813   0.030   3.750   6.002
 9638SOL    HW229814   6.950   3.861   6.063
 9639SOL     OW29815   3.875   1.821   2.132
 9639SOL    HW129816   3.912   1.830   2.224
 9639SOL    HW229817   3.936   1.763   2.077
 9640SOL     OW29818   2.270   2.644   3.567
 9640SOL    HW129819   2.342   2.582   3.598
 9640SOL    HW229820   2.265   2.723   3.628
 9641SOL     OW29821   4.452   0.238   0.530
 9641SOL    HW129822   4.503   0.284   0.457
 9641SOL    HW229823   4.440   0.301   0.607
 9642SOL     OW29824   2.546   0.088   4.765
 9642SOL    HW129825   2.635   0.074   4.810
 9642SOL    HW229826   2.559   0.142   4.682
 9643SOL     OW29827   5.370   3.817   3.677
 9643SOL    HW129828   5.359   3.850   3.771
 9643SOL    HW229829   5.289   3.842   3.624
 9644SOL     OW29830   1.137   3.153   6.389
 9644SOL    HW129831   1.153   3.247   6.420
 9644SOL    HW229832   1.099   3.099   6.464
 9645SOL     OW29833   2.517   4.981   5.359
 9645SOL    HW129834   2.473   4.892   5.367
 9645SOL    HW229835   2.467   5.048   5.415
 9646SOL     OW29836   3.952   5.239   2.465
 9646SOL    HW129837   4.003   5.154   2.453
 9646SOL    HW229838   3.869   5.237   2.408
 9647SOL     OW29839   6.441   3.624   1.321
 9647SOL    HW129840   6.476   3.547   1.374
 9647SOL    HW229841   6.517   3.683   1.293
 9648SOL     OW29842   3.959   1.733   1.336
 9648SOL    HW129843   3.975   1.827   1.306
 9648SOL    HW229844   3.888   1.732   1.407
 9649SOL     OW29845   2.902   6.848   0.196
 9649SOL    HW129846   2.956   6.764   0.194
 9649SOL    HW229847   2.959   6.924   0.227
 9650SOL     OW29848   0.114   5.063   2.275
 9650SOL    HW129849   0.136   5.114   2.359
 9650SOL    HW229850   0.016   5.068   2.258
 9651SOL     OW29851   0.208   2.266   5.405
 9651SOL    HW129852   0.275   2.327   5.447
 9651SOL    HW229853   0.151   2.225   5.477
 9652SOL     OW29854   0.763   4.912   1.718
 9652SOL    HW129855   0.792   5.003   1.688
 9652SOL    HW229856   0.754   4.852   1.639
 9653SOL     OW29857   4.171   4.788   5.014
 9653SOL    HW129858   4.225   4.718   4.965
 9653SOL    HW229859   4.139   4.750   5.100
 9654SOL     OW29860   2.679   2.216   1.972
 9654SOL    HW129861   2.693   2.273   1.890
 9654SOL    HW229862   2.759   2.223   2.031
 9655SOL     OW29863   0.194   1.900   5.993
 9655SOL    HW129864   0.245   1.821   5.960
 9655SOL    HW229865   0.238   1.984   5.962
 9656SOL     OW29866   2.786   0.537   2.731
 9656SOL    HW129867   2.734   0.598   2.672
 9656SOL    HW229868   2.774   0.443   2.699
 9657SOL     OW29869   5.472   0.883   4.230
 9657SOL    HW129870   5.515   0.822   4.297
 9657SOL    HW229871   5.486   0.978   4.259
 9658SOL     OW29872   7.011   2.586   2.272
 9658SOL    HW129873   6.946   2.645   2.224
 9658SOL    HW229874   6.962   2.531   2.339
 9659SOL     OW29875   7.008   4.050   0.644
 9659SOL    HW129876   0.041   3.986   0.591
 9659SOL    HW229877   0.030   4.067   0.732
 9660SOL     OW29878   0.695   5.843   1.191
 9660SOL    HW129879   0.780   5.795   1.212
 9660SOL    HW229880   0.673   5.831   1.095
 9661SOL     OW29881   4.712   6.491   0.956
 9661SOL    HW129882   4.633   6.452   0.908
 9661SOL    HW229883   4.787   6.504   0.891
 9662SOL     OW29884   6.137   2.589   4.929
 9662SOL    HW129885   6.053   2.572   4.981
 9662SOL    HW229886   6.189   2.504   4.922
 9663SOL     OW29887   1.572   5.411   3.540
 9663SOL    HW129888   1.636   5.458   3.601
 9663SOL    HW229889   1.623   5.355   3.475
 9664SOL     OW29890   4.698   6.961   2.897
 9664SOL    HW129891   4.601   6.942   2.912
 9664SOL    HW229892   4.708   0.016   2.836
 9665SOL     OW29893   5.861   4.893   4.680
 9665SOL    HW129894   5.915   4.818   4.643
 9665SOL    HW229895   5.908   4.933   4.758
 9666SOL     OW29896   5.926   3.702   1.894
 9666SOL    HW129897   6.021   3.677   1.912
 9666SOL    HW229898   5.914   3.720   1.796
 9667SOL     OW29899   3.906   3.831   3.811
 9667SOL    HW129900   3.969   3.869   3.879
 9667SOL    HW229901   3.815   3.870   3.825
 9668SOL     OW29902   7.015   1.119   5.901
 9668SOL    HW129903   7.008   1.019   5.900
 9668SOL    HW229904   6.983   1.155   5.813
 9669SOL     OW29905   0.506   0.515   0.125
 9669SOL    HW129906   0.416   0.482   0.095
 9669SOL    HW229907   0.576   0.488   0.059
 9670SOL     OW29908   4.885   4.421   6.105
 9670SOL    HW129909   4.919   4.424   6.011
 9670SOL    HW229910   4.786   4.435   6.105
 9671SOL     OW29911   6.906   5.626   5.747
 9671SOL    HW129912   6.952   5.700   5.796
 9671SOL    HW229913   6.828   5.663   5.696
 9672SOL     OW29914   1.471   6.406   4.703
 9672SOL    HW129915   1.382   6.376   4.668
 9672SOL    HW229916   1.478   6.382   4.800
 9673SOL     OW29917   4.014   4.358   6.712
 9673SOL    HW129918   3.977   4.274   6.672
 9673SOL    HW229919   4.114   4.350   6.718
 9674SOL     OW29920   3.149   6.318   1.627
 9674SOL    HW129921   3.242   6.348   1.606
 9674SOL    HW229922   3.084   6.387   1.597
 9675SOL     OW29923   6.491   1.282   2.424
 9675SOL    HW129924   6.453   1.199   2.465
 9675SOL    HW229925   6.424   1.323   2.362
 9676SOL     OW29926   1.074   3.295   5.122
 9676SOL    HW129927   1.082   3.261   5.028
 9676SOL    HW229928   0.977   3.300   5.146
 9677SOL     OW29929   2.507   4.206   5.884
 9677SOL    HW129930   2.593   4.158   5.905
 9677SOL    HW229931   2.487   4.197   5.787
 9678SOL     OW29932   4.125   3.565   2.939
 9678SOL    HW129933   4.158   3.475   2.967
 9678SOL    HW229934   4.116   3.624   3.019
 9679SOL     OW29935   1.607   3.012   1.919
 9679SOL    HW129936   1.514   3.050   1.918
 9679SOL    HW229937   1.604   2.918   1.954
 9680SOL     OW29938   5.765   5.894   3.322
 9680SOL    HW129939   5.847   5.897   3.378
 9680SOL    HW229940   5.734   5.799   3.312
 9681SOL     OW29941   2.122   0.622   1.096
 9681SOL    HW129942   2.085   0.711   1.124
 9681SOL    HW229943   2.221   0.628   1.086
 9682SOL     OW29944   5.116   5.219   3.244
 9682SOL    HW129945   5.187   5.270   3.195
 9682SOL    HW229946   5.151   5.127   3.265
 9683SOL     OW29947   3.871   5.097   0.169
 9683SOL    HW129948   3.890   5.135   0.259
 9683SOL    HW229949   3.906   5.003   0.164
 9684SOL     OW29950   0.494   3.858   4.756
 9684SOL    HW129951   0.587   3.867   4.791
 9684SOL    HW229952   0.433   3.825   4.828
 9685SOL     OW29953   2.336   3.189   1.019
 9685SOL    HW129954   2.315   3.244   1.100
 9685SOL    HW229955   2.253   3.143   0.988
 9686SOL     OW29956   6.693   0.940   1.412
 9686SOL    HW129957   6.785   0.909   1.433
 9686SOL    HW229958   6.690   1.040   1.413
 9687SOL     OW29959   2.693   0.560   3.175
 9687SOL    HW129960   2.646   0.646   3.153
 9687SOL    HW229961   2.790   0.569   3.156
 9688SOL     OW29962   0.139   1.902   2.807
 9688SOL    HW129963   0.156   1.804   2.805
 9688SOL    HW229964   0.171   1.941   2.894
 9689SOL     OW29965   2.607   6.046   6.937
 9689SOL    HW129966   2.636   5.951   6.928
 9689SOL    HW229967   2.602   6.088   6.846
 9690SOL     OW29968   6.219   4.589   0.087
 9690SOL    HW129969   6.281   4.553   0.157
 9690SOL    HW229970   6.245   4.683   0.065
 9691SOL     OW29971   1.916   5.483   1.393
 9691SOL    HW129972   1.990   5.461   1.456
 9691SOL    HW229973   1.872   5.568   1.422
 9692SOL     OW29974   2.728   5.195   1.995
 9692SOL    HW129975   2.813   5.230   2.034
 9692SOL    HW229976   2.719   5.226   1.900
 9693SOL     OW29977   6.524   5.633   1.602
 9693SOL    HW129978   6.541   5.584   1.688
 9693SOL    HW229979   6.491   5.568   1.533
 9694SOL     OW29980   1.587   2.258   0.341
 9694SOL    HW129981   1.557   2.265   0.246
 9694SOL    HW229982   1.685   2.241   0.344
 9695SOL     OW29983   6.048   4.070   0.589
 9695SOL    HW129984   6.059   3.981   0.544
 9695SOL    HW229985   6.113   4.078   0.664
 9696SOL     OW29986   3.724   2.733   1.720
 9696SOL    HW129987   3.683   2.777   1.800
 9696SOL    HW229988   3.813   2.695   1.746
 9697SOL     OW29989   0.769   4.952   6.870
 9697SOL    HW129990   0.825   4.869   6.870
 9697SOL    HW229991   0.825   5.029   6.899
 9698SOL     OW29992   5.957   0.769   4.847
 9698SOL    HW129993   6.036   0.824   4.821
 9698SOL    HW229994   5.873   0.818   4.823
 9699SOL     OW29995   0.857   3.291   6.574
 9699SOL    HW129996   0.906   3.204   6.577
 9699SOL    HW229997   0.797   3.298   6.654
 9700SOL     OW29998   3.555   5.021   5.603
 9700SOL    HW129999   3.494   4.944   5.625
 9700SOL    HW230000   3.512   5.078   5.533
 9701SOL     OW30001   3.742   5.357   4.924
 9701SOL    HW130002   3.696   5.433   4.878
 9701SOL    HW230003   3.831   5.387   4.957
 9702SOL     OW30004   5.190   1.145   0.391
 9702SOL    HW130005   5.237   1.233   0.392
 9702SOL    HW230006   5.123   1.143   0.316
 9703SOL     OW30007   3.529   5.787   4.216
 9703SOL    HW130008   3.440   5.831   4.226
 9703SOL    HW230009   3.523   5.693   4.250
 9704SOL     OW30010   3.426   0.106   3.084
 9704SOL    HW130011   3.431   0.152   3.173
 9704SOL    HW230012   3.388   0.014   3.097
 9705SOL     OW30013   3.881   4.922   0.578
 9705SOL    HW130014   3.904   5.015   0.604
 9705SOL    HW230015   3.786   4.918   0.547
 9706SOL     OW30016   6.603   2.781   1.515
 9706SOL    HW130017   6.666   2.850   1.481
 9706SOL    HW230018   6.532   2.763   1.446
 9707SOL     OW30019   1.222   4.060   2.319
 9707SOL    HW130020   1.160   3.982   2.313
 9707SOL    HW230021   1.314   4.031   2.293
 9708SOL     OW30022   1.826   2.173   4.114
 9708SOL    HW130023   1.758   2.117   4.160
 9708SOL    HW230024   1.916   2.133   4.125
 9709SOL     OW30025   0.858   6.452   3.458
 9709SOL    HW130026   0.843   6.374   3.519
 9709SOL    HW230027   0.860   6.420   3.363
 9710SOL     OW30028   0.362   1.093   2.897
 9710SOL    HW130029   0.289   1.106   2.830
 9710SOL    HW230030   0.355   1.001   2.937
 9711SOL     OW30031   1.515   3.077   5.959
 9711SOL    HW130032   1.524   2.994   6.015
 9711SOL    HW230033   1.577   3.071   5.881
 9712SOL     OW30034   5.605   2.301   4.746
 9712SOL    HW130035   5.625   2.226   4.808
 9712SOL    HW230036   5.597   2.386   4.798
 9713SOL     OW30037   0.348   4.694   3.468
 9713SOL    HW130038   0.331   4.793   3.464
 9713SOL    HW230039   0.364   4.667   3.563
 9714SOL     OW30040   2.426   1.462   1.783
 9714SOL    HW130041   2.370   1.495   1.859
 9714SOL    HW230042   2.496   1.530   1.761
 9715SOL     OW30043   5.827   5.331   4.913
 9715SOL    HW130044   5.824   5.287   5.003
 9715SOL    HW230045   5.866   5.267   4.847
 9716SOL     OW30046   4.328   1.846   6.783
 9716SOL    HW130047   4.234   1.867   6.812
 9716SOL    HW230048   4.343   1.880   6.690
 9717SOL     OW30049   5.218   5.814   4.209
 9717SOL    HW130050   5.192   5.790   4.115
 9717SOL    HW230051   5.174   5.900   4.234
 9718SOL     OW30052   3.829   3.544   1.357
 9718SOL    HW130053   3.913   3.586   1.323
 9718SOL    HW230054   3.837   3.532   1.456
 9719SOL     OW30055   0.717   2.195   0.270
 9719SOL    HW130056   0.709   2.096   0.259
 9719SOL    HW230057   0.715   2.218   0.367
 9720SOL     OW30058   0.424   6.199   2.392
 9720SOL    HW130059   0.442   6.295   2.372
 9720SOL    HW230060   0.347   6.167   2.337
 9721SOL     OW30061   0.340   3.822   2.095
 9721SOL    HW130062   0.322   3.804   1.998
 9721SOL    HW230063   0.361   3.919   2.107
 9722SOL     OW30064   0.351   0.973   3.437
 9722SOL    HW130065   0.332   0.875   3.426
 9722SOL    HW230066   0.270   1.026   3.411
 9723SOL     OW30067   0.817   0.194   2.841
 9723SOL    HW130068   0.893   0.246   2.802
 9723SOL    HW230069   0.731   0.227   2.802
 9724SOL     OW30070   2.868   2.542   1.650
 9724SOL    HW130071   2.863   2.642   1.650
 9724SOL    HW230072   2.897   2.511   1.741
 9725SOL     OW30073   4.786   3.344   6.207
 9725SOL    HW130074   4.740   3.258   6.187
 9725SOL    HW230075   4.717   3.415   6.223
 9726SOL     OW30076   5.438   6.997   4.593
 9726SOL    HW130077   5.507   7.008   4.664
 9726SOL    HW230078   5.482   6.979   4.505
 9727SOL     OW30079   1.269   3.383   5.515
 9727SOL    HW130080   1.320   3.469   5.523
 9727SOL    HW230081   1.207   3.389   5.437
 9728SOL     OW30082   1.723   6.431   6.296
 9728SOL    HW130083   1.744   6.521   6.335
 9728SOL    HW230084   1.716   6.439   6.197
 9729SOL     OW30085   1.318   4.557   2.780
 9729SOL    HW130086   1.384   4.489   2.747
 9729SOL    HW230087   1.302   4.543   2.878
 9730SOL     OW30088   6.846   3.269   2.606
 9730SOL    HW130089   6.837   3.356   2.556
 9730SOL    HW230090   6.916   3.278   2.676
 9731SOL     OW30091   4.065   5.108   0.972
 9731SOL    HW130092   4.088   5.018   0.935
 9731SOL    HW230093   4.015   5.096   1.058
 9732SOL     OW30094   0.092   5.809   2.676
 9732SOL    HW130095   0.178   5.806   2.625
 9732SOL    HW230096   0.028   5.870   2.629
 9733SOL     OW30097   5.463   5.101   5.053
 9733SOL    HW130098   5.403   5.085   4.975
 9733SOL    HW230099   5.558   5.089   5.024
 9734SOL     OW30100   5.615   1.794   4.329
 9734SOL    HW130101   5.654   1.780   4.238
 9734SOL    HW230102   5.622   1.891   4.353
 9735SOL     OW30103   2.558   5.290   2.354
 9735SOL    HW130104   2.594   5.198   2.368
 9735SOL    HW230105   2.478   5.304   2.412
 9736SOL     OW30106   5.444   1.255   6.903
 9736SOL    HW130107   5.539   1.284   6.904
 9736SOL    HW230108   5.405   1.271   6.812
 9737SOL     OW30109   4.244   2.274   4.868
 9737SOL    HW130110   4.245   2.352   4.931
 9737SOL    HW230111   4.216   2.192   4.917
 9738SOL     OW30112   1.358   0.727   3.543
 9738SOL    HW130113   1.453   0.702   3.559
 9738SOL    HW230114   1.354   0.800   3.475
 9739SOL     OW30115   6.838   4.931   1.727
 9739SOL    HW130116   6.770   4.862   1.703
 9739SOL    HW230117   6.808   5.021   1.693
 9740SOL     OW30118   5.968   3.771   2.846
 9740SOL    HW130119   5.972   3.689   2.788
 9740SOL    HW230120   6.000   3.850   2.794
 9741SOL     OW30121   4.181   1.478   2.647
 9741SOL    HW130122   4.275   1.489   2.679
 9741SOL    HW230123   4.118   1.503   2.720
 9742SOL     OW30124   5.283   0.786   2.790
 9742SOL    HW130125   5.237   0.833   2.865
 9742SOL    HW230126   5.257   0.829   2.703
 9743SOL     OW30127   1.758   2.980   5.810
 9743SOL    HW130128   1.834   2.991   5.874
 9743SOL    HW230129   1.767   2.893   5.762
 9744SOL     OW30130   1.788   0.740   1.979
 9744SOL    HW130131   1.773   0.832   1.943
 9744SOL    HW230132   1.700   0.699   2.002
 9745SOL     OW30133   0.870   2.407   5.028
 9745SOL    HW130134   0.895   2.406   4.931
 9745SOL    HW230135   0.804   2.335   5.046
 9746SOL     OW30136   5.563   0.806   5.495
 9746SOL    HW130137   5.655   0.786   5.530
 9746SOL    HW230138   5.571   0.846   5.403
 9747SOL     OW30139   1.270   0.387   0.641
 9747SOL    HW130140   1.188   0.406   0.694
 9747SOL    HW230141   1.343   0.356   0.703
 9748SOL     OW30142   1.430   5.979   4.356
 9748SOL    HW130143   1.454   6.034   4.277
 9748SOL    HW230144   1.449   6.030   4.440
 9749SOL     OW30145   1.521   3.363   4.956
 9749SOL    HW130146   1.445   3.412   4.913
 9749SOL    HW230147   1.515   3.374   5.055
 9750SOL     OW30148   5.108   4.719   3.801
 9750SOL    HW130149   5.085   4.787   3.731
 9750SOL    HW230150   5.170   4.758   3.868
 9751SOL     OW30151   1.387   1.738   1.023
 9751SOL    HW130152   1.295   1.714   0.991
 9751SOL    HW230153   1.454   1.681   0.975
 9752SOL     OW30154   4.371   0.715   6.034
 9752SOL    HW130155   4.324   0.742   6.117
 9752SOL    HW230156   4.307   0.669   5.972
 9753SOL     OW30157   6.785   5.837   4.966
 9753SOL    HW130158   6.879   5.825   4.934
 9753SOL    HW230159   6.743   5.913   4.916
 9754SOL     OW30160   1.156   1.459   0.021
 9754SOL    HW130161   1.220   1.534   0.002
 9754SOL    HW230162   1.064   1.489   7.021
 9755SOL     OW30163   4.187   3.473   5.170
 9755SOL    HW130164   4.124   3.396   5.164
 9755SOL    HW230165   4.236   3.470   5.257
 9756SOL     OW30166   5.994   3.101   6.971
 9756SOL    HW130167   6.042   3.104   0.036
 9756SOL    HW230168   6.015   3.183   6.919
 9757SOL     OW30169   5.100   2.398   3.671
 9757SOL    HW130170   5.093   2.311   3.720
 9757SOL    HW230171   5.009   2.432   3.649
 9758SOL     OW30172   2.262   0.100   6.527
 9758SOL    HW130173   2.192   0.107   6.598
 9758SOL    HW230174   2.353   0.109   6.569
 9759SOL     OW30175   2.185   6.119   1.679
 9759SOL    HW130176   2.089   6.092   1.683
 9759SOL    HW230177   2.230   6.070   1.605
 9760SOL     OW30178   5.517   4.659   5.048
 9760SOL    HW130179   5.536   4.689   4.955
 9760SOL    HW230180   5.602   4.654   5.100
 9761SOL     OW30181   5.523   4.677   1.834
 9761SOL    HW130182   5.567   4.666   1.745
 9761SOL    HW230183   5.592   4.674   1.907
 9762SOL     OW30184   1.991   1.821   5.045
 9762SOL    HW130185   2.022   1.895   5.104
 9762SOL    HW230186   1.975   1.856   4.953
 9763SOL     OW30187   3.788   1.021   1.726
 9763SOL    HW130188   3.888   1.034   1.728
 9763SOL    HW230189   3.744   1.111   1.727
 9764SOL     OW30190   1.279   3.191   3.518
 9764SOL    HW130191   1.220   3.119   3.555
 9764SOL    HW230192   1.251   3.213   3.425
 9765SOL     OW30193   6.850   2.486   5.403
 9765SOL    HW130194   6.764   2.519   5.442
 9765SOL    HW230195   6.831   2.428   5.324
 9766SOL     OW30196   3.170   0.746   3.276
 9766SOL    HW130197   3.103   0.808   3.316
 9766SOL    HW230198   3.260   0.765   3.314
 9767SOL     OW30199   5.418   0.985   5.647
 9767SOL    HW130200   5.327   0.996   5.607
 9767SOL    HW230201   5.466   0.910   5.603
 9768SOL     OW30202   4.538   1.864   2.406
 9768SOL    HW130203   4.463   1.800   2.419
 9768SOL    HW230204   4.502   1.951   2.371
 9769SOL     OW30205   1.078   2.367   1.210
 9769SOL    HW130206   1.123   2.423   1.280
 9769SOL    HW230207   1.147   2.324   1.152
 9770SOL     OW30208   5.355   5.473   5.670
 9770SOL    HW130209   5.374   5.401   5.737
 9770SOL    HW230210   5.441   5.515   5.642
 9771SOL     OW30211   4.779   4.969   0.408
 9771SOL    HW130212   4.793   4.878   0.369
 9771SOL    HW230213   4.837   5.035   0.361
 9772SOL     OW30214   6.820   6.802   1.961
 9772SOL    HW130215   6.849   6.730   1.899
 9772SOL    HW230216   6.745   6.853   1.920
 9773SOL     OW30217   5.692   5.637   3.346
 9773SOL    HW130218   5.593   5.620   3.342
 9773SOL    HW230219   5.732   5.581   3.418
 9774SOL     OW30220   5.689   5.258   3.695
 9774SOL    HW130221   5.750   5.324   3.740
 9774SOL    HW230222   5.719   5.246   3.600
 9775SOL     OW30223   2.055   2.607   4.427
 9775SOL    HW130224   2.064   2.586   4.525
 9775SOL    HW230225   2.014   2.698   4.417
 9776SOL     OW30226   6.881   5.413   4.083
 9776SOL    HW130227   6.841   5.475   4.015
 9776SOL    HW230228   6.895   5.462   4.169
 9777SOL     OW30229   5.918   3.930   5.909
 9777SOL    HW130230   5.979   3.984   5.851
 9777SOL    HW230231   5.955   3.839   5.922
 9778SOL     OW30232   4.886   6.450   2.774
 9778SOL    HW130233   4.817   6.520   2.754
 9778SOL    HW230234   4.882   6.426   2.871
 9779SOL     OW30235   3.059   1.389   4.963
 9779SOL    HW130236   3.091   1.398   4.869
 9779SOL    HW230237   2.959   1.385   4.964
 9780SOL     OW30238   2.293   2.915   0.677
 9780SOL    HW130239   2.332   2.977   0.608
 9780SOL    HW230240   2.334   2.936   0.766
 9781SOL     OW30241   2.550   4.619   5.163
 9781SOL    HW130242   2.628   4.633   5.225
 9781SOL    HW230243   2.583   4.621   5.068
 9782SOL     OW30244   6.286   0.152   1.221
 9782SOL    HW130245   6.292   0.183   1.316
 9782SOL    HW230246   6.203   0.189   1.179
 9783SOL     OW30247   6.300   1.319   2.664
 9783SOL    HW130248   6.303   1.237   2.721
 9783SOL    HW230249   6.210   1.327   2.622
 9784SOL     OW30250   4.385   1.507   3.036
 9784SOL    HW130251   4.295   1.491   3.076
 9784SOL    HW230252   4.442   1.558   3.100
 9785SOL     OW30253   0.017   2.633   2.903
 9785SOL    HW130254   7.000   2.687   2.977
 9785SOL    HW230255   7.010   2.538   2.911
 9786SOL     OW30256   2.247   5.301   5.921
 9786SOL    HW130257   2.308   5.361   5.870
 9786SOL    HW230258   2.296   5.217   5.945
 9787SOL     OW30259   4.890   3.866   1.892
 9787SOL    HW130260   4.915   3.926   1.968
 9787SOL    HW230261   4.888   3.771   1.923
 9788SOL     OW30262   6.676   0.393   4.074
 9788SOL    HW130263   6.663   0.300   4.110
 9788SOL    HW230264   6.593   0.421   4.025
 9789SOL     OW30265   2.405   6.047   4.752
 9789SOL    HW130266   2.426   5.990   4.832
 9789SOL    HW230267   2.463   6.128   4.753
 9790SOL     OW30268   6.011   1.636   4.066
 9790SOL    HW130269   6.018   1.727   4.109
 9790SOL    HW230270   6.059   1.638   3.978
 9791SOL     OW30271   1.429   1.189   1.322
 9791SOL    HW130272   1.372   1.242   1.385
 9791SOL    HW230273   1.413   1.092   1.336
 9792SOL     OW30274   4.605   4.571   1.168
 9792SOL    HW130275   4.529   4.508   1.183
 9792SOL    HW230276   4.682   4.522   1.126
 9793SOL     OW30277   5.804   5.747   2.194
 9793SOL    HW130278   5.814   5.796   2.281
 9793SOL    HW230279   5.723   5.782   2.147
 9794SOL     OW30280   5.346   3.180   6.014
 9794SOL    HW130281   5.386   3.178   5.923
 9794SOL    HW230282   5.259   3.130   6.014
 9795SOL     OW30283   1.812   3.515   4.212
 9795SOL    HW130284   1.908   3.497   4.235
 9795SOL    HW230285   1.808   3.566   4.126
 9796SOL     OW30286   3.029   5.259   0.520
 9796SOL    HW130287   3.040   5.161   0.541
 9796SOL    HW230288   3.112   5.292   0.476
 9797SOL     OW30289   4.582   3.677   6.493
 9797SOL    HW130290   4.648   3.667   6.567
 9797SOL    HW230291   4.623   3.730   6.418
 9798SOL     OW30292   3.001   0.592   0.893
 9798SOL    HW130293   3.002   0.613   0.796
 9798SOL    HW230294   2.963   0.501   0.907
 9799SOL     OW30295   2.998   3.128   2.658
 9799SOL    HW130296   2.900   3.112   2.669
 9799SOL    HW230297   3.048   3.046   2.686
 9800SOL     OW30298   4.664   5.414   0.004
 9800SOL    HW130299   4.569   5.382   0.006
 9800SOL    HW230300   4.666   5.512   0.023
 9801SOL     OW30301   4.612   5.857   6.762
 9801SOL    HW130302   4.586   5.927   6.696
 9801SOL    HW230303   4.640   5.774   6.713
 9802SOL     OW30304   0.724   3.073   1.075
 9802SOL    HW130305   0.681   3.060   1.165
 9802SOL    HW230306   0.776   3.159   1.075
 9803SOL     OW30307   6.463   0.210   6.914
 9803SOL    HW130308   6.516   0.196   6.998
 9803SOL    HW230309   6.524   0.243   6.842
 9804SOL     OW30310   6.477   5.553   4.027
 9804SOL    HW130311   6.576   5.544   4.016
 9804SOL    HW230312   6.442   5.476   4.080
 9805SOL     OW30313   1.492   5.548   6.762
 9805SOL    HW130314   1.448   5.605   6.693
 9805SOL    HW230315   1.560   5.489   6.718
 9806SOL     OW30316   7.017   2.884   1.791
 9806SOL    HW130317   6.948   2.822   1.829
 9806SOL    HW230318   0.012   2.958   1.856
 9807SOL     OW30319   4.206   2.016   0.433
 9807SOL    HW130320   4.149   1.961   0.372
 9807SOL    HW230321   4.213   1.972   0.522
 9808SOL     OW30322   6.828   1.893   4.770
 9808SOL    HW130323   6.759   1.912   4.840
 9808SOL    HW230324   6.908   1.851   4.814
 9809SOL     OW30325   0.137   1.650   4.309
 9809SOL    HW130326   0.186   1.630   4.394
 9809SOL    HW230327   0.047   1.688   4.330
 9810SOL     OW30328   2.537   1.348   3.289
 9810SOL    HW130329   2.476   1.396   3.352
 9810SOL    HW230330   2.583   1.414   3.230
 9811SOL     OW30331   6.586   6.185   2.703
 9811SOL    HW130332   6.652   6.149   2.769
 9811SOL    HW230333   6.532   6.257   2.747
 9812SOL     OW30334   5.010   2.404   6.116
 9812SOL    HW130335   5.072   2.458   6.172
 9812SOL    HW230336   4.915   2.433   6.132
 9813SOL     OW30337   6.885   4.847   6.989
 9813SOL    HW130338   6.945   4.927   6.981
 9813SOL    HW230339   6.824   4.859   0.044
 9814SOL     OW30340   6.990   6.923   5.610
 9814SOL    HW130341   6.913   6.960   5.558
 9814SOL    HW230342   0.020   6.998   5.649
 9815SOL     OW30343   6.194   3.401   1.849
 9815SOL    HW130344   6.130   3.384   1.774
 9815SOL    HW230345   6.200   3.319   1.906
 9816SOL     OW30346   6.683   0.235   6.745
 9816SOL    HW130347   6.684   0.135   6.740
 9816SOL    HW230348   6.723   0.273   6.662
 9817SOL     OW30349   3.433   5.757   1.086
 9817SOL    HW130350   3.532   5.775   1.082
 9817SOL    HW230351   3.407   5.740   1.181
 9818SOL     OW30352   1.039   0.195   3.579
 9818SOL    HW130353   1.030   0.183   3.480
 9818SOL    HW230354   1.134   0.218   3.601
 9819SOL     OW30355   6.412   4.327   4.875
 9819SOL    HW130356   6.334   4.350   4.932
 9819SOL    HW230357   6.464   4.252   4.918
 9820SOL     OW30358   3.413   1.761   5.962
 9820SOL    HW130359   3.407   1.838   6.026
 9820SOL    HW230360   3.331   1.758   5.905
 9821SOL     OW30361   4.485   2.453   1.542
 9821SOL    HW130362   4.445   2.514   1.474
 9821SOL    HW230363   4.582   2.477   1.555
 9822SOL     OW30364   3.883   6.190   4.807
 9822SOL    HW130365   3.971   6.210   4.765
 9822SOL    HW230366   3.813   6.181   4.737
 9823SOL     OW30367   1.643   0.547   3.105
 9823SOL    HW130368   1.568   0.561   3.041
 9823SOL    HW230369   1.616   0.480   3.175
 9824SOL     OW30370   1.128   6.169   5.415
 9824SOL    HW130371   1.044   6.200   5.460
 9824SOL    HW230372   1.201   6.234   5.435
 9825SOL     OW30373   5.138   6.077   6.217
 9825SOL    HW130374   5.237   6.088   6.203
 9825SOL    HW230375   5.098   6.031   6.137
 9826SOL     OW30376   2.631   6.221   5.517
 9826SOL    HW130377   2.543   6.199   5.560
 9826SOL    HW230378   2.626   6.201   5.419
 9827SOL     OW30379   1.595   5.323   2.178
 9827SOL    HW130380   1.661   5.369   2.119
 9827SOL    HW230381   1.642   5.252   2.232
 9828SOL     OW30382   3.584   2.085   4.894
 9828SOL    HW130383   3.536   2.006   4.932
 9828SOL    HW230384   3.556   2.168   4.943
 9829SOL     OW30385   4.736   5.056   5.610
 9829SOL    HW130386   4.656   5.115   5.620
 9829SOL    HW230387   4.794   5.064   5.691
 9830SOL     OW30388   5.776   2.002   2.548
 9830SOL    HW130389   5.863   1.956   2.528
 9830SOL    HW230390   5.766   2.014   2.646
 9831SOL     OW30391   0.585   4.077   1.764
 9831SOL    HW130392   0.579   4.155   1.827
 9831SOL    HW230393   0.641   4.006   1.806
 9832SOL     OW30394   4.507   4.556   4.523
 9832SOL    HW130395   4.466   4.512   4.443
 9832SOL    HW230396   4.601   4.581   4.503
 9833SOL     OW30397   3.509   4.056   4.332
 9833SOL    HW130398   3.469   3.970   4.362
 9833SOL    HW230399   3.559   4.042   4.247
 9834SOL     OW30400   2.372   5.439   5.440
 9834SOL    HW130401   2.392   5.459   5.344
 9834SOL    HW230402   2.420   5.355   5.467
 9835SOL     OW30403   3.596   4.232   4.847
 9835SOL    HW130404   3.595   4.201   4.752
 9835SOL    HW230405   3.587   4.331   4.850
 9836SOL     OW30406   0.682   3.603   5.346
 9836SOL    HW130407   0.632   3.539   5.288
 9836SOL    HW230408   0.618   3.666   5.389
 9837SOL     OW30409   4.695   2.276   1.878
 9837SOL    HW130410   4.729   2.219   1.954
 9837SOL    HW230411   4.766   2.285   1.809
 9838SOL     OW30412   0.575   6.572   1.825
 9838SOL    HW130413   0.629   6.612   1.750
 9838SOL    HW230414   0.596   6.620   1.910
 9839SOL     OW30415   4.264   0.653   3.052
 9839SOL    HW130416   4.210   0.727   3.011
 9839SOL    HW230417   4.242   0.645   3.149
 9840SOL     OW30418   6.200   0.784   6.993
 9840SOL    HW130419   6.216   0.879   6.967
 9840SOL    HW230420   6.138   0.741   6.928
 9841SOL     OW30421   6.882   6.649   3.854
 9841SOL    HW130422   6.859   6.561   3.894
 9841SOL    HW230423   6.980   6.667   3.866
 9842SOL     OW30424   2.578   2.013   6.466
 9842SOL    HW130425   2.491   1.979   6.502
 9842SOL    HW230426   2.612   1.950   6.396
 9843SOL     OW30427   0.045   6.666   1.279
 9843SOL    HW130428   0.045   6.754   1.231
 9843SOL    HW230429   0.123   6.612   1.249
 9844SOL     OW30430   5.273   0.200   3.971
 9844SOL    HW130431   5.271   0.292   4.009
 9844SOL    HW230432   5.324   0.201   3.885
 9845SOL     OW30433   1.969   3.636   1.598
 9845SOL    HW130434   1.993   3.715   1.542
 9845SOL    HW230435   2.048   3.576   1.607
 9846SOL     OW30436   5.498   1.354   0.950
 9846SOL    HW130437   5.474   1.259   0.974
 9846SOL    HW230438   5.498   1.410   1.032
 9847SOL     OW30439   4.195   4.358   0.703
 9847SOL    HW130440   4.101   4.349   0.672
 9847SOL    HW230441   4.258   4.337   0.628
 9848SOL     OW30442   3.354   3.639   5.303
 9848SOL    HW130443   3.327   3.718   5.248
 9848SOL    HW230444   3.453   3.627   5.298
 9849SOL     OW30445   0.868   1.641   4.703
 9849SOL    HW130446   0.860   1.722   4.761
 9849SOL    HW230447   0.795   1.641   4.634
 9850SOL     OW30448   0.611   0.749   4.441
 9850SOL    HW130449   0.513   0.763   4.451
 9850SOL    HW230450   0.627   0.661   4.396
 9851SOL     OW30451   4.070   4.862   4.627
 9851SOL    HW130452   4.156   4.832   4.668
 9851SOL    HW230453   4.015   4.908   4.697
 9852SOL     OW30454   2.038   1.428   0.212
 9852SOL    HW130455   2.043   1.496   0.285
 9852SOL    HW230456   2.006   1.341   0.249
 9853SOL     OW30457   6.595   4.521   3.869
 9853SOL    HW130458   6.685   4.479   3.861
 9853SOL    HW230459   6.524   4.451   3.861
 9854SOL     OW30460   0.894   5.570   6.085
 9854SOL    HW130461   0.920   5.480   6.048
 9854SOL    HW230462   0.877   5.633   6.009
 9855SOL     OW30463   1.551   4.099   1.842
 9855SOL    HW130464   1.645   4.065   1.844
 9855SOL    HW230465   1.542   4.173   1.909
 9856SOL     OW30466   5.426   3.890   3.369
 9856SOL    HW130467   5.334   3.890   3.408
 9856SOL    HW230468   5.429   3.952   3.291
 9857SOL     OW30469   4.235   1.032   4.533
 9857SOL    HW130470   4.323   1.050   4.578
 9857SOL    HW230471   4.224   1.093   4.455
 9858SOL     OW30472   6.524   6.514   2.596
 9858SOL    HW130473   6.498   6.609   2.617
 9858SOL    HW230474   6.455   6.473   2.536
 9859SOL     OW30475   6.507   5.818   3.274
 9859SOL    HW130476   6.492   5.755   3.197
 9859SOL    HW230477   6.500   5.912   3.242
 9860SOL     OW30478   1.751   3.238   4.583
 9860SOL    HW130479   1.786   3.306   4.647
 9860SOL    HW230480   1.655   3.220   4.602
 9861SOL     OW30481   3.992   1.169   4.623
 9861SOL    HW130482   4.018   1.096   4.559
 9861SOL    HW230483   3.950   1.128   4.704
 9862SOL     OW30484   1.206   5.607   0.723
 9862SOL    HW130485   1.282   5.544   0.743
 9862SOL    HW230486   1.243   5.695   0.694
 9863SOL     OW30487   4.088   6.374   0.733
 9863SOL    HW130488   4.028   6.358   0.655
 9863SOL    HW230489   4.033   6.390   0.815
 9864SOL     OW30490   2.556   5.775   5.376
 9864SOL    HW130491   2.531   5.737   5.287
 9864SOL    HW230492   2.646   5.818   5.370
 9865SOL     OW30493   0.261   6.365   5.415
 9865SOL    HW130494   0.227   6.272   5.429
 9865SOL    HW230495   0.290   6.376   5.320
 9866SOL     OW30496   6.123   5.502   4.093
 9866SOL    HW130497   6.168   5.415   4.072
 9866SOL    HW230498   6.125   5.518   4.191
 9867SOL     OW30499   4.432   2.155   1.574
 9867SOL    HW130500   4.424   2.253   1.596
 9867SOL    HW230501   4.343   2.121   1.544
 9868SOL     OW30502   1.858   4.505   3.337
 9868SOL    HW130503   1.811   4.455   3.264
 9868SOL    HW230504   1.810   4.491   3.424
 9869SOL     OW30505   6.896   2.452   0.939
 9869SOL    HW130506   6.903   2.442   0.840
 9869SOL    HW230507   6.962   2.391   0.983
 9870SOL     OW30508   3.032   1.390   2.428
 9870SOL    HW130509   3.042   1.453   2.506
 9870SOL    HW230510   2.937   1.362   2.420
 9871SOL     OW30511   0.373   4.175   4.350
 9871SOL    HW130512   0.373   4.262   4.301
 9871SOL    HW230513   0.298   4.174   4.416
 9872SOL     OW30514   1.386   4.962   5.934
 9872SOL    HW130515   1.452   4.887   5.925
 9872SOL    HW230516   1.434   5.049   5.926
 9873SOL     OW30517   1.796   1.494   5.558
 9873SOL    HW130518   1.856   1.415   5.572
 9873SOL    HW230519   1.827   1.545   5.478
 9874SOL     OW30520   0.708   2.923   4.903
 9874SOL    HW130521   0.666   3.009   4.933
 9874SOL    HW230522   0.738   2.872   4.984
 9875SOL     OW30523   6.622   5.332   0.660
 9875SOL    HW130524   6.539   5.386   0.677
 9875SOL    HW230525   6.696   5.394   0.635
 9876SOL     OW30526   1.647   6.760   3.707
 9876SOL    HW130527   1.622   6.808   3.623
 9876SOL    HW230528   1.592   6.794   3.783
 9877SOL     OW30529   0.892   5.616   5.345
 9877SOL    HW130530   0.811   5.577   5.389
 9877SOL    HW230531   0.872   5.708   5.312
 9878SOL     OW30532   2.098   2.647   0.092
 9878SOL    HW130533   2.131   2.715   0.158
 9878SOL    HW230534   2.138   2.666   0.002
 9879SOL     OW30535   0.499   5.392   6.329
 9879SOL    HW130536   0.504   5.305   6.280
 9879SOL    HW230537   0.592   5.423   6.350
 9880SOL     OW30538   2.757   1.640   0.069
 9880SOL    HW130539   2.826   1.597   0.011
 9880SOL    HW230540   2.709   1.570   0.122
 9881SOL     OW30541   5.612   0.197   4.306
 9881SOL    HW130542   5.657   0.206   4.394
 9881SOL    HW230543   5.679   0.172   4.236
 9882SOL     OW30544   3.685   3.452   4.982
 9882SOL    HW130545   3.615   3.498   4.927
 9882SOL    HW230546   3.714   3.368   4.935
 9883SOL     OW30547   2.180   6.729   1.817
 9883SOL    HW130548   2.115   6.800   1.844
 9883SOL    HW230549   2.270   6.769   1.804
 9884SOL     OW30550   2.314   3.972   5.763
 9884SOL    HW130551   2.315   4.008   5.669
 9884SOL    HW230552   2.258   4.032   5.821
 9885SOL     OW30553   6.131   3.278   4.383
 9885SOL    HW130554   6.180   3.337   4.447
 9885SOL    HW230555   6.116   3.188   4.425
 9886SOL     OW30556   4.523   5.827   1.470
 9886SOL    HW130557   4.494   5.888   1.544
 9886SOL    HW230558   4.620   5.841   1.451
 9887SOL     OW30559   3.597   0.439   6.781
 9887SOL    HW130560   3.650   0.379   6.720
 9887SOL    HW230561   3.637   0.437   6.873
 9888SOL     OW30562   6.071   5.269   2.588
 9888SOL    HW130563   6.026   5.188   2.627
 9888SOL    HW230564   6.062   5.346   2.652
 9889SOL     OW30565   6.929   5.120   3.486
 9889SOL    HW130566   6.842   5.167   3.470
 9889SOL    HW230567   6.968   5.151   3.572
 9890SOL     OW30568   6.636   4.075   2.102
 9890SOL    HW130569   6.624   4.007   2.175
 9890SOL    HW230570   6.601   4.038   2.016
 9891SOL     OW30571   5.976   4.430   1.007
 9891SOL    HW130572   5.960   4.337   0.974
 9891SOL    HW230573   5.899   4.459   1.063
 9892SOL     OW30574   2.520   5.091   4.171
 9892SOL    HW130575   2.432   5.132   4.195
 9892SOL    HW230576   2.556   5.039   4.249
 9893SOL     OW30577   5.341   5.393   3.496
 9893SOL    HW130578   5.282   5.363   3.572
 9893SOL    HW230579   5.283   5.422   3.419
 9894SOL     OW30580   4.072   3.038   5.841
 9894SOL    HW130581   4.009   3.107   5.804
 9894SOL    HW230582   4.166   3.072   5.834
 9895SOL     OW30583   5.521   2.204   0.005
 9895SOL    HW130584   5.450   2.226   0.072
 9895SOL    HW230585   5.610   2.204   0.050
 9896SOL     OW30586   4.303   4.112   0.806
 9896SOL    HW130587   4.244   4.192   0.799
 9896SOL    HW230588   4.398   4.142   0.820
 9897SOL     OW30589   5.922   2.002   3.618
 9897SOL    HW130590   6.016   1.985   3.648
 9897SOL    HW230591   5.896   2.096   3.639
 9898SOL     OW30592   1.497   4.912   5.542
 9898SOL    HW130593   1.470   4.920   5.638
 9898SOL    HW230594   1.542   4.824   5.527
 9899SOL     OW30595   4.981   5.296   1.639
 9899SOL    HW130596   4.942   5.326   1.726
 9899SOL    HW230597   4.921   5.325   1.564
 9900SOL     OW30598   1.606   2.674   3.812
 9900SOL    HW130599   1.609   2.755   3.754
 9900SOL    HW230600   1.675   2.608   3.782
 9901SOL     OW30601   3.111   2.597   5.501
 9901SOL    HW130602   3.089   2.514   5.451
 9901SOL    HW230603   3.111   2.578   5.599
 9902SOL     OW30604   4.398   3.284   0.115
 9902SOL    HW130605   4.387   3.340   0.033
 9902SOL    HW230606   4.458   3.331   0.180
 9903SOL     OW30607   4.009   2.229   1.860
 9903SOL    HW130608   3.934   2.287   1.827
 9903SOL    HW230609   3.973   2.163   1.926
 9904SOL     OW30610   6.484   1.168   1.368
 9904SOL    HW130611   6.428   1.086   1.378
 9904SOL    HW230612   6.468   1.209   1.278
 9905SOL     OW30613   1.647   0.202   4.982
 9905SOL    HW130614   1.720   0.195   4.914
 9905SOL    HW230615   1.567   0.245   4.941
 9906SOL     OW30616   2.716   3.277   6.302
 9906SOL    HW130617   2.765   3.212   6.243
 9906SOL    HW230618   2.629   3.237   6.331
 9907SOL     OW30619   2.700   6.339   2.597
 9907SOL    HW130620   2.618   6.296   2.562
 9907SOL    HW230621   2.758   6.368   2.521
 9908SOL     OW30622   1.194   3.561   5.729
 9908SOL    HW130623   1.131   3.638   5.741
 9908SOL    HW230624   1.143   3.481   5.699
 9909SOL     OW30625   3.696   0.515   2.808
 9909SOL    HW130626   3.609   0.498   2.852
 9909SOL    HW230627   3.740   0.427   2.786
 9910SOL     OW30628   6.806   4.018   1.026
 9910SOL    HW130629   6.745   4.013   0.948
 9910SOL    HW230630   6.771   4.086   1.091
 9911SOL     OW30631   3.516   4.924   3.221
 9911SOL    HW130632   3.490   4.938   3.126
 9911SOL    HW230633   3.434   4.926   3.278
 9912SOL     OW30634   5.222   0.049   1.167
 9912SOL    HW130635   5.200   0.043   1.069
 9912SOL    HW230636   5.254   0.141   1.189
 9913SOL     OW30637   4.712   1.972   2.743
 9913SOL    HW130638   4.751   1.948   2.832
 9913SOL    HW230639   4.700   1.889   2.689
 9914SOL     OW30640   1.367   0.201   4.851
 9914SOL    HW130641   1.409   0.192   4.761
 9914SOL    HW230642   1.299   0.275   4.848
 9915SOL     OW30643   5.508   3.192   4.433
 9915SOL    HW130644   5.584   3.175   4.371
 9915SOL    HW230645   5.468   3.104   4.462
 9916SOL     OW30646   2.179   2.783   2.128
 9916SOL    HW130647   2.140   2.692   2.141
 9916SOL    HW230648   2.261   2.777   2.072
 9917SOL     OW30649   2.478   3.529   6.113
 9917SOL    HW130650   2.443   3.620   6.135
 9917SOL    HW230651   2.575   3.536   6.089
 9918SOL     OW30652   1.870   1.371   6.054
 9918SOL    HW130653   1.950   1.421   6.019
 9918SOL    HW230654   1.791   1.389   5.995
 9919SOL     OW30655   0.847   5.770   2.763
 9919SOL    HW130656   0.904   5.700   2.806
 9919SOL    HW230657   0.753   5.738   2.757
 9920SOL     OW30658   4.204   6.407   1.181
 9920SOL    HW130659   4.271   6.477   1.157
 9920SOL    HW230660   4.241   6.317   1.156
 9921SOL     OW30661   5.520   0.241   3.279
 9921SOL    HW130662   5.484   0.293   3.201
 9921SOL    HW230663   5.617   0.222   3.265
 9922SOL     OW30664   4.302   4.540   1.013
 9922SOL    HW130665   4.305   4.539   0.913
 9922SOL    HW230666   4.225   4.484   1.045
 9923SOL     OW30667   6.490   2.055   6.460
 9923SOL    HW130668   6.562   2.011   6.514
 9923SOL    HW230669   6.401   2.033   6.498
 9924SOL     OW30670   6.837   1.212   3.470
 9924SOL    HW130671   6.877   1.121   3.461
 9924SOL    HW230672   6.849   1.263   3.385
 9925SOL     OW30673   2.587   2.700   5.597
 9925SOL    HW130674   2.666   2.649   5.564
 9925SOL    HW230675   2.537   2.644   5.663
 9926SOL     OW30676   1.359   0.588   0.020
 9926SOL    HW130677   1.449   0.619   0.048
 9926SOL    HW230678   1.303   0.667   7.018
 9927SOL     OW30679   0.624   1.788   2.043
 9927SOL    HW130680   0.601   1.770   2.139
 9927SOL    HW230681   0.713   1.747   2.022
 9928SOL     OW30682   0.098   4.017   2.742
 9928SOL    HW130683   0.087   4.002   2.643
 9928SOL    HW230684   0.095   3.930   2.790
 9929SOL     OW30685   2.763   4.124   0.019
 9929SOL    HW130686   2.670   4.095   0.042
 9929SOL    HW230687   2.760   4.212   6.994
 9930SOL     OW30688   6.884   6.327   6.302
 9930SOL    HW130689   6.912   6.418   6.270
 9930SOL    HW230690   6.898   6.261   6.228
 9931SOL     OW30691   1.562   5.555   5.677
 9931SOL    HW130692   1.643   5.534   5.622
 9931SOL    HW230693   1.570   5.510   5.766
 9932SOL     OW30694   1.236   1.544   0.508
 9932SOL    HW130695   1.283   1.518   0.424
 9932SOL    HW230696   1.184   1.465   0.542
 9933SOL     OW30697   1.428   1.668   3.959
 9933SOL    HW130698   1.392   1.734   4.024
 9933SOL    HW230699   1.436   1.711   3.869
 9934SOL     OW30700   4.261   1.274   6.101
 9934SOL    HW130701   4.301   1.352   6.053
 9934SOL    HW230702   4.182   1.241   6.051
 9935SOL     OW30703   2.684   1.918   0.823
 9935SOL    HW130704   2.752   1.983   0.790
 9935SOL    HW230705   2.712   1.881   0.911
 9936SOL     OW30706   5.959   5.761   6.215
 9936SOL    HW130707   5.991   5.712   6.134
 9936SOL    HW230708   5.980   5.858   6.206
 9937SOL     OW30709   0.391   0.540   3.304
 9937SOL    HW130710   0.409   0.467   3.370
 9937SOL    HW230711   0.297   0.572   3.315
 9938SOL     OW30712   6.476   1.482   4.475
 9938SOL    HW130713   6.403   1.535   4.433
 9938SOL    HW230714   6.462   1.478   4.574
 9939SOL     OW30715   2.588   4.576   1.311
 9939SOL    HW130716   2.544   4.567   1.401
 9939SOL    HW230717   2.683   4.603   1.324
 9940SOL     OW30718   0.039   0.903   3.573
 9940SOL    HW130719   7.017   0.824   3.615
 9940SOL    HW230720   0.105   0.942   3.637
 9941SOL     OW30721   5.334   4.656   6.427
 9941SOL    HW130722   5.266   4.583   6.431
 9941SOL    HW230723   5.301   4.735   6.479
 9942SOL     OW30724   4.628   5.246   3.325
 9942SOL    HW130725   4.586   5.235   3.235
 9942SOL    HW230726   4.720   5.284   3.314
 9943SOL     OW30727   2.522   4.227   6.808
 9943SOL    HW130728   2.579   4.146   6.796
 9943SOL    HW230729   2.579   4.309   6.808
 9944SOL     OW30730   1.356   4.851   0.141
 9944SOL    HW130731   1.429   4.917   0.160
 9944SOL    HW230732   1.360   4.824   0.045
 9945SOL     OW30733   5.674   3.522   6.514
 9945SOL    HW130734   5.619   3.470   6.580
 9945SOL    HW230735   5.704   3.608   6.555
 9946SOL     OW30736   5.572   1.543   2.513
 9946SOL    HW130737   5.477   1.559   2.540
 9946SOL    HW230738   5.633   1.589   2.576
 9947SOL     OW30739   1.279   1.476   3.823
 9947SOL    HW130740   1.304   1.528   3.905
 9947SOL    HW230741   1.197   1.514   3.782
 9948SOL     OW30742   6.113   6.614   4.415
 9948SOL    HW130743   6.072   6.588   4.503
 9948SOL    HW230744   6.060   6.688   4.374
 9949SOL     OW30745   5.626   4.878   4.081
 9949SOL    HW130746   5.641   4.929   4.166
 9949SOL    HW230747   5.600   4.941   4.008
 9950SOL     OW30748   6.279   4.983   5.282
 9950SOL    HW130749   6.310   5.046   5.354
 9950SOL    HW230750   6.358   4.952   5.229
 9951SOL     OW30751   0.747   2.398   2.007
 9951SOL    HW130752   0.847   2.396   2.003
 9951SOL    HW230753   0.710   2.401   1.914
 9952SOL     OW30754   0.707   4.554   1.842
 9952SOL    HW130755   0.622   4.544   1.895
 9952SOL    HW230756   0.687   4.543   1.745
 9953SOL     OW30757   6.006   2.697   3.481
 9953SOL    HW130758   6.051   2.783   3.457
 9953SOL    HW230759   5.942   2.671   3.409
 9954SOL     OW30760   3.478   1.885   5.626
 9954SOL    HW130761   3.429   1.798   5.629
 9954SOL    HW230762   3.566   1.872   5.580
 9955SOL     OW30763   6.060   3.343   0.297
 9955SOL    HW130764   6.049   3.395   0.382
 9955SOL    HW230765   5.975   3.348   0.244
 9956SOL     OW30766   2.072   3.879   3.202
 9956SOL    HW130767   2.092   3.865   3.299
 9956SOL    HW230768   1.988   3.830   3.179
 9957SOL     OW30769   4.960   6.756   0.925
 9957SOL    HW130770   5.051   6.796   0.937
 9957SOL    HW230771   4.938   6.700   1.006
 9958SOL     OW30772   4.863   4.635   0.015
 9958SOL    HW130773   4.846   4.696   6.960
 9958SOL    HW230774   4.793   4.564   0.017
 9959SOL     OW30775   4.624   4.429   0.463
 9959SOL    HW130776   4.605   4.522   0.432
 9959SOL    HW230777   4.664   4.432   0.555
 9960SOL     OW30778   0.925   0.672   6.535
 9960SOL    HW130779   0.933   0.710   6.443
 9960SOL    HW230780   1.010   0.687   6.585
 9961SOL     OW30781   3.002   4.999   1.425
 9961SOL    HW130782   3.101   5.004   1.407
 9961SOL    HW230783   2.971   4.905   1.415
 9962SOL     OW30784   3.391   6.416   1.546
 9962SOL    HW130785   3.406   6.460   1.458
 9962SOL    HW230786   3.398   6.485   1.619
 9963SOL     OW30787   1.299   1.564   6.162
 9963SOL    HW130788   1.235   1.498   6.122
 9963SOL    HW230789   1.392   1.533   6.146
 9964SOL     OW30790   4.772   3.716   5.563
 9964SOL    HW130791   4.802   3.715   5.468
 9964SOL    HW230792   4.714   3.636   5.581
 9965SOL     OW30793   3.085   5.779   4.395
 9965SOL    HW130794   3.048   5.742   4.310
 9965SOL    HW230795   3.178   5.744   4.409
 9966SOL     OW30796   3.921   4.922   2.385
 9966SOL    HW130797   4.018   4.914   2.408
 9966SOL    HW230798   3.867   4.872   2.452
 9967SOL     OW30799   6.490   0.173   2.953
 9967SOL    HW130800   6.462   0.174   2.857
 9967SOL    HW230801   6.477   0.082   2.990
 9968SOL     OW30802   3.918   6.633   0.552
 9968SOL    HW130803   3.884   6.622   0.459
 9968SOL    HW230804   3.912   6.546   0.601
 9969SOL     OW30805   1.489   5.336   3.853
 9969SOL    HW130806   1.560   5.276   3.816
 9969SOL    HW230807   1.528   5.425   3.875
 9970SOL     OW30808   6.148   3.855   1.619
 9970SOL    HW130809   6.049   3.850   1.610
 9970SOL    HW230810   6.181   3.945   1.588
 9971SOL     OW30811   0.493   4.445   2.403
 9971SOL    HW130812   0.480   4.464   2.306
 9971SOL    HW230813   0.561   4.371   2.414
 9972SOL     OW30814   2.907   3.206   0.069
 9972SOL    HW130815   2.918   3.303   0.047
 9972SOL    HW230816   2.922   3.192   0.167
 9973SOL     OW30817   3.510   1.595   3.613
 9973SOL    HW130818   3.458   1.510   3.614
 9973SOL    HW230819   3.447   1.672   3.621
 9974SOL     OW30820   0.865   3.061   2.960
 9974SOL    HW130821   0.781   3.012   2.937
 9974SOL    HW230822   0.939   2.996   2.974
 9975SOL     OW30823   1.575   5.292   6.893
 9975SOL    HW130824   1.561   5.204   6.939
 9975SOL    HW230825   1.642   5.281   6.820
 9976SOL     OW30826   3.016   3.915   6.308
 9976SOL    HW130827   3.025   3.849   6.382
 9976SOL    HW230828   3.037   4.007   6.343
 9977SOL     OW30829   5.031   6.315   5.201
 9977SOL    HW130830   5.011   6.226   5.242
 9977SOL    HW230831   4.965   6.334   5.128
 9978SOL     OW30832   0.828   3.063   6.227
 9978SOL    HW130833   0.751   3.000   6.228
 9978SOL    HW230834   0.795   3.157   6.238
 9979SOL     OW30835   4.473   3.168   5.334
 9979SOL    HW130836   4.420   3.189   5.417
 9979SOL    HW230837   4.515   3.252   5.300
 9980SOL     OW30838   1.638   0.528   0.442
 9980SOL    HW130839   1.725   0.556   0.484
 9980SOL    HW230840   1.563   0.579   0.483
 9981SOL     OW30841   0.505   2.912   1.605
 9981SOL    HW130842   0.411   2.897   1.635
 9981SOL    HW230843   0.533   2.839   1.543
 9982SOL     OW30844   2.348   1.955   5.679
 9982SOL    HW130845   2.390   2.038   5.642
 9982SOL    HW230846   2.263   1.979   5.726
 9983SOL     OW30847   0.279   3.328   1.733
 9983SOL    HW130848   0.370   3.292   1.712
 9983SOL    HW230849   0.285   3.390   1.811
 9984SOL     OW30850   6.444   6.409   0.463
 9984SOL    HW130851   6.447   6.380   0.368
 9984SOL    HW230852   6.408   6.335   0.520
 9985SOL     OW30853   4.373   5.518   0.674
 9985SOL    HW130854   4.299   5.481   0.619
 9985SOL    HW230855   4.337   5.550   0.762
 9986SOL     OW30856   4.866   4.215   0.353
 9986SOL    HW130857   4.931   4.154   0.397
 9986SOL    HW230858   4.806   4.256   0.422
 9987SOL     OW30859   5.512   2.948   1.767
 9987SOL    HW130860   5.546   3.028   1.816
 9987SOL    HW230861   5.412   2.942   1.778
 9988SOL     OW30862   5.229   6.190   4.435
 9988SOL    HW130863   5.313   6.212   4.385
 9988SOL    HW230864   5.212   6.260   4.504
 9989SOL     OW30865   6.424   5.282   2.088
 9989SOL    HW130866   6.499   5.259   2.026
 9989SOL    HW230867   6.408   5.380   2.085
 9990SOL     OW30868   0.396   0.267   3.953
 9990SOL    HW130869   0.353   0.182   3.922
 9990SOL    HW230870   0.421   0.322   3.874
 9991SOL     OW30871   1.861   4.252   4.464
 9991SOL    HW130872   1.842   4.273   4.560
 9991SOL    HW230873   1.942   4.194   4.459
 9992SOL     OW30874   3.286   4.740   0.859
 9992SOL    HW130875   3.273   4.835   0.887
 9992SOL    HW230876   3.216   4.715   0.792
 9993SOL     OW30877   3.909   6.965   4.300
 9993SOL    HW130878   3.905   6.877   4.349
 9993SOL    HW230879   3.836   0.002   4.334
 9994SOL     OW30880   6.623   4.966   4.307
 9994SOL    HW130881   6.598   5.039   4.244
 9994SOL    HW230882   6.675   4.896   4.258
 9995SOL     OW30883   2.903   0.841   5.077
 9995SOL    HW130884   2.887   0.764   5.138
 9995SOL    HW230885   2.858   0.823   4.989
 9996SOL     OW30886   1.798   4.201   0.724
 9996SOL    HW130887   1.881   4.162   0.763
 9996SOL    HW230888   1.773   4.151   0.641
 9997SOL     OW30889   6.287   3.053   4.135
 9997SOL    HW130890   6.342   3.062   4.218
 9997SOL    HW230891   6.191   3.067   4.157
 9998SOL     OW30892   5.260   3.981   2.814
 9998SOL    HW130893   5.286   3.991   2.718
 9998SOL    HW230894   5.168   4.017   2.828
 9999SOL     OW30895   0.215   6.550   4.269
 9999SOL    HW130896   0.126   6.557   4.225
 9999SOL    HW230897   0.226   6.458   4.307
10000SOL     OW30898   4.988   1.939   1.470
10000SOL    HW130899   4.978   1.968   1.374
10000SOL    HW230900   4.902   1.954   1.518
10001SOL     OW30901   3.647   6.020   1.942
10001SOL    HW130902   3.590   6.077   2.001
10001SOL    HW230903   3.634   6.046   1.846
10002SOL     OW30904   2.359   0.646   1.675
10002SOL    HW130905   2.412   0.660   1.590
10002SOL    HW230906   2.420   0.652   1.753
10003SOL     OW30907   1.633   1.256   3.289
10003SOL    HW130908   1.572   1.250   3.369
10003SOL    HW230909   1.715   1.203   3.307
10004SOL     OW30910   6.317   4.791   4.865
10004SOL    HW130911   6.217   4.795   4.861
10004SOL    HW230912   6.355   4.879   4.835
10005SOL     OW30913   2.146   5.940   3.309
10005SOL    HW130914   2.090   6.001   3.253
10005SOL    HW230915   2.128   5.959   3.406
10006SOL     OW30916   5.247   0.238   5.731
10006SOL    HW130917   5.283   0.219   5.822
10006SOL    HW230918   5.165   0.183   5.716
10007SOL     OW30919   1.259   4.762   4.804
10007SOL    HW130920   1.182   4.706   4.833
10007SOL    HW230921   1.293   4.815   4.881
10008SOL     OW30922   3.969   1.887   5.352
10008SOL    HW130923   3.879   1.928   5.364
10008SOL    HW230924   4.018   1.887   5.439
10009SOL     OW30925   1.459   4.537   1.550
10009SOL    HW130926   1.449   4.548   1.452
10009SOL    HW230927   1.368   4.527   1.592
10010SOL     OW30928   2.528   4.993   6.901
10010SOL    HW130929   2.621   4.990   6.937
10010SOL    HW230930   2.527   5.040   6.813
10011SOL     OW30931   0.874   3.514   0.505
10011SOL    HW130932   0.893   3.519   0.603
10011SOL    HW230933   0.786   3.469   0.490
10012SOL     OW30934   5.009   1.311   1.557
10012SOL    HW130935   5.108   1.318   1.567
10012SOL    HW230936   4.987   1.258   1.475
10013SOL     OW30937   1.277   6.063   4.887
10013SOL    HW130938   1.258   6.001   4.811
10013SOL    HW230939   1.231   6.029   4.969
10014SOL     OW30940   0.579   6.826   3.372
10014SOL    HW130941   0.506   6.788   3.429
10014SOL    HW230942   0.668   6.795   3.407
10015SOL     OW30943   3.766   4.681   5.590
10015SOL    HW130944   3.807   4.590   5.595
10015SOL    HW230945   3.800   4.729   5.509
10016SOL     OW30946   1.955   6.793   3.745
10016SOL    HW130947   1.894   6.770   3.669
10016SOL    HW230948   2.050   6.793   3.712
10017SOL     OW30949   2.563   1.860   2.912
10017SOL    HW130950   2.541   1.944   2.863
10017SOL    HW230951   2.562   1.878   3.011
10018SOL     OW30952   6.561   3.532   5.717
10018SOL    HW130953   6.646   3.541   5.769
10018SOL    HW230954   6.576   3.470   5.640
10019SOL     OW30955   0.754   1.630   2.755
10019SOL    HW130956   0.826   1.600   2.818
10019SOL    HW230957   0.790   1.703   2.697
10020SOL     OW30958   6.727   0.545   2.028
10020SOL    HW130959   6.701   0.515   2.120
10020SOL    HW230960   6.677   0.629   2.005
10021SOL     OW30961   1.359   4.142   1.672
10021SOL    HW130962   1.301   4.202   1.726
10021SOL    HW230963   1.449   4.134   1.716
10022SOL     OW30964   3.085   6.529   0.493
10022SOL    HW130965   3.167   6.504   0.544
10022SOL    HW230966   3.019   6.453   0.495
10023SOL     OW30967   2.690   7.022   5.976
10023SOL    HW130968   2.607   0.031   6.021
10023SOL    HW230969   2.676   7.021   5.877
10024SOL     OW30970   1.577   4.633   2.997
10024SOL    HW130971   1.493   4.579   3.000
10024SOL    HW230972   1.573   4.704   3.067
10025SOL     OW30973   1.419   4.169   1.418
10025SOL    HW130974   1.372   4.160   1.506
10025SOL    HW230975   1.477   4.250   1.419
10026SOL     OW30976   4.860   1.288   3.132
10026SOL    HW130977   4.787   1.355   3.144
10026SOL    HW230978   4.849   1.242   3.044
10027SOL     OW30979   1.835   1.970   5.832
10027SOL    HW130980   1.778   1.980   5.751
10027SOL    HW230981   1.791   2.016   5.909
10028SOL     OW30982   4.003   0.464   1.478
10028SOL    HW130983   4.021   0.469   1.380
10028SOL    HW230984   4.081   0.422   1.525
10029SOL     OW30985   0.260   3.279   4.462
10029SOL    HW130986   0.182   3.336   4.487
10029SOL    HW230987   0.258   3.194   4.516
10030SOL     OW30988   2.704   6.480   4.856
10030SOL    HW130989   2.720   6.549   4.927
10030SOL    HW230990   2.735   6.516   4.768
10031SOL     OW30991   3.674   5.196   4.406
10031SOL    HW130992   3.662   5.098   4.424
10031SOL    HW230993   3.765   5.224   4.435
10032SOL     OW30994   3.233   5.951   5.257
10032SOL    HW130995   3.325   5.924   5.283
10032SOL    HW230996   3.188   5.876   5.209
10033SOL     OW30997   4.166   1.596   3.262
10033SOL    HW130998   4.164   1.688   3.224
10033SOL    HW230999   4.129   1.597   3.355
10034SOL     OW31000   1.983   0.738   3.373
10034SOL    HW131001   1.914   0.772   3.309
10034SOL    HW231002   2.073   0.772   3.346
10035SOL     OW31003   6.258   2.902   0.775
10035SOL    HW131004   6.177   2.846   0.795
10035SOL    HW231005   6.229   2.994   0.751
10036SOL     OW31006   6.521   0.716   6.179
10036SOL    HW131007   6.451   0.655   6.215
10036SOL    HW231008   6.599   0.717   6.242
10037SOL     OW31009   6.535   6.838   6.404
10037SOL    HW131010   6.449   6.791   6.423
10037SOL    HW231011   6.541   6.921   6.459
10038SOL     OW31012   4.219   0.223   0.150
10038SOL    HW131013   4.162   0.303   0.135
10038SOL    HW231014   4.310   0.240   0.112
10039SOL     OW31015   5.319   5.092   4.382
10039SOL    HW131016   5.323   5.073   4.284
10039SOL    HW231017   5.341   5.188   4.398
10040SOL     OW31018   3.922   0.212   0.443
10040SOL    HW131019   4.021   0.225   0.446
10040SOL    HW231020   3.877   0.300   0.432
10041SOL     OW31021   6.277   4.776   5.584
10041SOL    HW131022   6.183   4.807   5.589
10041SOL    HW231023   6.328   4.833   5.518
10042SOL     OW31024   0.471   1.282   5.176
10042SOL    HW131025   0.471   1.276   5.076
10042SOL    HW231026   0.553   1.239   5.212
10043SOL     OW31027   1.088   0.716   3.139
10043SOL    HW131028   1.145   0.634   3.133
10043SOL    HW231029   0.993   0.689   3.156
10044SOL     OW31030   2.004   0.782   4.902
10044SOL    HW131031   1.982   0.822   4.991
10044SOL    HW231032   2.022   0.684   4.913
10045SOL     OW31033   4.564   6.755   4.403
10045SOL    HW131034   4.576   6.831   4.340
10045SOL    HW231035   4.651   6.707   4.414
10046SOL     OW31036   7.021   2.133   1.606
10046SOL    HW131037   0.068   2.062   1.594
10046SOL    HW231038   0.040   2.223   1.589
10047SOL     OW31039   6.288   2.325   4.968
10047SOL    HW131040   6.204   2.273   4.978
10047SOL    HW231041   6.346   2.282   4.898
10048SOL     OW31042   3.445   1.250   1.741
10048SOL    HW131043   3.479   1.342   1.762
10048SOL    HW231044   3.522   1.186   1.737
10049SOL     OW31045   1.859   0.286   6.417
10049SOL    HW131046   1.831   0.303   6.511
10049SOL    HW231047   1.819   0.200   6.385
10050SOL     OW31048   5.218   2.810   4.711
10050SOL    HW131049   5.127   2.816   4.670
10050SOL    HW231050   5.249   2.902   4.735
10051SOL     OW31051   6.829   3.116   4.387
10051SOL    HW131052   6.828   3.200   4.333
10051SOL    HW231053   6.855   3.039   4.328
10052SOL     OW31054   1.836   3.528   1.841
10052SOL    HW131055   1.898   3.513   1.764
10052SOL    HW231056   1.753   3.474   1.827
10053SOL     OW31057   3.704   4.897   3.453
10053SOL    HW131058   3.606   4.879   3.457
10053SOL    HW231059   3.723   4.962   3.379
10054SOL     OW31060   4.643   5.662   6.312
10054SOL    HW131061   4.579   5.653   6.388
10054SOL    HW231062   4.608   5.730   6.247
10055SOL     OW31063   6.686   2.568   5.171
10055SOL    HW131064   6.688   2.528   5.262
10055SOL    HW231065   6.595   2.555   5.131
10056SOL     OW31066   6.065   4.692   0.920
10056SOL    HW131067   5.992   4.759   0.908
10056SOL    HW231068   6.025   4.602   0.938
10057SOL     OW31069   3.969   1.893   4.462
10057SOL    HW131070   3.873   1.919   4.449
10057SOL    HW231071   4.002   1.929   4.549
10058SOL     OW31072   6.151   4.875   3.661
10058SOL    HW131073   6.078   4.818   3.700
10058SOL    HW231074   6.113   4.932   3.588
10059SOL     OW31075   5.146   6.998   0.896
10059SOL    HW131076   5.215   6.951   0.841
10059SOL    HW231077   5.151   0.073   0.879
10060SOL     OW31078   3.073   2.096   2.126
10060SOL    HW131079   3.015   2.176   2.111
10060SOL    HW231080   3.133   2.082   2.048
10061SOL     OW31081   6.242   1.043   4.148
10061SOL    HW131082   6.201   1.059   4.059
10061SOL    HW231083   6.236   0.946   4.170
10062SOL     OW31084   6.167   6.504   3.668
10062SOL    HW131085   6.121   6.462   3.745
10062SOL    HW231086   6.185   6.601   3.688
10063SOL     OW31087   1.225   2.686   3.200
10063SOL    HW131088   1.292   2.676   3.273
10063SOL    HW231089   1.271   2.674   3.111
10064SOL     OW31090   5.235   5.112   4.839
10064SOL    HW131091   5.185   5.059   4.770
10064SOL    HW231092   5.247   5.206   4.806
10065SOL     OW31093   1.373   7.006   2.039
10065SOL    HW131094   1.334   6.947   2.109
10065SOL    HW231095   1.466   0.009   2.066
10066SOL     OW31096   0.317   1.422   4.085
10066SOL    HW131097   0.396   1.412   4.147
10066SOL    HW231098   0.281   1.515   4.093
10067SOL     OW31099   5.360   4.699   4.416
10067SOL    HW131100   5.455   4.725   4.428
10067SOL    HW231101   5.322   4.668   4.504
10068SOL     OW31102   5.612   2.921   4.903
10068SOL    HW131103   5.641   3.012   4.871
10068SOL    HW231104   5.676   2.852   4.870
10069SOL     OW31105   2.237   0.820   3.625
10069SOL    HW131106   2.190   0.905   3.602
10069SOL    HW231107   2.329   0.820   3.585
10070SOL     OW31108   0.233   6.248   4.907
10070SOL    HW131109   0.331   6.263   4.912
10070SOL    HW231110   0.199   6.217   4.995
10071SOL     OW31111   4.684   5.231   3.828
10071SOL    HW131112   4.693   5.316   3.777
10071SOL    HW231113   4.595   5.229   3.874
10072SOL     OW31114   0.405   6.367   3.773
10072SOL    HW131115   0.481   6.369   3.707
10072SOL    HW231116   0.403   6.278   3.818
10073SOL     OW31117   6.334   4.679   4.607
10073SOL    HW131118   6.385   4.678   4.693
10073SOL    HW231119   6.236   4.674   4.627
10074SOL     OW31120   1.351   6.715   5.660
10074SOL    HW131121   1.293   6.785   5.619
10074SOL    HW231122   1.346   6.720   5.759
10075SOL     OW31123   1.400   2.300   2.984
10075SOL    HW131124   1.418   2.334   3.076
10075SOL    HW231125   1.301   2.304   2.966
10076SOL     OW31126   4.883   0.197   4.586
10076SOL    HW131127   4.865   0.292   4.609
10076SOL    HW231128   4.802   0.156   4.543
10077SOL     OW31129   3.978   2.299   6.556
10077SOL    HW131130   3.917   2.255   6.489
10077SOL    HW231131   3.971   2.398   6.548
10078SOL     OW31132   6.405   5.941   4.618
10078SOL    HW131133   6.395   6.038   4.596
10078SOL    HW231134   6.340   5.915   4.689
10079SOL     OW31135   1.581   3.068   2.185
10079SOL    HW131136   1.635   3.101   2.263
10079SOL    HW231137   1.632   3.083   2.101
10080SOL     OW31138   2.463   2.711   0.205
10080SOL    HW131139   2.473   2.769   0.286
10080SOL    HW231140   2.533   2.639   0.206
10081SOL     OW31141   0.895   0.360   5.975
10081SOL    HW131142   0.947   0.325   6.053
10081SOL    HW231143   0.849   0.284   5.929
10082SOL     OW31144   6.507   2.354   2.196
10082SOL    HW131145   6.430   2.406   2.159
10082SOL    HW231146   6.475   2.266   2.229
10083SOL     OW31147   4.625   1.406   3.717
10083SOL    HW131148   4.547   1.363   3.672
10083SOL    HW231149   4.706   1.348   3.706
10084SOL     OW31150   3.388   0.456   6.186
10084SOL    HW131151   3.401   0.453   6.285
10084SOL    HW231152   3.357   0.367   6.153
10085SOL     OW31153   0.532   5.075   3.064
10085SOL    HW131154   0.479   5.091   3.147
10085SOL    HW231155   0.499   5.135   2.991
10086SOL     OW31156   5.979   4.952   2.245
10086SOL    HW131157   6.066   4.927   2.201
10086SOL    HW231158   5.988   5.042   2.287
10087SOL     OW31159   1.119   1.160   4.344
10087SOL    HW131160   1.068   1.079   4.375
10087SOL    HW231161   1.062   1.241   4.355
10088SOL     OW31162   0.380   0.181   5.415
10088SOL    HW131163   0.401   0.160   5.510
10088SOL    HW231164   0.462   0.172   5.360
10089SOL     OW31165   2.841   1.477   2.911
10089SOL    HW131166   2.932   1.434   2.913
10089SOL    HW231167   2.846   1.562   2.860
10090SOL     OW31168   1.016   4.462   0.865
10090SOL    HW131169   1.072   4.397   0.815
10090SOL    HW231170   1.074   4.513   0.930
10091SOL     OW31171   1.317   3.729   4.602
10091SOL    HW131172   1.393   3.781   4.640
10091SOL    HW231173   1.335   3.707   4.506
10092SOL     OW31174   1.627   3.800   5.294
10092SOL    HW131175   1.565   3.736   5.247
10092SOL    HW231176   1.605   3.801   5.391
10093SOL     OW31177   0.501   5.061   5.170
10093SOL    HW131178   0.593   5.021   5.162
10093SOL    HW231179   0.449   5.041   5.087
10094SOL     OW31180   2.442   0.446   2.461
10094SOL    HW131181   2.438   0.405   2.370
10094SOL    HW231182   2.533   0.431   2.500
10095SOL     OW31183   5.949   1.485   5.132
10095SOL    HW131184   5.897   1.400   5.138
10095SOL    HW231185   5.963   1.509   5.036
10096SOL     OW31186   6.421   5.205   2.694
10096SOL    HW131187   6.387   5.294   2.665
10096SOL    HW231188   6.497   5.177   2.636
10097SOL     OW31189   0.960   0.810   7.011
10097SOL    HW131190   0.946   0.728   0.044
10097SOL    HW231191   0.893   0.880   0.014
10098SOL     OW31192   1.832   5.871   5.823
10098SOL    HW131193   1.734   5.871   5.841
10098SOL    HW231194   1.862   5.963   5.798
10099SOL     OW31195   0.211   3.899   5.867
10099SOL    HW131196   0.202   3.825   5.800
10099SOL    HW231197   0.226   3.985   5.820
10100SOL     OW31198   4.935   0.472   4.938
10100SOL    HW131199   4.984   0.435   4.859
10100SOL    HW231200   4.859   0.529   4.906
10101SOL     OW31201   6.888   4.428   2.134
10101SOL    HW131202   6.919   4.333   2.131
10101SOL    HW231203   6.921   4.471   2.218
10102SOL     OW31204   2.883   0.919   3.128
10102SOL    HW131205   2.820   0.997   3.120
10102SOL    HW231206   2.940   0.931   3.210
10103SOL     OW31207   3.494   1.434   4.981
10103SOL    HW131208   3.483   1.421   4.882
10103SOL    HW231209   3.416   1.485   5.017
10104SOL     OW31210   0.320   4.205   4.960
10104SOL    HW131211   0.351   4.300   4.965
10104SOL    HW231212   0.360   4.161   4.880
10105SOL     OW31213   1.577   1.485   6.165
10105SOL    HW131214   1.591   1.422   6.088
10105SOL    HW231215   1.652   1.476   6.230
10106SOL     OW31216   5.341   4.731   0.670
10106SOL    HW131217   5.366   4.666   0.598
10106SOL    HW231218   5.396   4.712   0.752
10107SOL     OW31219   6.495   1.699   5.952
10107SOL    HW131220   6.531   1.788   5.981
10107SOL    HW231221   6.534   1.627   6.009
10108SOL     OW31222   6.201   6.482   6.963
10108SOL    HW131223   6.181   6.436   0.027
10108SOL    HW231224   6.232   6.415   6.896
10109SOL     OW31225   4.256   6.253   2.753
10109SOL    HW131226   4.318   6.307   2.696
10109SOL    HW231227   4.193   6.202   2.694
10110SOL     OW31228   4.011   6.670   5.354
10110SOL    HW131229   3.957   6.752   5.335
10110SOL    HW231230   3.989   6.600   5.286
10111SOL     OW31231   6.976   3.901   3.634
10111SOL    HW131232   0.022   3.875   3.702
10111SOL    HW231233   7.018   3.905   3.544
10112SOL     OW31234   6.140   3.664   5.328
10112SOL    HW131235   6.237   3.651   5.351
10112SOL    HW231236   6.131   3.743   5.267
10113SOL     OW31237   4.181   1.142   6.996
10113SOL    HW131238   4.094   1.094   7.010
10113SOL    HW231239   4.165   1.241   6.999
10114SOL     OW31240   5.704   1.100   0.540
10114SOL    HW131241   5.650   1.085   0.622
10114SOL    HW231242   5.661   1.054   0.462
10115SOL     OW31243   2.497   2.089   3.406
10115SOL    HW131244   2.435   2.127   3.474
10115SOL    HW231245   2.584   2.139   3.407
10116SOL     OW31246   0.952   6.826   1.477
10116SOL    HW131247   1.002   6.781   1.404
10116SOL    HW231248   0.880   6.884   1.438
10117SOL     OW31249   6.373   0.279   4.450
10117SOL    HW131250   6.368   0.295   4.352
10117SOL    HW231251   6.466   0.250   4.474
10118SOL     OW31252   6.953   4.961   2.729
10118SOL    HW131253   6.950   5.050   2.775
10118SOL    HW231254   6.992   4.893   2.791
10119SOL     OW31255   2.418   6.718   4.239
10119SOL    HW131256   2.323   6.696   4.257
10119SOL    HW231257   2.455   6.774   4.314
10120SOL     OW31258   0.780   3.148   3.980
10120SOL    HW131259   0.752   3.207   4.056
10120SOL    HW231260   0.796   3.055   4.014
10121SOL     OW31261   6.660   5.115   5.050
10121SOL    HW131262   6.622   5.199   5.013
10121SOL    HW231263   6.739   5.087   4.995
10122SOL     OW31264   5.829   2.666   0.172
10122SOL    HW131265   5.865   2.696   0.260
10122SOL    HW231266   5.747   2.611   0.187
10123SOL     OW31267   6.395   5.940   0.345
10123SOL    HW131268   6.310   5.950   0.294
10123SOL    HW231269   6.467   5.994   0.301
10124SOL     OW31270   2.468   4.035   0.062
10124SOL    HW131271   2.390   4.097   0.073
10124SOL    HW231272   2.442   3.958   0.004
10125SOL     OW31273   1.887   0.620   2.662
10125SOL    HW131274   1.914   0.711   2.630
10125SOL    HW231275   1.913   0.552   2.594
10126SOL     OW31276   6.238   5.359   6.135
10126SOL    HW131277   6.318   5.304   6.159
10126SOL    HW231278   6.242   5.446   6.184
10127SOL     OW31279   3.083   5.475   6.238
10127SOL    HW131280   3.107   5.511   6.148
10127SOL    HW231281   3.091   5.548   6.306
10128SOL     OW31282   0.545   1.256   1.164
10128SOL    HW131283   0.465   1.200   1.186
10128SOL    HW231284   0.608   1.255   1.242
10129SOL     OW31285   4.589   2.662   3.713
10129SOL    HW131286   4.589   2.655   3.813
10129SOL    HW231287   4.545   2.581   3.674
10130SOL     OW31288   1.481   4.816   2.114
10130SOL    HW131289   1.416   4.800   2.188
10130SOL    HW231290   1.553   4.746   2.118
10131SOL     OW31291   0.541   1.796   2.801
10131SOL    HW131292   0.568   1.842   2.886
10131SOL    HW231293   0.608   1.725   2.779
10132SOL     OW31294   3.438   6.147   2.964
10132SOL    HW131295   3.398   6.156   2.872
10132SOL    HW231296   3.513   6.212   2.975
10133SOL     OW31297   4.668   6.185   2.790
10133SOL    HW131298   4.699   6.272   2.750
10133SOL    HW231299   4.577   6.197   2.828
10134SOL     OW31300   6.565   0.142   3.879
10134SOL    HW131301   6.659   0.164   3.906
10134SOL    HW231302   6.512   0.227   3.871
10135SOL     OW31303   5.054   3.724   2.838
10135SOL    HW131304   5.100   3.810   2.861
10135SOL    HW231305   4.966   3.743   2.795
10136SOL     OW31306   5.570   6.932   2.938
10136SOL    HW131307   5.510   6.890   3.006
10136SOL    HW231308   5.629   6.861   2.897
10137SOL     OW31309   7.000   5.237   3.715
10137SOL    HW131310   0.026   5.264   3.799
10137SOL    HW231311   6.957   5.318   3.675
10138SOL     OW31312   4.593   2.417   0.928
10138SOL    HW131313   4.625   2.324   0.911
10138SOL    HW231314   4.656   2.482   0.888
10139SOL     OW31315   4.038   3.198   2.675
10139SOL    HW131316   4.042   3.146   2.761
10139SOL    HW231317   4.018   3.136   2.600
10140SOL     OW31318   6.176   5.817   5.989
10140SOL    HW131319   6.188   5.813   5.890
10140SOL    HW231320   6.242   5.881   6.028
10141SOL     OW31321   3.150   2.190   4.416
10141SOL    HW131322   3.052   2.209   4.417
10141SOL    HW231323   3.192   2.224   4.500
10142SOL     OW31324   5.503   6.411   5.233
10142SOL    HW131325   5.556   6.382   5.312
10142SOL    HW231326   5.562   6.464   5.171
10143SOL     OW31327   4.920   0.268   1.526
10143SOL    HW131328   4.846   0.203   1.509
10143SOL    HW231329   4.984   0.230   1.592
10144SOL     OW31330   4.311   5.968   6.148
10144SOL    HW131331   4.280   5.925   6.063
10144SOL    HW231332   4.259   5.931   6.225
10145SOL     OW31333   3.012   6.170   5.905
10145SOL    HW131334   2.962   6.112   5.841
10145SOL    HW231335   3.103   6.189   5.868
10146SOL     OW31336   3.805   5.268   5.359
10146SOL    HW131337   3.783   5.304   5.449
10146SOL    HW231338   3.867   5.190   5.368
10147SOL     OW31339   5.295   4.601   4.692
10147SOL    HW131340   5.384   4.564   4.717
10147SOL    HW231341   5.265   4.667   4.761
10148SOL     OW31342   6.255   5.598   0.135
10148SOL    HW131343   6.286   5.512   0.097
10148SOL    HW231344   6.282   5.604   0.231
10149SOL     OW31345   5.012   2.399   0.309
10149SOL    HW131346   5.005   2.345   0.392
10149SOL    HW231347   5.106   2.431   0.297
10150SOL     OW31348   4.889   4.030   0.703
10150SOL    HW131349   4.889   4.039   0.802
10150SOL    HW231350   4.962   4.086   0.664
10151SOL     OW31351   1.551   0.307   5.999
10151SOL    HW131352   1.513   0.397   5.978
10151SOL    HW231353   1.525   0.280   6.092
10152SOL     OW31354   1.748   5.877   3.982
10152SOL    HW131355   1.651   5.891   3.961
10152SOL    HW231356   1.789   5.964   4.009
10153SOL     OW31357   4.482   5.828   3.901
10153SOL    HW131358   4.419   5.852   3.828
10153SOL    HW231359   4.575   5.852   3.875
10154SOL     OW31360   6.101   6.796   5.775
10154SOL    HW131361   6.027   6.831   5.833
10154SOL    HW231362   6.063   6.739   5.703
10155SOL     OW31363   4.259   1.772   5.854
10155SOL    HW131364   4.318   1.848   5.826
10155SOL    HW231365   4.228   1.722   5.772
10156SOL     OW31366   6.368   0.087   1.606
10156SOL    HW131367   6.293   0.029   1.573
10156SOL    HW231368   6.354   0.181   1.574
10157SOL     OW31369   5.628   2.037   5.846
10157SOL    HW131370   5.586   2.100   5.780
10157SOL    HW231371   5.621   2.075   5.938
10158SOL     OW31372   4.454   3.895   0.004
10158SOL    HW131373   4.393   3.838   6.971
10158SOL    HW231374   4.541   3.906   6.981
10159SOL     OW31375   2.846   3.505   6.398
10159SOL    HW131376   2.792   3.424   6.375
10159SOL    HW231377   2.910   3.483   6.472
10160SOL     OW31378   0.966   4.476   2.457
10160SOL    HW131379   0.936   4.481   2.553
10160SOL    HW231380   1.030   4.400   2.447
10161SOL     OW31381   3.323   4.674   0.567
10161SOL    HW131382   3.225   4.672   0.587
10161SOL    HW231383   3.339   4.735   0.489
10162SOL     OW31384   3.026   4.191   0.623
10162SOL    HW131385   3.098   4.240   0.674
10162SOL    HW231386   2.939   4.203   0.670
10163SOL     OW31387   5.890   4.130   6.330
10163SOL    HW131388   5.878   4.147   6.232
10163SOL    HW231389   5.983   4.157   6.357
10164SOL     OW31390   5.995   3.125   5.181
10164SOL    HW131391   6.058   3.055   5.149
10164SOL    HW231392   6.046   3.209   5.203
10165SOL     OW31393   1.839   2.416   3.965
10165SOL    HW131394   1.833   2.325   4.006
10165SOL    HW231395   1.900   2.473   4.018
10166SOL     OW31396   3.692   0.824   1.942
10166SOL    HW131397   3.731   0.912   1.915
10166SOL    HW231398   3.658   0.776   1.861
10167SOL     OW31399   4.218   1.609   6.620
10167SOL    HW131400   4.276   1.539   6.580
10167SOL    HW231401   4.272   1.691   6.638
10168SOL     OW31402   6.922   3.888   4.720
10168SOL    HW131403   6.855   3.950   4.681
10168SOL    HW231404   6.978   3.937   4.788
10169SOL     OW31405   6.556   3.753   3.238
10169SOL    HW131406   6.652   3.733   3.258
10169SOL    HW231407   6.499   3.721   3.313
10170SOL     OW31408   0.661   4.284   6.008
10170SOL    HW131409   0.569   4.250   6.029
10170SOL    HW231410   0.709   4.217   5.950
10171SOL     OW31411   6.362   3.919   6.591
10171SOL    HW131412   6.404   3.828   6.596
10171SOL    HW231413   6.265   3.909   6.567
10172SOL     OW31414   6.119   6.995   3.221
10172SOL    HW131415   6.143   0.026   3.140
10172SOL    HW231416   6.150   0.019   3.303
10173SOL     OW31417   1.613   2.399   0.951
10173SOL    HW131418   1.656   2.420   1.039
10173SOL    HW231419   1.528   2.451   0.941
10174SOL     OW31420   5.569   5.213   1.759
10174SOL    HW131421   5.591   5.261   1.844
10174SOL    HW231422   5.533   5.122   1.780
10175SOL     OW31423   6.638   2.526   3.902
10175SOL    HW131424   6.568   2.578   3.854
10175SOL    HW231425   6.652   2.564   3.993
10176SOL     OW31426   1.279   3.663   5.415
10176SOL    HW131427   1.193   3.624   5.381
10176SOL    HW231428   1.260   3.737   5.479
10177SOL     OW31429   2.220   0.476   0.191
10177SOL    HW131430   2.270   0.515   0.114
10177SOL    HW231431   2.266   0.502   0.276
10178SOL     OW31432   6.563   3.093   4.928
10178SOL    HW131433   6.577   3.033   5.007
10178SOL    HW231434   6.623   3.173   4.936
10179SOL     OW31435   1.206   1.620   5.868
10179SOL    HW131436   1.159   1.652   5.950
10179SOL    HW231437   1.171   1.671   5.789
10180SOL     OW31438   4.570   6.202   6.768
10180SOL    HW131439   4.622   6.287   6.779
10180SOL    HW231440   4.497   6.198   6.835
10181SOL     OW31441   4.919   3.354   1.989
10181SOL    HW131442   5.008   3.398   1.993
10181SOL    HW231443   4.913   3.284   2.060
10182SOL     OW31444   5.624   1.614   2.249
10182SOL    HW131445   5.550   1.601   2.184
10182SOL    HW231446   5.592   1.591   2.341
10183SOL     OW31447   0.793   1.908   6.223
10183SOL    HW131448   0.774   2.005   6.208
10183SOL    HW231449   0.776   1.857   6.139
10184SOL     OW31450   4.712   1.266   6.065
10184SOL    HW131451   4.679   1.287   6.158
10184SOL    HW231452   4.812   1.276   6.063
10185SOL     OW31453   5.101   5.930   1.359
10185SOL    HW131454   5.074   5.968   1.270
10185SOL    HW231455   5.093   5.830   1.356
10186SOL     OW31456   5.741   3.173   2.994
10186SOL    HW131457   5.702   3.095   3.042
10186SOL    HW231458   5.839   3.157   2.979
10187SOL     OW31459   0.520   1.984   1.570
10187SOL    HW131460   0.578   1.908   1.541
10187SOL    HW231461   0.554   2.070   1.530
10188SOL     OW31462   3.925   6.346   0.516
10188SOL    HW131463   3.846   6.313   0.567
10188SOL    HW231464   3.925   6.305   0.425
10189SOL     OW31465   2.359   0.802   5.151
10189SOL    HW131466   2.384   0.892   5.186
10189SOL    HW231467   2.302   0.814   5.069
10190SOL     OW31468   4.929   2.780   1.199
10190SOL    HW131469   4.950   2.682   1.199
10190SOL    HW231470   4.862   2.800   1.128
10191SOL     OW31471   4.483   4.234   6.855
10191SOL    HW131472   4.551   4.217   6.784
10191SOL    HW231473   4.466   4.150   6.906
10192SOL     OW31474   4.440   0.864   5.643
10192SOL    HW131475   4.466   0.839   5.737
10192SOL    HW231476   4.482   0.800   5.579
10193SOL     OW31477   4.277   3.885   1.669
10193SOL    HW131478   4.376   3.880   1.683
10193SOL    HW231479   4.234   3.802   1.705
10194SOL     OW31480   6.009   4.944   4.904
10194SOL    HW131481   6.064   5.027   4.901
10194SOL    HW231482   6.018   4.901   4.993
10195SOL     OW31483   6.161   4.548   1.257
10195SOL    HW131484   6.106   4.524   1.177
10195SOL    HW231485   6.148   4.645   1.278
10196SOL     OW31486   5.223   1.440   4.640
10196SOL    HW131487   5.157   1.395   4.699
10196SOL    HW231488   5.221   1.398   4.549
10197SOL     OW31489   0.112   2.269   4.955
10197SOL    HW131490   0.020   2.247   4.921
10197SOL    HW231491   0.160   2.326   4.888
10198SOL     OW31492   4.051   0.727   1.542
10198SOL    HW131493   4.004   0.640   1.557
10198SOL    HW231494   3.984   0.799   1.526
10199SOL     OW31495   2.310   2.967   6.406
10199SOL    HW131496   2.243   3.029   6.366
10199SOL    HW231497   2.373   2.936   6.335
10200SOL     OW31498   4.964   2.201   0.989
10200SOL    HW131499   4.975   2.172   1.084
10200SOL    HW231500   4.870   2.187   0.960
10201SOL     OW31501   0.464   4.664   0.774
10201SOL    HW131502   0.522   4.589   0.806
10201SOL    HW231503   0.496   4.750   0.814
10202SOL     OW31504   3.940   2.309   6.199
10202SOL    HW131505   3.867   2.377   6.211
10202SOL    HW231506   3.914   2.245   6.126
10203SOL     OW31507   5.712   2.780   4.128
10203SOL    HW131508   5.648   2.785   4.052
10203SOL    HW231509   5.662   2.758   4.212
10204SOL     OW31510   5.555   6.773   6.746
10204SOL    HW131511   5.610   6.856   6.754
10204SOL    HW231512   5.476   6.791   6.687
10205SOL     OW31513   0.396   1.847   0.667
10205SOL    HW131514   0.465   1.916   0.689
10205SOL    HW231515   0.416   1.808   0.578
10206SOL     OW31516   0.959   0.634   5.746
10206SOL    HW131517   0.939   0.675   5.657
10206SOL    HW231518   0.939   0.536   5.743
10207SOL     OW31519   1.005   1.793   6.718
10207SOL    HW131520   1.075   1.864   6.722
10207SOL    HW231521   0.916   1.835   6.700
10208SOL     OW31522   5.581   5.103   3.876
10208SOL    HW131523   5.483   5.123   3.873
10208SOL    HW231524   5.630   5.164   3.815
10209SOL     OW31525   6.754   6.878   6.034
10209SOL    HW131526   6.846   6.919   6.035
10209SOL    HW231527   6.687   6.948   6.010
10210SOL     OW31528   4.733   6.381   1.215
10210SOL    HW131529   4.733   6.434   1.129
10210SOL    HW231530   4.648   6.329   1.222
10211SOL     OW31531   3.575   6.804   4.797
10211SOL    HW131532   3.604   6.870   4.728
10211SOL    HW231533   3.567   6.714   4.755
10212SOL     OW31534   0.965   0.258   4.896
10212SOL    HW131535   0.887   0.202   4.867
10212SOL    HW231536   0.992   0.233   4.988
10213SOL     OW31537   4.398   2.967   1.142
10213SOL    HW131538   4.448   2.882   1.126
10213SOL    HW231539   4.419   3.003   1.232
10214SOL     OW31540   1.109   2.310   1.654
10214SOL    HW131541   1.014   2.278   1.658
10214SOL    HW231542   1.170   2.240   1.691
10215SOL     OW31543   4.091   3.296   3.059
10215SOL    HW131544   3.995   3.324   3.054
10215SOL    HW231545   4.125   3.313   3.152
10216SOL     OW31546   6.510   0.711   1.374
10216SOL    HW131547   6.577   0.785   1.371
10216SOL    HW231548   6.423   0.743   1.337
10217SOL     OW31549   2.489   0.719   3.490
10217SOL    HW131550   2.589   0.714   3.486
10217SOL    HW231551   2.449   0.645   3.435
10218SOL     OW31552   1.277   3.337   1.769
10218SOL    HW131553   1.255   3.435   1.771
10218SOL    HW231554   1.220   3.292   1.701
10219SOL     OW31555   0.303   1.697   2.226
10219SOL    HW131556   0.247   1.726   2.304
10219SOL    HW231557   0.397   1.725   2.241
10220SOL     OW31558   3.810   3.092   1.239
10220SOL    HW131559   3.729   3.104   1.296
10220SOL    HW231560   3.865   3.017   1.274
10221SOL     OW31561   0.785   5.365   3.075
10221SOL    HW131562   0.740   5.446   3.114
10221SOL    HW231563   0.748   5.348   2.983
10222SOL     OW31564   2.924   3.818   4.921
10222SOL    HW131565   2.929   3.746   4.990
10222SOL    HW231566   2.908   3.777   4.831
10223SOL     OW31567   0.501   5.340   0.894
10223SOL    HW131568   0.439   5.376   0.963
10223SOL    HW231569   0.595   5.345   0.928
10224SOL     OW31570   5.923   3.195   3.428
10224SOL    HW131571   5.895   3.130   3.498
10224SOL    HW231572   5.938   3.148   3.342
10225SOL     OW31573   1.553   4.146   5.774
10225SOL    HW131574   1.599   4.076   5.828
10225SOL    HW231575   1.473   4.179   5.825
10226SOL     OW31576   3.587   1.165   0.277
10226SOL    HW131577   3.547   1.157   0.186
10226SOL    HW231578   3.617   1.074   0.308
10227SOL     OW31579   5.123   3.648   0.823
10227SOL    HW131580   5.121   3.665   0.724
10227SOL    HW231581   5.084   3.727   0.871
10228SOL     OW31582   6.691   0.497   0.481
10228SOL    HW131583   6.784   0.513   0.449
10228SOL    HW231584   6.692   0.437   0.560
10229SOL     OW31585   0.620   3.236   4.940
10229SOL    HW131586   0.599   3.322   4.987
10229SOL    HW231587   0.547   3.170   4.958
10230SOL     OW31588   6.529   5.575   2.300
10230SOL    HW131589   6.609   5.632   2.286
10230SOL    HW231590   6.492   5.547   2.211
10231SOL     OW31591   1.496   5.960   3.826
10231SOL    HW131592   1.425   6.014   3.871
10231SOL    HW231593   1.546   6.018   3.762
10232SOL     OW31594   3.006   0.942   3.391
10232SOL    HW131595   3.082   1.006   3.397
10232SOL    HW231596   2.969   0.925   3.482
10233SOL     OW31597   3.865   3.860   5.631
10233SOL    HW131598   3.867   3.938   5.694
10233SOL    HW231599   3.953   3.813   5.634
10234SOL     OW31600   5.683   0.127   0.723
10234SOL    HW131601   5.767   0.119   0.669
10234SOL    HW231602   5.704   0.109   0.819
10235SOL     OW31603   1.219   1.589   2.918
10235SOL    HW131604   1.284   1.549   2.983
10235SOL    HW231605   1.267   1.656   2.861
10236SOL     OW31606   2.430   6.804   0.178
10236SOL    HW131607   2.525   6.784   0.200
10236SOL    HW231608   2.370   6.764   0.248
10237SOL     OW31609   0.326   3.226   6.831
10237SOL    HW131610   0.290   3.134   6.844
10237SOL    HW231611   0.251   3.293   6.840
10238SOL     OW31612   4.408   5.145   1.230
10238SOL    HW131613   4.471   5.070   1.210
10238SOL    HW231614   4.460   5.224   1.263
10239SOL     OW31615   1.703   2.779   4.647
10239SOL    HW131616   1.803   2.770   4.646
10239SOL    HW231617   1.672   2.785   4.742
10240SOL     OW31618   2.504   0.028   1.922
10240SOL    HW131619   2.563   0.061   1.996
10240SOL    HW231620   2.557   0.026   1.837
10241SOL     OW31621   4.963   1.927   1.984
10241SOL    HW131622   5.007   1.967   1.904
10241SOL    HW231623   5.030   1.871   2.034
10242SOL     OW31624   0.327   2.164   1.199
10242SOL    HW131625   0.353   2.242   1.144
10242SOL    HW231626   0.280   2.195   1.282
10243SOL     OW31627   2.213   4.629   1.291
10243SOL    HW131628   2.136   4.566   1.297
10243SOL    HW231629   2.271   4.618   1.372
10244SOL     OW31630   2.342   3.908   1.444
10244SOL    HW131631   2.436   3.890   1.413
10244SOL    HW231632   2.278   3.863   1.381
10245SOL     OW31633   3.517   3.887   0.825
10245SOL    HW131634   3.589   3.850   0.883
10245SOL    HW231635   3.455   3.942   0.880
10246SOL     OW31636   3.206   2.990   4.491
10246SOL    HW131637   3.224   2.987   4.392
10246SOL    HW231638   3.162   3.077   4.514
10247SOL     OW31639   0.777   4.574   4.922
10247SOL    HW131640   0.816   4.556   4.832
10247SOL    HW231641   0.737   4.490   4.959
10248SOL     OW31642   1.265   6.775   3.687
10248SOL    HW131643   1.295   6.835   3.761
10248SOL    HW231644   1.171   6.745   3.704
10249SOL     OW31645   1.826   4.811   6.787
10249SOL    HW131646   1.809   4.745   6.860
10249SOL    HW231647   1.923   4.837   6.788
10250SOL     OW31648   5.900   3.028   0.797
10250SOL    HW131649   5.879   2.958   0.865
10250SOL    HW231650   5.815   3.068   0.762
10251SOL     OW31651   1.677   0.194   3.947
10251SOL    HW131652   1.772   0.216   3.922
10251SOL    HW231653   1.671   0.182   4.046
10252SOL     OW31654   4.885   3.690   5.313
10252SOL    HW131655   4.818   3.646   5.254
10252SOL    HW231656   4.977   3.675   5.277
10253SOL     OW31657   4.089   6.491   0.252
10253SOL    HW131658   4.083   6.494   0.152
10253SOL    HW231659   4.002   6.520   0.292
10254SOL     OW31660   5.053   1.863   4.883
10254SOL    HW131661   5.141   1.906   4.902
10254SOL    HW231662   4.982   1.934   4.877
10255SOL     OW31663   2.738   5.875   1.099
10255SOL    HW131664   2.724   5.956   1.042
10255SOL    HW231665   2.831   5.875   1.136
10256SOL     OW31666   5.501   1.064   1.779
10256SOL    HW131667   5.420   1.081   1.836
10256SOL    HW231668   5.583   1.065   1.837
10257SOL     OW31669   2.959   4.902   3.306
10257SOL    HW131670   2.942   4.991   3.263
10257SOL    HW231671   3.052   4.872   3.285
10258SOL     OW31672   3.516   2.139   3.065
10258SOL    HW131673   3.556   2.083   3.137
10258SOL    HW231674   3.566   2.226   3.059
10259SOL     OW31675   1.296   4.255   4.058
10259SOL    HW131676   1.274   4.164   4.093
10259SOL    HW231677   1.239   4.323   4.103
10260SOL     OW31678   1.426   1.226   3.470
10260SOL    HW131679   1.386   1.145   3.426
10260SOL    HW231680   1.398   1.227   3.566
10261SOL     OW31681   0.283   3.731   0.543
10261SOL    HW131682   0.284   3.648   0.488
10261SOL    HW231683   0.372   3.745   0.585
10262SOL     OW31684   3.957   1.056   6.641
10262SOL    HW131685   4.044   1.040   6.687
10262SOL    HW231686   3.973   1.062   6.542
10263SOL     OW31687   5.961   0.704   0.558
10263SOL    HW131688   5.924   0.707   0.465
10263SOL    HW231689   5.953   0.795   0.600
10264SOL     OW31690   5.855   4.979   6.229
10264SOL    HW131691   5.877   4.978   6.132
10264SOL    HW231692   5.775   5.037   6.245
10265SOL     OW31693   2.030   2.423   0.843
10265SOL    HW131694   1.979   2.365   0.906
10265SOL    HW231695   2.079   2.494   0.895
10266SOL     OW31696   3.258   3.021   3.292
10266SOL    HW131697   3.259   2.971   3.206
10266SOL    HW231698   3.294   2.963   3.365
10267SOL     OW31699   5.346   1.009   0.682
10267SOL    HW131700   5.364   1.107   0.684
10267SOL    HW231701   5.248   0.992   0.674
10268SOL     OW31702   5.750   6.724   1.792
10268SOL    HW131703   5.760   6.817   1.829
10268SOL    HW231704   5.838   6.676   1.797
10269SOL     OW31705   1.278   2.587   6.596
10269SOL    HW131706   1.266   2.585   6.696
10269SOL    HW231707   1.243   2.673   6.560
10270SOL     OW31708   3.405   6.348   2.157
10270SOL    HW131709   3.419   6.250   2.146
10270SOL    HW231710   3.360   6.366   2.244
10271SOL     OW31711   2.962   2.174   1.017
10271SOL    HW131712   2.912   2.238   1.075
10271SOL    HW231713   2.952   2.081   1.054
10272SOL     OW31714   6.884   1.053   4.331
10272SOL    HW131715   6.792   1.063   4.369
10272SOL    HW231716   6.895   1.116   4.254
10273SOL     OW31717   2.947   5.071   4.386
10273SOL    HW131718   2.922   4.976   4.370
10273SOL    HW231719   3.044   5.076   4.412
10274SOL     OW31720   0.465   5.302   5.671
10274SOL    HW131721   0.372   5.336   5.686
10274SOL    HW231722   0.497   5.331   5.581
10275SOL     OW31723   0.303   0.867   3.085
10275SOL    HW131724   0.204   0.879   3.096
10275SOL    HW231725   0.322   0.772   3.057
10276SOL     OW31726   4.574   5.631   5.627
10276SOL    HW131727   4.622   5.651   5.541
10276SOL    HW231728   4.621   5.678   5.702
10277SOL     OW31729   1.210   6.994   4.598
10277SOL    HW131730   1.138   6.935   4.563
10277SOL    HW231731   1.170   0.045   4.652
10278SOL     OW31732   0.076   0.740   4.842
10278SOL    HW131733   0.113   0.648   4.854
10278SOL    HW231734   0.150   0.802   4.816
10279SOL     OW31735   2.358   5.795   4.362
10279SOL    HW131736   2.437   5.791   4.301
10279SOL    HW231737   2.278   5.755   4.316
10280SOL     OW31738   5.524   3.668   0.588
10280SOL    HW131739   5.452   3.628   0.530
10280SOL    HW231740   5.492   3.671   0.683
10281SOL     OW31741   6.909   2.543   3.286
10281SOL    HW131742   6.926   2.492   3.371
10281SOL    HW231743   6.986   2.604   3.268
10282SOL     OW31744   5.048   3.044   3.220
10282SOL    HW131745   5.051   2.947   3.199
10282SOL    HW231746   5.038   3.057   3.318
10283SOL     OW31747   0.398   3.543   1.130
10283SOL    HW131748   0.387   3.501   1.040
10283SOL    HW231749   0.401   3.643   1.121
10284SOL     OW31750   7.006   2.458   4.105
10284SOL    HW131751   7.010   2.499   4.197
10284SOL    HW231752   6.938   2.385   4.103
10285SOL     OW31753   4.350   6.985   3.240
10285SOL    HW131754   4.251   6.973   3.250
10285SOL    HW231755   4.398   6.932   3.309
10286SOL     OW31756   2.863   1.197   3.693
10286SOL    HW131757   2.855   1.163   3.786
10286SOL    HW231758   2.908   1.286   3.693
10287SOL     OW31759   1.840   5.790   1.852
10287SOL    HW131760   1.830   5.744   1.940
10287SOL    HW231761   1.793   5.738   1.781
10288SOL     OW31762   3.322   0.027   4.882
10288SOL    HW131763   3.300   6.953   4.889
10288SOL    HW231764   3.379   0.054   4.959
10289SOL     OW31765   3.172   6.074   0.818
10289SOL    HW131766   3.089   6.089   0.871
10289SOL    HW231767   3.151   6.017   0.739
10290SOL     OW31768   3.186   3.274   2.487
10290SOL    HW131769   3.091   3.287   2.515
10290SOL    HW231770   3.203   3.176   2.472
10291SOL     OW31771   3.171   1.151   3.413
10291SOL    HW131772   3.249   1.127   3.471
10291SOL    HW231773   3.151   1.248   3.423
10292SOL     OW31774   0.473   1.323   5.851
10292SOL    HW131775   0.515   1.237   5.823
10292SOL    HW231776   0.383   1.304   5.892
10293SOL     OW31777   0.656   3.606   3.508
10293SOL    HW131778   0.628   3.684   3.564
10293SOL    HW231779   0.662   3.525   3.565
10294SOL     OW31780   3.546   1.699   2.893
10294SOL    HW131781   3.452   1.721   2.866
10294SOL    HW231782   3.598   1.672   2.812
10295SOL     OW31783   0.997   2.620   6.172
10295SOL    HW131784   1.048   2.706   6.179
10295SOL    HW231785   0.929   2.627   6.100
10296SOL     OW31786   5.608   0.979   5.937
10296SOL    HW131787   5.599   1.066   5.985
10296SOL    HW231788   5.519   0.950   5.903
10297SOL     OW31789   2.605   1.589   6.843
10297SOL    HW131790   2.608   1.606   6.942
10297SOL    HW231791   2.695   1.610   6.803
10298SOL     OW31792   1.526   4.389   1.906
10298SOL    HW131793   1.499   4.486   1.911
10298SOL    HW231794   1.482   4.339   1.981
10299SOL     OW31795   4.568   6.594   2.137
10299SOL    HW131796   4.533   6.502   2.150
10299SOL    HW231797   4.492   6.656   2.113
10300SOL     OW31798   1.160   4.261   1.811
10300SOL    HW131799   1.171   4.238   1.907
10300SOL    HW231800   1.065   4.283   1.792
10301SOL     OW31801   4.155   1.792   5.156
10301SOL    HW131802   4.239   1.757   5.199
10301SOL    HW231803   4.093   1.824   5.227
10302SOL     OW31804   2.847   6.376   4.203
10302SOL    HW131805   2.770   6.368   4.139
10302SOL    HW231806   2.903   6.455   4.177
10303SOL     OW31807   0.753   5.780   3.781
10303SOL    HW131808   0.816   5.757   3.707
10303SOL    HW231809   0.806   5.804   3.863
10304SOL     OW31810   6.296   6.932   0.716
10304SOL    HW131811   6.289   6.849   0.773
10304SOL    HW231812   6.269   6.910   0.622
10305SOL     OW31813   3.185   4.039   5.786
10305SOL    HW131814   3.232   3.968   5.839
10305SOL    HW231815   3.251   4.084   5.726
10306SOL     OW31816   5.219   6.475   0.779
10306SOL    HW131817   5.316   6.455   0.796
10306SOL    HW231818   5.202   6.572   0.797
10307SOL     OW31819   3.220   1.608   4.555
10307SOL    HW131820   3.203   1.515   4.522
10307SOL    HW231821   3.269   1.660   4.485
10308SOL     OW31822   2.162   4.258   2.615
10308SOL    HW131823   2.111   4.227   2.695
10308SOL    HW231824   2.164   4.185   2.547
10309SOL     OW31825   6.463   1.056   5.840
10309SOL    HW131826   6.452   0.996   5.919
10309SOL    HW231827   6.381   1.051   5.782
10310SOL     OW31828   2.780   3.632   6.902
10310SOL    HW131829   2.792   3.664   6.996
10310SOL    HW231830   2.690   3.659   6.868
10311SOL     OW31831   6.202   5.161   0.439
10311SOL    HW131832   6.198   5.063   0.457
10311SOL    HW231833   6.117   5.204   0.471
10312SOL     OW31834   4.818   0.711   2.014
10312SOL    HW131835   4.793   0.757   2.099
10312SOL    HW231836   4.758   0.743   1.940
10313SOL     OW31837   3.943   6.017   2.907
10313SOL    HW131838   3.937   6.062   2.995
10313SOL    HW231839   3.960   5.919   2.920
10314SOL     OW31840   0.386   0.221   6.806
10314SOL    HW131841   0.359   0.136   6.851
10314SOL    HW231842   0.385   0.295   6.873
10315SOL     OW31843   5.240   6.769   3.896
10315SOL    HW131844   5.272   6.781   3.802
10315SOL    HW231845   5.289   6.833   3.956
10316SOL     OW31846   6.193   2.324   5.948
10316SOL    HW131847   6.140   2.408   5.953
10316SOL    HW231848   6.144   2.250   5.994
10317SOL     OW31849   3.628   5.889   6.196
10317SOL    HW131850   3.535   5.922   6.213
10317SOL    HW231851   3.682   5.963   6.154
10318SOL     OW31852   4.931   0.568   6.207
10318SOL    HW131853   4.863   0.627   6.250
10318SOL    HW231854   4.886   0.486   6.170
10319SOL     OW31855   0.544   4.560   5.709
10319SOL    HW131856   0.629   4.507   5.705
10319SOL    HW231857   0.505   4.568   5.617
10320SOL     OW31858   6.852   6.239   3.256
10320SOL    HW131859   6.818   6.271   3.345
10320SOL    HW231860   6.943   6.201   3.268
10321SOL     OW31861   5.735   2.141   2.309
10321SOL    HW131862   5.742   2.121   2.406
10321SOL    HW231863   5.737   2.055   2.257
10322SOL     OW31864   3.961   4.926   4.872
10322SOL    HW131865   4.009   4.852   4.918
10322SOL    HW231866   3.964   5.008   4.930
10323SOL     OW31867   6.047   5.178   5.200
10323SOL    HW131868   6.118   5.109   5.216
10323SOL    HW231869   6.087   5.254   5.149
10324SOL     OW31870   3.255   3.587   2.548
10324SOL    HW131871   3.330   3.528   2.516
10324SOL    HW231872   3.177   3.578   2.487
10325SOL     OW31873   0.184   5.162   2.526
10325SOL    HW131874   0.146   5.192   2.613
10325SOL    HW231875   0.244   5.083   2.541
10326SOL     OW31876   5.725   3.923   6.424
10326SOL    HW131877   5.772   4.010   6.409
10326SOL    HW231878   5.721   3.872   6.339
10327SOL     OW31879   2.438   3.373   1.604
10327SOL    HW131880   2.434   3.416   1.694
10327SOL    HW231881   2.434   3.274   1.613
10328SOL     OW31882   6.446   2.786   2.065
10328SOL    HW131883   6.394   2.864   2.099
10328SOL    HW231884   6.484   2.807   1.975
10329SOL     OW31885   2.917   0.728   2.873
10329SOL    HW131886   2.953   0.687   2.957
10329SOL    HW231887   2.870   0.658   2.819
10330SOL     OW31888   4.822   0.568   1.559
10330SOL    HW131889   4.731   0.526   1.562
10330SOL    HW231890   4.892   0.496   1.556
10331SOL     OW31891   6.327   5.897   6.651
10331SOL    HW131892   6.277   5.856   6.575
10331SOL    HW231893   6.271   5.894   6.734
10332SOL     OW31894   0.798   0.192   6.376
10332SOL    HW131895   0.727   0.158   6.314
10332SOL    HW231896   0.765   0.273   6.424
10333SOL     OW31897   0.265   5.857   4.875
10333SOL    HW131898   0.286   5.944   4.921
10333SOL    HW231899   0.332   5.842   4.802
10334SOL     OW31900   3.269   0.096   4.396
10334SOL    HW131901   3.264   7.020   4.414
10334SOL    HW231902   3.353   0.116   4.344
10335SOL     OW31903   1.446   4.367   6.362
10335SOL    HW131904   1.486   4.457   6.378
10335SOL    HW231905   1.448   4.314   6.447
10336SOL     OW31906   6.646   6.717   2.198
10336SOL    HW131907   6.718   6.758   2.142
10336SOL    HW231908   6.580   6.672   2.139
10337SOL     OW31909   7.006   5.431   6.981
10337SOL    HW131910   7.002   5.500   0.030
10337SOL    HW231911   0.060   5.369   6.999
10338SOL     OW31912   1.198   6.509   2.249
10338SOL    HW131913   1.158   6.417   2.255
10338SOL    HW231914   1.233   6.536   2.339
10339SOL     OW31915   6.387   3.166   6.436
10339SOL    HW131916   6.319   3.121   6.377
10339SOL    HW231917   6.343   3.241   6.486
10340SOL     OW31918   1.726   2.514   6.807
10340SOL    HW131919   1.699   2.481   6.898
10340SOL    HW231920   1.658   2.483   6.740
10341SOL     OW31921   2.099   3.395   2.210
10341SOL    HW131922   2.010   3.350   2.206
10341SOL    HW231923   2.145   3.386   2.122
10342SOL     OW31924   1.602   0.514   3.666
10342SOL    HW131925   1.575   0.473   3.753
10342SOL    HW231926   1.666   0.454   3.619
10343SOL     OW31927   2.860   5.205   0.806
10343SOL    HW131928   2.841   5.300   0.783
10343SOL    HW231929   2.777   5.150   0.793
10344SOL     OW31930   3.718   3.946   0.141
10344SOL    HW131931   3.727   3.890   0.059
10344SOL    HW231932   3.749   4.039   0.122
10345SOL     OW31933   1.560   3.245   5.536
10345SOL    HW131934   1.472   3.222   5.577
10345SOL    HW231935   1.632   3.242   5.606
10346SOL     OW31936   6.800   5.309   1.256
10346SOL    HW131937   6.793   5.350   1.165
10346SOL    HW231938   6.874   5.242   1.256
10347SOL     OW31939   4.694   1.121   3.288
10347SOL    HW131940   4.639   1.179   3.348
10347SOL    HW231941   4.770   1.174   3.250
10348SOL     OW31942   5.775   2.279   0.515
10348SOL    HW131943   5.708   2.221   0.560
10348SOL    HW231944   5.728   2.354   0.467
10349SOL     OW31945   0.391   0.216   6.482
10349SOL    HW131946   0.402   0.121   6.513
10349SOL    HW231947   0.456   0.275   6.530
10350SOL     OW31948   2.911   5.715   5.124
10350SOL    HW131949   2.834   5.717   5.060
10350SOL    HW231950   2.882   5.748   5.213
10351SOL     OW31951   4.810   5.025   6.248
10351SOL    HW131952   4.818   5.024   6.149
10351SOL    HW231953   4.869   5.096   6.287
10352SOL     OW31954   3.403   0.842   6.116
10352SOL    HW131955   3.446   0.756   6.089
10352SOL    HW231956   3.402   0.905   6.038
10353SOL     OW31957   6.873   3.163   4.918
10353SOL    HW131958   6.952   3.113   4.955
10353SOL    HW231959   6.856   3.134   4.824
10354SOL     OW31960   5.682   0.834   1.108
10354SOL    HW131961   5.768   0.885   1.112
10354SOL    HW231962   5.619   0.880   1.046
10355SOL     OW31963   2.735   6.128   2.027
10355SOL    HW131964   2.692   6.207   1.983
10355SOL    HW231965   2.720   6.046   1.971
10356SOL     OW31966   0.110   4.183   6.451
10356SOL    HW131967   0.039   4.212   6.388
10356SOL    HW231968   0.136   4.259   6.511
10357SOL     OW31969   2.099   2.372   6.116
10357SOL    HW131970   2.186   2.389   6.163
10357SOL    HW231971   2.037   2.449   6.133
10358SOL     OW31972   6.720   2.658   2.911
10358SOL    HW131973   6.677   2.573   2.943
10358SOL    HW231974   6.817   2.640   2.890
10359SOL     OW31975   0.488   1.496   1.011
10359SOL    HW131976   0.409   1.484   0.952
10359SOL    HW231977   0.505   1.412   1.062
10360SOL     OW31978   4.524   5.259   3.069
10360SOL    HW131979   4.432   5.243   3.104
10360SOL    HW231980   4.523   5.335   3.005
10361SOL     OW31981   2.581   5.666   2.571
10361SOL    HW131982   2.527   5.708   2.644
10361SOL    HW231983   2.529   5.670   2.485
10362SOL     OW31984   1.481   4.984   4.579
10362SOL    HW131985   1.405   4.919   4.573
10362SOL    HW231986   1.561   4.938   4.617
10363SOL     OW31987   5.136   0.913   2.988
10363SOL    HW131988   5.202   0.968   3.039
10363SOL    HW231989   5.054   0.967   2.972
10364SOL     OW31990   2.593   3.783   1.350
10364SOL    HW131991   2.568   3.714   1.419
10364SOL    HW231992   2.681   3.758   1.309
10365SOL     OW31993   4.121   5.400   0.053
10365SOL    HW131994   4.044   5.463   0.038
10365SOL    HW231995   4.112   5.321   7.015
10366SOL     OW31996   2.646   0.048   3.992
10366SOL    HW131997   2.633   0.145   4.016
10366SOL    HW231998   2.584   0.023   3.918
10367SOL     OW31999   5.847   1.687   2.951
10367SOL    HW132000   5.818   1.600   2.993
10367SOL    HW232001   5.855   1.757   3.022
10368SOL     OW32002   2.879   1.340   1.779
10368SOL    HW132003   2.979   1.332   1.784
10368SOL    HW232004   2.845   1.287   1.702
10369SOL     OW32005   3.700   1.453   0.719
10369SOL    HW132006   3.690   1.394   0.639
10369SOL    HW232007   3.610   1.487   0.747
10370SOL     OW32008   4.245   0.987   5.313
10370SOL    HW132009   4.204   1.011   5.401
10370SOL    HW232010   4.286   1.069   5.272
10371SOL     OW32011   3.890   5.733   5.718
10371SOL    HW132012   3.960   5.666   5.692
10371SOL    HW232013   3.926   5.825   5.708
10372SOL     OW32014   2.536   0.846   4.464
10372SOL    HW132015   2.594   0.924   4.488
10372SOL    HW232016   2.472   0.828   4.539
10373SOL     OW32017   1.176   6.763   4.937
10373SOL    HW132018   1.158   6.807   5.024
10373SOL    HW232019   1.256   6.804   4.894
10374SOL     OW32020   2.553   1.741   3.616
10374SOL    HW132021   2.551   1.784   3.706
10374SOL    HW232022   2.563   1.812   3.546
10375SOL     OW32023   5.440   2.137   0.687
10375SOL    HW132024   5.403   2.230   0.693
10375SOL    HW232025   5.451   2.112   0.591
10376SOL     OW32026   0.115   1.668   3.850
10376SOL    HW132027   0.154   1.650   3.940
10376SOL    HW232028   0.015   1.661   3.855
10377SOL     OW32029   0.578   0.752   3.466
10377SOL    HW132030   0.570   0.745   3.366
10377SOL    HW232031   0.488   0.746   3.507
10378SOL     OW32032   6.805   0.545   5.752
10378SOL    HW132033   6.746   0.525   5.674
10378SOL    HW232034   6.853   0.462   5.780
10379SOL     OW32035   5.496   0.009   5.397
10379SOL    HW132036   5.578   0.023   5.453
10379SOL    HW232037   5.470   0.096   5.354
10380SOL     OW32038   5.616   0.788   2.770
10380SOL    HW132039   5.557   0.719   2.729
10380SOL    HW232040   5.600   0.876   2.725
10381SOL     OW32041   4.850   5.345   5.901
10381SOL    HW132042   4.868   5.419   5.837
10381SOL    HW232043   4.855   5.380   5.995
10382SOL     OW32044   2.774   5.486   5.848
10382SOL    HW132045   2.774   5.399   5.798
10382SOL    HW232046   2.856   5.538   5.823
10383SOL     OW32047   0.923   3.329   0.730
10383SOL    HW132048   0.989   3.346   0.803
10383SOL    HW232049   0.936   3.237   0.694
10384SOL     OW32050   6.791   0.386   0.981
10384SOL    HW132051   6.886   0.363   0.961
10384SOL    HW232052   6.784   0.484   1.003
10385SOL     OW32053   5.926   0.713   5.953
10385SOL    HW132054   5.844   0.741   6.003
10385SOL    HW232055   5.917   0.618   5.925
10386SOL     OW32056   6.606   3.414   5.141
10386SOL    HW132057   6.517   3.408   5.096
10386SOL    HW232058   6.621   3.508   5.171
10387SOL     OW32059   2.155   2.456   2.758
10387SOL    HW132060   2.129   2.547   2.789
10387SOL    HW232061   2.245   2.460   2.715
10388SOL     OW32062   1.521   4.798   3.205
10388SOL    HW132063   1.513   4.776   3.302
10388SOL    HW232064   1.455   4.869   3.181
10389SOL     OW32065   1.324   5.043   3.801
10389SOL    HW132066   1.410   5.085   3.829
10389SOL    HW232067   1.342   4.968   3.737
10390SOL     OW32068   1.530   3.447   3.120
10390SOL    HW132069   1.506   3.374   3.056
10390SOL    HW232070   1.597   3.507   3.077
10391SOL     OW32071   1.783   6.190   6.858
10391SOL    HW132072   1.868   6.150   6.891
10391SOL    HW232073   1.723   6.119   6.822
10392SOL     OW32074   5.958   4.961   0.335
10392SOL    HW132075   6.054   4.943   0.360
10392SOL    HW232076   5.921   4.882   0.287
10393SOL     OW32077   0.580   1.597   3.900
10393SOL    HW132078   0.546   1.542   3.824
10393SOL    HW232079   0.531   1.572   3.984
10394SOL     OW32080   2.730   6.552   6.871
10394SOL    HW132081   2.771   6.637   6.904
10394SOL    HW232082   2.675   6.571   6.789
10395SOL     OW32083   0.065   0.834   4.440
10395SOL    HW132084   0.065   0.757   4.376
10395SOL    HW232085   0.017   0.911   4.399
10396SOL     OW32086   0.540   0.324   4.419
10396SOL    HW132087   0.456   0.311   4.472
10396SOL    HW232088   0.587   0.236   4.409
10397SOL     OW32089   3.699   0.889   3.829
10397SOL    HW132090   3.708   0.950   3.908
10397SOL    HW232091   3.602   0.869   3.815
10398SOL     OW32092   6.188   2.727   1.161
10398SOL    HW132093   6.269   2.753   1.109
10398SOL    HW232094   6.115   2.794   1.147
10399SOL     OW32095   4.871   2.330   5.424
10399SOL    HW132096   4.831   2.391   5.492
10399SOL    HW232097   4.807   2.317   5.348
10400SOL     OW32098   2.834   5.465   2.594
10400SOL    HW132099   2.786   5.508   2.517
10400SOL    HW232100   2.801   5.504   2.680
10401SOL     OW32101   0.234   5.822   2.190
10401SOL    HW132102   0.194   5.860   2.107
10401SOL    HW232103   0.318   5.773   2.167
10402SOL     OW32104   1.056   3.519   4.907
10402SOL    HW132105   1.103   3.604   4.931
10402SOL    HW232106   1.123   3.453   4.873
10403SOL     OW32107   5.568   1.312   1.982
10403SOL    HW132108   5.490   1.269   1.937
10403SOL    HW232109   5.557   1.412   1.979
10404SOL     OW32110   0.567   6.870   4.195
10404SOL    HW132111   0.630   6.792   4.202
10404SOL    HW232112   0.546   6.886   4.099
10405SOL     OW32113   1.710   6.449   5.550
10405SOL    HW132114   1.630   6.396   5.523
10405SOL    HW232115   1.743   6.418   5.639
10406SOL     OW32116   2.781   4.265   6.093
10406SOL    HW132117   2.732   4.324   6.029
10406SOL    HW232118   2.879   4.268   6.072
10407SOL     OW32119   0.942   2.332   6.060
10407SOL    HW132120   1.000   2.358   5.983
10407SOL    HW232121   0.849   2.365   6.044
10408SOL     OW32122   4.868   5.066   3.607
10408SOL    HW132123   4.808   5.055   3.527
10408SOL    HW232124   4.834   5.141   3.664
10409SOL     OW32125   0.409   4.091   2.145
10409SOL    HW132126   0.467   4.157   2.096
10409SOL    HW232127   0.413   4.111   2.243
10410SOL     OW32128   5.105   0.813   1.229
10410SOL    HW132129   5.103   0.863   1.315
10410SOL    HW232130   5.015   0.771   1.212
10411SOL     OW32131   2.210   4.763   2.701
10411SOL    HW132132   2.150   4.703   2.648
10411SOL    HW232133   2.281   4.800   2.641
10412SOL     OW32134   1.429   2.136   0.505
10412SOL    HW132135   1.489   2.188   0.444
10412SOL    HW232136   1.483   2.083   0.569
10413SOL     OW32137   6.905   2.332   0.026
10413SOL    HW132138   6.866   2.414   0.068
10413SOL    HW232139   6.839   2.257   0.034
10414SOL     OW32140   5.491   6.301   6.462
10414SOL    HW132141   5.424   6.371   6.441
10414SOL    HW232142   5.445   6.221   6.501
10415SOL     OW32143   0.206   5.978   4.008
10415SOL    HW132144   0.170   6.071   4.020
10415SOL    HW232145   0.185   5.923   4.089
10416SOL     OW32146   5.679   2.060   4.881
10416SOL    HW132147   5.672   1.978   4.825
10416SOL    HW232148   5.612   2.057   4.955
10417SOL     OW32149   3.964   4.782   3.489
10417SOL    HW132150   3.865   4.771   3.480
10417SOL    HW232151   3.987   4.796   3.586
10418SOL     OW32152   6.844   4.182   6.935
10418SOL    HW132153   6.938   4.214   6.951
10418SOL    HW232154   6.830   4.166   6.838
10419SOL     OW32155   3.666   1.249   5.006
10419SOL    HW132156   3.585   1.307   5.004
10419SOL    HW232157   3.684   1.219   5.099
10420SOL     OW32158   6.807   3.406   3.496
10420SOL    HW132159   6.784   3.338   3.426
10420SOL    HW232160   6.725   3.456   3.523
10421SOL     OW32161   1.334   4.713   4.002
10421SOL    HW132162   1.257   4.775   3.983
10421SOL    HW232163   1.334   4.639   3.934
10422SOL     OW32164   6.757   3.653   4.596
10422SOL    HW132165   6.712   3.710   4.527
10422SOL    HW232166   6.823   3.709   4.647
10423SOL     OW32167   3.584   4.880   4.061
10423SOL    HW132168   3.597   4.979   4.073
10423SOL    HW232169   3.495   4.863   4.019
10424SOL     OW32170   3.479   0.817   0.023
10424SOL    HW132171   3.447   0.902   0.066
10424SOL    HW232172   3.578   0.810   0.033
10425SOL     OW32173   1.765   1.024   0.461
10425SOL    HW132174   1.709   1.055   0.538
10425SOL    HW232175   1.706   0.982   0.392
10426SOL     OW32176   6.061   2.087   6.018
10426SOL    HW132177   5.994   2.087   6.093
10426SOL    HW232178   6.024   2.038   5.940
10427SOL     OW32179   5.728   6.444   4.811
10427SOL    HW132180   5.712   6.538   4.783
10427SOL    HW232181   5.768   6.393   4.735
10428SOL     OW32182   1.821   0.508   4.019
10428SOL    HW132183   1.832   0.603   3.989
10428SOL    HW232184   1.760   0.505   4.098
10429SOL     OW32185   1.091   3.214   2.819
10429SOL    HW132186   1.093   3.205   2.719
10429SOL    HW232187   1.000   3.246   2.847
10430SOL     OW32188   3.195   0.470   4.136
10430SOL    HW132189   3.192   0.421   4.049
10430SOL    HW232190   3.280   0.447   4.184
10431SOL     OW32191   2.784   1.384   3.383
10431SOL    HW132192   2.742   1.434   3.459
10431SOL    HW232193   2.714   1.328   3.337
10432SOL     OW32194   0.870   6.300   5.349
10432SOL    HW132195   0.797   6.323   5.413
10432SOL    HW232196   0.866   6.360   5.270
10433SOL     OW32197   1.700   6.953   2.480
10433SOL    HW132198   1.774   6.888   2.460
10433SOL    HW232199   1.639   6.914   2.549
10434SOL     OW32200   4.129   6.544   4.904
10434SOL    HW132201   4.137   6.549   4.804
10434SOL    HW232202   4.199   6.602   4.946
10435SOL     OW32203   1.296   2.288   6.623
10435SOL    HW132204   1.264   2.381   6.602
10435SOL    HW232205   1.336   2.248   6.541
10436SOL     OW32206   0.041   4.645   5.015
10436SOL    HW132207   0.027   4.701   4.934
10436SOL    HW232208   0.111   4.686   5.073
10437SOL     OW32209   5.159   5.517   5.247
10437SOL    HW132210   5.121   5.605   5.219
10437SOL    HW232211   5.258   5.517   5.230
10438SOL     OW32212   6.230   5.609   6.207
10438SOL    HW132213   6.263   5.691   6.253
10438SOL    HW232214   6.222   5.626   6.109
10439SOL     OW32215   6.528   6.784   4.767
10439SOL    HW132216   6.564   6.872   4.736
10439SOL    HW232217   6.589   6.710   4.736
10440SOL     OW32218   0.059   2.253   6.806
10440SOL    HW132219   0.062   2.332   6.744
10440SOL    HW232220   0.003   2.276   6.886
10441SOL     OW32221   3.735   2.115   1.291
10441SOL    HW132222   3.825   2.071   1.293
10441SOL    HW232223   3.745   2.214   1.302
10442SOL     OW32224   2.163   1.505   5.734
10442SOL    HW132225   2.231   1.550   5.793
10442SOL    HW232226   2.073   1.543   5.752
10443SOL     OW32227   0.621   1.913   3.052
10443SOL    HW132228   0.698   1.853   3.074
10443SOL    HW232229   0.544   1.892   3.113
10444SOL     OW32230   3.750   5.591   4.409
10444SOL    HW132231   3.789   5.600   4.317
10444SOL    HW232232   3.823   5.591   4.477
10445SOL     OW32233   1.540   4.005   2.963
10445SOL    HW132234   1.572   3.974   2.874
10445SOL    HW232235   1.604   4.073   2.999
10446SOL     OW32236   1.936   4.325   5.856
10446SOL    HW132237   1.905   4.230   5.862
10446SOL    HW232238   2.035   4.329   5.870
10447SOL     OW32239   0.333   1.874   2.651
10447SOL    HW132240   0.409   1.829   2.698
10447SOL    HW232241   0.267   1.906   2.719
10448SOL     OW32242   2.612   6.242   3.064
10448SOL    HW132243   2.563   6.302   3.128
10448SOL    HW232244   2.611   6.149   3.099
10449SOL     OW32245   4.302   5.538   5.734
10449SOL    HW132246   4.380   5.582   5.688
10449SOL    HW232247   4.301   5.565   5.830
10450SOL     OW32248   0.062   0.824   6.180
10450SOL    HW132249   0.036   0.841   6.085
10450SOL    HW232250   0.080   0.911   6.227
10451SOL     OW32251   2.254   0.824   3.276
10451SOL    HW132252   2.295   0.735   3.296
10451SOL    HW232253   2.320   0.896   3.296
10452SOL     OW32254   0.161   3.843   4.612
10452SOL    HW132255   0.223   3.852   4.690
10452SOL    HW232256   0.066   3.850   4.643
10453SOL     OW32257   4.076   5.655   3.428
10453SOL    HW132258   3.983   5.629   3.451
10453SOL    HW232259   4.085   5.663   3.328
10454SOL     OW32260   6.775   0.251   5.472
10454SOL    HW132261   6.690   0.299   5.493
10454SOL    HW232262   6.853   0.309   5.497
10455SOL     OW32263   6.081   6.424   3.945
10455SOL    HW132264   6.019   6.450   4.019
10455SOL    HW232265   6.117   6.332   3.963
10456SOL     OW32266   0.848   5.316   6.954
10456SOL    HW132267   0.925   5.281   6.900
10456SOL    HW232268   0.794   5.239   6.989
10457SOL     OW32269   3.220   2.316   0.087
10457SOL    HW132270   3.299   2.367   0.122
10457SOL    HW232271   3.251   2.227   0.054
10458SOL     OW32272   6.653   5.740   6.369
10458SOL    HW132273   6.733   5.800   6.367
10458SOL    HW232274   6.629   5.720   6.464
10459SOL     OW32275   0.283   5.203   0.416
10459SOL    HW132276   0.333   5.166   0.493
10459SOL    HW232277   0.228   5.131   0.373
10460SOL     OW32278   0.681   2.725   0.617
10460SOL    HW132279   0.685   2.737   0.518
10460SOL    HW232280   0.752   2.660   0.646
10461SOL     OW32281   0.418   5.420   5.158
10461SOL    HW132282   0.462   5.366   5.231
10461SOL    HW232283   0.378   5.503   5.198
10462SOL     OW32284   3.906   1.633   0.644
10462SOL    HW132285   3.866   1.654   0.555
10462SOL    HW232286   3.848   1.566   0.690
10463SOL     OW32287   4.755   3.045   6.153
10463SOL    HW132288   4.736   2.961   6.203
10463SOL    HW232289   4.852   3.066   6.159
10464SOL     OW32290   6.513   4.949   2.830
10464SOL    HW132291   6.562   5.031   2.859
10464SOL    HW232292   6.550   4.918   2.742
10465SOL     OW32293   5.393   4.132   2.203
10465SOL    HW132294   5.327   4.060   2.185
10465SOL    HW232295   5.364   4.186   2.282
10466SOL     OW32296   6.319   4.490   6.151
10466SOL    HW132297   6.355   4.510   6.242
10466SOL    HW232298   6.389   4.511   6.083
10467SOL     OW32299   1.752   2.934   0.073
10467SOL    HW132300   1.723   2.899   7.007
10467SOL    HW232301   1.676   2.932   0.137
10468SOL     OW32302   2.874   5.092   3.912
10468SOL    HW132303   2.833   5.006   3.883
10468SOL    HW232304   2.968   5.076   3.943
10469SOL     OW32305   6.363   1.728   4.982
10469SOL    HW132306   6.305   1.800   4.945
10469SOL    HW232307   6.315   1.640   4.977
10470SOL     OW32308   2.650   2.393   3.780
10470SOL    HW132309   2.603   2.437   3.856
10470SOL    HW232310   2.598   2.407   3.696
10471SOL     OW32311   3.099   6.785   0.597
10471SOL    HW132312   3.066   6.713   0.536
10471SOL    HW232313   3.198   6.779   0.605
10472SOL     OW32314   2.857   4.908   0.184
10472SOL    HW132315   2.809   4.969   0.247
10472SOL    HW232316   2.830   4.930   0.090
10473SOL     OW32317   5.132   4.577   0.055
10473SOL    HW132318   5.127   4.477   0.058
10473SOL    HW232319   5.041   4.615   0.037
10474SOL     OW32320   5.192   1.080   3.748
10474SOL    HW132321   5.155   1.134   3.823
10474SOL    HW232322   5.164   0.984   3.759
10475SOL     OW32323   0.812   6.643   1.651
10475SOL    HW132324   0.825   6.678   1.744
10475SOL    HW232325   0.851   6.708   1.585
10476SOL     OW32326   3.905   6.207   0.264
10476SOL    HW132327   3.890   6.204   0.165
10476SOL    HW232328   4.003   6.201   0.283
10477SOL     OW32329   6.271   6.362   3.457
10477SOL    HW132330   6.215   6.425   3.511
10477SOL    HW232331   6.365   6.362   3.491
10478SOL     OW32332   6.331   0.350   0.154
10478SOL    HW132333   6.271   0.336   0.075
10478SOL    HW232334   6.400   0.419   0.132
10479SOL     OW32335   0.083   2.184   2.238
10479SOL    HW132336   0.109   2.176   2.141
10479SOL    HW232337   7.008   2.206   2.244
10480SOL     OW32338   1.889   0.196   2.444
10480SOL    HW132339   1.852   0.128   2.380
10480SOL    HW232340   1.841   0.188   2.532
10481SOL     OW32341   0.315   0.583   3.015
10481SOL    HW132342   0.368   0.572   2.930
10481SOL    HW232343   0.366   0.543   3.091
10482SOL     OW32344   5.304   3.480   4.062
10482SOL    HW132345   5.266   3.536   3.988
10482SOL    HW232346   5.268   3.387   4.055
10483SOL     OW32347   5.949   5.589   0.778
10483SOL    HW132348   5.884   5.646   0.830
10483SOL    HW232349   5.933   5.601   0.680
10484SOL     OW32350   6.290   1.444   1.652
10484SOL    HW132351   6.288   1.507   1.574
10484SOL    HW232352   6.204   1.393   1.657
10485SOL     OW32353   5.488   3.322   5.434
10485SOL    HW132354   5.518   3.227   5.449
10485SOL    HW232355   5.560   3.371   5.385
10486SOL     OW32356   5.792   2.839   1.359
10486SOL    HW132357   5.760   2.751   1.323
10486SOL    HW232358   5.857   2.879   1.295
10487SOL     OW32359   6.011   6.573   1.452
10487SOL    HW132360   6.065   6.547   1.532
10487SOL    HW232361   5.999   6.673   1.451
10488SOL     OW32362   2.513   2.670   6.505
10488SOL    HW132363   2.580   2.690   6.577
10488SOL    HW232364   2.561   2.647   6.421
10489SOL     OW32365   6.941   5.571   6.531
10489SOL    HW132366   6.980   5.590   6.441
10489SOL    HW232367   6.982   5.633   6.598
10490SOL     OW32368   0.166   0.545   3.772
10490SOL    HW132369   0.092   0.612   3.775
10490SOL    HW232370   0.135   0.464   3.721
10491SOL     OW32371   2.503   4.541   6.137
10491SOL    HW132372   2.426   4.602   6.155
10491SOL    HW232373   2.510   4.525   6.038
10492SOL     OW32374   4.821   3.344   5.219
10492SOL    HW132375   4.741   3.347   5.280
10492SOL    HW232376   4.811   3.415   5.149
10493SOL     OW32377   3.808   0.838   1.530
10493SOL    HW132378   3.780   0.905   1.600
10493SOL    HW232379   3.776   0.747   1.557
10494SOL     OW32380   6.024   1.889   4.202
10494SOL    HW132381   5.926   1.904   4.195
10494SOL    HW232382   6.054   1.908   4.296
10495SOL     OW32383   1.784   6.689   0.822
10495SOL    HW132384   1.726   6.717   0.746
10495SOL    HW232385   1.879   6.714   0.802
10496SOL     OW32386   0.085   6.486   6.402
10496SOL    HW132387   7.020   6.518   6.369
10496SOL    HW232388   0.076   6.454   6.497
10497SOL     OW32389   1.432   0.707   0.982
10497SOL    HW132390   1.351   0.654   0.959
10497SOL    HW232391   1.435   0.790   0.926
10498SOL     OW32392   1.785   6.719   5.952
10498SOL    HW132393   1.743   6.635   5.987
10498SOL    HW232394   1.883   6.704   5.940
10499SOL     OW32395   2.935   5.657   3.392
10499SOL    HW132396   2.873   5.582   3.369
10499SOL    HW232397   2.965   5.703   3.308
10500SOL     OW32398   1.051   2.461   5.830
10500SOL    HW132399   1.133   2.468   5.888
10500SOL    HW232400   1.016   2.552   5.810
10501SOL     OW32401   2.035   3.524   2.663
10501SOL    HW132402   2.053   3.558   2.570
10501SOL    HW232403   1.995   3.597   2.718
10502SOL     OW32404   3.270   6.365   0.205
10502SOL    HW132405   3.333   6.300   0.247
10502SOL    HW232406   3.178   6.351   0.242
10503SOL     OW32407   3.111   2.911   0.283
10503SOL    HW132408   3.165   2.963   0.216
10503SOL    HW232409   3.042   2.858   0.235
10504SOL     OW32410   2.512   3.060   0.509
10504SOL    HW132411   2.598   3.048   0.560
10504SOL    HW232412   2.508   3.154   0.474
10505SOL     OW32413   6.476   6.051   1.454
10505SOL    HW132414   6.566   6.054   1.496
10505SOL    HW232415   6.416   5.992   1.507
10506SOL     OW32416   0.608   3.616   6.374
10506SOL    HW132417   0.705   3.610   6.353
10506SOL    HW232418   0.596   3.644   6.469
10507SOL     OW32419   1.131   0.500   6.359
10507SOL    HW132420   1.118   0.435   6.284
10507SOL    HW232421   1.065   0.575   6.348
10508SOL     OW32422   5.559   4.584   3.652
10508SOL    HW132423   5.547   4.537   3.739
10508SOL    HW232424   5.600   4.522   3.586
10509SOL     OW32425   0.976   6.565   6.133
10509SOL    HW132426   1.029   6.524   6.207
10509SOL    HW232427   0.891   6.514   6.121
10510SOL     OW32428   5.933   5.331   6.970
10510SOL    HW132429   6.031   5.317   6.984
10510SOL    HW232430   5.894   5.250   6.927
10511SOL     OW32431   3.998   2.891   0.269
10511SOL    HW132432   3.960   2.800   0.260
10511SOL    HW232433   3.972   2.929   0.358
10512SOL     OW32434   4.364   0.408   5.804
10512SOL    HW132435   4.370   0.366   5.714
10512SOL    HW232436   4.323   0.499   5.796
10513SOL     OW32437   0.647   2.534   5.894
10513SOL    HW132438   0.622   2.482   5.976
10513SOL    HW232439   0.707   2.610   5.921
10514SOL     OW32440   6.623   4.371   0.521
10514SOL    HW132441   6.538   4.322   0.499
10514SOL    HW232442   6.695   4.305   0.541
10515SOL     OW32443   6.502   1.615   3.687
10515SOL    HW132444   6.588   1.625   3.638
10515SOL    HW232445   6.439   1.559   3.633
10516SOL     OW32446   4.444   0.701   6.319
10516SOL    HW132447   4.345   0.715   6.319
10516SOL    HW232448   4.464   0.603   6.325
10517SOL     OW32449   6.730   1.482   2.396
10517SOL    HW132450   6.633   1.458   2.393
10517SOL    HW232451   6.777   1.442   2.317
10518SOL     OW32452   1.131   6.662   0.696
10518SOL    HW132453   1.063   6.588   0.694
10518SOL    HW232454   1.222   6.623   0.709
10519SOL     OW32455   3.440   2.895   5.881
10519SOL    HW132456   3.435   2.796   5.869
10519SOL    HW232457   3.469   2.938   5.796
10520SOL     OW32458   3.083   2.655   6.822
10520SOL    HW132459   3.095   2.701   6.734
10520SOL    HW232460   3.019   2.707   6.878
10521SOL     OW32461   6.746   6.104   1.603
10521SOL    HW132462   6.793   6.049   1.672
10521SOL    HW232463   6.761   6.065   1.512
10522SOL     OW32464   6.602   1.139   0.791
10522SOL    HW132465   6.544   1.064   0.760
10522SOL    HW232466   6.584   1.220   0.735
10523SOL     OW32467   6.738   5.537   5.987
10523SOL    HW132468   6.794   5.487   6.054
10523SOL    HW232469   6.798   5.584   5.923
10524SOL     OW32470   1.954   0.166   4.513
10524SOL    HW132471   2.020   0.093   4.533
10524SOL    HW232472   2.003   0.247   4.480
10525SOL     OW32473   1.921   6.694   5.077
10525SOL    HW132474   1.996   6.636   5.042
10525SOL    HW232475   1.888   6.753   5.003
10526SOL     OW32476   0.571   1.082   2.129
10526SOL    HW132477   0.501   1.114   2.065
10526SOL    HW232478   0.648   1.145   2.127
10527SOL     OW32479   0.973   2.403   4.513
10527SOL    HW132480   0.961   2.488   4.463
10527SOL    HW232481   0.890   2.347   4.504
10528SOL     OW32482   6.934   5.404   5.090
10528SOL    HW132483   6.948   5.484   5.032
10528SOL    HW232484   7.007   5.338   5.074
10529SOL     OW32485   0.228   6.946   3.573
10529SOL    HW132486   0.299   6.995   3.524
10529SOL    HW232487   0.226   6.850   3.544
10530SOL     OW32488   2.601   2.407   6.053
10530SOL    HW132489   2.562   2.325   6.011
10530SOL    HW232490   2.698   2.412   6.033
10531SOL     OW32491   1.721   3.425   4.786
10531SOL    HW132492   1.659   3.383   4.852
10531SOL    HW232493   1.786   3.485   4.834
10532SOL     OW32494   3.612   2.349   6.192
10532SOL    HW132495   3.531   2.404   6.212
10532SOL    HW232496   3.662   2.390   6.116
10533SOL     OW32497   2.988   1.449   5.298
10533SOL    HW132498   3.069   1.455   5.240
10533SOL    HW232499   2.994   1.519   5.370
10534SOL     OW32500   0.174   5.867   0.788
10534SOL    HW132501   0.160   5.963   0.810
10534SOL    HW232502   0.149   5.810   0.867
10535SOL     OW32503   0.343   1.256   2.296
10535SOL    HW132504   0.312   1.199   2.372
10535SOL    HW232505   0.432   1.296   2.320
10536SOL     OW32506   4.856   0.464   3.168
10536SOL    HW132507   4.921   0.519   3.117
10536SOL    HW232508   4.802   0.522   3.229
10537SOL     OW32509   3.066   5.336   2.745
10537SOL    HW132510   3.022   5.387   2.819
10537SOL    HW232511   3.023   5.361   2.658
10538SOL     OW32512   4.419   4.113   0.193
10538SOL    HW132513   4.427   4.029   0.139
10538SOL    HW232514   4.344   4.169   0.157
10539SOL     OW32515   0.910   3.363   5.959
10539SOL    HW132516   0.832   3.301   5.952
10539SOL    HW232517   0.969   3.334   6.035
10540SOL     OW32518   2.079   0.581   5.613
10540SOL    HW132519   2.018   0.660   5.619
10540SOL    HW232520   2.126   0.568   5.700
10541SOL     OW32521   3.636   4.047   0.635
10541SOL    HW132522   3.627   3.995   0.549
10541SOL    HW232523   3.601   3.992   0.711
10542SOL     OW32524   0.264   2.393   0.712
10542SOL    HW132525   0.356   2.414   0.679
10542SOL    HW232526   0.230   2.469   0.767
10543SOL     OW32527   0.401   2.021   5.528
10543SOL    HW132528   0.383   1.980   5.439
10543SOL    HW232529   0.496   2.053   5.531
10544SOL     OW32530   2.037   1.978   2.215
10544SOL    HW132531   2.034   1.948   2.311
10544SOL    HW232532   1.970   2.051   2.202
10545SOL     OW32533   6.780   6.792   2.592
10545SOL    HW132534   6.845   6.815   2.520
10545SOL    HW232535   6.687   6.812   2.561
10546SOL     OW32536   2.344   0.197   4.629
10546SOL    HW132537   2.398   0.174   4.709
10546SOL    HW232538   2.394   0.171   4.546
10547SOL     OW32539   4.440   1.425   1.412
10547SOL    HW132540   4.538   1.447   1.413
10547SOL    HW232541   4.392   1.484   1.477
10548SOL     OW32542   5.196   3.450   4.476
10548SOL    HW132543   5.220   3.546   4.463
10548SOL    HW232544   5.097   3.441   4.488
10549SOL     OW32545   1.073   0.136   2.471
10549SOL    HW132546   0.995   0.197   2.477
10549SOL    HW232547   1.158   0.189   2.473
10550SOL     OW32548   5.593   0.244   3.749
10550SOL    HW132549   5.587   0.332   3.795
10550SOL    HW232550   5.541   0.247   3.664
10551SOL     OW32551   1.314   2.267   5.318
10551SOL    HW132552   1.410   2.239   5.326
10551SOL    HW232553   1.293   2.337   5.386
10552SOL     OW32554   3.358   2.214   6.280
10552SOL    HW132555   3.457   2.215   6.294
10552SOL    HW232556   3.338   2.235   6.184
10553SOL     OW32557   0.458   5.705   0.127
10553SOL    HW132558   0.496   5.641   0.061
10553SOL    HW232559   0.379   5.663   0.173
10554SOL     OW32560   6.732   4.710   0.174
10554SOL    HW132561   6.644   4.757   0.180
10554SOL    HW232562   6.748   4.656   0.257
10555SOL     OW32563   3.389   1.420   2.320
10555SOL    HW132564   3.399   1.336   2.373
10555SOL    HW232565   3.383   1.398   2.223
10556SOL     OW32566   2.172   3.503   5.015
10556SOL    HW132567   2.232   3.490   5.094
10556SOL    HW232568   2.216   3.465   4.934
10557SOL     OW32569   0.142   2.628   3.192
10557SOL    HW132570   0.178   2.629   3.285
10557SOL    HW232571   0.145   2.720   3.154
10558SOL     OW32572   4.297   0.003   5.145
10558SOL    HW132573   4.369   6.969   5.184
10558SOL    HW232574   4.332   0.052   5.065
10559SOL     OW32575   4.180   1.881   1.012
10559SOL    HW132576   4.196   1.801   1.071
10559SOL    HW232577   4.112   1.859   0.943
10560SOL     OW32578   1.221   4.252   5.152
10560SOL    HW132579   1.188   4.292   5.066
10560SOL    HW232580   1.320   4.265   5.158
10561SOL     OW32581   1.899   4.961   6.418
10561SOL    HW132582   1.925   4.958   6.321
10561SOL    HW232583   1.836   4.886   6.437
10562SOL     OW32584   4.771   0.888   0.744
10562SOL    HW132585   4.764   0.983   0.774
10562SOL    HW232586   4.769   0.827   0.823
10563SOL     OW32587   2.063   2.057   5.327
10563SOL    HW132588   1.999   1.985   5.353
10563SOL    HW232589   2.157   2.026   5.346
10564SOL     OW32590   6.123   0.888   1.747
10564SOL    HW132591   6.161   0.796   1.761
10564SOL    HW232592   6.025   0.880   1.726
10565SOL     OW32593   6.798   0.879   5.488
10565SOL    HW132594   6.776   0.900   5.583
10565SOL    HW232595   6.731   0.923   5.428
10566SOL     OW32596   3.540   3.889   6.415
10566SOL    HW132597   3.513   3.796   6.387
10566SOL    HW232598   3.496   3.955   6.355
10567SOL     OW32599   2.076   3.441   3.956
10567SOL    HW132600   2.028   3.521   3.919
10567SOL    HW232601   2.084   3.449   4.055
10568SOL     OW32602   5.798   1.311   2.434
10568SOL    HW132603   5.730   1.305   2.361
10568SOL    HW232604   5.783   1.394   2.487
10569SOL     OW32605   6.010   3.105   2.934
10569SOL    HW132606   6.033   3.072   2.843
10569SOL    HW232607   6.022   3.032   3.001
10570SOL     OW32608   2.055   4.514   2.528
10570SOL    HW132609   2.010   4.463   2.455
10570SOL    HW232610   2.094   4.450   2.594
10571SOL     OW32611   6.416   5.936   2.759
10571SOL    HW132612   6.362   5.888   2.690
10571SOL    HW232613   6.463   6.014   2.716
10572SOL     OW32614   5.482   3.671   2.491
10572SOL    HW132615   5.561   3.726   2.463
10572SOL    HW232616   5.502   3.626   2.577
10573SOL     OW32617   6.229   5.716   3.976
10573SOL    HW132618   6.318   5.680   3.948
10573SOL    HW232619   6.187   5.653   4.042
10574SOL     OW32620   1.303   2.053   3.486
10574SOL    HW132621   1.346   1.977   3.437
10574SOL    HW232622   1.204   2.042   3.485
10575SOL     OW32623   1.081   1.197   5.092
10575SOL    HW132624   1.000   1.141   5.078
10575SOL    HW232625   1.059   1.293   5.076
10576SOL     OW32626   1.706   5.592   5.162
10576SOL    HW132627   1.663   5.608   5.073
10576SOL    HW232628   1.805   5.591   5.152
10577SOL     OW32629   1.788   3.200   6.260
10577SOL    HW132630   1.748   3.286   6.226
10577SOL    HW232631   1.874   3.220   6.307
10578SOL     OW32632   5.773   0.187   5.335
10578SOL    HW132633   5.799   0.098   5.298
10578SOL    HW232634   5.853   0.231   5.375
10579SOL     OW32635   3.953   1.839   0.852
10579SOL    HW132636   3.874   1.867   0.907
10579SOL    HW232637   3.923   1.780   0.778
10580SOL     OW32638   6.533   5.707   6.646
10580SOL    HW132639   6.561   5.662   6.730
10580SOL    HW232640   6.451   5.762   6.663
10581SOL     OW32641   5.701   0.767   3.787
10581SOL    HW132642   5.675   0.831   3.859
10581SOL    HW232643   5.794   0.735   3.803
10582SOL     OW32644   3.645   5.323   6.874
10582SOL    HW132645   3.636   5.226   6.851
10582SOL    HW232646   3.598   5.378   6.805
10583SOL     OW32647   3.740   0.870   0.110
10583SOL    HW132648   3.788   0.817   0.040
10583SOL    HW232649   3.776   0.963   0.112
10584SOL     OW32650   5.353   6.289   1.268
10584SOL    HW132651   5.392   6.303   1.359
10584SOL    HW232652   5.327   6.193   1.257
10585SOL     OW32653   1.152   2.933   5.700
10585SOL    HW132654   1.105   2.881   5.628
10585SOL    HW232655   1.251   2.923   5.689
10586SOL     OW32656   2.829   5.993   5.821
10586SOL    HW132657   2.857   5.953   5.908
10586SOL    HW232658   2.755   6.058   5.836
10587SOL     OW32659   5.786   3.529   0.621
10587SOL    HW132660   5.712   3.589   0.591
10587SOL    HW232661   5.798   3.538   0.720
10588SOL     OW32662   0.746   4.768   2.541
10588SOL    HW132663   0.687   4.778   2.621
10588SOL    HW232664   0.808   4.692   2.554
10589SOL     OW32665   5.915   2.912   4.320
10589SOL    HW132666   5.914   2.820   4.282
10589SOL    HW232667   5.941   2.978   4.249
10590SOL     OW32668   1.250   0.373   3.339
10590SOL    HW132669   1.271   0.303   3.408
10590SOL    HW232670   1.155   0.364   3.311
10591SOL     OW32671   1.507   1.767   5.945
10591SOL    HW132672   1.461   1.684   5.977
10591SOL    HW232673   1.606   1.758   5.959
10592SOL     OW32674   0.141   1.448   0.488
10592SOL    HW132675   0.239   1.465   0.497
10592SOL    HW232676   0.120   1.426   0.393
10593SOL     OW32677   1.818   5.405   2.045
10593SOL    HW132678   1.896   5.424   2.104
10593SOL    HW232679   1.818   5.309   2.019
10594SOL     OW32680   6.409   1.764   4.138
10594SOL    HW132681   6.425   1.810   4.050
10594SOL    HW232682   6.429   1.828   4.213
10595SOL     OW32683   3.933   6.807   6.072
10595SOL    HW132684   3.949   6.714   6.038
10595SOL    HW232685   4.013   6.864   6.051
10596SOL     OW32686   4.336   0.031   2.188
10596SOL    HW132687   4.392   0.094   2.133
10596SOL    HW232688   4.395   6.987   2.232
10597SOL     OW32689   2.177   0.902   4.714
10597SOL    HW132690   2.255   0.843   4.694
10597SOL    HW232691   2.113   0.854   4.773
10598SOL     OW32692   1.977   2.400   6.799
10598SOL    HW132693   1.997   2.329   6.731
10598SOL    HW232694   1.886   2.438   6.781
10599SOL     OW32695   6.258   1.062   6.978
10599SOL    HW132696   6.355   1.083   6.964
10599SOL    HW232697   6.220   1.125   0.023
10600SOL     OW32698   3.040   2.702   5.922
10600SOL    HW132699   3.046   2.762   5.842
10600SOL    HW232700   2.997   2.751   5.998
10601SOL     OW32701   3.068   6.573   6.247
10601SOL    HW132702   3.109   6.540   6.162
10601SOL    HW232703   3.117   6.535   6.325
10602SOL     OW32704   4.923   1.223   1.166
10602SOL    HW132705   4.873   1.139   1.182
10602SOL    HW232706   4.867   1.285   1.111
10603SOL     OW32707   1.955   5.315   3.926
10603SOL    HW132708   1.997   5.296   4.014
10603SOL    HW232709   1.858   5.336   3.939
10604SOL     OW32710   6.751   4.495   4.562
10604SOL    HW132711   6.759   4.595   4.572
10604SOL    HW232712   6.673   4.474   4.504
10605SOL     OW32713   0.761   5.067   0.754
10605SOL    HW132714   0.806   5.021   0.832
10605SOL    HW232715   0.771   5.010   0.673
10606SOL     OW32716   0.154   0.523   1.670
10606SOL    HW132717   0.073   0.580   1.654
10606SOL    HW232718   0.147   0.481   1.760
10607SOL     OW32719   4.571   4.324   6.375
10607SOL    HW132720   4.649   4.262   6.376
10607SOL    HW232721   4.604   4.418   6.363
10608SOL     OW32722   5.771   1.327   4.523
10608SOL    HW132723   5.691   1.287   4.567
10608SOL    HW232724   5.748   1.355   4.430
10609SOL     OW32725   4.056   6.639   1.314
10609SOL    HW132726   3.986   6.629   1.385
10609SOL    HW232727   4.070   6.552   1.268
10610SOL     OW32728   1.264   3.433   5.941
10610SOL    HW132729   1.229   3.483   5.862
10610SOL    HW232730   1.362   3.416   5.929
10611SOL     OW32731   5.187   2.674   6.643
10611SOL    HW132732   5.165   2.700   6.549
10611SOL    HW232733   5.263   2.609   6.644
10612SOL     OW32734   2.448   6.501   6.198
10612SOL    HW132735   2.535   6.510   6.151
10612SOL    HW232736   2.453   6.425   6.264
10613SOL     OW32737   0.586   6.913   5.561
10613SOL    HW132738   0.593   6.955   5.471
10613SOL    HW232739   0.569   6.984   5.630
10614SOL     OW32740   6.241   1.201   4.698
10614SOL    HW132741   6.286   1.165   4.616
10614SOL    HW232742   6.147   1.227   4.676
10615SOL     OW32743   4.785   5.579   4.948
10615SOL    HW132744   4.848   5.584   4.871
10615SOL    HW232745   4.798   5.659   5.008
10616SOL     OW32746   3.134   6.363   0.945
10616SOL    HW132747   3.217   6.383   0.998
10616SOL    HW232748   3.160   6.316   0.860
10617SOL     OW32749   2.129   2.722   0.519
10617SOL    HW132750   2.187   2.656   0.471
10617SOL    HW232751   2.182   2.766   0.591
10618SOL     OW32752   5.740   2.273   0.137
10618SOL    HW132753   5.682   2.352   0.158
10618SOL    HW232754   5.835   2.303   0.129
10619SOL     OW32755   0.865   4.317   3.096
10619SOL    HW132756   0.777   4.357   3.120
10619SOL    HW232757   0.919   4.301   3.179
10620SOL     OW32758   1.656   6.180   4.611
10620SOL    HW132759   1.649   6.123   4.693
10620SOL    HW232760   1.569   6.226   4.594
10621SOL     OW32761   1.945   5.878   6.830
10621SOL    HW132762   1.991   5.955   6.873
10621SOL    HW232763   1.888   5.831   6.897
10622SOL     OW32764   3.824   6.968   1.442
10622SOL    HW132765   3.746   6.906   1.436
10622SOL    HW232766   3.818   7.023   1.526
10623SOL     OW32767   5.942   2.544   3.708
10623SOL    HW132768   5.953   2.568   3.611
10623SOL    HW232769   6.031   2.537   3.751
10624SOL     OW32770   2.049   0.987   5.172
10624SOL    HW132771   1.967   0.971   5.119
10624SOL    HW232772   2.024   1.014   5.265
10625SOL     OW32773   0.505   3.198   0.019
10625SOL    HW132774   0.447   3.224   6.964
10625SOL    HW232775   0.515   3.099   0.020
10626SOL     OW32776   0.956   1.803   1.652
10626SOL    HW132777   1.044   1.842   1.678
10626SOL    HW232778   0.920   1.852   1.572
10627SOL     OW32779   6.453   6.795   2.642
10627SOL    HW132780   6.478   6.839   2.555
10627SOL    HW232781   6.515   6.825   2.714
10628SOL     OW32782   6.430   5.559   5.668
10628SOL    HW132783   6.509   5.617   5.651
10628SOL    HW232784   6.452   5.493   5.740
10629SOL     OW32785   2.502   5.087   5.747
10629SOL    HW132786   2.491   5.115   5.843
10629SOL    HW232787   2.451   5.002   5.731
10630SOL     OW32788   5.867   1.131   3.232
10630SOL    HW132789   5.784   1.116   3.178
10630SOL    HW232790   5.855   1.213   3.288
10631SOL     OW32791   0.508   6.661   3.620
10631SOL    HW132792   0.516   6.612   3.533
10631SOL    HW232793   0.414   6.657   3.653
10632SOL     OW32794   6.609   2.629   4.874
10632SOL    HW132795   6.630   2.721   4.841
10632SOL    HW232796   6.529   2.633   4.935
10633SOL     OW32797   2.618   5.443   1.165
10633SOL    HW132798   2.568   5.468   1.248
10633SOL    HW232799   2.630   5.344   1.162
10634SOL     OW32800   3.235   6.160   1.249
10634SOL    HW132801   3.168   6.179   1.320
10634SOL    HW232802   3.201   6.087   1.190
10635SOL     OW32803   2.803   0.949   1.032
10635SOL    HW132804   2.801   0.892   0.950
10635SOL    HW232805   2.883   1.009   1.028
10636SOL     OW32806   0.731   1.989   1.279
10636SOL    HW132807   0.639   1.983   1.241
10636SOL    HW232808   0.769   1.897   1.289
10637SOL     OW32809   3.535   4.091   5.142
10637SOL    HW132810   3.486   4.051   5.065
10637SOL    HW232811   3.597   4.163   5.109
10638SOL     OW32812   6.388   6.210   4.558
10638SOL    HW132813   6.343   6.293   4.524
10638SOL    HW232814   6.476   6.234   4.598
10639SOL     OW32815   1.427   0.897   5.059
10639SOL    HW132816   1.450   0.813   5.009
10639SOL    HW232817   1.485   0.904   5.140
10640SOL     OW32818   4.892   1.355   6.887
10640SOL    HW132819   4.855   1.263   6.899
10640SOL    HW232820   4.962   1.354   6.817
10641SOL     OW32821   5.572   1.514   0.092
10641SOL    HW132822   5.516   1.496   0.011
10641SOL    HW232823   5.621   1.600   0.081
10642SOL     OW32824   0.255   2.052   1.821
10642SOL    HW132825   0.258   1.992   1.741
10642SOL    HW232826   0.309   2.013   1.895
10643SOL     OW32827   2.484   3.619   5.385
10643SOL    HW132828   2.517   3.600   5.478
10643SOL    HW232829   2.525   3.704   5.352
10644SOL     OW32830   4.589   1.667   4.040
10644SOL    HW132831   4.597   1.721   3.956
10644SOL    HW232832   4.522   1.709   4.101
10645SOL     OW32833   2.106   6.977   4.631
10645SOL    HW132834   2.152   6.897   4.669
10645SOL    HW232835   2.174   0.017   4.593
10646SOL     OW32836   1.417   2.926   5.683
10646SOL    HW132837   1.492   2.901   5.622
10646SOL    HW232838   1.389   3.020   5.664
10647SOL     OW32839   6.438   4.734   0.648
10647SOL    HW132840   6.524   4.731   0.700
10647SOL    HW232841   6.395   4.644   0.648
10648SOL     OW32842   4.752   3.031   6.792
10648SOL    HW132843   4.846   3.065   6.800
10648SOL    HW232844   4.747   2.962   6.720
10649SOL     OW32845   6.664   4.801   5.731
10649SOL    HW132846   6.620   4.711   5.726
10649SOL    HW232847   6.756   4.795   5.690
10650SOL     OW32848   2.939   6.582   4.040
10650SOL    HW132849   2.891   6.601   3.955
10650SOL    HW232850   3.034   6.614   4.033
10651SOL     OW32851   5.075   6.794   5.252
10651SOL    HW132852   4.996   6.845   5.217
10651SOL    HW232853   5.047   6.741   5.332
10652SOL     OW32854   3.765   0.389   6.006
10652SOL    HW132855   3.743   0.486   6.021
10652SOL    HW232856   3.682   0.339   5.985
10653SOL     OW32857   5.235   4.226   4.264
10653SOL    HW132858   5.197   4.137   4.287
10653SOL    HW232859   5.240   4.283   4.347
10654SOL     OW32860   3.484   0.977   0.931
10654SOL    HW132861   3.460   0.935   1.019
10654SOL    HW232862   3.561   1.039   0.944
10655SOL     OW32863   3.040   6.591   1.283
10655SOL    HW132864   3.139   6.600   1.276
10655SOL    HW232865   2.996   6.637   1.205
10656SOL     OW32866   6.322   2.323   0.187
10656SOL    HW132867   6.377   2.394   0.230
10656SOL    HW232868   6.230   2.357   0.169
10657SOL     OW32869   5.628   0.353   1.022
10657SOL    HW132870   5.556   0.373   0.955
10657SOL    HW232871   5.610   0.264   1.064
10658SOL     OW32872   0.774   5.252   4.072
10658SOL    HW132873   0.846   5.316   4.098
10658SOL    HW232874   0.761   5.185   4.145
10659SOL     OW32875   6.170   0.168   0.380
10659SOL    HW132876   6.166   0.226   0.462
10659SOL    HW232877   6.235   0.207   0.315
10660SOL     OW32878   4.428   4.629   5.473
10660SOL    HW132879   4.351   4.640   5.537
10660SOL    HW232880   4.490   4.707   5.483
10661SOL     OW32881   0.529   6.700   2.798
10661SOL    HW132882   0.462   6.637   2.760
10661SOL    HW232883   0.495   6.737   2.884
10662SOL     OW32884   6.739   1.401   0.811
10662SOL    HW132885   6.817   1.388   0.750
10662SOL    HW232886   6.772   1.432   0.900
10663SOL     OW32887   0.244   0.165   0.134
10663SOL    HW132888   0.238   0.231   0.208
10663SOL    HW232889   0.159   0.112   0.129
10664SOL     OW32890   2.190   5.187   6.931
10664SOL    HW132891   2.235   5.168   7.018
10664SOL    HW232892   2.247   5.248   6.876
10665SOL     OW32893   6.392   1.967   1.150
10665SOL    HW132894   6.471   1.907   1.150
10665SOL    HW232895   6.318   1.926   1.203
10666SOL     OW32896   2.244   6.018   0.206
10666SOL    HW132897   2.297   6.037   0.123
10666SOL    HW232898   2.202   6.103   0.238
10667SOL     OW32899   3.517   2.081   5.813
10667SOL    HW132900   3.611   2.087   5.845
10667SOL    HW232901   3.508   2.005   5.748
10668SOL     OW32902   1.830   1.363   6.576
10668SOL    HW132903   1.753   1.300   6.589
10668SOL    HW232904   1.795   1.453   6.551
10669SOL     OW32905   1.746   6.973   6.826
10669SOL    HW132906   1.696   6.997   6.742
10669SOL    HW232907   1.765   0.033   6.878
10670SOL     OW32908   5.753   4.211   5.753
10670SOL    HW132909   5.784   4.155   5.829
10670SOL    HW232910   5.658   4.238   5.768
10671SOL     OW32911   2.077   2.203   2.862
10671SOL    HW132912   2.096   2.298   2.838
10671SOL    HW232913   2.030   2.199   2.950
10672SOL     OW32914   6.979   2.897   1.328
10672SOL    HW132915   6.930   2.811   1.336
10672SOL    HW232916   6.980   2.943   1.417
10673SOL     OW32917   2.714   3.178   5.295
10673SOL    HW132918   2.808   3.171   5.261
10673SOL    HW232919   2.657   3.108   5.252
10674SOL     OW32920   4.219   3.474   1.497
10674SOL    HW132921   4.199   3.426   1.583
10674SOL    HW232922   4.303   3.527   1.508
10675SOL     OW32923   0.476   0.186   5.673
10675SOL    HW132924   0.450   0.280   5.693
10675SOL    HW232925   0.477   0.133   5.758
10676SOL     OW32926   6.294   6.712   6.497
10676SOL    HW132927   6.232   6.648   6.451
10676SOL    HW232928   6.372   6.662   6.533
10677SOL     OW32929   0.526   0.512   0.544
10677SOL    HW132930   0.573   0.584   0.492
10677SOL    HW232931   0.535   0.531   0.642
10678SOL     OW32932   1.996   5.844   2.336
10678SOL    HW132933   1.926   5.882   2.276
10678SOL    HW232934   2.052   5.918   2.373
10679SOL     OW32935   5.322   5.233   3.857
10679SOL    HW132936   5.254   5.235   3.784
10679SOL    HW232937   5.389   5.305   3.843
10680SOL     OW32938   1.435   3.430   2.776
10680SOL    HW132939   1.427   3.348   2.833
10680SOL    HW232940   1.470   3.405   2.686
10681SOL     OW32941   6.577   2.496   5.907
10681SOL    HW132942   6.503   2.440   5.946
10681SOL    HW232943   6.575   2.490   5.807
10682SOL     OW32944   0.008   1.482   2.642
10682SOL    HW132945   0.002   1.410   2.712
10682SOL    HW232946   0.012   1.440   2.551
10683SOL     OW32947   1.674   1.819   5.278
10683SOL    HW132948   1.640   1.895   5.223
10683SOL    HW232949   1.596   1.766   5.313
10684SOL     OW32950   6.433   4.473   0.244
10684SOL    HW132951   6.521   4.425   0.236
10684SOL    HW232952   6.370   4.418   0.298
10685SOL     OW32953   0.560   3.017   2.926
10685SOL    HW132954   0.521   2.938   2.878
10685SOL    HW232955   0.537   3.101   2.877
10686SOL     OW32956   3.129   5.547   0.084
10686SOL    HW132957   3.214   5.588   0.049
10686SOL    HW232958   3.151   5.487   0.160
10687SOL     OW32959   0.357   4.878   2.878
10687SOL    HW132960   0.280   4.896   2.816
10687SOL    HW232961   0.360   4.949   2.949
10688SOL     OW32962   6.602   4.764   1.839
10688SOL    HW132963   6.588   4.835   1.908
10688SOL    HW232964   6.515   4.745   1.793
10689SOL     OW32965   0.770   0.544   2.562
10689SOL    HW132966   0.698   0.612   2.545
10689SOL    HW232967   0.823   0.571   2.642
10690SOL     OW32968   4.330   4.958   1.865
10690SOL    HW132969   4.257   4.956   1.933
10690SOL    HW232970   4.355   4.865   1.839
10691SOL     OW32971   0.008   1.077   1.715
10691SOL    HW132972   6.952   1.085   1.654
10691SOL    HW232973   0.089   1.115   1.669
10692SOL     OW32974   3.719   6.107   3.550
10692SOL    HW132975   3.713   6.204   3.526
10692SOL    HW232976   3.720   6.053   3.466
10693SOL     OW32977   6.754   1.631   1.765
10693SOL    HW132978   6.815   1.554   1.783
10693SOL    HW232979   6.734   1.636   1.667
10694SOL     OW32980   4.216   6.239   0.271
10694SOL    HW132981   4.302   6.259   0.319
10694SOL    HW232982   4.155   6.318   0.278
10695SOL     OW32983   0.398   2.732   4.095
10695SOL    HW132984   0.315   2.761   4.046
10695SOL    HW232985   0.469   2.708   4.029
10696SOL     OW32986   6.878   5.923   1.765
10696SOL    HW132987   6.844   5.834   1.734
10696SOL    HW232988   6.941   5.911   1.841
10697SOL     OW32989   1.909   5.763   3.585
10697SOL    HW132990   1.900   5.799   3.492
10697SOL    HW232991   1.969   5.822   3.639
10698SOL     OW32992   2.857   6.700   3.783
10698SOL    HW132993   2.897   6.790   3.764
10698SOL    HW232994   2.836   6.654   3.697
10699SOL     OW32995   2.853   2.124   3.007
10699SOL    HW132996   2.868   2.055   3.078
10699SOL    HW232997   2.918   2.109   2.932
10700SOL     OW32998   6.565   6.761   0.798
10700SOL    HW132999   6.541   6.843   0.849
10700SOL    HW233000   6.527   6.680   0.843
10701SOL     OW33001   2.616   6.586   1.311
10701SOL    HW133002   2.519   6.572   1.291
10701SOL    HW233003   2.631   6.574   1.409
10702SOL     OW33004   6.411   2.834   0.978
10702SOL    HW133005   6.483   2.766   0.961
10702SOL    HW233006   6.365   2.856   0.892
10703SOL     OW33007   3.871   3.971   4.219
10703SOL    HW133008   3.786   3.932   4.184
10703SOL    HW233009   3.863   3.984   4.318
10704SOL     OW33010   5.094   0.324   2.112
10704SOL    HW133011   4.996   0.332   2.135
10704SOL    HW233012   5.139   0.412   2.129
10705SOL     OW33013   0.389   3.058   5.991
10705SOL    HW133014   0.462   3.126   5.977
10705SOL    HW233015   0.300   3.102   5.983
10706SOL     OW33016   3.445   0.969   2.250
10706SOL    HW133017   3.449   1.020   2.336
10706SOL    HW233018   3.376   1.010   2.191
10707SOL     OW33019   6.168   6.953   6.240
10707SOL    HW133020   6.243   6.935   6.176
10707SOL    HW233021   6.101   7.013   6.198
10708SOL     OW33022   4.464   1.274   0.749
10708SOL    HW133023   4.512   1.253   0.664
10708SOL    HW233024   4.445   1.372   0.753
10709SOL     OW33025   6.370   6.341   5.928
10709SOL    HW133026   6.324   6.428   5.910
10709SOL    HW233027   6.460   6.341   5.883
10710SOL     OW33028   5.877   5.411   3.175
10710SOL    HW133029   5.905   5.428   3.269
10710SOL    HW233030   5.817   5.484   3.143
10711SOL     OW33031   1.540   6.820   3.955
10711SOL    HW133032   1.639   6.834   3.948
10711SOL    HW233033   1.498   6.899   3.998
10712SOL     OW33034   3.654   1.653   5.017
10712SOL    HW133035   3.611   1.572   4.977
10712SOL    HW233036   3.687   1.713   4.944
10713SOL     OW33037   1.077   5.967   1.389
10713SOL    HW133038   1.031   5.908   1.455
10713SOL    HW233039   1.009   6.015   1.334
10714SOL     OW33040   6.852   5.238   5.891
10714SOL    HW133041   6.820   5.284   5.974
10714SOL    HW233042   6.900   5.154   5.916
10715SOL     OW33043   5.611   1.164   4.255
10715SOL    HW133044   5.696   1.194   4.212
10715SOL    HW233045   5.551   1.243   4.267
10716SOL     OW33046   6.371   0.209   3.550
10716SOL    HW133047   6.377   0.223   3.451
10716SOL    HW233048   6.457   0.170   3.583
10717SOL     OW33049   6.891   0.176   1.344
10717SOL    HW133050   6.874   0.274   1.333
10717SOL    HW233051   6.956   0.163   1.419
10718SOL     OW33052   7.020   4.759   0.224
10718SOL    HW133053   0.051   4.678   0.246
10718SOL    HW233054   6.934   4.732   0.181
10719SOL     OW33055   5.805   1.020   1.848
10719SOL    HW133056   5.851   0.977   1.925
10719SOL    HW233057   5.808   1.120   1.858
10720SOL     OW33058   0.413   3.287   6.572
10720SOL    HW133059   0.386   3.246   6.659
10720SOL    HW233060   0.509   3.265   6.554
10721SOL     OW33061   4.807   2.414   4.171
10721SOL    HW133062   4.834   2.329   4.216
10721SOL    HW233063   4.887   2.457   4.130
10722SOL     OW33064   0.339   3.968   0.136
10722SOL    HW133065   0.316   3.875   0.163
10722SOL    HW233066   0.352   3.972   0.037
10723SOL     OW33067   6.367   4.145   6.753
10723SOL    HW133068   6.448   4.154   6.812
10723SOL    HW233069   6.378   4.064   6.695
10724SOL     OW33070   4.190   6.486   5.612
10724SOL    HW133071   4.224   6.455   5.524
10724SOL    HW233072   4.096   6.520   5.602
10725SOL     OW33073   6.852   6.141   5.146
10725SOL    HW133074   6.781   6.182   5.202
10725SOL    HW233075   6.839   6.042   5.142
10726SOL     OW33076   5.014   0.819   4.287
10726SOL    HW133077   4.940   0.853   4.344
10726SOL    HW233078   4.977   0.782   4.202
10727SOL     OW33079   2.187   6.097   6.175
10727SOL    HW133080   2.196   6.096   6.075
10727SOL    HW233081   2.122   6.168   6.201
10728SOL     OW33082   5.294   5.863   2.874
10728SOL    HW133083   5.374   5.803   2.877
10728SOL    HW233084   5.222   5.820   2.820
10729SOL     OW33085   5.832   2.836   3.017
10729SOL    HW133086   5.903   2.832   3.087
10729SOL    HW233087   5.747   2.868   3.059
10730SOL     OW33088   2.139   6.325   2.802
10730SOL    HW133089   2.192   6.269   2.738
10730SOL    HW233090   2.186   6.328   2.891
10731SOL     OW33091   4.520   0.001   6.383
10731SOL    HW133092   4.430   0.024   6.421
10731SOL    HW233093   4.545   0.069   6.315
10732SOL     OW33094   5.986   6.359   2.845
10732SOL    HW133095   6.043   6.427   2.893
10732SOL    HW233096   5.968   6.282   2.906
10733SOL     OW33097   0.527   0.682   6.141
10733SOL    HW133098   0.520   0.726   6.051
10733SOL    HW233099   0.623   0.659   6.159
10734SOL     OW33100   0.889   1.634   5.162
10734SOL    HW133101   0.817   1.635   5.232
10734SOL    HW233102   0.922   1.727   5.148
10735SOL     OW33103   1.271   5.572   2.181
10735SOL    HW133104   1.216   5.592   2.262
10735SOL    HW233105   1.272   5.473   2.165
10736SOL     OW33106   5.862   6.886   3.294
10736SOL    HW133107   5.890   6.865   3.388
10736SOL    HW233108   5.942   6.889   3.235
10737SOL     OW33109   6.579   1.462   2.080
10737SOL    HW133110   6.640   1.416   2.144
10737SOL    HW233111   6.560   1.554   2.112
10738SOL     OW33112   3.479   0.944   1.678
10738SOL    HW133113   3.393   0.930   1.727
10738SOL    HW233114   3.536   0.862   1.688
10739SOL     OW33115   5.518   2.413   3.013
10739SOL    HW133116   5.595   2.351   3.008
10739SOL    HW233117   5.526   2.483   2.941
10740SOL     OW33118   1.796   6.675   6.373
10740SOL    HW133119   1.871   6.644   6.431
10740SOL    HW233120   1.826   6.752   6.318
10741SOL     OW33121   2.459   2.425   3.582
10741SOL    HW133122   2.495   2.458   3.495
10741SOL    HW233123   2.415   2.337   3.569
10742SOL     OW33124   6.212   6.668   2.664
10742SOL    HW133125   6.298   6.719   2.660
10742SOL    HW233126   6.194   6.640   2.758
10743SOL     OW33127   3.391   1.190   5.663
10743SOL    HW133128   3.332   1.205   5.743
10743SOL    HW233129   3.469   1.134   5.690
10744SOL     OW33130   1.853   0.155   0.485
10744SOL    HW133131   1.940   0.196   0.457
10744SOL    HW233132   1.779   0.218   0.464
10745SOL     OW33133   1.622   4.986   1.509
10745SOL    HW133134   1.640   5.033   1.596
10745SOL    HW233135   1.525   4.963   1.503
10746SOL     OW33136   1.712   6.010   6.479
10746SOL    HW133137   1.693   6.009   6.577
10746SOL    HW233138   1.778   5.938   6.457
10747SOL     OW33139   5.946   1.206   5.089
10747SOL    HW133140   5.871   1.217   5.155
10747SOL    HW233141   5.978   1.111   5.090
10748SOL     OW33142   4.259   6.186   0.649
10748SOL    HW133143   4.191   6.242   0.696
10748SOL    HW233144   4.218   6.098   0.625
10749SOL     OW33145   5.553   5.793   2.092
10749SOL    HW133146   5.487   5.778   2.166
10749SOL    HW233147   5.507   5.782   2.003
10750SOL     OW33148   5.046   2.167   4.217
10750SOL    HW133149   4.961   2.122   4.245
10750SOL    HW233150   5.092   2.203   4.298
10751SOL     OW33151   0.145   5.157   5.336
10751SOL    HW133152   0.213   5.094   5.371
10751SOL    HW233153   0.055   5.113   5.336
10752SOL     OW33154   5.958   6.313   0.457
10752SOL    HW133155   5.872   6.359   0.480
10752SOL    HW233156   5.996   6.270   0.539
10753SOL     OW33157   4.633   6.692   4.003
10753SOL    HW133158   4.697   6.758   4.042
10753SOL    HW233159   4.544   6.735   3.991
10754SOL     OW33160   1.210   3.848   1.411
10754SOL    HW133161   1.140   3.862   1.340
10754SOL    HW233162   1.193   3.910   1.487
10755SOL     OW33163   6.217   3.127   1.263
10755SOL    HW133164   6.149   3.176   1.318
10755SOL    HW233165   6.259   3.191   1.198
10756SOL     OW33166   0.737   1.743   0.882
10756SOL    HW133167   0.721   1.827   0.831
10756SOL    HW233168   0.706   1.753   0.976
10757SOL     OW33169   0.480   3.907   1.582
10757SOL    HW133170   0.498   3.974   1.654
10757SOL    HW233171   0.566   3.871   1.547
10758SOL     OW33172   0.767   0.459   6.459
10758SOL    HW133173   0.671   0.472   6.485
10758SOL    HW233174   0.817   0.544   6.473
10759SOL     OW33175   2.472   2.274   6.465
10759SOL    HW133176   2.519   2.186   6.453
10759SOL    HW233177   2.403   2.285   6.393
10760SOL     OW33178   0.782   5.350   0.650
10760SOL    HW133179   0.684   5.369   0.641
10760SOL    HW233180   0.797   5.254   0.673
10761SOL     OW33181   0.510   1.383   6.131
10761SOL    HW133182   0.511   1.393   6.031
10761SOL    HW233183   0.490   1.288   6.155
10762SOL     OW33184   3.217   6.271   6.110
10762SOL    HW133185   3.205   6.365   6.076
10762SOL    HW233186   3.169   6.208   6.050
10763SOL     OW33187   5.276   0.070   3.327
10763SOL    HW133188   5.285   0.157   3.278
10763SOL    HW233189   5.355   0.012   3.304
10764SOL     OW33190   4.430   0.729   4.589
10764SOL    HW133191   4.461   0.646   4.544
10764SOL    HW233192   4.337   0.716   4.623
10765SOL     OW33193   6.775   1.891   2.701
10765SOL    HW133194   6.855   1.939   2.664
10765SOL    HW233195   6.777   1.795   2.672
10766SOL     OW33196   1.499   5.121   6.360
10766SOL    HW133197   1.599   5.126   6.364
10766SOL    HW233198   1.471   5.082   6.272
10767SOL     OW33199   1.977   5.626   0.646
10767SOL    HW133200   2.062   5.592   0.607
10767SOL    HW233201   1.908   5.553   0.645
10768SOL     OW33202   5.563   5.834   0.750
10768SOL    HW133203   5.546   5.927   0.716
10768SOL    HW233204   5.513   5.768   0.693
10769SOL     OW33205   3.572   2.865   4.795
10769SOL    HW133206   3.610   2.885   4.886
10769SOL    HW233207   3.612   2.780   4.760
10770SOL     OW33208   5.493   7.016   3.857
10770SOL    HW133209   5.528   0.083   3.830
10770SOL    HW233210   5.553   6.945   3.821
10771SOL     OW33211   4.598   6.096   5.659
10771SOL    HW133212   4.613   6.169   5.593
10771SOL    HW233213   4.534   6.127   5.729
10772SOL     OW33214   5.888   4.756   2.885
10772SOL    HW133215   5.827   4.796   2.817
10772SOL    HW233216   5.835   4.716   2.960
10773SOL     OW33217   6.800   3.938   1.752
10773SOL    HW133218   6.756   3.947   1.662
10773SOL    HW233219   6.889   3.984   1.750
10774SOL     OW33220   1.129   3.168   0.594
10774SOL    HW133221   1.082   3.079   0.597
10774SOL    HW233222   1.217   3.160   0.642
10775SOL     OW33223   1.494   4.212   0.676
10775SOL    HW133224   1.590   4.192   0.690
10775SOL    HW233225   1.446   4.208   0.763
10776SOL     OW33226   1.191   1.878   3.756
10776SOL    HW133227   1.178   1.944   3.682
10776SOL    HW233228   1.134   1.797   3.740
10777SOL     OW33229   3.409   1.381   2.032
10777SOL    HW133230   3.350   1.460   2.019
10777SOL    HW233231   3.472   1.374   1.954
10778SOL     OW33232   6.225   6.565   3.275
10778SOL    HW133233   6.252   6.489   3.334
10778SOL    HW233234   6.126   6.565   3.263
10779SOL     OW33235   5.220   3.713   4.426
10779SOL    HW133236   5.310   3.732   4.386
10779SOL    HW233237   5.204   3.777   4.502
10780SOL     OW33238   1.729   6.102   5.039
10780SOL    HW133239   1.648   6.109   5.098
10780SOL    HW233240   1.700   6.073   4.948
10781SOL     OW33241   5.950   2.224   5.272
10781SOL    HW133242   6.009   2.150   5.303
10781SOL    HW233243   5.881   2.244   5.342
10782SOL     OW33244   1.679   2.748   4.923
10782SOL    HW133245   1.696   2.652   4.947
10782SOL    HW233246   1.724   2.808   4.989
10783SOL     OW33247   1.327   2.790   2.713
10783SOL    HW133248   1.354   2.887   2.719
10783SOL    HW233249   1.228   2.782   2.724
10784SOL     OW33250   3.694   6.164   2.207
10784SOL    HW133251   3.684   6.258   2.238
10784SOL    HW233252   3.775   6.124   2.250
10785SOL     OW33253   1.903   5.645   2.487
10785SOL    HW133254   1.822   5.600   2.448
10785SOL    HW233255   1.944   5.704   2.418
10786SOL     OW33256   3.749   1.290   1.844
10786SOL    HW133257   3.681   1.354   1.806
10786SOL    HW233258   3.825   1.342   1.882
10787SOL     OW33259   3.644   0.989   3.441
10787SOL    HW133260   3.736   0.998   3.478
10787SOL    HW233261   3.647   0.938   3.355
10788SOL     OW33262   1.005   4.758   0.678
10788SOL    HW133263   1.095   4.796   0.659
10788SOL    HW233264   0.987   4.682   0.615
10789SOL     OW33265   6.482   1.448   0.986
10789SOL    HW133266   6.579   1.440   0.963
10789SOL    HW233267   6.439   1.516   0.926
10790SOL     OW33268   0.605   2.277   5.010
10790SOL    HW133269   0.544   2.271   4.931
10790SOL    HW233270   0.652   2.189   5.024
10791SOL     OW33271   1.615   1.929   3.499
10791SOL    HW133272   1.678   1.851   3.495
10791SOL    HW233273   1.530   1.904   3.454
10792SOL     OW33274   4.153   1.756   1.586
10792SOL    HW133275   4.128   1.849   1.610
10792SOL    HW233276   4.095   1.724   1.511
10793SOL     OW33277   4.343   1.716   4.792
10793SOL    HW133278   4.332   1.637   4.852
10793SOL    HW233279   4.287   1.705   4.710
10794SOL     OW33280   4.350   2.430   0.787
10794SOL    HW133281   4.365   2.410   0.690
10794SOL    HW233282   4.437   2.425   0.836
10795SOL     OW33283   0.363   3.815   3.484
10795SOL    HW133284   0.275   3.861   3.468
10795SOL    HW233285   0.397   3.777   3.399
10796SOL     OW33286   0.156   6.836   6.323
10796SOL    HW133287   0.157   6.936   6.327
10796SOL    HW233288   0.069   6.802   6.358
10797SOL     OW33289   4.195   3.782   0.154
10797SOL    HW133290   4.265   3.733   0.102
10797SOL    HW233291   4.201   3.756   0.251
10798SOL     OW33292   2.333   6.939   6.738
10798SOL    HW133293   2.423   6.905   6.714
10798SOL    HW233294   2.341   7.004   6.814
10799SOL     OW33295   2.533   1.265   2.897
10799SOL    HW133296   2.451   1.207   2.897
10799SOL    HW233297   2.608   1.216   2.942
10800SOL     OW33298   1.932   0.361   5.809
10800SOL    HW133299   1.853   0.422   5.814
10800SOL    HW233300   1.988   0.385   5.730
10801SOL     OW33301   2.655   6.680   5.955
10801SOL    HW133302   2.751   6.684   5.981
10801SOL    HW233303   2.606   6.756   5.998
10802SOL     OW33304   0.540   4.469   4.335
10802SOL    HW133305   0.449   4.503   4.312
10802SOL    HW233306   0.602   4.483   4.257
10803SOL     OW33307   0.180   4.413   4.664
10803SOL    HW133308   0.120   4.460   4.729
10803SOL    HW233309   0.172   4.314   4.677
10804SOL     OW33310   5.067   4.658   1.348
10804SOL    HW133311   5.031   4.700   1.432
10804SOL    HW233312   5.046   4.560   1.348
10805SOL     OW33313   4.262   6.711   0.299
10805SOL    HW133314   4.195   6.645   0.264
10805SOL    HW233315   4.288   6.774   0.226
10806SOL     OW33316   5.313   3.574   0.358
10806SOL    HW133317   5.312   3.636   0.279
10806SOL    HW233318   5.267   3.618   0.435
10807SOL     OW33319   4.590   6.650   3.323
10807SOL    HW133320   4.649   6.723   3.288
10807SOL    HW233321   4.503   6.689   3.353
10808SOL     OW33322   0.142   2.736   6.534
10808SOL    HW133323   0.092   2.820   6.555
10808SOL    HW233324   0.203   2.714   6.610
10809SOL     OW33325   2.453   1.033   3.324
10809SOL    HW133326   2.491   1.005   3.413
10809SOL    HW233327   2.510   1.106   3.286
10810SOL     OW33328   0.274   1.714   5.536
10810SOL    HW133329   0.367   1.678   5.547
10810SOL    HW233330   0.225   1.660   5.468
10811SOL     OW33331   4.599   4.428   5.471
10811SOL    HW133332   4.608   4.386   5.562
10811SOL    HW233333   4.527   4.497   5.473
10812SOL     OW33334   6.738   2.191   3.271
10812SOL    HW133335   6.727   2.149   3.361
10812SOL    HW233336   6.716   2.288   3.276
10813SOL     OW33337   2.705   6.180   1.418
10813SOL    HW133338   2.706   6.250   1.346
10813SOL    HW233339   2.774   6.202   1.487
10814SOL     OW33340   1.720   6.850   4.889
10814SOL    HW133341   1.721   6.794   4.806
10814SOL    HW233342   1.783   6.927   4.879
10815SOL     OW33343   5.035   2.413   2.700
10815SOL    HW133344   5.020   2.322   2.660
10815SOL    HW233345   4.958   2.472   2.677
10816SOL     OW33346   2.113   1.673   1.927
10816SOL    HW133347   2.073   1.621   2.003
10816SOL    HW233348   2.213   1.664   1.929
10817SOL     OW33349   4.773   7.021   2.192
10817SOL    HW133350   4.751   6.999   2.098
10817SOL    HW233351   4.696   6.997   2.251
10818SOL     OW33352   4.831   3.669   6.822
10818SOL    HW133353   4.781   3.585   6.843
10818SOL    HW233354   4.817   3.693   6.726
10819SOL     OW33355   0.302   3.720   6.285
10819SOL    HW133356   0.268   3.814   6.294
10819SOL    HW233357   0.309   3.678   6.376
10820SOL     OW33358   0.252   6.997   4.427
10820SOL    HW133359   0.279   0.021   4.342
10820SOL    HW233360   0.176   0.024   4.470
10821SOL     OW33361   6.922   0.267   0.433
10821SOL    HW133362   6.901   0.265   0.530
10821SOL    HW233363   6.980   0.346   0.413
10822SOL     OW33364   1.437   4.492   0.991
10822SOL    HW133365   1.533   4.507   0.969
10822SOL    HW233366   1.409   4.403   0.955
10823SOL     OW33367   1.569   0.786   1.225
10823SOL    HW133368   1.505   0.769   1.151
10823SOL    HW233369   1.650   0.728   1.213
10824SOL     OW33370   5.454   0.601   2.658
10824SOL    HW133371   5.357   0.621   2.640
10824SOL    HW233372   5.461   0.515   2.708
10825SOL     OW33373   3.363   1.330   1.422
10825SOL    HW133374   3.433   1.286   1.366
10825SOL    HW233375   3.403   1.365   1.506
10826SOL     OW33376   6.579   3.312   1.873
10826SOL    HW133377   6.679   3.312   1.886
10826SOL    HW233378   6.556   3.254   1.795
10827SOL     OW33379   0.081   2.777   4.175
10827SOL    HW133380   0.093   2.876   4.186
10827SOL    HW233381   0.116   2.749   4.085
10828SOL     OW33382   0.997   5.660   0.312
10828SOL    HW133383   1.009   5.759   0.317
10828SOL    HW233384   0.972   5.625   0.403
10829SOL     OW33385   2.844   3.395   1.322
10829SOL    HW133386   2.819   3.393   1.225
10829SOL    HW233387   2.874   3.486   1.347
10830SOL     OW33388   4.638   2.167   3.824
10830SOL    HW133389   4.628   2.127   3.733
10830SOL    HW233390   4.563   2.230   3.842
10831SOL     OW33391   5.482   2.142   3.128
10831SOL    HW133392   5.554   2.089   3.082
10831SOL    HW233393   5.462   2.224   3.076
10832SOL     OW33394   0.021   1.554   1.330
10832SOL    HW133395   0.115   1.569   1.358
10832SOL    HW233396   0.003   1.456   1.323
10833SOL     OW33397   3.248   6.773   4.825
10833SOL    HW133398   3.225   6.698   4.763
10833SOL    HW233399   3.346   6.773   4.842
10834SOL     OW33400   0.238   0.968   5.411
10834SOL    HW133401   0.224   1.020   5.495
10834SOL    HW233402   0.152   0.964   5.360
10835SOL     OW33403   6.707   1.846   2.343
10835SOL    HW133404   6.740   1.801   2.426
10835SOL    HW233405   6.775   1.838   2.271
10836SOL     OW33406   1.930   2.388   6.412
10836SOL    HW133407   1.830   2.392   6.422
10836SOL    HW233408   1.954   2.406   6.317
10837SOL     OW33409   0.777   5.394   1.004
10837SOL    HW133410   0.744   5.480   0.966
10837SOL    HW233411   0.728   5.374   1.089
10838SOL     OW33412   5.914   0.195   0.235
10838SOL    HW133413   5.960   0.237   0.157
10838SOL    HW233414   5.982   0.165   0.302
10839SOL     OW33415   1.999   2.160   1.000
10839SOL    HW133416   2.068   2.089   0.986
10839SOL    HW233417   2.035   2.229   1.063
10840SOL     OW33418   3.493   5.516   2.530
10840SOL    HW133419   3.414   5.563   2.489
10840SOL    HW233420   3.465   5.473   2.615
10841SOL     OW33421   4.409   3.941   5.980
10841SOL    HW133422   4.397   3.842   5.969
10841SOL    HW233423   4.494   3.960   6.028
10842SOL     OW33424   6.334   3.098   1.496
10842SOL    HW133425   6.325   3.107   1.396
10842SOL    HW233426   6.254   3.051   1.532
10843SOL     OW33427   0.410   1.131   1.611
10843SOL    HW133428   0.495   1.162   1.570
10843SOL    HW233429   0.423   1.042   1.654
10844SOL     OW33430   3.914   6.622   3.511
10844SOL    HW133431   3.821   6.646   3.483
10844SOL    HW233432   3.912   6.535   3.561
10845SOL     OW33433   2.366   2.492   0.692
10845SOL    HW133434   2.375   2.501   0.593
10845SOL    HW233435   2.450   2.451   0.729
10846SOL     OW33436   3.229   2.052   1.871
10846SOL    HW133437   3.300   2.097   1.925
10846SOL    HW233438   3.159   2.120   1.847
10847SOL     OW33439   4.506   2.760   6.139
10847SOL    HW133440   4.489   2.681   6.081
10847SOL    HW233441   4.426   2.820   6.139
10848SOL     OW33442   1.621   1.047   6.788
10848SOL    HW133443   1.630   1.122   6.722
10848SOL    HW233444   1.534   1.054   6.836
10849SOL     OW33445   2.753   4.843   4.142
10849SOL    HW133446   2.804   4.920   4.106
10849SOL    HW233447   2.711   4.868   4.229
10850SOL     OW33448   4.911   6.615   1.178
10850SOL    HW133449   4.919   6.656   1.269
10850SOL    HW233450   4.947   6.521   1.181
10851SOL     OW33451   4.240   1.934   6.525
10851SOL    HW133452   4.337   1.945   6.504
10851SOL    HW233453   4.194   1.889   6.449
10852SOL     OW33454   0.583   0.081   6.218
10852SOL    HW133455   0.531   0.165   6.234
10852SOL    HW233456   0.521   0.012   6.179
10853SOL     OW33457   2.284   1.441   4.650
10853SOL    HW133458   2.195   1.484   4.634
10853SOL    HW233459   2.302   1.373   4.579
10854SOL     OW33460   6.909   6.313   0.169
10854SOL    HW133461   6.865   6.388   0.119
10854SOL    HW233462   6.970   6.351   0.238
10855SOL     OW33463   1.010   6.429   1.189
10855SOL    HW133464   1.063   6.376   1.255
10855SOL    HW233465   0.922   6.384   1.175
10856SOL     OW33466   6.303   0.182   6.582
10856SOL    HW133467   6.258   0.093   6.570
10856SOL    HW233468   6.370   0.175   6.657
10857SOL     OW33469   6.335   0.553   4.429
10857SOL    HW133470   6.431   0.574   4.448
10857SOL    HW233471   6.305   0.477   4.487
10858SOL     OW33472   1.951   1.734   1.086
10858SOL    HW133473   2.048   1.717   1.068
10858SOL    HW233474   1.942   1.803   1.158
10859SOL     OW33475   0.762   5.083   2.440
10859SOL    HW133476   0.751   5.025   2.360
10859SOL    HW233477   0.674   5.123   2.465
10860SOL     OW33478   6.416   1.995   0.840
10860SOL    HW133479   6.344   1.930   0.814
10860SOL    HW233480   6.395   2.035   0.929
10861SOL     OW33481   3.325   2.845   2.237
10861SOL    HW133482   3.401   2.881   2.292
10861SOL    HW233483   3.269   2.785   2.293
10862SOL     OW33484   4.010   3.143   5.507
10862SOL    HW133485   3.972   3.195   5.584
10862SOL    HW233486   3.944   3.075   5.476
10863SOL     OW33487   2.218   1.683   2.858
10863SOL    HW133488   2.128   1.687   2.902
10863SOL    HW233489   2.276   1.620   2.908
10864SOL     OW33490   3.275   4.993   2.066
10864SOL    HW133491   3.185   5.016   2.103
10864SOL    HW233492   3.273   4.900   2.030
10865SOL     OW33493   3.425   1.338   3.173
10865SOL    HW133494   3.461   1.267   3.112
10865SOL    HW233495   3.326   1.340   3.166
10866SOL     OW33496   0.107   3.902   3.415
10866SOL    HW133497   0.092   3.819   3.362
10866SOL    HW233498   0.110   3.981   3.353
10867SOL     OW33499   4.468   3.185   0.652
10867SOL    HW133500   4.433   3.147   0.738
10867SOL    HW233501   4.558   3.224   0.667
10868SOL     OW33502   1.048   1.452   5.043
10868SOL    HW133503   0.993   1.512   5.100
10868SOL    HW233504   1.031   1.472   4.947
10869NA      NA33505   6.794   2.576   5.914
10870NA      NA33506   4.463   4.681   5.121
10871NA      NA33507   1.120   4.897   2.743
10872NA      NA33508   5.583   3.852   3.559
10873NA      NA33509   3.853   2.190   5.294
10874NA      NA33510   2.258   4.962   0.238
10875NA      NA33511   1.416   5.448   6.961
10876NA      NA33512   3.468   4.325   0.996
10877NA      NA33513   4.468   5.317   0.764
10878NA      NA33514   3.275   0.876   6.340
10879NA      NA33515   5.565   6.748   1.974
10880NA      NA33516   1.820   6.787   5.268
10881NA      NA33517   4.116   5.165   1.805
10882NA      NA33518   3.705   3.281   6.763
   7.02295   7.02295   7.02295
