Generated by trjconv : CNT in water t= 391.00000
33518
    1C        C    1   2.847   2.773   4.746
    1C        C    2   2.900   2.722   4.866
    1C        C    3   2.844   2.773   4.984
    1C        C    4   2.846   2.772   4.259
    1C        C    5   2.898   2.727   4.383
    1C        C    6   2.841   2.766   4.506
    1C        C    7   3.018   2.643   4.626
    1C        C    8   2.898   2.719   4.626
    1C        C    9   3.081   2.609   4.748
    1C        C   10   3.013   2.637   4.869
    1C        C   11   3.183   2.493   4.974
    1C        C   12   3.061   2.561   4.976
    1C        C   13   2.845   2.766   3.772
    1C        C   14   2.899   2.724   3.896
    1C        C   15   2.847   2.771   4.018
    1C        C   16   3.019   2.644   4.139
    1C        C   17   2.905   2.727   4.139
    1C        C   18   3.083   2.614   4.262
    1C        C   19   3.017   2.650   4.381
    1C        C   20   3.209   2.558   4.504
    1C        C   21   3.078   2.611   4.503
    1C        C   22   3.279   2.539   4.625
    1C        C   23   3.213   2.557   4.748
    1C        C   24   3.418   2.490   4.865
    1C        C   25   3.276   2.510   4.867
    1C        C   26   3.492   2.484   4.984
    1C        C   27   2.849   2.766   3.283
    1C        C   28   2.899   2.721   3.407
    1C        C   29   2.849   2.770   3.530
    1C        C   30   3.023   2.647   3.651
    1C        C   31   2.906   2.726   3.651
    1C        C   32   3.081   2.608   3.774
    1C        C   33   3.017   2.645   3.894
    1C        C   34   3.212   2.559   4.018
    1C        C   35   3.081   2.612   4.016
    1C        C   36   3.278   2.533   4.140
    1C        C   37   3.215   2.563   4.262
    1C        C   38   3.418   2.505   4.383
    1C        C   39   3.280   2.536   4.384
    1C        C   40   3.491   2.499   4.504
    1C        C   41   3.417   2.506   4.624
    1C        C   42   3.632   2.480   4.746
    1C        C   43   3.489   2.484   4.743
    1C        C   44   3.705   2.481   4.867
    1C        C   45   3.631   2.477   4.985
    1C        C   46   2.842   2.757   2.793
    1C        C   47   2.896   2.715   2.916
    1C        C   48   2.846   2.764   3.039
    1C        C   49   3.018   2.638   3.161
    1C        C   50   2.903   2.720   3.161
    1C        C   51   3.076   2.604   3.285
    1C        C   52   3.013   2.637   3.407
    1C        C   53   3.210   2.551   3.528
    1C        C   54   3.080   2.607   3.528
    1C        C   55   3.278   2.534   3.650
    1C        C   56   3.211   2.553   3.773
    1C        C   57   3.418   2.509   3.893
    1C        C   58   3.279   2.535   3.896
    1C        C   59   3.487   2.503   4.016
    1C        C   60   3.416   2.502   4.139
    1C        C   61   3.629   2.499   4.258
    1C        C   62   3.488   2.495   4.260
    1C        C   63   3.701   2.503   4.380
    1C        C   64   3.632   2.502   4.502
    1C        C   65   3.837   2.541   4.622
    1C        C   66   3.702   2.499   4.625
    1C        C   67   3.906   2.561   4.744
    1C        C   68   3.840   2.524   4.863
    1C        C   69   4.055   2.584   4.978
    1C        C   70   3.925   2.532   4.973
    1C        C   71   2.823   2.736   2.308
    1C        C   72   2.887   2.697   2.428
    1C        C   73   2.834   2.746   2.550
    1C        C   74   3.009   2.624   2.673
    1C        C   75   2.895   2.708   2.671
    1C        C   76   3.071   2.591   2.796
    1C        C   77   3.009   2.631   2.917
    1C        C   78   3.207   2.549   3.038
    1C        C   79   3.077   2.603   3.038
    1C        C   80   3.274   2.529   3.161
    1C        C   81   3.207   2.551   3.284
    1C        C   82   3.415   2.506   3.404
    1C        C   83   3.275   2.527   3.405
    1C        C   84   3.487   2.496   3.525
    1C        C   85   3.417   2.506   3.648
    1C        C   86   3.628   2.496   3.769
    1C        C   87   3.486   2.497   3.770
    1C        C   88   3.697   2.506   3.892
    1C        C   89   3.628   2.506   4.015
    1C        C   90   3.836   2.548   4.136
    1C        C   91   3.700   2.510   4.136
    1C        C   92   3.904   2.571   4.258
    1C        C   93   3.838   2.539   4.379
    1C        C   94   4.030   2.631   4.499
    1C        C   95   3.904   2.565   4.501
    1C        C   96   4.091   2.670   4.620
    1C        C   97   4.033   2.624   4.741
    1C        C   98   4.192   2.765   4.865
    1C        C   99   4.098   2.657   4.863
    1C        C  100   4.211   2.843   4.980
    1C        C  101   2.819   2.730   2.070
    1C        C  102   2.989   2.593   2.191
    1C        C  103   2.877   2.682   2.188
    1C        C  104   3.064   2.576   2.310
    1C        C  105   3.006   2.622   2.431
    1C        C  106   3.198   2.530   2.552
    1C        C  107   3.067   2.582   2.552
    1C        C  108   3.270   2.522   2.673
    1C        C  109   3.203   2.542   2.796
    1C        C  110   3.414   2.500   2.914
    1C        C  111   3.275   2.525   2.916
    1C        C  112   3.482   2.496   3.038
    1C        C  113   3.413   2.507   3.161
    1C        C  114   3.627   2.498   3.279
    1C        C  115   3.486   2.496   3.282
    1C        C  116   3.695   2.508   3.403
    1C        C  117   3.628   2.495   3.526
    1C        C  118   3.836   2.543   3.645
    1C        C  119   3.699   2.507   3.647
    1C        C  120   3.897   2.572   3.770
    1C        C  121   3.833   2.542   3.892
    1C        C  122   4.027   2.635   4.013
    1C        C  123   3.901   2.570   4.013
    1C        C  124   4.091   2.671   4.134
    1C        C  125   4.029   2.637   4.257
    1C        C  126   4.194   2.769   4.377
    1C        C  127   4.092   2.671   4.379
    1C        C  128   4.239   2.822   4.500
    1C        C  129   4.194   2.766   4.621
    1C        C  130   4.324   2.935   4.743
    1C        C  131   4.243   2.818   4.743
    1C        C  132   4.348   3.009   4.861
    1C        C  133   4.277   2.965   4.974
    1C        C  134   3.177   2.470   2.080
    1C        C  135   3.043   2.510   2.087
    1C        C  136   3.262   2.478   2.192
    1C        C  137   3.194   2.519   2.309
    1C        C  138   3.403   2.481   2.427
    1C        C  139   3.263   2.499   2.430
    1C        C  140   3.479   2.483   2.546
    1C        C  141   3.410   2.500   2.668
    1C        C  142   3.622   2.487   2.789
    1C        C  143   3.481   2.493   2.790
    1C        C  144   3.692   2.495   2.911
    1C        C  145   3.623   2.490   3.034
    1C        C  146   3.830   2.539   3.154
    1C        C  147   3.695   2.498   3.156
    1C        C  148   3.898   2.562   3.276
    1C        C  149   3.832   2.542   3.400
    1C        C  150   4.027   2.627   3.524
    1C        C  151   3.900   2.565   3.522
    1C        C  152   4.087   2.668   3.646
    1C        C  153   4.024   2.634   3.768
    1C        C  154   4.188   2.768   3.888
    1C        C  155   4.083   2.674   3.890
    1C        C  156   4.240   2.817   4.010
    1C        C  157   4.201   2.760   4.133
    1C        C  158   4.333   2.927   4.255
    1C        C  159   4.248   2.815   4.254
    1C        C  160   4.371   2.987   4.377
    1C        C  161   4.331   2.929   4.499
    1C        C  162   4.439   3.112   4.615
    1C        C  163   4.367   2.991   4.621
    1C        C  164   4.465   3.184   4.734
    1C        C  165   4.430   3.123   4.857
    1C        C  166   4.508   3.323   4.971
    1C        C  167   4.477   3.188   4.972
    1C        C  168   3.481   2.438   2.075
    1C        C  169   3.402   2.464   2.188
    1C        C  170   3.619   2.462   2.305
    1C        C  171   3.477   2.466   2.308
    1C        C  172   3.691   2.487   2.424
    1C        C  173   3.620   2.484   2.546
    1C        C  174   3.828   2.536   2.666
    1C        C  175   3.693   2.492   2.667
    1C        C  176   3.891   2.562   2.790
    1C        C  177   3.829   2.532   2.913
    1C        C  178   4.024   2.625   3.032
    1C        C  179   3.899   2.558   3.032
    1C        C  180   4.083   2.663   3.155
    1C        C  181   4.023   2.627   3.277
    1C        C  182   4.196   2.750   3.397
    1C        C  183   4.082   2.665   3.400
    1C        C  184   4.244   2.805   3.518
    1C        C  185   4.194   2.760   3.643
    1C        C  186   4.333   2.920   3.763
    1C        C  187   4.242   2.812   3.765
    1C        C  188   4.378   2.975   3.885
    1C        C  189   4.331   2.925   4.009
    1C        C  190   4.442   3.106   4.128
    1C        C  191   4.374   2.982   4.131
    1C        C  192   4.469   3.175   4.249
    1C        C  193   4.439   3.111   4.371
    1C        C  194   4.505   3.314   4.492
    1C        C  195   4.466   3.178   4.493
    1C        C  196   4.522   3.387   4.611
    1C        C  197   4.505   3.320   4.735
    1C        C  198   4.556   3.537   4.850
    1C        C  199   4.521   3.398   4.853
    1C        C  200   4.583   3.621   4.963
    1C        C  201   3.619   2.414   2.072
    1C        C  202   3.828   2.511   2.180
    1C        C  203   3.696   2.455   2.185
    1C        C  204   3.899   2.538   2.300
    1C        C  205   3.830   2.515   2.421
    1C        C  206   4.021   2.610   2.543
    1C        C  207   3.894   2.548   2.542
    1C        C  208   4.083   2.651   2.663
    1C        C  209   4.017   2.627   2.786
    1C        C  210   4.187   2.755   2.906
    1C        C  211   4.077   2.665   2.908
    1C        C  212   4.240   2.798   3.029
    1C        C  213   4.194   2.751   3.154
    1C        C  214   4.334   2.910   3.272
    1C        C  215   4.247   2.799   3.275
    1C        C  216   4.374   2.970   3.394
    1C        C  217   4.333   2.914   3.517
    1C        C  218   4.433   3.103   3.639
    1C        C  219   4.372   2.976   3.639
    1C        C  220   4.459   3.170   3.761
    1C        C  221   4.438   3.103   3.884
    1C        C  222   4.501   3.307   4.004
    1C        C  223   4.468   3.169   4.005
    1C        C  224   4.514   3.379   4.125
    1C        C  225   4.506   3.311   4.248
    1C        C  226   4.516   3.525   4.366
    1C        C  227   4.511   3.384   4.369
    1C        C  228   4.517   3.599   4.486
    1C        C  229   4.527   3.528   4.608
    1C        C  230   4.504   3.742   4.727
    1C        C  231   4.537   3.604   4.726
    1C        C  232   4.493   3.820   4.845
    1C        C  233   4.548   3.757   4.958
    1C        C  234   4.020   2.610   2.061
    1C        C  235   3.895   2.549   2.062
    1C        C  236   4.085   2.647   2.179
    1C        C  237   4.025   2.603   2.300
    1C        C  238   4.194   2.735   2.422
    1C        C  239   4.085   2.642   2.421
    1C        C  240   4.251   2.784   2.542
    1C        C  241   4.195   2.736   2.662
    1C        C  242   4.332   2.903   2.784
    1C        C  243   4.241   2.795   2.782
    1C        C  244   4.373   2.963   2.905
    1C        C  245   4.330   2.908   3.027
    1C        C  246   4.438   3.092   3.148
    1C        C  247   4.376   2.965   3.148
    1C        C  248   4.458   3.160   3.270
    1C        C  249   4.431   3.099   3.395
    1C        C  250   4.497   3.303   3.514
    1C        C  251   4.459   3.166   3.516
    1C        C  252   4.504   3.373   3.636
    1C        C  253   4.496   3.306   3.761
    1C        C  254   4.521   3.518   3.879
    1C        C  255   4.510   3.377   3.882
    1C        C  256   4.519   3.592   3.999
    1C        C  257   4.522   3.520   4.121
    1C        C  258   4.490   3.731   4.243
    1C        C  259   4.516   3.592   4.242
    1C        C  260   4.474   3.804   4.363
    1C        C  261   4.490   3.738   4.487
    1C        C  262   4.427   3.943   4.606
    1C        C  263   4.478   3.811   4.607
    1C        C  264   4.401   4.015   4.725
    1C        C  265   4.433   3.947   4.845
    1C        C  266   4.329   4.138   4.954
    1C        C  267   4.396   4.017   4.961
    1C        C  268   4.268   2.772   2.067
    1C        C  269   4.196   2.734   2.181
    1C        C  270   4.343   2.891   2.298
    1C        C  271   4.247   2.786   2.302
    1C        C  272   4.381   2.954   2.419
    1C        C  273   4.342   2.892   2.540
    1C        C  274   4.441   3.083   2.661
    1C        C  275   4.376   2.957   2.661
    1C        C  276   4.471   3.150   2.781
    1C        C  277   4.446   3.084   2.904
    1C        C  278   4.502   3.292   3.025
    1C        C  279   4.466   3.155   3.025
    1C        C  280   4.515   3.363   3.146
    1C        C  281   4.496   3.296   3.269
    1C        C  282   4.514   3.509   3.389
    1C        C  283   4.516   3.367   3.390
    1C        C  284   4.507   3.581   3.510
    1C        C  285   4.512   3.514   3.634
    1C        C  286   4.494   3.727   3.753
    1C        C  287   4.514   3.587   3.755
    1C        C  288   4.479   3.796   3.875
    1C        C  289   4.492   3.731   4.000
    1C        C  290   4.426   3.933   4.116
    1C        C  291   4.478   3.802   4.121
    1C        C  292   4.396   3.999   4.237
    1C        C  293   4.423   3.936   4.360
    1C        C  294   4.336   4.130   4.478
    1C        C  295   4.398   4.004   4.482
    1C        C  296   4.289   4.192   4.596
    1C        C  297   4.333   4.139   4.720
    1C        C  298   4.197   4.315   4.835
    1C        C  299   4.286   4.203   4.838
    1C        C  300   4.169   4.401   4.947
    1C        C  301   4.350   2.883   2.061
    1C        C  302   4.473   3.065   2.177
    1C        C  303   4.399   2.943   2.178
    1C        C  304   4.484   3.141   2.297
    1C        C  305   4.443   3.081   2.417
    1C        C  306   4.505   3.285   2.540
    1C        C  307   4.468   3.149   2.538
    1C        C  308   4.518   3.359   2.660
    1C        C  309   4.504   3.287   2.780
    1C        C  310   4.519   3.500   2.901
    1C        C  311   4.512   3.359   2.902
    1C        C  312   4.516   3.572   3.022
    1C        C  313   4.523   3.505   3.146
    1C        C  314   4.490   3.718   3.262
    1C        C  315   4.514   3.579   3.266
    1C        C  316   4.470   3.787   3.384
    1C        C  317   4.485   3.721   3.508
    1C        C  318   4.431   3.927   3.628
    1C        C  319   4.473   3.792   3.629
    1C        C  320   4.396   3.992   3.749
    1C        C  321   4.428   3.927   3.871
    1C        C  322   4.320   4.113   3.990
    1C        C  323   4.395   3.992   3.992
    1C        C  324   4.277   4.169   4.112
    1C        C  325   4.324   4.121   4.237
    1C        C  326   4.189   4.286   4.355
    1C        C  327   4.288   4.186   4.357
    1C        C  328   4.132   4.336   4.474
    1C        C  329   4.189   4.292   4.595
    1C        C  330   4.020   4.432   4.713
    1C        C  331   4.139   4.354   4.712
    1C        C  332   3.968   4.489   4.831
    1C        C  333   4.053   4.479   4.942
    1C        C  334   4.557   3.268   2.065
    1C        C  335   4.540   3.129   2.068
    1C        C  336   4.545   3.350   2.178
    1C        C  337   4.519   3.279   2.298
    1C        C  338   4.531   3.494   2.413
    1C        C  339   4.526   3.353   2.418
    1C        C  340   4.525   3.569   2.532
    1C        C  341   4.520   3.500   2.656
    1C        C  342   4.494   3.710   2.775
    1C        C  343   4.513   3.570   2.778
    1C        C  344   4.481   3.782   2.896
    1C        C  345   4.492   3.711   3.018
    1C        C  346   4.428   3.917   3.139
    1C        C  347   4.474   3.783   3.138
    1C        C  348   4.394   3.981   3.260
    1C        C  349   4.426   3.921   3.383
    1C        C  350   4.320   4.104   3.502
    1C        C  351   4.401   3.989   3.505
    1C        C  352   4.277   4.166   3.622
    1C        C  353   4.320   4.110   3.745
    1C        C  354   4.181   4.269   3.868
    1C        C  355   4.281   4.169   3.867
    1C        C  356   4.124   4.315   3.989
    1C        C  357   4.179   4.271   4.112
    1C        C  358   4.010   4.400   4.232
    1C        C  359   4.128   4.323   4.233
    1C        C  360   3.950   4.449   4.350
    1C        C  361   4.016   4.416   4.471
    1C        C  362   3.824   4.513   4.592
    1C        C  363   3.955   4.461   4.590
    1C        C  364   3.761   4.545   4.714
    1C        C  365   3.837   4.541   4.833
    1C        C  366   3.628   4.603   4.948
    1C        C  367   3.764   4.571   4.949
    1C        C  368   4.513   3.564   2.055
    1C        C  369   4.527   3.490   2.173
    1C        C  370   4.505   3.706   2.286
    1C        C  371   4.521   3.566   2.291
    1C        C  372   4.487   3.776   2.408
    1C        C  373   4.504   3.709   2.531
    1C        C  374   4.431   3.910   2.651
    1C        C  375   4.485   3.779   2.652
    1C        C  376   4.400   3.974   2.772
    1C        C  377   4.430   3.914   2.896
    1C        C  378   4.311   4.093   3.014
    1C        C  379   4.390   3.977   3.017
    1C        C  380   4.274   4.153   3.137
    1C        C  381   4.319   4.101   3.260
    1C        C  382   4.173   4.258   3.378
    1C        C  383   4.275   4.160   3.381
    1C        C  384   4.119   4.305   3.500
    1C        C  385   4.177   4.265   3.623
    1C        C  386   4.008   4.388   3.743
    1C        C  387   4.129   4.316   3.746
    1C        C  388   3.945   4.427   3.863
    1C        C  389   4.005   4.390   3.986
    1C        C  390   3.817   4.484   4.110
    1C        C  391   3.948   4.432   4.109
    1C        C  392   3.748   4.516   4.229
    1C        C  393   3.821   4.506   4.350
    1C        C  394   3.614   4.556   4.473
    1C        C  395   3.754   4.533   4.471
    1C        C  396   3.546   4.566   4.596
    1C        C  397   3.622   4.567   4.715
    1C        C  398   3.410   4.551   4.840
    1C        C  399   3.548   4.580   4.835
    1C        C  400   3.343   4.514   4.957
    1C        C  401   4.500   3.702   2.052
    1C        C  402   4.457   3.917   2.167
    1C        C  403   4.494   3.781   2.167
    1C        C  404   4.418   3.978   2.288
    1C        C  405   4.443   3.910   2.409
    1C        C  406   4.330   4.094   2.526
    1C        C  407   4.409   3.977   2.529
    1C        C  408   4.281   4.148   2.647
    1C        C  409   4.322   4.092   2.770
    1C        C  410   4.177   4.253   2.889
    1C        C  411   4.273   4.149   2.890
    1C        C  412   4.126   4.302   3.011
    1C        C  413   4.177   4.256   3.135
    1C        C  414   4.000   4.378   3.252
    1C        C  415   4.119   4.301   3.255
    1C        C  416   3.941   4.414   3.375
    1C        C  417   4.000   4.381   3.500
    1C        C  418   3.813   4.480   3.619
    1C        C  419   3.940   4.418   3.622
    1C        C  420   3.748   4.506   3.741
    1C        C  421   3.816   4.483   3.863
    1C        C  422   3.614   4.540   3.984
    1C        C  423   3.751   4.506   3.987
    1C        C  424   3.543   4.551   4.105
    1C        C  425   3.610   4.546   4.229
    1C        C  426   3.401   4.556   4.356
    1C        C  427   3.542   4.559   4.352
    1C        C  428   3.332   4.555   4.479
    1C        C  429   3.405   4.562   4.600
    1C        C  430   3.194   4.520   4.723
    1C        C  431   3.334   4.545   4.721
    1C        C  432   3.124   4.496   4.844
    1C        C  433   3.205   4.498   4.959
    1C        C  434   4.384   4.121   2.052
    1C        C  435   4.448   3.996   2.051
    1C        C  436   4.305   4.162   2.165
    1C        C  437   4.336   4.094   2.286
    1C        C  438   4.180   4.246   2.401
    1C        C  439   4.282   4.149   2.405
    1C        C  440   4.123   4.289   2.523
    1C        C  441   4.181   4.247   2.645
    1C        C  442   4.007   4.375   2.765
    1C        C  443   4.123   4.295   2.765
    1C        C  444   3.943   4.408   2.887
    1C        C  445   4.006   4.375   3.009
    1C        C  446   3.811   4.469   3.130
    1C        C  447   3.939   4.410   3.129
    1C        C  448   3.747   4.497   3.253
    1C        C  449   3.814   4.476   3.376
    1C        C  450   3.608   4.529   3.498
    1C        C  451   3.746   4.501   3.497
    1C        C  452   3.537   4.542   3.620
    1C        C  453   3.610   4.536   3.741
    1C        C  454   3.399   4.549   3.864
    1C        C  455   3.541   4.549   3.863
    1C        C  456   3.331   4.537   3.987
    1C        C  457   3.402   4.546   4.110
    1C        C  458   3.195   4.513   4.239
    1C        C  459   3.332   4.545   4.233
    1C        C  460   3.127   4.490   4.360
    1C        C  461   3.196   4.517   4.481
    1C        C  462   2.997   4.438   4.602
    1C        C  463   3.126   4.496   4.602
    1C        C  464   2.930   4.403   4.722
    1C        C  465   2.990   4.445   4.843
    1C        C  466   2.802   4.339   4.958
    1C        C  467   2.905   4.434   4.958
    1C        C  468   4.120   4.280   2.042
    1C        C  469   4.190   4.247   2.159
    1C        C  470   4.006   4.367   2.281
    1C        C  471   4.125   4.290   2.278
    1C        C  472   3.938   4.397   2.402
    1C        C  473   4.003   4.364   2.523
    1C        C  474   3.814   4.464   2.644
    1C        C  475   3.944   4.408   2.643
    1C        C  476   3.746   4.491   2.765
    1C        C  477   3.814   4.465   2.885
    1C        C  478   3.608   4.521   3.009
    1C        C  479   3.745   4.487   3.007
    1C        C  480   3.538   4.531   3.132
    1C        C  481   3.608   4.523   3.254
    1C        C  482   3.395   4.531   3.375
    1C        C  483   3.537   4.533   3.376
    1C        C  484   3.326   4.532   3.497
    1C        C  485   3.396   4.541   3.620
    1C        C  486   3.190   4.508   3.747
    1C        C  487   3.327   4.540   3.743
    1C        C  488   3.127   4.483   3.871
    1C        C  489   3.194   4.506   3.993
    1C        C  490   3.005   4.418   4.116
    1C        C  491   3.128   4.487   4.117
    1C        C  492   2.947   4.383   4.240
    1C        C  493   2.998   4.433   4.362
    1C        C  494   2.828   4.303   4.484
    1C        C  495   2.934   4.397   4.483
    1C        C  496   2.772   4.257   4.605
    1C        C  497   2.817   4.317   4.725
    1C        C  498   2.664   4.165   4.843
    1C        C  499   2.754   4.273   4.843
    1C        C  500   2.600   4.115   4.958
    1C        C  501   3.998   4.347   2.044
    1C        C  502   3.817   4.467   2.156
    1C        C  503   3.941   4.401   2.160
    1C        C  504   3.744   4.481   2.277
    1C        C  505   3.808   4.453   2.399
    1C        C  506   3.606   4.505   2.522
    1C        C  507   3.745   4.479   2.522
    1C        C  508   3.535   4.515   2.644
    1C        C  509   3.606   4.511   2.766
    1C        C  510   3.394   4.527   2.884
    1C        C  511   3.535   4.520   2.888
    1C        C  512   3.325   4.521   3.007
    1C        C  513   3.397   4.528   3.128
    1C        C  514   3.191   4.493   3.256
    1C        C  515   3.328   4.525   3.251
    1C        C  516   3.124   4.473   3.379
    1C        C  517   3.188   4.503   3.502
    1C        C  518   2.997   4.416   3.626
    1C        C  519   3.123   4.481   3.625
    1C        C  520   2.941   4.377   3.750
    1C        C  521   3.005   4.413   3.871
    1C        C  522   2.841   4.282   3.999
    1C        C  523   2.948   4.373   3.994
    1C        C  524   2.790   4.235   4.122
    1C        C  525   2.842   4.290   4.242
    1C        C  526   2.701   4.131   4.365
    1C        C  527   2.784   4.245   4.363
    1C        C  528   2.655   4.076   4.486
    1C        C  529   2.686   4.144   4.606
    1C        C  530   2.583   3.958   4.732
    1C        C  531   2.643   4.087   4.727
    1C        C  532   2.540   3.900   4.855
    1C        C  533   2.533   3.993   4.964
    1C        C  534   3.616   4.554   2.040
    1C        C  535   3.747   4.505   2.041
    1C        C  536   3.535   4.535   2.156
    1C        C  537   3.605   4.509   2.278
    1C        C  538   3.394   4.517   2.401
    1C        C  539   3.535   4.515   2.400
    1C        C  540   3.320   4.512   2.521
    1C        C  541   3.393   4.515   2.642
    1C        C  542   3.184   4.484   2.767
    1C        C  543   3.321   4.517   2.764
    1C        C  544   3.122   4.463   2.892
    1C        C  545   3.187   4.488   3.014
    1C        C  546   2.995   4.401   3.137
    1C        C  547   3.120   4.467   3.137
    1C        C  548   2.938   4.366   3.261
    1C        C  549   2.997   4.411   3.381
    1C        C  550   2.834   4.279   3.507
    1C        C  551   2.937   4.375   3.505
    1C        C  552   2.784   4.232   3.631
    1C        C  553   2.835   4.284   3.752
    1C        C  554   2.706   4.120   3.875
    1C        C  555   2.792   4.232   3.876
    1C        C  556   2.666   4.062   3.998
    1C        C  557   2.702   4.125   4.119
    1C        C  558   2.608   3.940   4.246
    1C        C  559   2.663   4.069   4.243
    1C        C  560   2.576   3.877   4.369
    1C        C  561   2.602   3.945   4.490
    1C        C  562   2.539   3.745   4.614
    1C        C  563   2.574   3.882   4.613
    1C        C  564   2.513   3.682   4.738
    1C        C  565   2.517   3.759   4.857
    1C        C  566   2.527   3.542   4.976
    1C        C  567   2.523   3.681   4.974
    1C        C  568   3.328   4.471   2.040
    1C        C  569   3.395   4.513   2.156
    1C        C  570   3.184   4.480   2.280
    1C        C  571   3.323   4.509   2.279
    1C        C  572   3.115   4.462   2.402
    1C        C  573   3.181   4.488   2.524
    1C        C  574   2.987   4.404   2.648
    1C        C  575   3.113   4.466   2.646
    1C        C  576   2.931   4.362   2.771
    1C        C  577   2.996   4.398   2.891
    1C        C  578   2.830   4.271   3.016
    1C        C  579   2.935   4.366   3.015
    1C        C  580   2.785   4.221   3.140
    1C        C  581   2.831   4.273   3.263
    1C        C  582   2.705   4.107   3.386
    1C        C  583   2.786   4.222   3.387
    1C        C  584   2.668   4.051   3.511
    1C        C  585   2.703   4.117   3.631
    1C        C  586   2.605   3.931   3.756
    1C        C  587   2.665   4.059   3.755
    1C        C  588   2.583   3.867   3.880
    1C        C  589   2.611   3.932   4.002
    1C        C  590   2.542   3.735   4.124
    1C        C  591   2.585   3.869   4.126
    1C        C  592   2.528   3.669   4.249
    1C        C  593   2.541   3.740   4.370
    1C        C  594   2.511   3.532   4.497
    1C        C  595   2.526   3.673   4.494
    1C        C  596   2.514   3.464   4.620
    1C        C  597   2.505   3.540   4.739
    1C        C  598   2.525   3.326   4.865
    1C        C  599   2.509   3.466   4.859
    1C        C  600   2.526   3.244   4.978
    1C        C  601   3.195   4.435   2.044
    1C        C  602   2.982   4.398   2.161
    1C        C  603   3.116   4.446   2.159
    1C        C  604   2.927   4.354   2.285
    1C        C  605   2.990   4.397   2.403
    1C        C  606   2.817   4.277   2.529
    1C        C  607   2.928   4.364   2.526
    1C        C  608   2.773   4.219   2.651
    1C        C  609   2.823   4.271   2.772
    1C        C  610   2.693   4.108   2.895
    1C        C  611   2.773   4.225   2.895
    1C        C  612   2.658   4.052   3.020
    1C        C  613   2.694   4.113   3.142
    1C        C  614   2.596   3.925   3.266
    1C        C  615   2.663   4.049   3.264
    1C        C  616   2.568   3.864   3.390
    1C        C  617   2.602   3.926   3.512
    1C        C  618   2.538   3.726   3.636
    1C        C  619   2.577   3.862   3.635
    1C        C  620   2.522   3.659   3.759
    1C        C  621   2.539   3.733   3.879
    1C        C  622   2.515   3.525   4.010
    1C        C  623   2.528   3.665   4.002
    1C        C  624   2.516   3.455   4.133
    1C        C  625   2.515   3.529   4.254
    1C        C  626   2.533   3.319   4.379
    1C        C  627   2.510   3.458   4.376
    1C        C  628   2.561   3.256   4.503
    1C        C  629   2.539   3.325   4.624
    1C        C  630   2.599   3.121   4.745
    1C        C  631   2.549   3.254   4.745
    1C        C  632   2.619   3.049   4.866
    1C        C  633   2.555   3.107   4.980
    1C        C  634   2.780   4.307   2.055
    1C        C  635   2.891   4.392   2.050
    1C        C  636   2.749   4.231   2.168
    1C        C  637   2.810   4.273   2.288
    1C        C  638   2.676   4.110   2.409
    1C        C  639   2.764   4.221   2.411
    1C        C  640   2.641   4.049   2.531
    1C        C  641   2.685   4.108   2.651
    1C        C  642   2.590   3.920   2.777
    1C        C  643   2.650   4.048   2.774
    1C        C  644   2.565   3.858   2.902
    1C        C  645   2.597   3.924   3.022
    1C        C  646   2.537   3.720   3.148
    1C        C  647   2.577   3.856   3.144
    1C        C  648   2.520   3.652   3.271
    1C        C  649   2.532   3.727   3.390
    1C        C  650   2.513   3.518   3.519
    1C        C  651   2.522   3.658   3.513
    1C        C  652   2.514   3.449   3.643
    1C        C  653   2.508   3.519   3.766
    1C        C  654   2.530   3.311   3.890
    1C        C  655   2.511   3.451   3.890
    1C        C  656   2.546   3.246   4.014
    1C        C  657   2.532   3.315   4.137
    1C        C  658   2.598   3.114   4.260
    1C        C  659   2.550   3.246   4.259
    1C        C  660   2.633   3.053   4.383
    1C        C  661   2.604   3.121   4.504
    1C        C  662   2.708   2.936   4.624
    1C        C  663   2.628   3.053   4.625
    1C        C  664   2.750   2.877   4.745
    1C        C  665   2.699   2.931   4.867
    1C        C  666   2.749   2.875   4.985
    1C        C  667   2.675   4.025   2.053
    1C        C  668   2.686   4.104   2.168
    1C        C  669   2.588   3.912   2.290
    1C        C  670   2.647   4.042   2.289
    1C        C  671   2.566   3.847   2.413
    1C        C  672   2.591   3.916   2.533
    1C        C  673   2.528   3.716   2.659
    1C        C  674   2.567   3.852   2.656
    1C        C  675   2.513   3.647   2.781
    1C        C  676   2.529   3.721   2.901
    1C        C  677   2.514   3.512   3.030
    1C        C  678   2.522   3.653   3.025
    1C        C  679   2.510   3.440   3.151
    1C        C  680   2.510   3.511   3.273
    1C        C  681   2.527   3.304   3.402
    1C        C  682   2.513   3.445   3.398
    1C        C  683   2.550   3.238   3.525
    1C        C  684   2.537   3.310   3.646
    1C        C  685   2.598   3.109   3.773
    1C        C  686   2.548   3.241   3.769
    1C        C  687   2.634   3.049   3.895
    1C        C  688   2.599   3.115   4.015
    1C        C  689   2.708   2.934   4.140
    1C        C  690   2.629   3.051   4.137
    1C        C  691   2.748   2.874   4.262
    1C        C  692   2.709   2.934   4.383
    1C        C  693   2.752   2.876   4.504
    1C        C  694   2.626   3.894   2.057
    1C        C  695   2.524   3.703   2.171
    1C        C  696   2.573   3.835   2.172
    1C        C  697   2.503   3.640   2.296
    1C        C  698   2.523   3.712   2.416
    1C        C  699   2.494   3.503   2.541
    1C        C  700   2.508   3.644   2.539
    1C        C  701   2.507   3.435   2.663
    1C        C  702   2.507   3.506   2.785
    1C        C  703   2.525   3.298   2.912
    1C        C  704   2.509   3.438   2.909
    1C        C  705   2.546   3.230   3.034
    1C        C  706   2.532   3.301   3.156
    1C        C  707   2.598   3.104   3.279
    1C        C  708   2.550   3.237   3.280
    1C        C  709   2.628   3.043   3.403
    1C        C  710   2.602   3.107   3.527
    1C        C  711   2.709   2.927   3.649
    1C        C  712   2.632   3.046   3.651
    1C        C  713   2.753   2.873   3.772
    1C        C  714   2.712   2.931   3.895
    1C        C  715   2.754   2.877   4.019
    1C        C  716   2.458   3.495   2.059
    1C        C  717   2.486   3.632   2.057
    1C        C  718   2.462   3.420   2.181
    1C        C  719   2.483   3.499   2.298
    1C        C  720   2.513   3.291   2.425
    1C        C  721   2.488   3.430   2.420
    1C        C  722   2.531   3.221   2.546
    1C        C  723   2.523   3.294   2.666
    1C        C  724   2.593   3.097   2.790
    1C        C  725   2.540   3.228   2.790
    1C        C  726   2.626   3.035   2.912
    1C        C  727   2.591   3.096   3.035
    1C        C  728   2.704   2.919   3.160
    1C        C  729   2.624   3.035   3.158
    1C        C  730   2.750   2.867   3.283
    1C        C  731   2.709   2.928   3.403
    1C        C  732   2.753   2.874   3.526
    1C        C  733   2.488   3.195   2.070
    1C        C  734   2.485   3.279   2.183
    1C        C  735   2.589   3.090   2.304
    1C        C  736   2.526   3.218   2.304
    1C        C  737   2.617   3.026   2.426
    1C        C  738   2.581   3.088   2.548
    1C        C  739   2.696   2.910   2.669
    1C        C  740   2.617   3.027   2.670
    1C        C  741   2.739   2.854   2.791
    1C        C  742   2.704   2.918   2.912
    1C        C  743   2.748   2.866   3.036
    1C        C  744   2.542   3.067   2.072
    1C        C  745   2.685   2.899   2.186
    1C        C  746   2.611   3.019   2.184
    1C        C  747   2.727   2.841   2.308
    1C        C  748   2.689   2.904   2.428
    1C        C  749   2.736   2.848   2.549
    1C        C  750   2.737   2.842   2.069
    1C        C  751   3.676   2.352   1.951
    1C        O  752   3.721   2.234   1.956
    1C        O  753   3.640   2.376   1.818
    1C        C  754   4.651   3.051   2.011
    1C        O  755   4.679   3.054   1.888
    1C        O  756   4.749   2.975   2.076
    1C        C  757   4.444   4.215   1.955
    1C        O  758   4.570   4.222   1.952
    1C        O  759   4.382   4.222   1.830
    1C        C  760   3.606   4.681   1.964
    1C        O  761   3.593   4.785   2.033
    1C        O  762   3.532   4.686   1.845
    1C        C  763   2.878   4.491   1.941
    1C        O  764   2.904   4.463   1.821
    1C        O  765   2.817   4.612   1.976
    1C        C  766   2.393   3.447   1.935
    1C        O  767   2.439   3.475   1.821
    1C        O  768   2.253   3.444   1.945
    1C        C  769   4.671   3.578   5.073
    1C        O  770   4.643   3.542   5.191
    1C        O  771   4.791   3.650   5.072
    1C        C  772   4.281   4.458   5.025
    1C        O  773   4.292   4.431   5.148
    1C        O  774   4.337   4.582   4.991
    1C        C  775   4.148   2.516   5.072
    1C        O  776   4.239   2.442   5.026
    1C        O  777   4.194   2.565   5.195
    1C        C  778   2.883   4.554   5.042
    1C        O  779   2.815   4.651   5.001
    1C        O  780   2.881   4.554   5.182
    1C        C  781   2.470   3.025   5.070
    1C        O  782   2.368   2.962   5.029
    1C        O  783   2.492   3.015   5.207
    1C        C  784   2.406   4.005   5.040
    1C        O  785   2.295   3.992   4.984
    1C        O  786   2.405   4.013   5.180
    1C        C  787   2.957   2.453   1.981
    1C        O  788   3.006   2.435   1.866
    1C        O  789   2.856   2.359   2.001
    1C        C  790   3.188   2.375   5.064
    1C        O  791   3.174   2.255   5.030
    1C        O  792   3.147   2.384   5.198
    1C        H  793   4.262   3.035   5.053
    1C        H  794   4.186   2.805   5.077
    1C        H  795   4.494   3.131   5.061
    1C        H  796   4.497   3.376   5.063
    1C        H  797   4.559   3.813   5.048
    1C        H  798   4.449   4.001   5.053
    1C        H  799   4.328   4.190   5.048
    1C        H  800   4.026   4.523   5.036
    1C        H  801   3.813   4.553   5.043
    1C        H  802   3.583   4.659   5.026
    1C        H  803   3.399   4.469   5.036
    1C        H  804   3.163   4.457   5.048
    1C        H  805   3.887   2.495   5.066
    1C        H  806   3.661   2.405   5.058
    1C        H  807   3.024   2.583   5.075
    1C        H  808   3.441   2.449   5.071
    1C        H  809   2.866   2.728   5.078
    1C        H  810   2.693   2.883   5.076
    1C        H  811   2.466   3.274   5.061
    1C        H  812   2.500   3.499   5.070
    1C        H  813   2.461   3.720   5.052
    1C        H  814   2.574   4.182   5.038
    1C        H  815   2.771   4.297   5.051
    1C        H  816   2.735   2.906   1.983
    1C        H  817   2.862   2.708   1.974
    1C        H  818   3.218   2.433   1.989
    1C        H  819   3.433   2.470   1.985
    1C        H  820   3.826   2.588   1.991
    1C        H  821   4.082   2.586   1.977
    1C        H  822   4.308   2.686   2.016
    1C        H  823   4.343   2.941   1.971
    1C        H  824   4.604   3.308   1.978
    1C        H  825   4.508   3.512   1.961
    1C        H  826   4.504   3.747   1.955
    1C        H  827   3.803   4.514   1.950
    1C        H  828   3.954   4.361   1.948
    1C        H  829   4.137   4.213   1.961
    1C        H  830   4.511   3.980   1.967
    1C        H  831   2.645   3.836   1.968
    1C        H  832   2.666   4.076   1.960
    1C        H  833   2.717   4.295   1.969
    1C        H  834   3.369   4.501   1.945
    1C        H  835   3.157   4.385   1.957
    1C        H  836   2.522   3.000   1.991
    1C        H  837   2.405   3.202   2.002
    1C        H  838   2.484   3.680   1.961
    2V3OU   H29  839   2.808   3.546   4.670
    2V3OU   C27  840   2.791   3.507   4.774
    2V3OU   H27  841   2.740   3.578   4.844
    2V3OU   H28  842   2.743   3.407   4.768
    2V3OU   O11  843   2.911   3.475   4.845
    2V3OU   C15  844   2.921   3.391   4.955
    2V3OU   C13  845   3.054   3.372   4.999
    2V3OU   C14  846   3.078   3.270   5.092
    2V3OU   C16  847   2.974   3.191   5.139
    2V3OU    H6  848   2.992   3.105   5.207
    2V3OU   C12  849   3.216   3.233   5.132
    2V3OU    O2  850   3.238   3.138   5.211
    2V3OU   C10  851   3.326   3.311   5.074
    2V3OU    C8  852   3.458   3.275   5.096
    2V3OU   O10  853   3.492   3.160   5.160
    2V3OU   H26  854   3.410   3.118   5.192
    2V3OU    C6  855   3.566   3.349   5.040
    2V3OU    C5  856   3.540   3.468   4.973
    2V3OU    C4  857   3.705   3.295   5.034
    2V3OU    H4  858   3.732   3.227   5.120
    2V3OU    H5  859   3.707   3.225   4.944
    2V3OU    C2  860   3.817   3.398   5.017
    2V3OU    O6  861   3.809   3.475   5.137
    2V3OU   H21  862   3.765   3.561   5.121
    2V3OU    C3  863   3.783   3.495   4.904
    2V3OU    H2  864   3.864   3.570   4.888
    2V3OU    H3  865   3.781   3.438   4.807
    2V3OU   C25  866   3.951   3.327   4.997
    2V3OU    O7  867   3.997   3.296   4.888
    2V3OU   C26  868   4.028   3.293   5.124
    2V3OU   H22  869   4.057   3.394   5.161
    2V3OU   H23  870   4.120   3.235   5.098
    2V3OU    O8  871   3.961   3.213   5.219
    2V3OU   H24  872   3.938   3.273   5.292
    2V3OU    C1  873   3.647   3.560   4.922
    2V3OU    H1  874   3.626   3.614   4.825
    2V3OU    O3  875   3.662   3.655   5.028
    2V3OU   C19  876   3.620   3.790   5.006
    2V3OU    H9  877   3.525   3.798   4.945
    2V3OU    O4  878   3.715   3.844   4.917
    2V3OU   C20  879   3.846   3.871   4.967
    2V3OU   H10  880   3.893   3.770   4.984
    2V3OU   C24  881   3.608   3.855   5.144
    2V3OU   H16  882   3.539   3.791   5.205
    2V3OU   H17  883   3.563   3.957   5.130
    2V3OU   C23  884   3.748   3.872   5.202
    2V3OU   H15  885   3.789   3.768   5.225
    2V3OU    N1  886   3.728   3.961   5.314
    2V3OU   H19  887   3.805   3.923   5.364
    2V3OU   H20  888   3.656   3.930   5.375
    2V3OU   C21  889   3.844   3.944   5.102
    2V3OU   H11  890   3.946   3.924   5.146
    2V3OU    O5  891   3.820   4.084   5.101
    2V3OU   H18  892   3.775   4.100   5.185
    2V3OU   C22  893   3.911   3.952   4.856
    2V3OU   H12  894   3.860   4.051   4.850
    2V3OU   H13  895   3.910   3.892   4.761
    2V3OU   H14  896   4.020   3.967   4.878
    2V3OU   C11  897   3.160   3.467   4.961
    2V3OU    O1  898   3.131   3.581   4.919
    2V3OU    C9  899   3.298   3.426   4.995
    2V3OU    C7  900   3.403   3.506   4.953
    2V3OU    O9  901   3.381   3.612   4.868
    2V3OU   H25  902   3.286   3.628   4.874
    2V3OU   C17  903   2.819   3.314   5.013
    2V3OU    H7  904   2.723   3.360   5.035
    2V3OU   C18  905   2.842   3.209   5.102
    2V3OU    H8  906   2.762   3.169   5.166
    3SOL     OW  907   2.974   4.145   5.229
    3SOL    HW1  908   2.996   4.233   5.272
    3SOL    HW2  909   2.884   4.149   5.187
    4SOL     OW  910   6.864   0.314   0.197
    4SOL    HW1  911   6.843   0.246   0.128
    4SOL    HW2  912   6.954   0.297   0.236
    5SOL     OW  913   4.387   0.727   1.482
    5SOL    HW1  914   4.346   0.749   1.570
    5SOL    HW2  915   4.466   0.787   1.466
    6SOL     OW  916   5.698   1.138   3.447
    6SOL    HW1  917   5.603   1.154   3.473
    6SOL    HW2  918   5.704   1.132   3.347
    7SOL     OW  919   0.918   4.303   5.466
    7SOL    HW1  920   0.863   4.318   5.383
    7SOL    HW2  921   0.975   4.222   5.454
    8SOL     OW  922   2.187   2.496   5.631
    8SOL    HW1  923   2.150   2.436   5.560
    8SOL    HW2  924   2.193   2.589   5.597
    9SOL     OW  925   6.652   1.607   6.491
    9SOL    HW1  926   6.728   1.639   6.434
    9SOL    HW2  927   6.687   1.563   6.573
   10SOL     OW  928   4.969   4.538   2.420
   10SOL    HW1  929   4.882   4.567   2.461
   10SOL    HW2  930   5.004   4.459   2.470
   11SOL     OW  931   2.034   0.858   6.899
   11SOL    HW1  932   2.049   0.956   6.887
   11SOL    HW2  933   2.059   0.832   6.992
   12SOL     OW  934   2.507   4.875   3.361
   12SOL    HW1  935   2.573   4.866   3.435
   12SOL    HW2  936   2.447   4.953   3.379
   13SOL     OW  937   4.354   6.113   2.570
   13SOL    HW1  938   4.316   6.172   2.499
   13SOL    HW2  939   4.385   6.027   2.530
   14SOL     OW  940   4.956   4.637   5.172
   14SOL    HW1  941   4.975   4.542   5.195
   14SOL    HW2  942   4.920   4.643   5.079
   15SOL     OW  943   0.813   6.012   6.080
   15SOL    HW1  944   0.857   6.045   5.996
   15SOL    HW2  945   0.836   6.074   6.155
   16SOL     OW  946   6.172   2.597   5.999
   16SOL    HW1  947   6.104   2.580   6.071
   16SOL    HW2  948   6.262   2.606   6.041
   17SOL     OW  949   6.280   0.456   5.746
   17SOL    HW1  950   6.340   0.506   5.809
   17SOL    HW2  951   6.197   0.508   5.731
   18SOL     OW  952   3.094   0.694   4.869
   18SOL    HW1  953   3.092   0.611   4.924
   18SOL    HW2  954   3.168   0.754   4.901
   19SOL     OW  955   0.812   1.580   2.942
   19SOL    HW1  956   0.822   1.651   3.011
   19SOL    HW2  957   0.902   1.541   2.922
   20SOL     OW  958   5.570   2.633   5.570
   20SOL    HW1  959   5.515   2.679   5.501
   20SOL    HW2  960   5.510   2.603   5.645
   21SOL     OW  961   3.726   6.087   2.959
   21SOL    HW1  962   3.802   6.120   3.015
   21SOL    HW2  963   3.657   6.046   3.019
   22SOL     OW  964   1.827   6.758   5.064
   22SOL    HW1  965   1.846   6.678   5.121
   22SOL    HW2  966   1.823   6.840   5.121
   23SOL     OW  967   5.223   4.575   1.900
   23SOL    HW1  968   5.311   4.532   1.878
   23SOL    HW2  969   5.158   4.505   1.927
   24SOL     OW  970   3.965   0.112   1.776
   24SOL    HW1  971   4.060   0.135   1.756
   24SOL    HW2  972   3.955   0.013   1.781
   25SOL     OW  973   2.594   6.799   3.445
   25SOL    HW1  974   2.509   6.805   3.496
   25SOL    HW2  975   2.628   6.891   3.424
   26SOL     OW  976   1.681   1.925   6.696
   26SOL    HW1  977   1.706   1.940   6.601
   26SOL    HW2  978   1.592   1.965   6.715
   27SOL     OW  979   6.519   0.946   2.329
   27SOL    HW1  980   6.474   1.011   2.269
   27SOL    HW2  981   6.618   0.953   2.318
   28SOL     OW  982   1.940   0.844   4.963
   28SOL    HW1  983   1.941   0.851   5.062
   28SOL    HW2  984   1.849   0.817   4.932
   29SOL     OW  985   0.011   0.881   7.009
   29SOL    HW1  986   6.947   0.838   6.989
   29SOL    HW2  987   0.015   0.903   0.083
   30SOL     OW  988   3.813   0.593   4.932
   30SOL    HW1  989   3.785   0.654   4.858
   30SOL    HW2  990   3.864   0.645   5.001
   31SOL     OW  991   0.189   2.772   4.936
   31SOL    HW1  992   0.266   2.833   4.917
   31SOL    HW2  993   0.200   2.687   4.885
   32SOL     OW  994   1.615   1.246   0.663
   32SOL    HW1  995   1.621   1.151   0.632
   32SOL    HW2  996   1.667   1.256   0.748
   33SOL     OW  997   0.448   3.760   6.457
   33SOL    HW1  998   0.480   3.747   6.551
   33SOL    HW2  999   0.419   3.855   6.445
   34SOL     OW 1000   2.022   5.481   5.262
   34SOL    HW1 1001   2.012   5.571   5.218
   34SOL    HW2 1002   1.979   5.483   5.352
   35SOL     OW 1003   3.642   3.097   6.794
   35SOL    HW1 1004   3.688   3.010   6.777
   35SOL    HW2 1005   3.544   3.089   6.777
   36SOL     OW 1006   5.075   0.798   4.139
   36SOL    HW1 1007   5.169   0.781   4.111
   36SOL    HW2 1008   5.036   0.871   4.083
   37SOL     OW 1009   1.905   1.562   3.822
   37SOL    HW1 1010   1.914   1.557   3.723
   37SOL    HW2 1011   1.972   1.627   3.858
   38SOL     OW 1012   1.726   5.406   2.018
   38SOL    HW1 1013   1.758   5.395   1.924
   38SOL    HW2 1014   1.703   5.316   2.056
   39SOL     OW 1015   5.725   4.852   6.508
   39SOL    HW1 1016   5.717   4.923   6.578
   39SOL    HW2 1017   5.694   4.889   6.420
   40SOL     OW 1018   3.304   0.391   6.360
   40SOL    HW1 1019   3.299   0.307   6.414
   40SOL    HW2 1020   3.277   0.372   6.266
   41SOL     OW 1021   5.516   4.297   2.107
   41SOL    HW1 1022   5.431   4.244   2.103
   41SOL    HW2 1023   5.559   4.285   2.196
   42SOL     OW 1024   3.032   5.465   4.865
   42SOL    HW1 1025   2.963   5.504   4.926
   42SOL    HW2 1026   3.098   5.535   4.840
   43SOL     OW 1027   4.416   6.801   5.001
   43SOL    HW1 1028   4.483   6.860   4.955
   43SOL    HW2 1029   4.354   6.762   4.932
   44SOL     OW 1030   6.001   3.411   4.758
   44SOL    HW1 1031   6.060   3.479   4.715
   44SOL    HW2 1032   6.048   3.323   4.761
   45SOL     OW 1033   4.163   5.767   0.675
   45SOL    HW1 1034   4.080   5.773   0.620
   45SOL    HW2 1035   4.175   5.674   0.709
   46SOL     OW 1036   0.340   2.964   4.338
   46SOL    HW1 1037   0.306   3.041   4.284
   46SOL    HW2 1038   0.434   2.984   4.367
   47SOL     OW 1039   5.342   3.454   2.043
   47SOL    HW1 1040   5.318   3.392   1.968
   47SOL    HW2 1041   5.436   3.435   2.072
   48SOL     OW 1042   0.019   3.422   6.895
   48SOL    HW1 1043   6.996   3.501   6.855
   48SOL    HW2 1044   7.000   3.397   6.981
   49SOL     OW 1045   4.847   3.261   0.381
   49SOL    HW1 1046   4.851   3.361   0.376
   49SOL    HW2 1047   4.779   3.234   0.449
   50SOL     OW 1048   6.317   1.952   6.107
   50SOL    HW1 1049   6.299   1.880   6.040
   50SOL    HW2 1050   6.278   2.038   6.075
   51SOL     OW 1051   1.939   4.700   3.173
   51SOL    HW1 1052   1.875   4.734   3.104
   51SOL    HW2 1053   2.032   4.708   3.138
   52SOL     OW 1054   5.295   2.967   1.478
   52SOL    HW1 1055   5.383   2.972   1.432
   52SOL    HW2 1056   5.309   2.942   1.574
   53SOL     OW 1057   4.844   0.195   3.180
   53SOL    HW1 1058   4.852   0.293   3.162
   53SOL    HW2 1059   4.749   0.167   3.168
   54SOL     OW 1060   5.696   5.825   0.428
   54SOL    HW1 1061   5.629   5.810   0.500
   54SOL    HW2 1062   5.711   5.740   0.377
   55SOL     OW 1063   2.340   2.507   6.530
   55SOL    HW1 1064   2.293   2.539   6.447
   55SOL    HW2 1065   2.309   2.560   6.608
   56SOL     OW 1066   1.544   1.843   0.037
   56SOL    HW1 1067   1.605   1.873   0.110
   56SOL    HW2 1068   1.518   1.922   7.005
   57SOL     OW 1069   3.815   0.804   6.952
   57SOL    HW1 1070   3.877   0.809   6.873
   57SOL    HW2 1071   3.832   0.719   7.002
   58SOL     OW 1072   0.866   0.521   6.250
   58SOL    HW1 1073   0.880   0.618   6.271
   58SOL    HW2 1074   0.896   0.466   6.327
   59SOL     OW 1075   6.316   3.565   6.233
   59SOL    HW1 1076   6.388   3.505   6.269
   59SOL    HW2 1077   6.349   3.610   6.151
   60SOL     OW 1078   5.420   0.562   3.379
   60SOL    HW1 1079   5.487   0.635   3.371
   60SOL    HW2 1080   5.417   0.530   3.474
   61SOL     OW 1081   0.530   1.490   4.342
   61SOL    HW1 1082   0.430   1.492   4.344
   61SOL    HW2 1083   0.563   1.565   4.284
   62SOL     OW 1084   0.398   1.294   2.261
   62SOL    HW1 1085   0.374   1.304   2.164
   62SOL    HW2 1086   0.446   1.375   2.292
   63SOL     OW 1087   3.514   6.145   4.126
   63SOL    HW1 1088   3.510   6.096   4.214
   63SOL    HW2 1089   3.606   6.181   4.113
   64SOL     OW 1090   1.486   4.117   6.632
   64SOL    HW1 1091   1.529   4.076   6.551
   64SOL    HW2 1092   1.545   4.102   6.712
   65SOL     OW 1093   0.589   0.534   5.327
   65SOL    HW1 1094   0.553   0.441   5.343
   65SOL    HW2 1095   0.683   0.528   5.295
   66SOL     OW 1096   3.504   0.029   2.395
   66SOL    HW1 1097   3.489   6.963   2.353
   66SOL    HW2 1098   3.540   0.017   2.487
   67SOL     OW 1099   0.451   2.240   0.737
   67SOL    HW1 1100   0.486   2.202   0.822
   67SOL    HW2 1101   0.465   2.175   0.662
   68SOL     OW 1102   6.802   2.623   5.512
   68SOL    HW1 1103   6.742   2.666   5.444
   68SOL    HW2 1104   6.773   2.651   5.604
   69SOL     OW 1105   1.073   5.324   5.912
   69SOL    HW1 1106   1.171   5.336   5.922
   69SOL    HW2 1107   1.037   5.391   5.847
   70SOL     OW 1108   5.507   3.120   4.559
   70SOL    HW1 1109   5.504   3.134   4.658
   70SOL    HW2 1110   5.481   3.205   4.513
   71SOL     OW 1111   4.591   1.688   4.677
   71SOL    HW1 1112   4.536   1.669   4.758
   71SOL    HW2 1113   4.559   1.771   4.633
   72SOL     OW 1114   0.144   0.550   3.931
   72SOL    HW1 1115   0.155   0.456   3.901
   72SOL    HW2 1116   0.047   0.569   3.947
   73SOL     OW 1117   2.942   0.325   0.477
   73SOL    HW1 1118   2.876   0.341   0.550
   73SOL    HW2 1119   2.931   0.232   0.442
   74SOL     OW 1120   2.460   1.352   6.316
   74SOL    HW1 1121   2.421   1.415   6.384
   74SOL    HW2 1122   2.558   1.371   6.306
   75SOL     OW 1123   4.082   1.361   1.146
   75SOL    HW1 1124   4.042   1.273   1.171
   75SOL    HW2 1125   4.036   1.434   1.196
   76SOL     OW 1126   2.976   4.378   5.377
   76SOL    HW1 1127   3.022   4.447   5.432
   76SOL    HW2 1128   2.945   4.419   5.292
   77SOL     OW 1129   2.298   5.414   4.482
   77SOL    HW1 1130   2.362   5.342   4.510
   77SOL    HW2 1131   2.256   5.389   4.395
   78SOL     OW 1132   4.324   1.571   1.311
   78SOL    HW1 1133   4.266   1.554   1.231
   78SOL    HW2 1134   4.278   1.536   1.393
   79SOL     OW 1135   2.206   5.072   1.635
   79SOL    HW1 1136   2.275   5.046   1.702
   79SOL    HW2 1137   2.124   5.105   1.682
   80SOL     OW 1138   4.619   1.951   4.895
   80SOL    HW1 1139   4.533   1.961   4.845
   80SOL    HW2 1140   4.694   1.943   4.830
   81SOL     OW 1141   2.024   6.485   1.128
   81SOL    HW1 1142   2.022   6.388   1.106
   81SOL    HW2 1143   1.938   6.511   1.172
   82SOL     OW 1144   0.918   5.725   1.859
   82SOL    HW1 1145   0.999   5.678   1.894
   82SOL    HW2 1146   0.914   5.818   1.894
   83SOL     OW 1147   6.169   2.045   5.752
   83SOL    HW1 1148   6.232   1.969   5.734
   83SOL    HW2 1149   6.200   2.096   5.831
   84SOL     OW 1150   6.483   3.158   3.713
   84SOL    HW1 1151   6.578   3.147   3.742
   84SOL    HW2 1152   6.476   3.235   3.649
   85SOL     OW 1153   1.809   6.785   3.860
   85SOL    HW1 1154   1.793   6.733   3.944
   85SOL    HW2 1155   1.721   6.814   3.822
   86SOL     OW 1156   5.655   1.361   6.361
   86SOL    HW1 1157   5.633   1.276   6.313
   86SOL    HW2 1158   5.749   1.356   6.395
   87SOL     OW 1159   4.462   4.532   6.538
   87SOL    HW1 1160   4.437   4.628   6.535
   87SOL    HW2 1161   4.552   4.522   6.582
   88SOL     OW 1162   2.894   3.092   6.009
   88SOL    HW1 1163   2.938   3.047   5.931
   88SOL    HW2 1164   2.802   3.122   5.982
   89SOL     OW 1165   3.344   2.861   2.710
   89SOL    HW1 1166   3.278   2.915   2.763
   89SOL    HW2 1167   3.345   2.893   2.616
   90SOL     OW 1168   4.898   3.398   3.044
   90SOL    HW1 1169   4.918   3.482   3.094
   90SOL    HW2 1170   4.806   3.403   3.005
   91SOL     OW 1171   5.765   5.432   5.994
   91SOL    HW1 1172   5.667   5.413   5.981
   91SOL    HW2 1173   5.819   5.355   5.962
   92SOL     OW 1174   5.081   4.688   0.019
   92SOL    HW1 1175   5.171   4.646   0.018
   92SOL    HW2 1176   5.015   4.624   0.059
   93SOL     OW 1177   2.834   2.878   1.138
   93SOL    HW1 1178   2.914   2.866   1.078
   93SOL    HW2 1179   2.844   2.963   1.190
   94SOL     OW 1180   2.805   0.034   5.993
   94SOL    HW1 1181   2.754   0.106   5.946
   94SOL    HW2 1182   2.746   7.012   6.059
   95SOL     OW 1183   0.288   0.851   4.390
   95SOL    HW1 1184   0.211   0.813   4.442
   95SOL    HW2 1185   0.374   0.826   4.435
   96SOL     OW 1186   4.985   5.164   6.644
   96SOL    HW1 1187   5.043   5.222   6.587
   96SOL    HW2 1188   4.994   5.190   6.740
   97SOL     OW 1189   1.765   4.963   5.556
   97SOL    HW1 1190   1.721   4.879   5.524
   97SOL    HW2 1191   1.859   4.943   5.584
   98SOL     OW 1192   0.855   2.600   2.333
   98SOL    HW1 1193   0.921   2.664   2.292
   98SOL    HW2 1194   0.903   2.539   2.396
   99SOL     OW 1195   3.825   3.481   3.640
   99SOL    HW1 1196   3.805   3.409   3.573
   99SOL    HW2 1197   3.821   3.441   3.732
  100SOL     OW 1198   6.968   6.974   4.316
  100SOL    HW1 1199   7.012   6.887   4.339
  100SOL    HW2 1200   6.937   6.973   4.221
  101SOL     OW 1201   0.858   4.495   2.471
  101SOL    HW1 1202   0.894   4.555   2.400
  101SOL    HW2 1203   0.842   4.404   2.433
  102SOL     OW 1204   2.882   6.278   1.631
  102SOL    HW1 1205   2.979   6.266   1.649
  102SOL    HW2 1206   2.864   6.267   1.533
  103SOL     OW 1207   1.873   1.342   2.233
  103SOL    HW1 1208   1.923   1.425   2.258
  103SOL    HW2 1209   1.918   1.298   2.155
  104SOL     OW 1210   1.196   4.210   1.943
  104SOL    HW1 1211   1.251   4.170   1.870
  104SOL    HW2 1212   1.240   4.293   1.977
  105SOL     OW 1213   5.687   1.910   6.677
  105SOL    HW1 1214   5.700   1.947   6.769
  105SOL    HW2 1215   5.595   1.934   6.644
  106SOL     OW 1216   5.232   5.148   1.722
  106SOL    HW1 1217   5.133   5.137   1.715
  106SOL    HW2 1218   5.277   5.076   1.669
  107SOL     OW 1219   6.675   1.395   0.204
  107SOL    HW1 1220   6.616   1.398   0.123
  107SOL    HW2 1221   6.621   1.418   0.285
  108SOL     OW 1222   1.700   0.736   4.882
  108SOL    HW1 1223   1.660   0.704   4.968
  108SOL    HW2 1224   1.732   0.657   4.830
  109SOL     OW 1225   3.658   1.166   3.105
  109SOL    HW1 1226   3.615   1.194   3.019
  109SOL    HW2 1227   3.589   1.128   3.166
  110SOL     OW 1228   2.686   4.511   5.903
  110SOL    HW1 1229   2.622   4.435   5.904
  110SOL    HW2 1230   2.743   4.505   5.821
  111SOL     OW 1231   5.594   1.575   2.466
  111SOL    HW1 1232   5.525   1.645   2.482
  111SOL    HW2 1233   5.549   1.488   2.442
  112SOL     OW 1234   4.337   0.089   6.889
  112SOL    HW1 1235   4.382   0.118   6.804
  112SOL    HW2 1236   4.249   0.136   6.898
  113SOL     OW 1237   6.297   6.138   2.695
  113SOL    HW1 1238   6.293   6.046   2.658
  113SOL    HW2 1239   6.384   6.152   2.742
  114SOL     OW 1240   1.274   4.226   3.846
  114SOL    HW1 1241   1.244   4.193   3.757
  114SOL    HW2 1242   1.293   4.324   3.840
  115SOL     OW 1243   5.943   0.847   3.509
  115SOL    HW1 1244   5.980   0.919   3.568
  115SOL    HW2 1245   6.009   0.826   3.437
  116SOL     OW 1246   0.799   5.899   1.131
  116SOL    HW1 1247   0.882   5.860   1.169
  116SOL    HW2 1248   0.761   5.837   1.062
  117SOL     OW 1249   2.792   1.424   0.204
  117SOL    HW1 1250   2.716   1.365   0.178
  117SOL    HW2 1251   2.780   1.514   0.163
  118SOL     OW 1252   1.011   1.451   3.435
  118SOL    HW1 1253   1.025   1.523   3.367
  118SOL    HW2 1254   1.098   1.427   3.477
  119SOL     OW 1255   6.709   6.822   6.808
  119SOL    HW1 1256   6.802   6.857   6.805
  119SOL    HW2 1257   6.662   6.843   6.723
  120SOL     OW 1258   4.647   0.857   5.157
  120SOL    HW1 1259   4.664   0.832   5.252
  120SOL    HW2 1260   4.662   0.778   5.098
  121SOL     OW 1261   1.289   3.235   6.916
  121SOL    HW1 1262   1.382   3.200   6.905
  121SOL    HW2 1263   1.245   3.240   6.826
  122SOL     OW 1264   1.510   4.093   0.129
  122SOL    HW1 1265   1.483   4.189   0.143
  122SOL    HW2 1266   1.437   4.045   0.082
  123SOL     OW 1267   1.210   1.334   1.413
  123SOL    HW1 1268   1.195   1.241   1.446
  123SOL    HW2 1269   1.297   1.339   1.364
  124SOL     OW 1270   2.869   1.971   1.190
  124SOL    HW1 1271   2.895   2.067   1.195
  124SOL    HW2 1272   2.802   1.958   1.118
  125SOL     OW 1273   3.092   2.565   6.825
  125SOL    HW1 1274   3.009   2.582   6.877
  125SOL    HW2 1275   3.140   2.652   6.809
  126SOL     OW 1276   3.678   2.936   3.667
  126SOL    HW1 1277   3.698   2.857   3.608
  126SOL    HW2 1278   3.764   2.974   3.702
  127SOL     OW 1279   0.061   5.857   6.154
  127SOL    HW1 1280   0.073   5.826   6.060
  127SOL    HW2 1281   0.127   5.930   6.174
  128SOL     OW 1282   4.599   3.822   1.472
  128SOL    HW1 1283   4.595   3.775   1.560
  128SOL    HW2 1284   4.523   3.792   1.414
  129SOL     OW 1285   2.010   6.214   1.054
  129SOL    HW1 1286   1.958   6.198   0.970
  129SOL    HW2 1287   2.011   6.130   1.109
  130SOL     OW 1288   5.341   2.075   4.835
  130SOL    HW1 1289   5.351   2.043   4.741
  130SOL    HW2 1290   5.289   2.160   4.837
  131SOL     OW 1291   0.574   2.094   3.736
  131SOL    HW1 1292   0.492   2.076   3.681
  131SOL    HW2 1293   0.551   2.158   3.810
  132SOL     OW 1294   3.326   4.090   1.833
  132SOL    HW1 1295   3.230   4.089   1.862
  132SOL    HW2 1296   3.385   4.065   1.910
  133SOL     OW 1297   5.415   6.934   4.820
  133SOL    HW1 1298   5.402   6.843   4.859
  133SOL    HW2 1299   5.390   7.003   4.888
  134SOL     OW 1300   5.981   0.904   2.126
  134SOL    HW1 1301   6.038   0.924   2.206
  134SOL    HW2 1302   5.985   0.981   2.062
  135SOL     OW 1303   4.918   3.628   4.398
  135SOL    HW1 1304   4.925   3.662   4.492
  135SOL    HW2 1305   4.959   3.694   4.335
  136SOL     OW 1306   2.541   6.577   4.394
  136SOL    HW1 1307   2.528   6.540   4.302
  136SOL    HW2 1308   2.575   6.671   4.387
  137SOL     OW 1309   3.362   2.123   4.787
  137SOL    HW1 1310   3.344   2.188   4.861
  137SOL    HW2 1311   3.280   2.068   4.770
  138SOL     OW 1312   0.952   5.527   4.769
  138SOL    HW1 1313   1.002   5.470   4.704
  138SOL    HW2 1314   0.901   5.597   4.719
  139SOL     OW 1315   2.224   6.139   6.603
  139SOL    HW1 1316   2.162   6.205   6.646
  139SOL    HW2 1317   2.172   6.058   6.575
  140SOL     OW 1318   2.610   0.957   3.058
  140SOL    HW1 1319   2.651   0.908   3.134
  140SOL    HW2 1320   2.527   0.909   3.028
  141SOL     OW 1321   6.768   4.193   0.405
  141SOL    HW1 1322   6.679   4.218   0.364
  141SOL    HW2 1323   6.837   4.186   0.333
  142SOL     OW 1324   1.012   4.177   1.624
  142SOL    HW1 1325   1.071   4.110   1.581
  142SOL    HW2 1326   1.028   4.267   1.583
  143SOL     OW 1327   5.586   6.900   1.590
  143SOL    HW1 1328   5.623   6.991   1.575
  143SOL    HW2 1329   5.636   6.855   1.664
  144SOL     OW 1330   2.716   4.694   3.864
  144SOL    HW1 1331   2.734   4.627   3.936
  144SOL    HW2 1332   2.803   4.725   3.826
  145SOL     OW 1333   6.864   4.902   2.566
  145SOL    HW1 1334   6.943   4.921   2.624
  145SOL    HW2 1335   6.849   4.803   2.562
  146SOL     OW 1336   6.325   1.821   5.706
  146SOL    HW1 1337   6.421   1.824   5.732
  146SOL    HW2 1338   6.284   1.735   5.738
  147SOL     OW 1339   4.950   1.166   5.176
  147SOL    HW1 1340   4.850   1.156   5.173
  147SOL    HW2 1341   4.974   1.262   5.167
  148SOL     OW 1342   1.506   4.685   1.406
  148SOL    HW1 1343   1.486   4.608   1.345
  148SOL    HW2 1344   1.434   4.754   1.397
  149SOL     OW 1345   2.706   2.341   5.553
  149SOL    HW1 1346   2.639   2.407   5.587
  149SOL    HW2 1347   2.792   2.388   5.533
  150SOL     OW 1348   4.614   1.129   5.572
  150SOL    HW1 1349   4.548   1.186   5.524
  150SOL    HW2 1350   4.620   1.040   5.527
  151SOL     OW 1351   4.101   2.040   0.859
  151SOL    HW1 1352   4.102   1.963   0.924
  151SOL    HW2 1353   4.178   2.031   0.797
  152SOL     OW 1354   1.039   1.193   6.785
  152SOL    HW1 1355   1.109   1.198   6.713
  152SOL    HW2 1356   1.082   1.211   6.873
  153SOL     OW 1357   2.469   1.277   3.801
  153SOL    HW1 1358   2.423   1.288   3.889
  153SOL    HW2 1359   2.442   1.352   3.741
  154SOL     OW 1360   6.123   2.073   1.347
  154SOL    HW1 1361   6.076   2.014   1.413
  154SOL    HW2 1362   6.072   2.158   1.336
  155SOL     OW 1363   0.414   0.142   2.247
  155SOL    HW1 1364   0.338   0.097   2.294
  155SOL    HW2 1365   0.452   0.213   2.307
  156SOL     OW 1366   4.516   0.883   0.163
  156SOL    HW1 1367   4.536   0.981   0.164
  156SOL    HW2 1368   4.590   0.835   0.116
  157SOL     OW 1369   5.128   3.923   0.533
  157SOL    HW1 1370   5.172   3.835   0.512
  157SOL    HW2 1371   5.061   3.910   0.607
  158SOL     OW 1372   1.226   3.118   2.644
  158SOL    HW1 1373   1.168   3.173   2.704
  158SOL    HW2 1374   1.290   3.178   2.596
  159SOL     OW 1375   5.011   5.565   0.590
  159SOL    HW1 1376   4.927   5.574   0.536
  159SOL    HW2 1377   5.007   5.481   0.643
  160SOL     OW 1378   5.885   0.393   0.598
  160SOL    HW1 1379   5.837   0.360   0.679
  160SOL    HW2 1380   5.889   0.493   0.599
  161SOL     OW 1381   1.054   0.038   0.165
  161SOL    HW1 1382   1.143   0.073   0.192
  161SOL    HW2 1383   1.039   6.972   0.208
  162SOL     OW 1384   2.460   6.400   0.107
  162SOL    HW1 1385   2.557   6.410   0.132
  162SOL    HW2 1386   2.440   6.456   0.027
  163SOL     OW 1387   6.247   4.277   3.397
  163SOL    HW1 1388   6.270   4.180   3.389
  163SOL    HW2 1389   6.220   4.296   3.492
  164SOL     OW 1390   1.372   1.837   2.729
  164SOL    HW1 1391   1.421   1.762   2.684
  164SOL    HW2 1392   1.381   1.921   2.674
  165SOL     OW 1393   0.769   5.825   2.531
  165SOL    HW1 1394   0.749   5.922   2.517
  165SOL    HW2 1395   0.853   5.801   2.483
  166SOL     OW 1396   6.366   4.189   2.433
  166SOL    HW1 1397   6.461   4.172   2.462
  166SOL    HW2 1398   6.360   4.279   2.390
  167SOL     OW 1399   5.007   1.615   0.631
  167SOL    HW1 1400   5.092   1.667   0.618
  167SOL    HW2 1401   4.945   1.634   0.556
  168SOL     OW 1402   4.903   3.760   2.163
  168SOL    HW1 1403   4.855   3.673   2.152
  168SOL    HW2 1404   4.963   3.776   2.085
  169SOL     OW 1405   5.988   2.870   1.188
  169SOL    HW1 1406   5.962   2.942   1.252
  169SOL    HW2 1407   5.929   2.790   1.202
  170SOL     OW 1408   1.239   5.187   2.937
  170SOL    HW1 1409   1.237   5.273   2.987
  170SOL    HW2 1410   1.240   5.111   3.002
  171SOL     OW 1411   2.554   3.548   0.616
  171SOL    HW1 1412   2.569   3.452   0.640
  171SOL    HW2 1413   2.479   3.555   0.550
  172SOL     OW 1414   5.808   2.201   1.949
  172SOL    HW1 1415   5.822   2.295   1.919
  172SOL    HW2 1416   5.801   2.198   2.049
  173SOL     OW 1417   6.367   1.659   5.020
  173SOL    HW1 1418   6.430   1.705   5.082
  173SOL    HW2 1419   6.409   1.576   4.984
  174SOL     OW 1420   5.431   5.695   5.283
  174SOL    HW1 1421   5.510   5.744   5.248
  174SOL    HW2 1422   5.456   5.648   5.368
  175SOL     OW 1423   1.544   0.547   0.493
  175SOL    HW1 1424   1.625   0.544   0.434
  175SOL    HW2 1425   1.488   0.625   0.466
  176SOL     OW 1426   5.058   4.763   2.286
  176SOL    HW1 1427   5.023   4.672   2.310
  176SOL    HW2 1428   4.986   4.831   2.302
  177SOL     OW 1429   5.763   1.805   4.665
  177SOL    HW1 1430   5.737   1.873   4.596
  177SOL    HW2 1431   5.738   1.714   4.634
  178SOL     OW 1432   2.167   6.406   4.905
  178SOL    HW1 1433   2.262   6.407   4.937
  178SOL    HW2 1434   2.163   6.441   4.812
  179SOL     OW 1435   4.381   5.383   0.404
  179SOL    HW1 1436   4.390   5.356   0.309
  179SOL    HW2 1437   4.375   5.483   0.411
  180SOL     OW 1438   3.984   0.270   1.060
  180SOL    HW1 1439   4.002   0.347   0.999
  180SOL    HW2 1440   4.051   0.198   1.042
  181SOL     OW 1441   3.232   2.314   5.443
  181SOL    HW1 1442   3.270   2.222   5.451
  181SOL    HW2 1443   3.214   2.334   5.347
  182SOL     OW 1444   5.590   2.530   0.235
  182SOL    HW1 1445   5.664   2.574   0.287
  182SOL    HW2 1446   5.516   2.506   0.298
  183SOL     OW 1447   3.692   1.578   4.586
  183SOL    HW1 1448   3.718   1.559   4.491
  183SOL    HW2 1449   3.633   1.659   4.589
  184SOL     OW 1450   0.246   6.557   3.547
  184SOL    HW1 1451   0.312   6.536   3.619
  184SOL    HW2 1452   0.210   6.472   3.508
  185SOL     OW 1453   0.602   1.843   3.932
  185SOL    HW1 1454   0.675   1.851   3.863
  185SOL    HW2 1455   0.620   1.908   4.006
  186SOL     OW 1456   5.478   5.402   4.525
  186SOL    HW1 1457   5.485   5.475   4.458
  186SOL    HW2 1458   5.465   5.441   4.616
  187SOL     OW 1459   3.964   5.660   2.883
  187SOL    HW1 1460   3.900   5.731   2.853
  187SOL    HW2 1461   4.017   5.694   2.961
  188SOL     OW 1462   2.581   2.235   2.616
  188SOL    HW1 1463   2.557   2.295   2.539
  188SOL    HW2 1464   2.497   2.205   2.662
  189SOL     OW 1465   6.515   5.489   6.801
  189SOL    HW1 1466   6.593   5.453   6.750
  189SOL    HW2 1467   6.525   5.463   6.898
  190SOL     OW 1468   6.251   5.982   0.331
  190SOL    HW1 1469   6.251   5.926   0.249
  190SOL    HW2 1470   6.219   5.927   0.409
  191SOL     OW 1471   6.313   0.511   6.034
  191SOL    HW1 1472   6.341   0.543   6.125
  191SOL    HW2 1473   6.321   0.586   5.968
  192SOL     OW 1474   0.139   5.114   1.195
  192SOL    HW1 1475   0.092   5.184   1.249
  192SOL    HW2 1476   0.073   5.041   1.172
  193SOL     OW 1477   3.290   4.941   6.729
  193SOL    HW1 1478   3.340   4.884   6.664
  193SOL    HW2 1479   3.352   5.008   6.770
  194SOL     OW 1480   3.820   6.527   2.076
  194SOL    HW1 1481   3.812   6.617   2.033
  194SOL    HW2 1482   3.742   6.470   2.050
  195SOL     OW 1483   3.238   0.743   1.498
  195SOL    HW1 1484   3.244   0.650   1.461
  195SOL    HW2 1485   3.304   0.802   1.451
  196SOL     OW 1486   2.449   1.065   6.334
  196SOL    HW1 1487   2.461   1.164   6.335
  196SOL    HW2 1488   2.373   1.042   6.274
  197SOL     OW 1489   2.055   6.188   0.034
  197SOL    HW1 1490   2.086   6.280   0.012
  197SOL    HW2 1491   2.007   6.148   6.980
  198SOL     OW 1492   4.404   5.883   0.671
  198SOL    HW1 1493   4.428   5.961   0.729
  198SOL    HW2 1494   4.312   5.852   0.694
  199SOL     OW 1495   5.463   0.298   2.401
  199SOL    HW1 1496   5.471   0.352   2.318
  199SOL    HW2 1497   5.375   0.316   2.444
  200SOL     OW 1498   1.350   3.825   2.145
  200SOL    HW1 1499   1.361   3.726   2.147
  200SOL    HW2 1500   1.409   3.867   2.213
  201SOL     OW 1501   2.707   0.871   0.072
  201SOL    HW1 1502   2.715   0.944   0.004
  201SOL    HW2 1503   2.729   0.783   0.029
  202SOL     OW 1504   4.591   6.699   4.026
  202SOL    HW1 1505   4.656   6.709   4.101
  202SOL    HW2 1506   4.514   6.761   4.042
  203SOL     OW 1507   5.071   3.398   6.058
  203SOL    HW1 1508   4.987   3.448   6.039
  203SOL    HW2 1509   5.146   3.438   6.005
  204SOL     OW 1510   1.549   0.078   0.360
  204SOL    HW1 1511   1.576   0.163   0.317
  204SOL    HW2 1512   1.605   0.062   0.441
  205SOL     OW 1513   6.661   1.350   1.040
  205SOL    HW1 1514   6.711   1.432   1.015
  205SOL    HW2 1515   6.645   1.349   1.139
  206SOL     OW 1516   0.697   4.565   0.972
  206SOL    HW1 1517   0.786   4.547   0.930
  206SOL    HW2 1518   0.710   4.594   1.067
  207SOL     OW 1519   4.207   0.309   6.066
  207SOL    HW1 1520   4.239   0.386   6.122
  207SOL    HW2 1521   4.148   0.344   5.993
  208SOL     OW 1522   5.220   4.742   5.629
  208SOL    HW1 1523   5.234   4.764   5.726
  208SOL    HW2 1524   5.169   4.656   5.622
  209SOL     OW 1525   0.378   6.169   5.672
  209SOL    HW1 1526   0.323   6.126   5.743
  209SOL    HW2 1527   0.346   6.138   5.582
  210SOL     OW 1528   3.914   2.106   2.095
  210SOL    HW1 1529   3.847   2.154   2.038
  210SOL    HW2 1530   4.005   2.142   2.078
  211SOL     OW 1531   0.738   1.360   1.697
  211SOL    HW1 1532   0.706   1.404   1.781
  211SOL    HW2 1533   0.679   1.282   1.676
  212SOL     OW 1534   0.711   4.515   3.464
  212SOL    HW1 1535   0.774   4.563   3.525
  212SOL    HW2 1536   0.653   4.581   3.416
  213SOL     OW 1537   5.057   1.196   0.302
  213SOL    HW1 1538   4.982   1.230   0.359
  213SOL    HW2 1539   5.076   1.100   0.325
  214SOL     OW 1540   0.757   6.877   3.375
  214SOL    HW1 1541   0.761   6.974   3.351
  214SOL    HW2 1542   0.686   6.832   3.321
  215SOL     OW 1543   4.119   3.191   1.946
  215SOL    HW1 1544   4.050   3.132   1.904
  215SOL    HW2 1545   4.107   3.192   2.045
  216SOL     OW 1546   1.391   0.140   4.606
  216SOL    HW1 1547   1.320   0.070   4.614
  216SOL    HW2 1548   1.358   0.226   4.644
  217SOL     OW 1549   1.883   2.868   4.205
  217SOL    HW1 1550   1.938   2.799   4.252
  217SOL    HW2 1551   1.888   2.954   4.255
  218SOL     OW 1552   1.228   2.396   4.339
  218SOL    HW1 1553   1.316   2.442   4.349
  218SOL    HW2 1554   1.228   2.341   4.256
  219SOL     OW 1555   3.675   4.296   0.702
  219SOL    HW1 1556   3.587   4.267   0.739
  219SOL    HW2 1557   3.713   4.223   0.645
  220SOL     OW 1558   2.501   5.486   6.718
  220SOL    HW1 1559   2.505   5.563   6.654
  220SOL    HW2 1560   2.405   5.459   6.731
  221SOL     OW 1561   5.487   3.310   3.912
  221SOL    HW1 1562   5.462   3.325   3.817
  221SOL    HW2 1563   5.439   3.376   3.970
  222SOL     OW 1564   1.670   5.493   5.139
  222SOL    HW1 1565   1.639   5.485   5.233
  222SOL    HW2 1566   1.733   5.419   5.117
  223SOL     OW 1567   6.971   3.631   2.063
  223SOL    HW1 1568   6.905   3.619   1.989
  223SOL    HW2 1569   7.017   3.719   2.053
  224SOL     OW 1570   2.659   2.296   2.182
  224SOL    HW1 1571   2.726   2.338   2.121
  224SOL    HW2 1572   2.706   2.254   2.260
  225SOL     OW 1573   5.525   1.144   0.245
  225SOL    HW1 1574   5.525   1.226   0.187
  225SOL    HW2 1575   5.608   1.142   0.300
  226SOL     OW 1576   1.076   6.703   0.777
  226SOL    HW1 1577   1.033   6.628   0.726
  226SOL    HW2 1578   1.106   6.669   0.866
  227SOL     OW 1579   1.871   3.819   3.178
  227SOL    HW1 1580   1.933   3.838   3.255
  227SOL    HW2 1581   1.849   3.722   3.176
  228SOL     OW 1582   3.847   6.899   4.061
  228SOL    HW1 1583   3.939   6.870   4.033
  228SOL    HW2 1584   3.814   6.838   4.134
  229SOL     OW 1585   6.237   5.547   1.268
  229SOL    HW1 1586   6.330   5.584   1.273
  229SOL    HW2 1587   6.173   5.620   1.246
  230SOL     OW 1588   2.215   4.109   4.675
  230SOL    HW1 1589   2.178   4.032   4.622
  230SOL    HW2 1590   2.226   4.081   4.770
  231SOL     OW 1591   6.614   2.972   6.178
  231SOL    HW1 1592   6.636   2.881   6.214
  231SOL    HW2 1593   6.515   2.987   6.180
  232SOL     OW 1594   1.687   3.785   6.505
  232SOL    HW1 1595   1.696   3.791   6.604
  232SOL    HW2 1596   1.645   3.698   6.480
  233SOL     OW 1597   2.549   0.940   5.607
  233SOL    HW1 1598   2.647   0.947   5.627
  233SOL    HW2 1599   2.503   0.895   5.683
  234SOL     OW 1600   2.807   5.243   6.935
  234SOL    HW1 1601   2.786   5.181   7.011
  234SOL    HW2 1602   2.825   5.334   6.971
  235SOL     OW 1603   3.313   2.892   3.947
  235SOL    HW1 1604   3.320   2.793   3.938
  235SOL    HW2 1605   3.222   2.921   3.917
  236SOL     OW 1606   6.208   2.854   5.894
  236SOL    HW1 1607   6.191   2.756   5.905
  236SOL    HW2 1608   6.122   2.901   5.875
  237SOL     OW 1609   6.916   6.889   1.641
  237SOL    HW1 1610   6.827   6.847   1.623
  237SOL    HW2 1611   6.988   6.820   1.630
  238SOL     OW 1612   5.720   3.400   1.858
  238SOL    HW1 1613   5.675   3.435   1.940
  238SOL    HW2 1614   5.651   3.382   1.788
  239SOL     OW 1615   6.767   5.950   6.955
  239SOL    HW1 1616   6.692   5.893   6.921
  239SOL    HW2 1617   6.808   5.907   0.011
  240SOL     OW 1618   0.850   3.974   6.538
  240SOL    HW1 1619   0.834   3.980   6.636
  240SOL    HW2 1620   0.869   3.879   6.512
  241SOL     OW 1621   0.298   1.241   3.810
  241SOL    HW1 1622   0.391   1.218   3.839
  241SOL    HW2 1623   0.301   1.316   3.744
  242SOL     OW 1624   1.513   3.504   4.772
  242SOL    HW1 1625   1.515   3.442   4.851
  242SOL    HW2 1626   1.606   3.517   4.738
  243SOL     OW 1627   5.120   0.457   6.165
  243SOL    HW1 1628   5.113   0.557   6.160
  243SOL    HW2 1629   5.046   0.415   6.113
  244SOL     OW 1630   5.059   1.468   5.203
  244SOL    HW1 1631   5.141   1.455   5.259
  244SOL    HW2 1632   5.085   1.501   5.112
  245SOL     OW 1633   6.148   2.458   5.095
  245SOL    HW1 1634   6.162   2.418   5.186
  245SOL    HW2 1635   6.082   2.403   5.044
  246SOL     OW 1636   4.961   3.912   3.711
  246SOL    HW1 1637   4.916   3.882   3.627
  246SOL    HW2 1638   5.059   3.915   3.697
  247SOL     OW 1639   2.383   1.036   3.454
  247SOL    HW1 1640   2.480   1.032   3.478
  247SOL    HW2 1641   2.328   1.030   3.537
  248SOL     OW 1642   4.900   1.731   4.373
  248SOL    HW1 1643   4.985   1.753   4.421
  248SOL    HW2 1644   4.870   1.811   4.321
  249SOL     OW 1645   3.401   6.521   4.495
  249SOL    HW1 1646   3.383   6.422   4.494
  249SOL    HW2 1647   3.334   6.567   4.437
  250SOL     OW 1648   5.231   2.973   5.145
  250SOL    HW1 1649   5.143   2.962   5.191
  250SOL    HW2 1650   5.289   3.036   5.197
  251SOL     OW 1651   4.871   2.852   6.461
  251SOL    HW1 1652   4.789   2.841   6.405
  251SOL    HW2 1653   4.914   2.762   6.474
  252SOL     OW 1654   6.318   0.979   5.871
  252SOL    HW1 1655   6.225   1.005   5.847
  252SOL    HW2 1656   6.371   1.062   5.893
  253SOL     OW 1657   2.402   2.840   0.486
  253SOL    HW1 1658   2.342   2.818   0.409
  253SOL    HW2 1659   2.348   2.875   0.562
  254SOL     OW 1660   6.890   3.643   4.390
  254SOL    HW1 1661   6.897   3.544   4.401
  254SOL    HW2 1662   6.978   3.685   4.413
  255SOL     OW 1663   3.073   2.131   3.468
  255SOL    HW1 1664   3.119   2.146   3.380
  255SOL    HW2 1665   2.994   2.191   3.476
  256SOL     OW 1666   6.184   5.246   6.559
  256SOL    HW1 1667   6.084   5.251   6.548
  256SOL    HW2 1668   6.224   5.205   6.478
  257SOL     OW 1669   2.612   5.222   6.118
  257SOL    HW1 1670   2.616   5.136   6.169
  257SOL    HW2 1671   2.704   5.260   6.110
  258SOL     OW 1672   4.826   4.397   4.498
  258SOL    HW1 1673   4.840   4.298   4.498
  258SOL    HW2 1674   4.906   4.442   4.458
  259SOL     OW 1675   1.678   3.298   2.722
  259SOL    HW1 1676   1.734   3.368   2.678
  259SOL    HW2 1677   1.722   3.269   2.807
  260SOL     OW 1678   5.398   0.195   6.687
  260SOL    HW1 1679   5.320   0.151   6.643
  260SOL    HW2 1680   5.374   0.216   6.782
  261SOL     OW 1681   0.575   4.494   1.804
  261SOL    HW1 1682   0.644   4.503   1.875
  261SOL    HW2 1683   0.593   4.412   1.750
  262SOL     OW 1684   1.125   2.724   2.390
  262SOL    HW1 1685   1.184   2.790   2.438
  262SOL    HW2 1686   1.182   2.653   2.349
  263SOL     OW 1687   0.877   2.436   4.831
  263SOL    HW1 1688   0.905   2.496   4.756
  263SOL    HW2 1689   0.871   2.342   4.797
  264SOL     OW 1690   0.706   3.769   5.954
  264SOL    HW1 1691   0.756   3.763   6.041
  264SOL    HW2 1692   0.770   3.765   5.878
  265SOL     OW 1693   5.043   4.545   3.970
  265SOL    HW1 1694   5.096   4.623   4.004
  265SOL    HW2 1695   5.079   4.518   3.880
  266SOL     OW 1696   4.153   1.577   0.918
  266SOL    HW1 1697   4.169   1.478   0.926
  266SOL    HW2 1698   4.070   1.593   0.866
  267SOL     OW 1699   2.146   2.277   5.907
  267SOL    HW1 1700   2.154   2.321   5.996
  267SOL    HW2 1701   2.109   2.341   5.841
  268SOL     OW 1702   4.499   4.534   4.531
  268SOL    HW1 1703   4.550   4.460   4.488
  268SOL    HW2 1704   4.419   4.556   4.475
  269SOL     OW 1705   1.567   1.950   6.413
  269SOL    HW1 1706   1.620   1.994   6.340
  269SOL    HW2 1707   1.502   2.015   6.452
  270SOL     OW 1708   5.465   0.758   2.860
  270SOL    HW1 1709   5.541   0.819   2.838
  270SOL    HW2 1710   5.463   0.741   2.959
  271SOL     OW 1711   1.611   0.467   0.748
  271SOL    HW1 1712   1.690   0.520   0.778
  271SOL    HW2 1713   1.585   0.495   0.655
  272SOL     OW 1714   3.719   5.447   3.514
  272SOL    HW1 1715   3.705   5.359   3.559
  272SOL    HW2 1716   3.631   5.483   3.484
  273SOL     OW 1717   1.810   5.981   4.651
  273SOL    HW1 1718   1.739   5.954   4.715
  273SOL    HW2 1719   1.839   5.902   4.597
  274SOL     OW 1720   6.259   2.412   2.738
  274SOL    HW1 1721   6.302   2.480   2.678
  274SOL    HW2 1722   6.204   2.349   2.683
  275SOL     OW 1723   6.876   6.524   5.859
  275SOL    HW1 1724   6.917   6.548   5.947
  275SOL    HW2 1725   6.779   6.546   5.860
  276SOL     OW 1726   6.516   6.096   3.905
  276SOL    HW1 1727   6.558   6.133   3.823
  276SOL    HW2 1728   6.586   6.078   3.974
  277SOL     OW 1729   3.370   2.039   5.436
  277SOL    HW1 1730   3.362   2.025   5.535
  277SOL    HW2 1731   3.295   1.993   5.389
  278SOL     OW 1732   5.452   3.829   2.535
  278SOL    HW1 1733   5.419   3.817   2.441
  278SOL    HW2 1734   5.552   3.821   2.536
  279SOL     OW 1735   0.200   2.957   2.959
  279SOL    HW1 1736   0.154   2.932   2.873
  279SOL    HW2 1737   0.155   2.910   3.035
  280SOL     OW 1738   4.781   6.967   3.994
  280SOL    HW1 1739   4.780   6.904   4.072
  280SOL    HW2 1740   4.852   6.939   3.930
  281SOL     OW 1741   4.705   6.047   3.861
  281SOL    HW1 1742   4.609   6.040   3.832
  281SOL    HW2 1743   4.764   6.011   3.789
  282SOL     OW 1744   4.246   2.074   6.289
  282SOL    HW1 1745   4.203   1.983   6.295
  282SOL    HW2 1746   4.305   2.087   6.369
  283SOL     OW 1747   6.285   0.839   4.848
  283SOL    HW1 1748   6.301   0.779   4.927
  283SOL    HW2 1749   6.280   0.784   4.765
  284SOL     OW 1750   6.965   5.305   5.451
  284SOL    HW1 1751   7.001   5.365   5.523
  284SOL    HW2 1752   6.966   5.211   5.483
  285SOL     OW 1753   4.646   0.406   0.054
  285SOL    HW1 1754   4.678   0.482   0.110
  285SOL    HW2 1755   4.702   0.325   0.073
  286SOL     OW 1756   3.666   5.193   4.705
  286SOL    HW1 1757   3.724   5.111   4.710
  286SOL    HW2 1758   3.583   5.178   4.758
  287SOL     OW 1759   2.401   6.259   5.709
  287SOL    HW1 1760   2.490   6.296   5.734
  287SOL    HW2 1761   2.335   6.275   5.783
  288SOL     OW 1762   3.647   0.532   0.547
  288SOL    HW1 1763   3.615   0.522   0.453
  288SOL    HW2 1764   3.742   0.501   0.552
  289SOL     OW 1765   0.711   6.381   4.759
  289SOL    HW1 1766   0.697   6.480   4.752
  289SOL    HW2 1767   0.659   6.335   4.688
  290SOL     OW 1768   4.572   0.805   3.688
  290SOL    HW1 1769   4.504   0.875   3.667
  290SOL    HW2 1770   4.641   0.843   3.749
  291SOL     OW 1771   4.820   0.684   4.148
  291SOL    HW1 1772   4.918   0.686   4.129
  291SOL    HW2 1773   4.770   0.680   4.062
  292SOL     OW 1774   3.686   0.143   3.795
  292SOL    HW1 1775   3.699   0.120   3.892
  292SOL    HW2 1776   3.732   0.230   3.775
  293SOL     OW 1777   5.709   6.066   2.536
  293SOL    HW1 1778   5.805   6.066   2.565
  293SOL    HW2 1779   5.701   6.029   2.444
  294SOL     OW 1780   5.894   0.470   5.399
  294SOL    HW1 1781   5.924   0.563   5.380
  294SOL    HW2 1782   5.969   0.418   5.441
  295SOL     OW 1783   1.576   2.160   5.155
  295SOL    HW1 1784   1.626   2.237   5.194
  295SOL    HW2 1785   1.546   2.100   5.229
  296SOL     OW 1786   6.750   0.784   1.627
  296SOL    HW1 1787   6.741   0.787   1.527
  296SOL    HW2 1788   6.682   0.844   1.669
  297SOL     OW 1789   5.164   4.238   3.515
  297SOL    HW1 1790   5.225   4.219   3.438
  297SOL    HW2 1791   5.180   4.172   3.588
  298SOL     OW 1792   4.107   0.669   0.255
  298SOL    HW1 1793   4.163   0.716   0.188
  298SOL    HW2 1794   4.010   0.688   0.238
  299SOL     OW 1795   3.182   1.933   0.346
  299SOL    HW1 1796   3.216   1.996   0.416
  299SOL    HW2 1797   3.259   1.900   0.291
  300SOL     OW 1798   3.723   1.223   2.525
  300SOL    HW1 1799   3.661   1.277   2.468
  300SOL    HW2 1800   3.756   1.280   2.601
  301SOL     OW 1801   5.531   5.641   1.989
  301SOL    HW1 1802   5.510   5.582   2.067
  301SOL    HW2 1803   5.546   5.585   1.907
  302SOL     OW 1804   6.734   6.256   1.636
  302SOL    HW1 1805   6.689   6.180   1.588
  302SOL    HW2 1806   6.788   6.309   1.571
  303SOL     OW 1807   6.409   5.461   2.541
  303SOL    HW1 1808   6.315   5.489   2.521
  303SOL    HW2 1809   6.473   5.531   2.510
  304SOL     OW 1810   1.340   0.080   5.085
  304SOL    HW1 1811   1.427   0.035   5.065
  304SOL    HW2 1812   1.291   0.028   5.155
  305SOL     OW 1813   1.321   2.954   1.538
  305SOL    HW1 1814   1.327   2.898   1.455
  305SOL    HW2 1815   1.226   2.960   1.568
  306SOL     OW 1816   7.023   0.707   3.131
  306SOL    HW1 1817   0.027   0.801   3.148
  306SOL    HW2 1818   6.926   0.705   3.104
  307SOL     OW 1819   3.303   3.538   1.451
  307SOL    HW1 1820   3.235   3.532   1.524
  307SOL    HW2 1821   3.326   3.446   1.420
  308SOL     OW 1822   5.517   0.582   4.249
  308SOL    HW1 1823   5.472   0.501   4.212
  308SOL    HW2 1824   5.469   0.664   4.216
  309SOL     OW 1825   0.564   0.202   6.946
  309SOL    HW1 1826   0.602   0.141   7.016
  309SOL    HW2 1827   0.567   0.156   6.857
  310SOL     OW 1828   5.164   6.006   4.915
  310SOL    HW1 1829   5.172   6.053   5.003
  310SOL    HW2 1830   5.255   5.981   4.882
  311SOL     OW 1831   2.392   5.227   3.034
  311SOL    HW1 1832   2.302   5.261   3.006
  311SOL    HW2 1833   2.393   5.128   3.031
  312SOL     OW 1834   4.722   2.330   3.686
  312SOL    HW1 1835   4.820   2.318   3.698
  312SOL    HW2 1836   4.673   2.252   3.725
  313SOL     OW 1837   3.680   3.580   2.813
  313SOL    HW1 1838   3.700   3.580   2.911
  313SOL    HW2 1839   3.747   3.637   2.766
  314SOL     OW 1840   1.904   6.518   5.254
  314SOL    HW1 1841   1.940   6.463   5.179
  314SOL    HW2 1842   1.893   6.461   5.335
  315SOL     OW 1843   6.117   1.066   3.136
  315SOL    HW1 1844   6.083   1.107   3.221
  315SOL    HW2 1845   6.192   1.122   3.100
  316SOL     OW 1846   4.548   1.666   5.493
  316SOL    HW1 1847   4.543   1.745   5.555
  316SOL    HW2 1848   4.616   1.602   5.526
  317SOL     OW 1849   1.516   1.575   1.455
  317SOL    HW1 1850   1.439   1.564   1.393
  317SOL    HW2 1851   1.590   1.624   1.409
  318SOL     OW 1852   6.676   0.755   5.762
  318SOL    HW1 1853   6.697   0.735   5.666
  318SOL    HW2 1854   6.683   0.853   5.778
  319SOL     OW 1855   0.753   1.972   2.845
  319SOL    HW1 1856   0.745   1.878   2.814
  319SOL    HW2 1857   0.850   1.996   2.855
  320SOL     OW 1858   5.963   1.930   6.913
  320SOL    HW1 1859   5.990   1.838   6.941
  320SOL    HW2 1860   5.875   1.953   6.955
  321SOL     OW 1861   3.989   3.009   0.648
  321SOL    HW1 1862   3.989   3.087   0.586
  321SOL    HW2 1863   3.978   3.042   0.742
  322SOL     OW 1864   4.174   3.559   6.285
  322SOL    HW1 1865   4.147   3.629   6.352
  322SOL    HW2 1866   4.171   3.598   6.193
  323SOL     OW 1867   0.497   2.876   3.233
  323SOL    HW1 1868   0.447   2.958   3.205
  323SOL    HW2 1869   0.527   2.886   3.328
  324SOL     OW 1870   1.985   6.875   3.184
  324SOL    HW1 1871   1.947   6.854   3.274
  324SOL    HW2 1872   1.946   6.961   3.150
  325SOL     OW 1873   1.112   3.689   2.409
  325SOL    HW1 1874   1.141   3.694   2.504
  325SOL    HW2 1875   1.193   3.689   2.350
  326SOL     OW 1876   2.191   5.143   6.011
  326SOL    HW1 1877   2.263   5.113   6.074
  326SOL    HW2 1878   2.106   5.157   6.061
  327SOL     OW 1879   3.545   5.140   2.734
  327SOL    HW1 1880   3.612   5.190   2.788
  327SOL    HW2 1881   3.465   5.197   2.717
  328SOL     OW 1882   1.380   4.138   1.768
  328SOL    HW1 1883   1.439   4.123   1.689
  328SOL    HW2 1884   1.424   4.103   1.850
  329SOL     OW 1885   3.299   3.814   1.748
  329SOL    HW1 1886   3.235   3.827   1.672
  329SOL    HW2 1887   3.322   3.903   1.788
  330SOL     OW 1888   3.696   5.479   0.380
  330SOL    HW1 1889   3.776   5.440   0.336
  330SOL    HW2 1890   3.670   5.422   0.459
  331SOL     OW 1891   4.912   5.149   0.598
  331SOL    HW1 1892   4.985   5.114   0.540
  331SOL    HW2 1893   4.950   5.217   0.661
  332SOL     OW 1894   5.361   1.766   3.900
  332SOL    HW1 1895   5.435   1.817   3.856
  332SOL    HW2 1896   5.333   1.691   3.840
  333SOL     OW 1897   3.998   0.776   5.046
  333SOL    HW1 1898   4.075   0.723   5.009
  333SOL    HW2 1899   4.032   0.865   5.079
  334SOL     OW 1900   4.109   3.403   2.679
  334SOL    HW1 1901   4.086   3.478   2.617
  334SOL    HW2 1902   4.129   3.440   2.770
  335SOL     OW 1903   3.996   0.044   6.891
  335SOL    HW1 1904   3.974   6.970   6.886
  335SOL    HW2 1905   4.039   0.064   6.979
  336SOL     OW 1906   2.723   1.141   3.865
  336SOL    HW1 1907   2.630   1.175   3.848
  336SOL    HW2 1908   2.724   1.042   3.855
  337SOL     OW 1909   1.626   1.728   5.562
  337SOL    HW1 1910   1.689   1.663   5.605
  337SOL    HW2 1911   1.580   1.781   5.634
  338SOL     OW 1912   4.123   3.108   1.378
  338SOL    HW1 1913   4.154   3.196   1.343
  338SOL    HW2 1914   4.201   3.045   1.381
  339SOL     OW 1915   4.107   4.921   4.568
  339SOL    HW1 1916   4.120   4.873   4.655
  339SOL    HW2 1917   4.124   5.019   4.582
  340SOL     OW 1918   5.028   2.808   4.682
  340SOL    HW1 1919   4.931   2.787   4.671
  340SOL    HW2 1920   5.082   2.747   4.624
  341SOL     OW 1921   5.697   5.763   4.405
  341SOL    HW1 1922   5.768   5.810   4.353
  341SOL    HW2 1923   5.718   5.666   4.410
  342SOL     OW 1924   4.703   4.080   0.792
  342SOL    HW1 1925   4.716   4.090   0.891
  342SOL    HW2 1926   4.690   3.983   0.770
  343SOL     OW 1927   0.564   6.246   2.700
  343SOL    HW1 1928   0.523   6.335   2.683
  343SOL    HW2 1929   0.592   6.240   2.796
  344SOL     OW 1930   0.826   1.633   1.232
  344SOL    HW1 1931   0.917   1.592   1.239
  344SOL    HW2 1932   0.758   1.562   1.220
  345SOL     OW 1933   6.873   2.090   4.104
  345SOL    HW1 1934   6.932   2.171   4.112
  345SOL    HW2 1935   6.828   2.072   4.191
  346SOL     OW 1936   2.120   0.155   2.770
  346SOL    HW1 1937   2.142   0.230   2.708
  346SOL    HW2 1938   2.105   0.190   2.862
  347SOL     OW 1939   2.009   5.979   0.427
  347SOL    HW1 1940   1.928   6.034   0.447
  347SOL    HW2 1941   2.072   6.032   0.370
  348SOL     OW 1942   4.822   4.883   2.530
  348SOL    HW1 1943   4.750   4.818   2.505
  348SOL    HW2 1944   4.831   4.952   2.458
  349SOL     OW 1945   6.974   4.345   1.478
  349SOL    HW1 1946   6.999   4.274   1.544
  349SOL    HW2 1947   0.026   4.359   1.414
  350SOL     OW 1948   3.016   3.087   0.167
  350SOL    HW1 1949   3.053   3.014   0.110
  350SOL    HW2 1950   2.973   3.048   0.248
  351SOL     OW 1951   3.131   3.946   0.539
  351SOL    HW1 1952   3.086   3.856   0.533
  351SOL    HW2 1953   3.199   3.944   0.613
  352SOL     OW 1954   4.415   6.016   3.818
  352SOL    HW1 1955   4.394   5.930   3.864
  352SOL    HW2 1956   4.344   6.083   3.839
  353SOL     OW 1957   3.110   0.080   6.350
  353SOL    HW1 1958   3.180   0.102   6.418
  353SOL    HW2 1959   3.062   7.020   6.377
  354SOL     OW 1960   5.623   2.913   0.961
  354SOL    HW1 1961   5.703   2.924   0.901
  354SOL    HW2 1962   5.590   3.003   0.989
  355SOL     OW 1963   2.102   2.759   2.740
  355SOL    HW1 1964   2.185   2.810   2.762
  355SOL    HW2 1965   2.023   2.801   2.785
  356SOL     OW 1966   1.437   0.582   4.911
  356SOL    HW1 1967   1.364   0.637   4.871
  356SOL    HW2 1968   1.398   0.514   4.974
  357SOL     OW 1969   6.830   6.390   4.166
  357SOL    HW1 1970   6.748   6.420   4.118
  357SOL    HW2 1971   6.902   6.371   4.099
  358SOL     OW 1972   4.800   6.055   1.051
  358SOL    HW1 1973   4.702   6.070   1.069
  358SOL    HW2 1974   4.854   6.095   1.124
  359SOL     OW 1975   3.505   0.799   1.705
  359SOL    HW1 1976   3.423   0.836   1.663
  359SOL    HW2 1977   3.574   0.871   1.715
  360SOL     OW 1978   1.289   4.560   4.952
  360SOL    HW1 1979   1.289   4.520   5.043
  360SOL    HW2 1980   1.382   4.591   4.929
  361SOL     OW 1981   5.992   6.417   2.620
  361SOL    HW1 1982   5.905   6.454   2.652
  361SOL    HW2 1983   6.061   6.429   2.691
  362SOL     OW 1984   3.954   4.257   0.921
  362SOL    HW1 1985   3.910   4.324   0.861
  362SOL    HW2 1986   3.895   4.177   0.930
  363SOL     OW 1987   6.497   4.772   2.555
  363SOL    HW1 1988   6.440   4.815   2.484
  363SOL    HW2 1989   6.472   4.809   2.644
  364SOL     OW 1990   0.806   4.897   6.854
  364SOL    HW1 1991   0.862   4.972   6.819
  364SOL    HW2 1992   0.759   4.852   6.778
  365SOL     OW 1993   3.510   0.517   1.629
  365SOL    HW1 1994   3.431   0.470   1.590
  365SOL    HW2 1995   3.487   0.613   1.644
  366SOL     OW 1996   5.956   3.331   6.525
  366SOL    HW1 1997   5.929   3.354   6.432
  366SOL    HW2 1998   5.962   3.415   6.580
  367SOL     OW 1999   5.774   2.389   5.898
  367SOL    HW1 2000   5.699   2.337   5.941
  367SOL    HW2 2001   5.822   2.331   5.832
  368SOL     OW 2002   0.138   2.203   5.801
  368SOL    HW1 2003   0.081   2.128   5.835
  368SOL    HW2 2004   0.179   2.251   5.879
  369SOL     OW 2005   5.844   4.027   3.202
  369SOL    HW1 2006   5.797   4.099   3.252
  369SOL    HW2 2007   5.824   4.036   3.104
  370SOL     OW 2008   1.640   2.016   4.248
  370SOL    HW1 2009   1.620   2.058   4.336
  370SOL    HW2 2010   1.647   2.087   4.177
  371SOL     OW 2011   2.117   4.451   0.025
  371SOL    HW1 2012   2.068   4.497   0.099
  371SOL    HW2 2013   2.208   4.490   0.016
  372SOL     OW 2014   1.604   0.315   5.096
  372SOL    HW1 2015   1.655   0.272   5.021
  372SOL    HW2 2016   1.612   0.259   5.178
  373SOL     OW 2017   5.884   6.853   5.516
  373SOL    HW1 2018   5.907   6.848   5.419
  373SOL    HW2 2019   5.938   6.925   5.559
  374SOL     OW 2020   2.139   1.464   2.677
  374SOL    HW1 2021   2.100   1.385   2.629
  374SOL    HW2 2022   2.090   1.478   2.763
  375SOL     OW 2023   0.734   5.152   5.326
  375SOL    HW1 2024   0.670   5.076   5.332
  375SOL    HW2 2025   0.802   5.134   5.255
  376SOL     OW 2026   2.115   1.067   5.207
  376SOL    HW1 2027   2.086   1.094   5.299
  376SOL    HW2 2028   2.095   1.141   5.143
  377SOL     OW 2029   1.893   2.142   0.273
  377SOL    HW1 2030   1.920   2.116   0.181
  377SOL    HW2 2031   1.932   2.077   0.339
  378SOL     OW 2032   3.301   1.251   6.933
  378SOL    HW1 2033   3.240   1.258   6.853
  378SOL    HW2 2034   3.285   1.328   6.994
  379SOL     OW 2035   5.646   2.474   7.005
  379SOL    HW1 2036   5.686   2.560   6.974
  379SOL    HW2 2037   5.625   2.480   0.079
  380SOL     OW 2038   3.093   1.334   1.438
  380SOL    HW1 2039   3.113   1.289   1.351
  380SOL    HW2 2040   3.000   1.311   1.467
  381SOL     OW 2041   1.772   3.541   4.706
  381SOL    HW1 2042   1.820   3.579   4.627
  381SOL    HW2 2043   1.786   3.442   4.708
  382SOL     OW 2044   6.220   0.129   6.974
  382SOL    HW1 2045   6.120   0.125   6.969
  382SOL    HW2 2046   6.247   0.196   0.019
  383SOL     OW 2047   4.230   3.432   0.482
  383SOL    HW1 2048   4.318   3.461   0.519
  383SOL    HW2 2049   4.221   3.464   0.388
  384SOL     OW 2050   0.310   3.975   3.881
  384SOL    HW1 2051   0.286   4.064   3.841
  384SOL    HW2 2052   0.231   3.938   3.930
  385SOL     OW 2053   3.388   5.776   5.785
  385SOL    HW1 2054   3.326   5.698   5.790
  385SOL    HW2 2055   3.342   5.857   5.823
  386SOL     OW 2056   4.399   0.170   4.063
  386SOL    HW1 2057   4.362   0.252   4.020
  386SOL    HW2 2058   4.325   0.117   4.105
  387SOL     OW 2059   1.334   5.598   2.468
  387SOL    HW1 2060   1.349   5.623   2.372
  387SOL    HW2 2061   1.418   5.616   2.520
  388SOL     OW 2062   2.157   2.028   6.727
  388SOL    HW1 2063   2.209   2.111   6.705
  388SOL    HW2 2064   2.077   2.053   6.782
  389SOL     OW 2065   4.067   3.620   2.479
  389SOL    HW1 2066   4.044   3.712   2.448
  389SOL    HW2 2067   4.120   3.572   2.408
  390SOL     OW 2068   2.929   0.735   3.945
  390SOL    HW1 2069   2.941   0.637   3.932
  390SOL    HW2 2070   2.897   0.752   4.038
  391SOL     OW 2071   2.277   2.943   6.375
  391SOL    HW1 2072   2.209   2.954   6.447
  391SOL    HW2 2073   2.368   2.929   6.416
  392SOL     OW 2074   2.073   5.364   0.912
  392SOL    HW1 2075   2.105   5.297   0.980
  392SOL    HW2 2076   1.973   5.368   0.915
  393SOL     OW 2077   6.858   4.407   5.643
  393SOL    HW1 2078   6.809   4.362   5.568
  393SOL    HW2 2079   6.903   4.338   5.700
  394SOL     OW 2080   0.205   6.895   0.127
  394SOL    HW1 2081   0.151   6.888   0.211
  394SOL    HW2 2082   0.225   6.991   0.109
  395SOL     OW 2083   5.026   3.614   2.914
  395SOL    HW1 2084   5.063   3.535   2.866
  395SOL    HW2 2085   5.053   3.611   3.010
  396SOL     OW 2086   3.834   3.968   2.158
  396SOL    HW1 2087   3.863   3.877   2.130
  396SOL    HW2 2088   3.842   4.031   2.081
  397SOL     OW 2089   4.103   3.038   5.784
  397SOL    HW1 2090   4.043   3.109   5.820
  397SOL    HW2 2091   4.087   2.953   5.835
  398SOL     OW 2092   0.374   6.335   1.673
  398SOL    HW1 2093   0.377   6.339   1.573
  398SOL    HW2 2094   0.461   6.370   1.710
  399SOL     OW 2095   5.298   6.089   2.749
  399SOL    HW1 2096   5.296   6.078   2.650
  399SOL    HW2 2097   5.312   6.185   2.772
  400SOL     OW 2098   0.166   0.633   5.971
  400SOL    HW1 2099   0.079   0.589   5.947
  400SOL    HW2 2100   0.149   0.727   6.001
  401SOL     OW 2101   4.971   0.670   6.299
  401SOL    HW1 2102   5.042   0.719   6.250
  401SOL    HW2 2103   4.942   0.724   6.378
  402SOL     OW 2104   5.913   6.754   2.651
  402SOL    HW1 2105   5.816   6.730   2.640
  402SOL    HW2 2106   5.921   6.848   2.683
  403SOL     OW 2107   4.018   2.171   6.170
  403SOL    HW1 2108   4.107   2.134   6.198
  403SOL    HW2 2109   4.031   2.258   6.123
  404SOL     OW 2110   1.249   6.629   3.560
  404SOL    HW1 2111   1.319   6.632   3.631
  404SOL    HW2 2112   1.290   6.600   3.474
  405SOL     OW 2113   1.743   2.903   1.697
  405SOL    HW1 2114   1.745   2.978   1.631
  405SOL    HW2 2115   1.652   2.897   1.738
  406SOL     OW 2116   1.091   2.880   3.650
  406SOL    HW1 2117   1.052   2.826   3.575
  406SOL    HW2 2118   1.117   2.819   3.725
  407SOL     OW 2119   2.113   0.804   4.157
  407SOL    HW1 2120   2.042   0.795   4.226
  407SOL    HW2 2121   2.122   0.719   4.106
  408SOL     OW 2122   1.450   0.723   3.354
  408SOL    HW1 2123   1.484   0.816   3.346
  408SOL    HW2 2124   1.510   0.660   3.305
  409SOL     OW 2125   5.883   2.965   1.704
  409SOL    HW1 2126   5.803   2.913   1.673
  409SOL    HW2 2127   5.854   3.036   1.768
  410SOL     OW 2128   2.195   0.317   6.345
  410SOL    HW1 2129   2.260   0.372   6.398
  410SOL    HW2 2130   2.102   0.349   6.362
  411SOL     OW 2131   6.146   6.838   6.486
  411SOL    HW1 2132   6.127   6.909   6.419
  411SOL    HW2 2133   6.125   6.872   6.578
  412SOL     OW 2134   4.646   0.192   3.492
  412SOL    HW1 2135   4.552   0.158   3.491
  412SOL    HW2 2136   4.708   0.121   3.459
  413SOL     OW 2137   4.793   4.433   1.674
  413SOL    HW1 2138   4.887   4.405   1.655
  413SOL    HW2 2139   4.734   4.353   1.677
  414SOL     OW 2140   3.587   5.104   3.288
  414SOL    HW1 2141   3.489   5.107   3.307
  414SOL    HW2 2142   3.620   5.194   3.262
  415SOL     OW 2143   1.120   5.816   0.404
  415SOL    HW1 2144   1.151   5.837   0.497
  415SOL    HW2 2145   1.076   5.897   0.364
  416SOL     OW 2146   4.915   5.024   5.381
  416SOL    HW1 2147   4.964   5.015   5.468
  416SOL    HW2 2148   4.979   5.049   5.309
  417SOL     OW 2149   2.574   6.407   0.730
  417SOL    HW1 2150   2.505   6.353   0.682
  417SOL    HW2 2151   2.560   6.398   0.829
  418SOL     OW 2152   4.336   6.374   1.168
  418SOL    HW1 2153   4.299   6.442   1.232
  418SOL    HW2 2154   4.275   6.295   1.165
  419SOL     OW 2155   1.290   0.529   1.658
  419SOL    HW1 2156   1.367   0.522   1.595
  419SOL    HW2 2157   1.242   0.616   1.642
  420SOL     OW 2158   6.308   3.507   1.126
  420SOL    HW1 2159   6.215   3.530   1.154
  420SOL    HW2 2160   6.373   3.565   1.174
  421SOL     OW 2161   0.589   5.261   6.469
  421SOL    HW1 2162   0.605   5.217   6.381
  421SOL    HW2 2163   0.529   5.340   6.456
  422SOL     OW 2164   6.008   4.594   0.389
  422SOL    HW1 2165   5.977   4.512   0.438
  422SOL    HW2 2166   6.008   4.672   0.451
  423SOL     OW 2167   0.162   2.431   6.938
  423SOL    HW1 2168   0.070   2.392   6.930
  423SOL    HW2 2169   0.165   2.519   6.891
  424SOL     OW 2170   2.897   3.884   0.730
  424SOL    HW1 2171   2.903   3.907   0.633
  424SOL    HW2 2172   2.831   3.810   0.743
  425SOL     OW 2173   5.528   1.330   2.410
  425SOL    HW1 2174   5.489   1.339   2.319
  425SOL    HW2 2175   5.550   1.234   2.428
  426SOL     OW 2176   5.038   2.181   4.664
  426SOL    HW1 2177   5.117   2.236   4.688
  426SOL    HW2 2178   5.012   2.124   4.742
  427SOL     OW 2179   5.445   4.764   2.389
  427SOL    HW1 2180   5.360   4.726   2.427
  427SOL    HW2 2181   5.513   4.771   2.462
  428SOL     OW 2182   4.425   6.835   4.593
  428SOL    HW1 2183   4.475   6.919   4.571
  428SOL    HW2 2184   4.337   6.836   4.545
  429SOL     OW 2185   2.391   4.460   1.793
  429SOL    HW1 2186   2.476   4.477   1.743
  429SOL    HW2 2187   2.411   4.409   1.876
  430SOL     OW 2188   0.893   0.085   4.647
  430SOL    HW1 2189   0.793   0.087   4.648
  430SOL    HW2 2190   0.924   7.014   4.638
  431SOL     OW 2191   3.576   0.288   0.316
  431SOL    HW1 2192   3.633   0.231   0.375
  431SOL    HW2 2193   3.627   0.312   0.233
  432SOL     OW 2194   6.306   2.613   2.133
  432SOL    HW1 2195   6.362   2.574   2.061
  432SOL    HW2 2196   6.230   2.664   2.093
  433SOL     OW 2197   3.062   6.287   4.133
  433SOL    HW1 2198   3.060   6.196   4.175
  433SOL    HW2 2199   3.157   6.319   4.129
  434SOL     OW 2200   4.559   5.356   1.768
  434SOL    HW1 2201   4.501   5.438   1.772
  434SOL    HW2 2202   4.506   5.278   1.735
  435SOL     OW 2203   3.863   2.203   5.153
  435SOL    HW1 2204   3.927   2.254   5.210
  435SOL    HW2 2205   3.885   2.105   5.156
  436SOL     OW 2206   3.171   6.244   1.093
  436SOL    HW1 2207   3.087   6.255   1.039
  436SOL    HW2 2208   3.250   6.270   1.038
  437SOL     OW 2209   0.846   0.209   6.834
  437SOL    HW1 2210   0.762   0.175   6.791
  437SOL    HW2 2211   0.923   0.195   6.772
  438SOL     OW 2212   1.794   2.940   2.267
  438SOL    HW1 2213   1.816   3.036   2.287
  438SOL    HW2 2214   1.870   2.898   2.217
  439SOL     OW 2215   6.192   4.271   3.671
  439SOL    HW1 2216   6.149   4.359   3.689
  439SOL    HW2 2217   6.147   4.200   3.725
  440SOL     OW 2218   1.351   2.125   4.981
  440SOL    HW1 2219   1.436   2.158   5.022
  440SOL    HW2 2220   1.274   2.178   5.016
  441SOL     OW 2221   0.635   1.573   3.249
  441SOL    HW1 2222   0.597   1.568   3.341
  441SOL    HW2 2223   0.649   1.480   3.214
  442SOL     OW 2224   2.033   5.039   0.081
  442SOL    HW1 2225   2.014   5.102   0.006
  442SOL    HW2 2226   2.132   5.028   0.090
  443SOL     OW 2227   1.037   4.088   4.808
  443SOL    HW1 2228   1.083   4.177   4.801
  443SOL    HW2 2229   0.988   4.070   4.723
  444SOL     OW 2230   5.279   2.031   5.855
  444SOL    HW1 2231   5.273   2.050   5.953
  444SOL    HW2 2232   5.353   1.965   5.839
  445SOL     OW 2233   1.208   5.744   3.548
  445SOL    HW1 2234   1.267   5.682   3.496
  445SOL    HW2 2235   1.232   5.741   3.644
  446SOL     OW 2236   4.118   4.851   3.740
  446SOL    HW1 2237   4.157   4.943   3.740
  446SOL    HW2 2238   4.145   4.804   3.824
  447SOL     OW 2239   0.708   2.894   0.235
  447SOL    HW1 2240   0.645   2.969   0.215
  447SOL    HW2 2241   0.688   2.816   0.175
  448SOL     OW 2242   2.681   0.629   4.648
  448SOL    HW1 2243   2.741   0.698   4.687
  448SOL    HW2 2244   2.722   0.538   4.660
  449SOL     OW 2245   3.893   0.576   5.315
  449SOL    HW1 2246   3.956   0.652   5.332
  449SOL    HW2 2247   3.860   0.540   5.402
  450SOL     OW 2248   1.357   5.769   3.817
  450SOL    HW1 2249   1.395   5.762   3.909
  450SOL    HW2 2250   1.359   5.679   3.773
  451SOL     OW 2251   2.199   2.001   3.205
  451SOL    HW1 2252   2.124   1.986   3.140
  451SOL    HW2 2253   2.161   2.019   3.296
  452SOL     OW 2254   6.640   6.041   1.472
  452SOL    HW1 2255   6.601   5.954   1.440
  452SOL    HW2 2256   6.725   6.059   1.422
  453SOL     OW 2257   2.819   0.401   4.604
  453SOL    HW1 2258   2.894   0.355   4.651
  453SOL    HW2 2259   2.793   0.348   4.523
  454SOL     OW 2260   0.417   5.450   6.429
  454SOL    HW1 2261   0.349   5.416   6.364
  454SOL    HW2 2262   0.387   5.538   6.466
  455SOL     OW 2263   0.175   1.619   3.739
  455SOL    HW1 2264   0.080   1.591   3.728
  455SOL    HW2 2265   0.235   1.540   3.725
  456SOL     OW 2266   5.093   5.059   4.318
  456SOL    HW1 2267   5.049   5.142   4.354
  456SOL    HW2 2268   5.067   4.981   4.375
  457SOL     OW 2269   1.680   3.248   3.370
  457SOL    HW1 2270   1.745   3.187   3.417
  457SOL    HW2 2271   1.722   3.283   3.286
  458SOL     OW 2272   4.912   6.078   4.204
  458SOL    HW1 2273   4.894   6.159   4.149
  458SOL    HW2 2274   4.986   6.096   4.268
  459SOL     OW 2275   1.760   6.776   4.174
  459SOL    HW1 2276   1.778   6.873   4.193
  459SOL    HW2 2277   1.817   6.719   4.233
  460SOL     OW 2278   1.742   0.317   2.951
  460SOL    HW1 2279   1.831   0.357   2.926
  460SOL    HW2 2280   1.689   0.301   2.867
  461SOL     OW 2281   6.086   7.016   4.876
  461SOL    HW1 2282   6.036   7.000   4.961
  461SOL    HW2 2283   6.167   6.957   4.874
  462SOL     OW 2284   3.997   2.716   6.135
  462SOL    HW1 2285   4.058   2.739   6.212
  462SOL    HW2 2286   3.908   2.761   6.149
  463SOL     OW 2287   6.442   5.954   3.617
  463SOL    HW1 2288   6.391   5.917   3.539
  463SOL    HW2 2289   6.477   6.045   3.595
  464SOL     OW 2290   2.737   2.216   6.914
  464SOL    HW1 2291   2.787   2.253   6.836
  464SOL    HW2 2292   2.640   2.238   6.904
  465SOL     OW 2293   1.263   2.861   4.016
  465SOL    HW1 2294   1.260   2.809   3.930
  465SOL    HW2 2295   1.173   2.863   4.058
  466SOL     OW 2296   1.148   4.665   3.024
  466SOL    HW1 2297   1.112   4.580   2.985
  466SOL    HW2 2298   1.122   4.671   3.120
  467SOL     OW 2299   1.208   0.867   6.620
  467SOL    HW1 2300   1.232   0.828   6.531
  467SOL    HW2 2301   1.227   0.965   6.621
  468SOL     OW 2302   3.574   6.252   6.769
  468SOL    HW1 2303   3.524   6.316   6.828
  468SOL    HW2 2304   3.538   6.160   6.781
  469SOL     OW 2305   2.774   4.931   0.844
  469SOL    HW1 2306   2.708   4.865   0.880
  469SOL    HW2 2307   2.856   4.883   0.814
  470SOL     OW 2308   4.081   0.546   2.623
  470SOL    HW1 2309   4.130   0.582   2.543
  470SOL    HW2 2310   4.112   0.594   2.705
  471SOL     OW 2311   1.640   2.414   4.188
  471SOL    HW1 2312   1.646   2.501   4.141
  471SOL    HW2 2313   1.693   2.345   4.139
  472SOL     OW 2314   5.213   4.137   6.472
  472SOL    HW1 2315   5.237   4.129   6.569
  472SOL    HW2 2316   5.194   4.046   6.435
  473SOL     OW 2317   0.451   3.288   2.190
  473SOL    HW1 2318   0.506   3.221   2.240
  473SOL    HW2 2319   0.382   3.239   2.135
  474SOL     OW 2320   5.302   4.703   3.757
  474SOL    HW1 2321   5.362   4.757   3.697
  474SOL    HW2 2322   5.232   4.763   3.795
  475SOL     OW 2323   5.505   0.808   5.842
  475SOL    HW1 2324   5.520   0.756   5.925
  475SOL    HW2 2325   5.409   0.803   5.816
  476SOL     OW 2326   0.035   4.172   2.456
  476SOL    HW1 2327   0.008   4.177   2.360
  476SOL    HW2 2328   0.126   4.213   2.467
  477SOL     OW 2329   1.724   4.124   5.382
  477SOL    HW1 2330   1.699   4.036   5.422
  477SOL    HW2 2331   1.790   4.110   5.309
  478SOL     OW 2332   3.421   0.201   2.631
  478SOL    HW1 2333   3.491   0.138   2.665
  478SOL    HW2 2334   3.464   0.276   2.581
  479SOL     OW 2335   4.595   2.339   0.060
  479SOL    HW1 2336   4.577   2.424   0.009
  479SOL    HW2 2337   4.679   2.349   0.113
  480SOL     OW 2338   2.293   1.268   7.011
  480SOL    HW1 2339   2.240   1.184   7.000
  480SOL    HW2 2340   2.263   1.315   0.070
  481SOL     OW 2341   1.569   0.615   0.152
  481SOL    HW1 2342   1.554   0.599   0.054
  481SOL    HW2 2343   1.511   0.691   0.182
  482SOL     OW 2344   4.764   4.316   2.889
  482SOL    HW1 2345   4.694   4.382   2.864
  482SOL    HW2 2346   4.725   4.224   2.890
  483SOL     OW 2347   6.771   1.711   2.088
  483SOL    HW1 2348   6.784   1.721   2.186
  483SOL    HW2 2349   6.858   1.729   2.040
  484SOL     OW 2350   1.088   3.159   5.301
  484SOL    HW1 2351   0.996   3.194   5.318
  484SOL    HW2 2352   1.156   3.230   5.322
  485SOL     OW 2353   4.258   5.607   2.628
  485SOL    HW1 2354   4.306   5.645   2.707
  485SOL    HW2 2355   4.317   5.542   2.580
  486SOL     OW 2356   6.680   1.950   0.929
  486SOL    HW1 2357   6.652   2.029   0.874
  486SOL    HW2 2358   6.778   1.936   0.919
  487SOL     OW 2359   1.064   1.699   0.634
  487SOL    HW1 2360   1.100   1.665   0.721
  487SOL    HW2 2361   1.065   1.799   0.634
  488SOL     OW 2362   0.435   1.567   1.262
  488SOL    HW1 2363   0.471   1.616   1.342
  488SOL    HW2 2364   0.407   1.475   1.289
  489SOL     OW 2365   3.480   6.459   6.238
  489SOL    HW1 2366   3.505   6.458   6.335
  489SOL    HW2 2367   3.408   6.391   6.222
  490SOL     OW 2368   6.569   5.745   3.200
  490SOL    HW1 2369   6.599   5.672   3.139
  490SOL    HW2 2370   6.635   5.757   3.273
  491SOL     OW 2371   6.985   2.994   2.362
  491SOL    HW1 2372   0.049   3.032   2.390
  491SOL    HW2 2373   6.997   2.903   2.325
  492SOL     OW 2374   2.365   6.803   4.864
  492SOL    HW1 2375   2.353   6.890   4.817
  492SOL    HW2 2376   2.461   6.776   4.860
  493SOL     OW 2377   5.478   6.640   5.713
  493SOL    HW1 2378   5.502   6.678   5.624
  493SOL    HW2 2379   5.559   6.599   5.756
  494SOL     OW 2380   6.898   0.554   6.456
  494SOL    HW1 2381   6.974   0.590   6.511
  494SOL    HW2 2382   6.909   0.583   6.361
  495SOL     OW 2383   4.533   5.759   3.240
  495SOL    HW1 2384   4.554   5.760   3.337
  495SOL    HW2 2385   4.438   5.732   3.226
  496SOL     OW 2386   5.503   3.475   2.373
  496SOL    HW1 2387   5.404   3.487   2.359
  496SOL    HW2 2388   5.520   3.386   2.415
  497SOL     OW 2389   3.778   0.849   5.243
  497SOL    HW1 2390   3.800   0.752   5.229
  497SOL    HW2 2391   3.745   0.889   5.157
  498SOL     OW 2392   1.780   4.328   1.455
  498SOL    HW1 2393   1.685   4.357   1.442
  498SOL    HW2 2394   1.836   4.359   1.378
  499SOL     OW 2395   2.490   0.327   4.000
  499SOL    HW1 2396   2.411   0.304   4.056
  499SOL    HW2 2397   2.562   0.259   4.014
  500SOL     OW 2398   1.065   3.117   2.941
  500SOL    HW1 2399   1.076   3.214   2.962
  500SOL    HW2 2400   0.998   3.106   2.868
  501SOL     OW 2401   3.300   6.415   0.214
  501SOL    HW1 2402   3.274   6.508   0.188
  501SOL    HW2 2403   3.217   6.361   0.230
  502SOL     OW 2404   6.746   4.563   6.809
  502SOL    HW1 2405   6.692   4.584   6.890
  502SOL    HW2 2406   6.688   4.515   6.742
  503SOL     OW 2407   5.662   5.879   6.055
  503SOL    HW1 2408   5.701   5.805   6.000
  503SOL    HW2 2409   5.632   5.842   6.144
  504SOL     OW 2410   1.819   5.219   3.361
  504SOL    HW1 2411   1.888   5.268   3.414
  504SOL    HW2 2412   1.730   5.226   3.407
  505SOL     OW 2413   3.480   6.164   4.755
  505SOL    HW1 2414   3.395   6.185   4.706
  505SOL    HW2 2415   3.472   6.194   4.850
  506SOL     OW 2416   2.337   5.450   4.769
  506SOL    HW1 2417   2.307   5.434   4.675
  506SOL    HW2 2418   2.264   5.423   4.832
  507SOL     OW 2419   3.596   0.852   3.451
  507SOL    HW1 2420   3.569   0.825   3.544
  507SOL    HW2 2421   3.693   0.833   3.439
  508SOL     OW 2422   6.374   3.536   2.295
  508SOL    HW1 2423   6.436   3.506   2.222
  508SOL    HW2 2424   6.356   3.634   2.285
  509SOL     OW 2425   3.498   1.200   1.710
  509SOL    HW1 2426   3.415   1.246   1.676
  509SOL    HW2 2427   3.571   1.268   1.722
  510SOL     OW 2428   6.528   5.110   6.411
  510SOL    HW1 2429   6.609   5.118   6.353
  510SOL    HW2 2430   6.548   5.051   6.489
  511SOL     OW 2431   0.022   0.909   6.282
  511SOL    HW1 2432   0.067   0.910   6.372
  511SOL    HW2 2433   6.954   0.948   6.291
  512SOL     OW 2434   6.974   2.799   0.104
  512SOL    HW1 2435   7.018   2.712   0.121
  512SOL    HW2 2436   7.006   2.866   0.171
  513SOL     OW 2437   5.711   5.922   3.257
  513SOL    HW1 2438   5.618   5.900   3.228
  513SOL    HW2 2439   5.726   5.888   3.350
  514SOL     OW 2440   6.623   2.712   4.025
  514SOL    HW1 2441   6.681   2.764   3.962
  514SOL    HW2 2442   6.600   2.624   3.983
  515SOL     OW 2443   1.992   0.549   6.442
  515SOL    HW1 2444   1.940   0.627   6.407
  515SOL    HW2 2445   1.939   0.502   6.512
  516SOL     OW 2446   2.656   4.573   1.701
  516SOL    HW1 2447   2.604   4.628   1.767
  516SOL    HW2 2448   2.732   4.528   1.748
  517SOL     OW 2449   5.026   5.413   2.038
  517SOL    HW1 2450   4.938   5.453   2.013
  517SOL    HW2 2451   5.061   5.459   2.120
  518SOL     OW 2452   2.471   2.352   2.391
  518SOL    HW1 2453   2.540   2.332   2.322
  518SOL    HW2 2454   2.457   2.451   2.397
  519SOL     OW 2455   1.068   1.047   4.340
  519SOL    HW1 2456   1.018   1.134   4.343
  519SOL    HW2 2457   1.067   1.005   4.431
  520SOL     OW 2458   6.245   4.575   0.066
  520SOL    HW1 2459   6.309   4.516   0.017
  520SOL    HW2 2460   6.293   4.622   0.140
  521SOL     OW 2461   6.941   3.594   6.653
  521SOL    HW1 2462   6.995   3.523   6.608
  521SOL    HW2 2463   6.855   3.607   6.604
  522SOL     OW 2464   3.230   3.628   5.513
  522SOL    HW1 2465   3.154   3.609   5.451
  522SOL    HW2 2466   3.199   3.690   5.585
  523SOL     OW 2467   0.682   4.954   1.774
  523SOL    HW1 2468   0.773   4.963   1.733
  523SOL    HW2 2469   0.642   5.044   1.786
  524SOL     OW 2470   1.183   1.275   7.018
  524SOL    HW1 2471   1.280   1.287   6.996
  524SOL    HW2 2472   1.173   1.264   0.093
  525SOL     OW 2473   2.763   3.868   6.667
  525SOL    HW1 2474   2.765   3.940   6.597
  525SOL    HW2 2475   2.677   3.817   6.659
  526SOL     OW 2476   4.074   0.071   4.000
  526SOL    HW1 2477   4.075   0.169   4.018
  526SOL    HW2 2478   4.009   0.051   3.927
  527SOL     OW 2479   6.463   3.204   6.377
  527SOL    HW1 2480   6.370   3.210   6.413
  527SOL    HW2 2481   6.517   3.141   6.433
  528SOL     OW 2482   1.003   1.174   3.728
  528SOL    HW1 2483   1.044   1.083   3.731
  528SOL    HW2 2484   0.904   1.165   3.717
  529SOL     OW 2485   0.872   6.390   4.467
  529SOL    HW1 2486   0.957   6.443   4.476
  529SOL    HW2 2487   0.869   6.319   4.538
  530SOL     OW 2488   2.716   3.124   5.440
  530SOL    HW1 2489   2.673   3.180   5.369
  530SOL    HW2 2490   2.749   3.183   5.513
  531SOL     OW 2491   0.240   0.538   2.241
  531SOL    HW1 2492   0.252   0.518   2.338
  531SOL    HW2 2493   0.323   0.515   2.192
  532SOL     OW 2494   1.496   2.136   6.938
  532SOL    HW1 2495   1.566   2.155   7.006
  532SOL    HW2 2496   1.452   2.222   6.910
  533SOL     OW 2497   4.235   6.333   3.557
  533SOL    HW1 2498   4.187   6.247   3.544
  533SOL    HW2 2499   4.205   6.376   3.642
  534SOL     OW 2500   5.400   5.246   3.833
  534SOL    HW1 2501   5.346   5.318   3.878
  534SOL    HW2 2502   5.494   5.249   3.866
  535SOL     OW 2503   0.488   3.799   4.695
  535SOL    HW1 2504   0.481   3.781   4.597
  535SOL    HW2 2505   0.547   3.878   4.710
  536SOL     OW 2506   0.385   4.924   2.090
  536SOL    HW1 2507   0.438   4.839   2.087
  536SOL    HW2 2508   0.444   5.001   2.068
  537SOL     OW 2509   2.014   6.374   3.612
  537SOL    HW1 2510   2.046   6.444   3.675
  537SOL    HW2 2511   1.940   6.321   3.655
  538SOL     OW 2512   1.970   4.074   3.377
  538SOL    HW1 2513   2.061   4.036   3.393
  538SOL    HW2 2514   1.970   4.171   3.402
  539SOL     OW 2515   0.825   6.182   0.300
  539SOL    HW1 2516   0.768   6.261   0.280
  539SOL    HW2 2517   0.916   6.196   0.261
  540SOL     OW 2518   7.002   1.111   1.766
  540SOL    HW1 2519   0.042   1.036   1.783
  540SOL    HW2 2520   6.960   1.099   1.676
  541SOL     OW 2521   3.015   6.122   3.566
  541SOL    HW1 2522   2.993   6.124   3.664
  541SOL    HW2 2523   3.073   6.043   3.547
  542SOL     OW 2524   6.394   0.380   6.886
  542SOL    HW1 2525   6.432   0.288   6.885
  542SOL    HW2 2526   6.294   0.375   6.884
  543SOL     OW 2527   1.590   5.336   5.405
  543SOL    HW1 2528   1.668   5.274   5.397
  543SOL    HW2 2529   1.589   5.379   5.495
  544SOL     OW 2530   1.956   4.384   1.216
  544SOL    HW1 2531   1.929   4.476   1.243
  544SOL    HW2 2532   2.056   4.381   1.205
  545SOL     OW 2533   3.211   0.564   3.250
  545SOL    HW1 2534   3.147   0.522   3.186
  545SOL    HW2 2535   3.293   0.508   3.257
  546SOL     OW 2536   1.763   3.258   0.032
  546SOL    HW1 2537   1.728   3.302   0.115
  546SOL    HW2 2538   1.761   3.159   0.043
  547SOL     OW 2539   2.590   1.379   6.680
  547SOL    HW1 2540   2.504   1.344   6.716
  547SOL    HW2 2541   2.600   1.351   6.584
  548SOL     OW 2542   4.022   3.148   2.664
  548SOL    HW1 2543   4.094   3.101   2.615
  548SOL    HW2 2544   4.041   3.246   2.667
  549SOL     OW 2545   4.578   3.469   1.285
  549SOL    HW1 2546   4.605   3.374   1.275
  549SOL    HW2 2547   4.552   3.487   1.380
  550SOL     OW 2548   6.488   4.399   3.405
  550SOL    HW1 2549   6.482   4.488   3.361
  550SOL    HW2 2550   6.404   4.348   3.389
  551SOL     OW 2551   0.554   0.871   1.350
  551SOL    HW1 2552   0.577   0.964   1.379
  551SOL    HW2 2553   0.603   0.805   1.408
  552SOL     OW 2554   4.552   5.677   0.761
  552SOL    HW1 2555   4.646   5.711   0.767
  552SOL    HW2 2556   4.497   5.740   0.706
  553SOL     OW 2557   2.282   0.196   1.636
  553SOL    HW1 2558   2.225   0.142   1.699
  553SOL    HW2 2559   2.374   0.157   1.634
  554SOL     OW 2560   5.638   6.158   6.105
  554SOL    HW1 2561   5.666   6.066   6.076
  554SOL    HW2 2562   5.566   6.151   6.174
  555SOL     OW 2563   2.280   5.187   4.138
  555SOL    HW1 2564   2.300   5.131   4.218
  555SOL    HW2 2565   2.259   5.280   4.168
  556SOL     OW 2566   5.897   2.154   3.683
  556SOL    HW1 2567   5.856   2.087   3.621
  556SOL    HW2 2568   5.903   2.242   3.637
  557SOL     OW 2569   0.818   5.460   0.104
  557SOL    HW1 2570   0.882   5.517   0.156
  557SOL    HW2 2571   0.870   5.405   0.039
  558SOL     OW 2572   3.268   4.131   4.772
  558SOL    HW1 2573   3.254   4.094   4.864
  558SOL    HW2 2574   3.334   4.207   4.777
  559SOL     OW 2575   6.235   6.399   6.611
  559SOL    HW1 2576   6.315   6.458   6.600
  559SOL    HW2 2577   6.194   6.381   6.521
  560SOL     OW 2578   3.758   5.818   0.238
  560SOL    HW1 2579   3.692   5.743   0.244
  560SOL    HW2 2580   3.712   5.905   0.255
  561SOL     OW 2581   6.522   0.959   6.896
  561SOL    HW1 2582   6.576   0.973   6.813
  561SOL    HW2 2583   6.569   0.893   6.955
  562SOL     OW 2584   4.527   0.368   6.117
  562SOL    HW1 2585   4.593   0.441   6.105
  562SOL    HW2 2586   4.453   0.398   6.178
  563SOL     OW 2587   2.338   0.273   3.370
  563SOL    HW1 2588   2.429   0.235   3.353
  563SOL    HW2 2589   2.336   0.369   3.340
  564SOL     OW 2590   2.691   1.732   6.603
  564SOL    HW1 2591   2.737   1.700   6.521
  564SOL    HW2 2592   2.733   1.691   6.684
  565SOL     OW 2593   4.269   3.257   5.649
  565SOL    HW1 2594   4.293   3.229   5.555
  565SOL    HW2 2595   4.203   3.192   5.687
  566SOL     OW 2596   5.851   3.595   3.749
  566SOL    HW1 2597   5.766   3.572   3.796
  566SOL    HW2 2598   5.895   3.672   3.797
  567SOL     OW 2599   2.950   3.189   2.949
  567SOL    HW1 2600   2.931   3.247   3.029
  567SOL    HW2 2601   2.941   3.244   2.866
  568SOL     OW 2602   3.177   2.580   1.037
  568SOL    HW1 2603   3.190   2.526   1.120
  568SOL    HW2 2604   3.254   2.563   0.975
  569SOL     OW 2605   1.876   3.208   0.386
  569SOL    HW1 2606   1.874   3.297   0.432
  569SOL    HW2 2607   1.783   3.177   0.368
  570SOL     OW 2608   1.934   6.439   5.509
  570SOL    HW1 2609   1.875   6.385   5.569
  570SOL    HW2 2610   2.028   6.433   5.540
  571SOL     OW 2611   3.601   0.014   2.640
  571SOL    HW1 2612   3.625   6.943   2.658
  571SOL    HW2 2613   3.679   0.061   2.598
  572SOL     OW 2614   2.810   4.751   5.856
  572SOL    HW1 2615   2.819   4.791   5.764
  572SOL    HW2 2616   2.752   4.670   5.851
  573SOL     OW 2617   4.386   1.627   5.264
  573SOL    HW1 2618   4.444   1.640   5.345
  573SOL    HW2 2619   4.349   1.716   5.237
  574SOL     OW 2620   1.956   2.491   3.376
  574SOL    HW1 2621   2.052   2.488   3.403
  574SOL    HW2 2622   1.941   2.433   3.296
  575SOL     OW 2623   6.594   4.032   5.684
  575SOL    HW1 2624   6.543   3.994   5.761
  575SOL    HW2 2625   6.687   4.054   5.713
  576SOL     OW 2626   1.659   1.768   1.999
  576SOL    HW1 2627   1.602   1.806   1.926
  576SOL    HW2 2628   1.755   1.775   1.973
  577SOL     OW 2629   2.193   0.772   3.133
  577SOL    HW1 2630   2.280   0.808   3.098
  577SOL    HW2 2631   2.165   0.825   3.213
  578SOL     OW 2632   6.724   3.562   3.519
  578SOL    HW1 2633   6.674   3.595   3.439
  578SOL    HW2 2634   6.786   3.488   3.491
  579SOL     OW 2635   3.320   1.927   1.230
  579SOL    HW1 2636   3.367   2.009   1.263
  579SOL    HW2 2637   3.386   1.864   1.189
  580SOL     OW 2638   0.581   4.456   6.820
  580SOL    HW1 2639   0.665   4.468   6.873
  580SOL    HW2 2640   0.598   4.484   6.725
  581SOL     OW 2641   3.359   3.362   2.921
  581SOL    HW1 2642   3.434   3.298   2.937
  581SOL    HW2 2643   3.371   3.405   2.832
  582SOL     OW 2644   5.492   4.805   2.910
  582SOL    HW1 2645   5.566   4.778   2.972
  582SOL    HW2 2646   5.406   4.764   2.941
  583SOL     OW 2647   2.747   5.347   6.679
  583SOL    HW1 2648   2.652   5.377   6.683
  583SOL    HW2 2649   2.785   5.343   6.771
  584SOL     OW 2650   1.394   5.663   5.482
  584SOL    HW1 2651   1.330   5.586   5.486
  584SOL    HW2 2652   1.394   5.701   5.389
  585SOL     OW 2653   6.425   2.928   5.725
  585SOL    HW1 2654   6.410   3.015   5.773
  585SOL    HW2 2655   6.362   2.859   5.759
  586SOL     OW 2656   3.108   0.367   0.258
  586SOL    HW1 2657   3.040   0.389   0.328
  586SOL    HW2 2658   3.093   0.424   0.177
  587SOL     OW 2659   2.077   2.286   5.450
  587SOL    HW1 2660   2.001   2.274   5.514
  587SOL    HW2 2661   2.089   2.202   5.397
  588SOL     OW 2662   3.212   5.570   0.852
  588SOL    HW1 2663   3.171   5.635   0.916
  588SOL    HW2 2664   3.148   5.553   0.777
  589SOL     OW 2665   3.655   5.538   1.874
  589SOL    HW1 2666   3.637   5.448   1.836
  589SOL    HW2 2667   3.723   5.585   1.818
  590SOL     OW 2668   6.114   2.898   1.565
  590SOL    HW1 2669   6.184   2.963   1.537
  590SOL    HW2 2670   6.048   2.944   1.625
  591SOL     OW 2671   3.738   6.271   4.070
  591SOL    HW1 2672   3.764   6.361   4.108
  591SOL    HW2 2673   3.807   6.242   4.004
  592SOL     OW 2674   4.372   7.017   0.800
  592SOL    HW1 2675   4.438   0.067   0.815
  592SOL    HW2 2676   4.415   6.930   0.822
  593SOL     OW 2677   4.174   2.031   3.720
  593SOL    HW1 2678   4.166   2.078   3.632
  593SOL    HW2 2679   4.270   2.030   3.749
  594SOL     OW 2680   4.626   2.519   6.444
  594SOL    HW1 2681   4.528   2.539   6.450
  594SOL    HW2 2682   4.639   2.425   6.415
  595SOL     OW 2683   4.448   6.445   3.687
  595SOL    HW1 2684   4.379   6.385   3.648
  595SOL    HW2 2685   4.520   6.389   3.730
  596SOL     OW 2686   1.098   3.589   1.392
  596SOL    HW1 2687   1.058   3.497   1.394
  596SOL    HW2 2688   1.103   3.621   1.297
  597SOL     OW 2689   4.500   0.171   5.896
  597SOL    HW1 2690   4.495   0.085   5.947
  597SOL    HW2 2691   4.487   0.248   5.959
  598SOL     OW 2692   3.797   3.862   0.152
  598SOL    HW1 2693   3.814   3.903   0.063
  598SOL    HW2 2694   3.713   3.900   0.192
  599SOL     OW 2695   1.121   0.132   2.945
  599SOL    HW1 2696   1.062   0.052   2.955
  599SOL    HW2 2697   1.204   0.107   2.895
  600SOL     OW 2698   0.781   0.263   1.000
  600SOL    HW1 2699   0.708   0.212   1.046
  600SOL    HW2 2700   0.807   0.215   0.916
  601SOL     OW 2701   3.171   5.778   3.889
  601SOL    HW1 2702   3.199   5.849   3.954
  601SOL    HW2 2703   3.077   5.797   3.858
  602SOL     OW 2704   0.859   1.897   0.203
  602SOL    HW1 2705   0.931   1.964   0.182
  602SOL    HW2 2706   0.858   1.880   0.301
  603SOL     OW 2707   4.037   1.900   4.190
  603SOL    HW1 2708   4.009   1.996   4.186
  603SOL    HW2 2709   4.134   1.894   4.212
  604SOL     OW 2710   0.230   3.317   1.341
  604SOL    HW1 2711   0.204   3.317   1.244
  604SOL    HW2 2712   0.294   3.391   1.358
  605SOL     OW 2713   6.560   5.793   2.756
  605SOL    HW1 2714   6.596   5.835   2.839
  605SOL    HW2 2715   6.537   5.697   2.774
  606SOL     OW 2716   5.235   0.779   5.475
  606SOL    HW1 2717   5.191   0.750   5.390
  606SOL    HW2 2718   5.301   0.710   5.503
  607SOL     OW 2719   5.482   0.430   5.220
  607SOL    HW1 2720   5.488   0.529   5.206
  607SOL    HW2 2721   5.505   0.383   5.135
  608SOL     OW 2722   3.500   6.914   0.322
  608SOL    HW1 2723   3.553   6.969   0.386
  608SOL    HW2 2724   3.412   6.959   0.306
  609SOL     OW 2725   3.448   3.542   4.295
  609SOL    HW1 2726   3.358   3.584   4.294
  609SOL    HW2 2727   3.445   3.456   4.243
  610SOL     OW 2728   5.830   1.923   3.510
  610SOL    HW1 2729   5.827   1.831   3.551
  610SOL    HW2 2730   5.808   1.916   3.413
  611SOL     OW 2731   0.831   0.527   6.856
  611SOL    HW1 2732   0.784   0.564   6.776
  611SOL    HW2 2733   0.841   0.428   6.846
  612SOL     OW 2734   3.019   5.894   5.724
  612SOL    HW1 2735   3.093   5.946   5.768
  612SOL    HW2 2736   2.981   5.828   5.788
  613SOL     OW 2737   4.934   0.568   5.613
  613SOL    HW1 2738   4.961   0.657   5.575
  613SOL    HW2 2739   4.911   0.579   5.710
  614SOL     OW 2740   5.945   4.394   0.982
  614SOL    HW1 2741   6.019   4.385   1.050
  614SOL    HW2 2742   5.965   4.471   0.921
  615SOL     OW 2743   0.911   1.112   0.278
  615SOL    HW1 2744   0.947   1.034   0.329
  615SOL    HW2 2745   0.936   1.103   0.182
  616SOL     OW 2746   6.039   1.943   3.822
  616SOL    HW1 2747   6.000   2.024   3.778
  616SOL    HW2 2748   6.034   1.954   3.921
  617SOL     OW 2749   0.392   4.047   6.938
  617SOL    HW1 2750   0.403   4.107   7.017
  617SOL    HW2 2751   0.463   4.067   6.870
  618SOL     OW 2752   6.066   3.902   0.784
  618SOL    HW1 2753   6.097   3.833   0.850
  618SOL    HW2 2754   6.036   3.856   0.700
  619SOL     OW 2755   4.218   7.002   6.569
  619SOL    HW1 2756   4.158   0.057   6.580
  619SOL    HW2 2757   4.168   6.918   6.588
  620SOL     OW 2758   5.495   2.892   1.319
  620SOL    HW1 2759   5.444   2.902   1.233
  620SOL    HW2 2760   5.533   2.800   1.324
  621SOL     OW 2761   2.466   0.278   5.212
  621SOL    HW1 2762   2.517   0.208   5.162
  621SOL    HW2 2763   2.493   0.369   5.180
  622SOL     OW 2764   0.613   1.926   5.022
  622SOL    HW1 2765   0.582   1.951   5.114
  622SOL    HW2 2766   0.667   2.002   4.984
  623SOL     OW 2767   6.737   0.084   5.023
  623SOL    HW1 2768   6.804   0.012   5.045
  623SOL    HW2 2769   6.759   0.166   5.075
  624SOL     OW 2770   6.289   0.961   0.048
  624SOL    HW1 2771   6.329   0.922   6.989
  624SOL    HW2 2772   6.189   0.959   0.040
  625SOL     OW 2773   1.203   1.158   0.262
  625SOL    HW1 2774   1.237   1.077   0.309
  625SOL    HW2 2775   1.183   1.230   0.329
  626SOL     OW 2776   0.714   5.559   2.648
  626SOL    HW1 2777   0.708   5.652   2.613
  626SOL    HW2 2778   0.635   5.506   2.617
  627SOL     OW 2779   6.472   6.272   0.253
  627SOL    HW1 2780   6.568   6.263   0.226
  627SOL    HW2 2781   6.460   6.234   0.345
  628SOL     OW 2782   5.778   3.832   4.550
  628SOL    HW1 2783   5.763   3.739   4.517
  628SOL    HW2 2784   5.842   3.880   4.490
  629SOL     OW 2785   6.950   1.242   0.239
  629SOL    HW1 2786   6.924   1.158   0.286
  629SOL    HW2 2787   6.867   1.293   0.214
  630SOL     OW 2788   6.797   1.715   0.632
  630SOL    HW1 2789   6.842   1.681   0.550
  630SOL    HW2 2790   6.725   1.780   0.606
  631SOL     OW 2791   3.358   1.634   4.353
  631SOL    HW1 2792   3.396   1.544   4.335
  631SOL    HW2 2793   3.425   1.691   4.400
  632SOL     OW 2794   4.298   3.334   0.736
  632SOL    HW1 2795   4.314   3.236   0.748
  632SOL    HW2 2796   4.253   3.350   0.649
  633SOL     OW 2797   2.603   4.576   0.574
  633SOL    HW1 2798   2.581   4.671   0.595
  633SOL    HW2 2799   2.594   4.520   0.657
  634SOL     OW 2800   3.848   3.867   3.687
  634SOL    HW1 2801   3.808   3.776   3.699
  634SOL    HW2 2802   3.790   3.921   3.626
  635SOL     OW 2803   4.693   6.936   6.837
  635SOL    HW1 2804   4.708   6.905   6.931
  635SOL    HW2 2805   4.739   0.000   6.823
  636SOL     OW 2806   3.135   0.531   5.550
  636SOL    HW1 2807   3.069   0.514   5.623
  636SOL    HW2 2808   3.106   0.610   5.496
  637SOL     OW 2809   5.736   1.921   2.513
  637SOL    HW1 2810   5.742   1.997   2.578
  637SOL    HW2 2811   5.735   1.835   2.564
  638SOL     OW 2812   5.789   3.281   3.844
  638SOL    HW1 2813   5.741   3.335   3.913
  638SOL    HW2 2814   5.866   3.334   3.807
  639SOL     OW 2815   5.372   4.447   3.704
  639SOL    HW1 2816   5.321   4.526   3.737
  639SOL    HW2 2817   5.410   4.396   3.782
  640SOL     OW 2818   0.126   3.954   3.493
  640SOL    HW1 2819   0.118   3.900   3.409
  640SOL    HW2 2820   0.174   3.900   3.562
  641SOL     OW 2821   1.465   4.871   5.246
  641SOL    HW1 2822   1.473   4.919   5.158
  641SOL    HW2 2823   1.453   4.938   5.319
  642SOL     OW 2824   1.512   3.051   4.634
  642SOL    HW1 2825   1.593   3.011   4.676
  642SOL    HW2 2826   1.519   3.044   4.535
  643SOL     OW 2827   6.066   0.217   6.668
  643SOL    HW1 2828   5.983   0.273   6.667
  643SOL    HW2 2829   6.042   0.122   6.686
  644SOL     OW 2830   1.522   0.544   4.649
  644SOL    HW1 2831   1.527   0.564   4.747
  644SOL    HW2 2832   1.564   0.619   4.597
  645SOL     OW 2833   3.082   5.190   3.575
  645SOL    HW1 2834   3.124   5.107   3.538
  645SOL    HW2 2835   3.061   5.253   3.501
  646SOL     OW 2836   3.426   0.585   4.630
  646SOL    HW1 2837   3.330   0.579   4.658
  646SOL    HW2 2838   3.438   0.665   4.571
  647SOL     OW 2839   5.577   1.614   4.894
  647SOL    HW1 2840   5.661   1.646   4.939
  647SOL    HW2 2841   5.598   1.586   4.800
  648SOL     OW 2842   6.743   3.073   3.434
  648SOL    HW1 2843   6.668   3.131   3.404
  648SOL    HW2 2844   6.710   2.979   3.445
  649SOL     OW 2845   2.052   4.485   0.549
  649SOL    HW1 2846   1.997   4.445   0.476
  649SOL    HW2 2847   2.148   4.459   0.536
  650SOL     OW 2848   6.964   5.399   0.653
  650SOL    HW1 2849   6.899   5.450   0.598
  650SOL    HW2 2850   7.006   5.327   0.596
  651SOL     OW 2851   2.060   0.487   5.675
  651SOL    HW1 2852   2.112   0.410   5.713
  651SOL    HW2 2853   1.963   0.462   5.672
  652SOL     OW 2854   4.293   6.618   1.847
  652SOL    HW1 2855   4.224   6.595   1.915
  652SOL    HW2 2856   4.250   6.664   1.769
  653SOL     OW 2857   0.504   6.655   0.401
  653SOL    HW1 2858   0.432   6.624   0.339
  653SOL    HW2 2859   0.481   6.629   0.495
  654SOL     OW 2860   6.449   6.762   6.127
  654SOL    HW1 2861   6.460   6.730   6.221
  654SOL    HW2 2862   6.364   6.813   6.118
  655SOL     OW 2863   0.135   5.477   1.716
  655SOL    HW1 2864   0.188   5.399   1.682
  655SOL    HW2 2865   0.124   5.468   1.815
  656SOL     OW 2866   2.326   6.433   0.527
  656SOL    HW1 2867   2.365   6.511   0.479
  656SOL    HW2 2868   2.273   6.466   0.605
  657SOL     OW 2869   3.264   3.526   0.747
  657SOL    HW1 2870   3.294   3.431   0.743
  657SOL    HW2 2871   3.284   3.571   0.660
  658SOL     OW 2872   1.719   4.559   5.871
  658SOL    HW1 2873   1.679   4.645   5.839
  658SOL    HW2 2874   1.693   4.543   5.966
  659SOL     OW 2875   2.878   5.299   4.665
  659SOL    HW1 2876   2.923   5.355   4.735
  659SOL    HW2 2877   2.795   5.345   4.635
  660SOL     OW 2878   4.591   4.708   2.456
  660SOL    HW1 2879   4.618   4.710   2.359
  660SOL    HW2 2880   4.496   4.739   2.464
  661SOL     OW 2881   4.885   4.110   4.475
  661SOL    HW1 2882   4.977   4.082   4.448
  661SOL    HW2 2883   4.820   4.083   4.405
  662SOL     OW 2884   4.305   1.720   6.534
  662SOL    HW1 2885   4.245   1.707   6.613
  662SOL    HW2 2886   4.258   1.776   6.466
  663SOL     OW 2887   0.544   4.718   6.905
  663SOL    HW1 2888   0.542   4.638   6.845
  663SOL    HW2 2889   0.584   4.693   6.993
  664SOL     OW 2890   1.751   5.258   6.950
  664SOL    HW1 2891   1.671   5.227   7.001
  664SOL    HW2 2892   1.828   5.198   6.970
  665SOL     OW 2893   3.992   5.400   1.123
  665SOL    HW1 2894   3.911   5.403   1.182
  665SOL    HW2 2895   3.971   5.345   1.041
  666SOL     OW 2896   3.893   2.161   1.168
  666SOL    HW1 2897   3.975   2.204   1.131
  666SOL    HW2 2898   3.855   2.096   1.102
  667SOL     OW 2899   0.643   2.956   4.097
  667SOL    HW1 2900   0.617   2.863   4.121
  667SOL    HW2 2901   0.563   3.006   4.066
  668SOL     OW 2902   4.735   5.909   0.093
  668SOL    HW1 2903   4.808   5.978   0.091
  668SOL    HW2 2904   4.696   5.905   0.185
  669SOL     OW 2905   2.017   6.475   2.807
  669SOL    HW1 2906   2.006   6.442   2.713
  669SOL    HW2 2907   1.928   6.503   2.843
  670SOL     OW 2908   3.181   3.722   2.493
  670SOL    HW1 2909   3.108   3.789   2.474
  670SOL    HW2 2910   3.220   3.691   2.406
  671SOL     OW 2911   2.639   6.102   6.035
  671SOL    HW1 2912   2.660   6.095   6.132
  671SOL    HW2 2913   2.610   6.013   6.001
  672SOL     OW 2914   1.083   3.388   2.985
  672SOL    HW1 2915   1.003   3.448   2.982
  672SOL    HW2 2916   1.161   3.435   2.944
  673SOL     OW 2917   4.668   6.780   0.616
  673SOL    HW1 2918   4.725   6.697   0.616
  673SOL    HW2 2919   4.599   6.772   0.688
  674SOL     OW 2920   0.216   3.182   4.214
  674SOL    HW1 2921   0.192   3.252   4.147
  674SOL    HW2 2922   0.137   3.123   4.230
  675SOL     OW 2923   0.791   1.503   5.065
  675SOL    HW1 2924   0.759   1.501   5.160
  675SOL    HW2 2925   0.747   1.578   5.016
  676SOL     OW 2926   2.449   4.879   3.933
  676SOL    HW1 2927   2.408   4.802   3.884
  676SOL    HW2 2928   2.453   4.859   4.030
  677SOL     OW 2929   5.865   1.240   6.864
  677SOL    HW1 2930   5.878   1.339   6.874
  677SOL    HW2 2931   5.878   1.214   6.769
  678SOL     OW 2932   2.688   1.720   5.347
  678SOL    HW1 2933   2.635   1.635   5.346
  678SOL    HW2 2934   2.626   1.797   5.362
  679SOL     OW 2935   4.361   1.088   4.865
  679SOL    HW1 2936   4.366   1.186   4.880
  679SOL    HW2 2937   4.294   1.069   4.793
  680SOL     OW 2938   5.963   4.561   5.830
  680SOL    HW1 2939   5.977   4.631   5.760
  680SOL    HW2 2940   5.968   4.470   5.788
  681SOL     OW 2941   6.556   0.183   1.013
  681SOL    HW1 2942   6.586   0.142   1.099
  681SOL    HW2 2943   6.613   0.149   0.938
  682SOL     OW 2944   2.655   6.470   6.214
  682SOL    HW1 2945   2.717   6.484   6.137
  682SOL    HW2 2946   2.566   6.511   6.192
  683SOL     OW 2947   3.209   0.350   6.103
  683SOL    HW1 2948   3.113   0.353   6.077
  683SOL    HW2 2949   3.265   0.324   6.024
  684SOL     OW 2950   6.310   1.295   6.217
  684SOL    HW1 2951   6.348   1.244   6.139
  684SOL    HW2 2952   6.210   1.295   6.211
  685SOL     OW 2953   4.841   0.566   5.856
  685SOL    HW1 2954   4.877   0.492   5.913
  685SOL    HW2 2955   4.821   0.645   5.914
  686SOL     OW 2956   6.138   2.759   2.972
  686SOL    HW1 2957   6.083   2.693   3.024
  686SOL    HW2 2958   6.114   2.754   2.875
  687SOL     OW 2959   6.667   2.800   5.695
  687SOL    HW1 2960   6.589   2.858   5.719
  687SOL    HW2 2961   6.729   2.795   5.773
  688SOL     OW 2962   1.937   3.744   6.736
  688SOL    HW1 2963   1.889   3.712   6.818
  688SOL    HW2 2964   1.979   3.666   6.689
  689SOL     OW 2965   0.722   4.703   5.514
  689SOL    HW1 2966   0.625   4.676   5.508
  689SOL    HW2 2967   0.759   4.715   5.422
  690SOL     OW 2968   0.911   3.569   2.907
  690SOL    HW1 2969   0.815   3.551   2.927
  690SOL    HW2 2970   0.932   3.665   2.926
  691SOL     OW 2971   2.377   1.524   6.510
  691SOL    HW1 2972   2.281   1.523   6.484
  691SOL    HW2 2973   2.385   1.542   6.608
  692SOL     OW 2974   3.311   6.967   3.822
  692SOL    HW1 2975   3.372   6.991   3.747
  692SOL    HW2 2976   3.347   6.889   3.872
  693SOL     OW 2977   6.425   1.545   3.454
  693SOL    HW1 2978   6.410   1.465   3.511
  693SOL    HW2 2979   6.375   1.623   3.492
  694SOL     OW 2980   3.442   5.556   2.361
  694SOL    HW1 2981   3.447   5.644   2.408
  694SOL    HW2 2982   3.440   5.483   2.429
  695SOL     OW 2983   5.197   5.107   5.226
  695SOL    HW1 2984   5.269   5.153   5.174
  695SOL    HW2 2985   5.207   5.008   5.217
  696SOL     OW 2986   3.451   5.165   2.277
  696SOL    HW1 2987   3.454   5.220   2.193
  696SOL    HW2 2988   3.450   5.068   2.253
  697SOL     OW 2989   0.990   3.509   6.043
  697SOL    HW1 2990   0.909   3.451   6.041
  697SOL    HW2 2991   1.060   3.467   6.101
  698SOL     OW 2992   5.783   0.191   4.812
  698SOL    HW1 2993   5.793   0.099   4.851
  698SOL    HW2 2994   5.736   0.184   4.724
  699SOL     OW 2995   1.167   4.318   0.204
  699SOL    HW1 2996   1.240   4.332   0.138
  699SOL    HW2 2997   1.190   4.364   0.290
  700SOL     OW 2998   3.094   1.936   3.657
  700SOL    HW1 2999   3.022   1.867   3.666
  700SOL    HW2 3000   3.071   2.000   3.584
  701SOL     OW 3001   1.113   4.671   6.567
  701SOL    HW1 3002   1.171   4.693   6.646
  701SOL    HW2 3003   1.041   4.739   6.558
  702SOL     OW 3004   5.926   6.384   6.493
  702SOL    HW1 3005   5.895   6.478   6.509
  702SOL    HW2 3006   5.891   6.353   6.404
  703SOL     OW 3007   4.477   3.270   6.817
  703SOL    HW1 3008   4.549   3.274   6.748
  703SOL    HW2 3009   4.415   3.347   6.805
  704SOL     OW 3010   2.041   1.253   6.160
  704SOL    HW1 3011   2.007   1.315   6.090
  704SOL    HW2 3012   2.009   1.284   6.250
  705SOL     OW 3013   5.037   6.609   4.051
  705SOL    HW1 3014   4.997   6.654   3.971
  705SOL    HW2 3015   5.117   6.660   4.082
  706SOL     OW 3016   3.987   1.670   3.540
  706SOL    HW1 3017   4.022   1.578   3.556
  706SOL    HW2 3018   4.008   1.697   3.446
  707SOL     OW 3019   4.646   6.899   2.172
  707SOL    HW1 3020   4.591   6.976   2.205
  707SOL    HW2 3021   4.592   6.846   2.106
  708SOL     OW 3022   4.571   0.221   0.874
  708SOL    HW1 3023   4.668   0.211   0.898
  708SOL    HW2 3024   4.519   0.249   0.955
  709SOL     OW 3025   1.165   5.363   0.953
  709SOL    HW1 3026   1.146   5.400   0.862
  709SOL    HW2 3027   1.260   5.331   0.956
  710SOL     OW 3028   3.589   3.885   2.971
  710SOL    HW1 3029   3.520   3.813   2.966
  710SOL    HW2 3030   3.544   3.973   2.986
  711SOL     OW 3031   0.618   2.157   5.691
  711SOL    HW1 3032   0.585   2.076   5.643
  711SOL    HW2 3033   0.558   2.234   5.671
  712SOL     OW 3034   2.254   4.515   0.887
  712SOL    HW1 3035   2.192   4.436   0.886
  712SOL    HW2 3036   2.326   4.499   0.954
  713SOL     OW 3037   3.277   3.904   0.794
  713SOL    HW1 3038   3.366   3.887   0.835
  713SOL    HW2 3039   3.230   3.976   0.845
  714SOL     OW 3040   5.897   4.559   5.189
  714SOL    HW1 3041   5.971   4.575   5.255
  714SOL    HW2 3042   5.927   4.588   5.099
  715SOL     OW 3043   4.950   6.005   0.352
  715SOL    HW1 3044   4.916   6.042   0.439
  715SOL    HW2 3045   4.928   5.908   0.347
  716SOL     OW 3046   1.162   5.517   1.200
  716SOL    HW1 3047   1.171   5.475   1.110
  716SOL    HW2 3048   1.238   5.488   1.258
  717SOL     OW 3049   6.368   4.776   6.267
  717SOL    HW1 3050   6.294   4.710   6.259
  717SOL    HW2 3051   6.332   4.869   6.254
  718SOL     OW 3052   3.487   1.842   6.114
  718SOL    HW1 3053   3.575   1.807   6.080
  718SOL    HW2 3054   3.418   1.770   6.109
  719SOL     OW 3055   5.801   2.458   1.822
  719SOL    HW1 3056   5.867   2.528   1.848
  719SOL    HW2 3057   5.774   2.470   1.727
  720SOL     OW 3058   2.942   1.234   6.381
  720SOL    HW1 3059   3.001   1.245   6.300
  720SOL    HW2 3060   2.852   1.271   6.361
  721SOL     OW 3061   1.294   0.368   4.738
  721SOL    HW1 3062   1.387   0.397   4.761
  721SOL    HW2 3063   1.231   0.403   4.808
  722SOL     OW 3064   3.771   6.748   5.090
  722SOL    HW1 3065   3.842   6.681   5.066
  722SOL    HW2 3066   3.807   6.841   5.077
  723SOL     OW 3067   2.369   2.855   1.855
  723SOL    HW1 3068   2.385   2.756   1.846
  723SOL    HW2 3069   2.295   2.870   1.921
  724SOL     OW 3070   1.210   1.307   4.572
  724SOL    HW1 3071   1.202   1.299   4.473
  724SOL    HW2 3072   1.122   1.337   4.610
  725SOL     OW 3073   2.989   5.039   1.555
  725SOL    HW1 3074   3.032   5.004   1.639
  725SOL    HW2 3075   2.977   4.964   1.490
  726SOL     OW 3076   4.051   4.339   0.535
  726SOL    HW1 3077   4.000   4.276   0.477
  726SOL    HW2 3078   4.022   4.433   0.517
  727SOL     OW 3079   4.380   5.935   4.300
  727SOL    HW1 3080   4.413   5.905   4.211
  727SOL    HW2 3081   4.408   5.871   4.371
  728SOL     OW 3082   0.409   4.512   4.901
  728SOL    HW1 3083   0.436   4.448   4.830
  728SOL    HW2 3084   0.401   4.465   4.989
  729SOL     OW 3085   2.488   0.416   0.572
  729SOL    HW1 3086   2.514   0.437   0.666
  729SOL    HW2 3087   2.402   0.461   0.550
  730SOL     OW 3088   5.607   0.113   3.515
  730SOL    HW1 3089   5.577   0.192   3.461
  730SOL    HW2 3090   5.602   0.135   3.612
  731SOL     OW 3091   5.471   3.463   6.091
  731SOL    HW1 3092   5.562   3.503   6.083
  731SOL    HW2 3093   5.478   3.372   6.132
  732SOL     OW 3094   0.299   3.599   0.774
  732SOL    HW1 3095   0.381   3.543   0.784
  732SOL    HW2 3096   0.298   3.640   0.683
  733SOL     OW 3097   5.495   4.292   4.699
  733SOL    HW1 3098   5.481   4.369   4.636
  733SOL    HW2 3099   5.576   4.241   4.670
  734SOL     OW 3100   6.859   4.405   2.676
  734SOL    HW1 3101   6.882   4.316   2.716
  734SOL    HW2 3102   6.853   4.473   2.749
  735SOL     OW 3103   3.411   2.196   1.273
  735SOL    HW1 3104   3.499   2.241   1.283
  735SOL    HW2 3105   3.349   2.256   1.221
  736SOL     OW 3106   0.020   6.800   2.455
  736SOL    HW1 3107   6.972   6.833   2.516
  736SOL    HW2 3108   7.006   6.791   2.362
  737SOL     OW 3109   4.890   3.067   0.709
  737SOL    HW1 3110   4.921   3.015   0.629
  737SOL    HW2 3111   4.955   3.055   0.784
  738SOL     OW 3112   1.796   5.153   3.939
  738SOL    HW1 3113   1.776   5.086   3.867
  738SOL    HW2 3114   1.875   5.123   3.992
  739SOL     OW 3115   4.752   6.117   5.166
  739SOL    HW1 3116   4.668   6.119   5.220
  739SOL    HW2 3117   4.742   6.052   5.091
  740SOL     OW 3118   5.575   0.388   0.508
  740SOL    HW1 3119   5.660   0.424   0.469
  740SOL    HW2 3120   5.558   0.431   0.596
  741SOL     OW 3121   2.082   6.331   3.343
  741SOL    HW1 3122   2.048   6.337   3.437
  741SOL    HW2 3123   2.051   6.410   3.291
  742SOL     OW 3124   2.192   6.748   1.928
  742SOL    HW1 3125   2.272   6.709   1.883
  742SOL    HW2 3126   2.210   6.757   2.026
  743SOL     OW 3127   1.501   4.177   4.773
  743SOL    HW1 3128   1.531   4.085   4.798
  743SOL    HW2 3129   1.580   4.230   4.741
  744SOL     OW 3130   6.653   0.037   6.363
  744SOL    HW1 3131   6.572   0.073   6.317
  744SOL    HW2 3132   6.735   0.063   6.311
  745SOL     OW 3133   0.944   5.847   4.429
  745SOL    HW1 3134   1.029   5.821   4.476
  745SOL    HW2 3135   0.951   5.823   4.332
  746SOL     OW 3136   0.622   6.623   4.945
  746SOL    HW1 3137   0.630   6.723   4.952
  746SOL    HW2 3138   0.535   6.594   4.985
  747SOL     OW 3139   4.597   4.917   4.267
  747SOL    HW1 3140   4.537   4.887   4.341
  747SOL    HW2 3141   4.548   4.983   4.210
  748SOL     OW 3142   4.200   5.368   2.807
  748SOL    HW1 3143   4.189   5.295   2.740
  748SOL    HW2 3144   4.287   5.357   2.855
  749SOL     OW 3145   6.904   3.765   4.804
  749SOL    HW1 3146   6.988   3.775   4.751
  749SOL    HW2 3147   6.899   3.673   4.843
  750SOL     OW 3148   1.720   3.022   0.842
  750SOL    HW1 3149   1.717   3.122   0.843
  750SOL    HW2 3150   1.660   2.988   0.769
  751SOL     OW 3151   3.763   1.626   6.267
  751SOL    HW1 3152   3.852   1.581   6.270
  751SOL    HW2 3153   3.731   1.632   6.172
  752SOL     OW 3154   4.127   1.986   1.847
  752SOL    HW1 3155   4.188   2.003   1.924
  752SOL    HW2 3156   4.052   2.052   1.849
  753SOL     OW 3157   1.892   3.003   3.979
  753SOL    HW1 3158   1.880   2.938   4.054
  753SOL    HW2 3159   1.811   3.061   3.972
  754SOL     OW 3160   6.094   3.844   5.946
  754SOL    HW1 3161   6.084   3.800   6.035
  754SOL    HW2 3162   6.045   3.932   5.947
  755SOL     OW 3163   1.165   6.046   6.983
  755SOL    HW1 3164   1.121   6.066   6.896
  755SOL    HW2 3165   1.254   6.003   6.966
  756SOL     OW 3166   5.035   6.563   1.322
  756SOL    HW1 3167   5.115   6.609   1.285
  756SOL    HW2 3168   5.063   6.478   1.366
  757SOL     OW 3169   0.480   6.069   3.013
  757SOL    HW1 3170   0.441   6.073   3.105
  757SOL    HW2 3171   0.421   6.014   2.954
  758SOL     OW 3172   3.868   0.438   1.318
  758SOL    HW1 3173   3.819   0.474   1.239
  758SOL    HW2 3174   3.808   0.376   1.369
  759SOL     OW 3175   0.091   0.797   0.848
  759SOL    HW1 3176   0.085   0.698   0.838
  759SOL    HW2 3177   0.148   0.820   0.927
  760SOL     OW 3178   4.023   1.224   6.446
  760SOL    HW1 3179   3.953   1.190   6.509
  760SOL    HW2 3180   4.111   1.230   6.493
  761SOL     OW 3181   5.381   3.809   5.955
  761SOL    HW1 3182   5.469   3.780   5.993
  761SOL    HW2 3183   5.383   3.800   5.856
  762SOL     OW 3184   2.448   6.459   3.664
  762SOL    HW1 3185   2.388   6.429   3.738
  762SOL    HW2 3186   2.392   6.494   3.589
  763SOL     OW 3187   4.350   5.539   6.181
  763SOL    HW1 3188   4.328   5.606   6.111
  763SOL    HW2 3189   4.438   5.561   6.223
  764SOL     OW 3190   4.578   0.282   4.602
  764SOL    HW1 3191   4.668   0.323   4.617
  764SOL    HW2 3192   4.566   0.263   4.504
  765SOL     OW 3193   0.946   6.270   1.271
  765SOL    HW1 3194   0.938   6.297   1.367
  765SOL    HW2 3195   1.004   6.189   1.264
  766SOL     OW 3196   0.452   1.827   0.708
  766SOL    HW1 3197   0.354   1.839   0.694
  766SOL    HW2 3198   0.475   1.729   0.705
  767SOL     OW 3199   0.331   6.129   2.623
  767SOL    HW1 3200   0.415   6.149   2.673
  767SOL    HW2 3201   0.352   6.119   2.525
  768SOL     OW 3202   2.577   6.936   2.250
  768SOL    HW1 3203   2.582   7.004   2.323
  768SOL    HW2 3204   2.552   6.980   2.164
  769SOL     OW 3205   2.630   6.854   3.762
  769SOL    HW1 3206   2.684   6.925   3.718
  769SOL    HW2 3207   2.649   6.766   3.719
  770SOL     OW 3208   1.853   4.339   2.912
  770SOL    HW1 3209   1.788   4.364   2.839
  770SOL    HW2 3210   1.945   4.367   2.885
  771SOL     OW 3211   1.808   5.041   2.866
  771SOL    HW1 3212   1.886   5.004   2.815
  771SOL    HW2 3213   1.841   5.099   2.941
  772SOL     OW 3214   6.656   4.825   0.782
  772SOL    HW1 3215   6.677   4.907   0.730
  772SOL    HW2 3216   6.557   4.815   0.790
  773SOL     OW 3217   0.472   3.807   3.515
  773SOL    HW1 3218   0.486   3.870   3.438
  773SOL    HW2 3219   0.515   3.719   3.494
  774SOL     OW 3220   1.126   1.634   2.305
  774SOL    HW1 3221   1.027   1.640   2.301
  774SOL    HW2 3222   1.153   1.562   2.369
  775SOL     OW 3223   0.844   1.831   3.400
  775SOL    HW1 3224   0.758   1.880   3.411
  775SOL    HW2 3225   0.844   1.749   3.456
  776SOL     OW 3226   0.097   1.444   5.698
  776SOL    HW1 3227   0.151   1.414   5.619
  776SOL    HW2 3228   0.100   1.543   5.705
  777SOL     OW 3229   3.112   6.582   0.912
  777SOL    HW1 3230   3.088   6.617   1.003
  777SOL    HW2 3231   3.195   6.628   0.880
  778SOL     OW 3232   3.431   1.373   4.129
  778SOL    HW1 3233   3.361   1.349   4.062
  778SOL    HW2 3234   3.521   1.373   4.084
  779SOL     OW 3235   0.405   1.703   2.824
  779SOL    HW1 3236   0.498   1.718   2.789
  779SOL    HW2 3237   0.407   1.699   2.924
  780SOL     OW 3238   6.453   3.852   4.471
  780SOL    HW1 3239   6.543   3.810   4.486
  780SOL    HW2 3240   6.383   3.781   4.478
  781SOL     OW 3241   5.597   0.790   6.283
  781SOL    HW1 3242   5.582   0.759   6.189
  781SOL    HW2 3243   5.690   0.770   6.311
  782SOL     OW 3244   1.342   3.936   0.497
  782SOL    HW1 3245   1.312   3.985   0.415
  782SOL    HW2 3246   1.271   3.943   0.568
  783SOL     OW 3247   3.859   4.500   0.846
  783SOL    HW1 3248   3.874   4.589   0.803
  783SOL    HW2 3249   3.784   4.453   0.799
  784SOL     OW 3250   5.199   6.536   5.655
  784SOL    HW1 3251   5.169   6.629   5.635
  784SOL    HW2 3252   5.296   6.537   5.680
  785SOL     OW 3253   0.184   2.241   3.208
  785SOL    HW1 3254   0.271   2.207   3.173
  785SOL    HW2 3255   0.151   2.180   3.281
  786SOL     OW 3256   1.394   0.588   0.925
  786SOL    HW1 3257   1.467   0.539   0.877
  786SOL    HW2 3258   1.335   0.634   0.859
  787SOL     OW 3259   3.105   1.662   6.634
  787SOL    HW1 3260   3.184   1.606   6.608
  787SOL    HW2 3261   3.053   1.687   6.551
  788SOL     OW 3262   2.471   2.547   4.877
  788SOL    HW1 3263   2.414   2.599   4.941
  788SOL    HW2 3264   2.549   2.507   4.925
  789SOL     OW 3265   5.577   4.242   1.338
  789SOL    HW1 3266   5.524   4.275   1.259
  789SOL    HW2 3267   5.515   4.199   1.404
  790SOL     OW 3268   2.478   1.660   4.201
  790SOL    HW1 3269   2.495   1.616   4.289
  790SOL    HW2 3270   2.380   1.659   4.181
  791SOL     OW 3271   3.863   0.509   3.503
  791SOL    HW1 3272   3.846   0.565   3.422
  791SOL    HW2 3273   3.922   0.432   3.479
  792SOL     OW 3274   0.545   0.521   1.667
  792SOL    HW1 3275   0.622   0.458   1.657
  792SOL    HW2 3276   0.470   0.492   1.607
  793SOL     OW 3277   4.214   6.157   2.159
  793SOL    HW1 3278   4.165   6.092   2.218
  793SOL    HW2 3279   4.281   6.207   2.214
  794SOL     OW 3280   2.647   3.401   5.325
  794SOL    HW1 3281   2.599   3.489   5.326
  794SOL    HW2 3282   2.737   3.411   5.366
  795SOL     OW 3283   2.739   5.360   5.116
  795SOL    HW1 3284   2.777   5.282   5.067
  795SOL    HW2 3285   2.686   5.327   5.194
  796SOL     OW 3286   0.973   2.487   6.298
  796SOL    HW1 3287   0.952   2.471   6.394
  796SOL    HW2 3288   0.922   2.568   6.266
  797SOL     OW 3289   5.540   2.425   2.332
  797SOL    HW1 3290   5.443   2.406   2.345
  797SOL    HW2 3291   5.589   2.339   2.319
  798SOL     OW 3292   5.186   0.354   1.226
  798SOL    HW1 3293   5.230   0.381   1.312
  798SOL    HW2 3294   5.095   0.317   1.245
  799SOL     OW 3295   6.557   1.269   4.015
  799SOL    HW1 3296   6.626   1.201   3.986
  799SOL    HW2 3297   6.484   1.272   3.946
  800SOL     OW 3298   5.708   1.010   2.714
  800SOL    HW1 3299   5.663   1.081   2.768
  800SOL    HW2 3300   5.806   1.029   2.709
  801SOL     OW 3301   1.401   3.829   2.852
  801SOL    HW1 3302   1.366   3.909   2.899
  801SOL    HW2 3303   1.496   3.813   2.880
  802SOL     OW 3304   4.332   0.311   0.449
  802SOL    HW1 3305   4.347   0.396   0.501
  802SOL    HW2 3306   4.380   0.236   0.494
  803SOL     OW 3307   0.038   5.611   4.902
  803SOL    HW1 3308   0.006   5.518   4.913
  803SOL    HW2 3309   0.116   5.612   4.839
  804SOL     OW 3310   6.012   6.653   7.000
  804SOL    HW1 3311   6.041   6.569   6.954
  804SOL    HW2 3312   6.032   6.645   0.074
  805SOL     OW 3313   3.711   2.311   5.907
  805SOL    HW1 3314   3.726   2.212   5.909
  805SOL    HW2 3315   3.758   2.350   5.827
  806SOL     OW 3316   4.296   1.349   4.903
  806SOL    HW1 3317   4.352   1.431   4.889
  806SOL    HW2 3318   4.249   1.355   4.990
  807SOL     OW 3319   0.806   1.258   3.422
  807SOL    HW1 3320   0.856   1.172   3.435
  807SOL    HW2 3321   0.872   1.333   3.413
  808SOL     OW 3322   4.847   3.657   6.351
  808SOL    HW1 3323   4.865   3.699   6.262
  808SOL    HW2 3324   4.753   3.677   6.379
  809SOL     OW 3325   0.971   4.609   1.153
  809SOL    HW1 3326   0.900   4.539   1.160
  809SOL    HW2 3327   0.993   4.643   1.245
  810SOL     OW 3328   3.977   2.622   1.439
  810SOL    HW1 3329   3.920   2.704   1.440
  810SOL    HW2 3330   3.947   2.559   1.510
  811SOL     OW 3331   4.622   5.191   3.804
  811SOL    HW1 3332   4.659   5.130   3.734
  811SOL    HW2 3333   4.643   5.286   3.780
  812SOL     OW 3334   0.141   1.517   1.934
  812SOL    HW1 3335   0.117   1.454   2.008
  812SOL    HW2 3336   0.063   1.578   1.916
  813SOL     OW 3337   3.700   4.983   4.342
  813SOL    HW1 3338   3.776   4.948   4.287
  813SOL    HW2 3339   3.658   5.060   4.295
  814SOL     OW 3340   5.024   6.327   3.526
  814SOL    HW1 3341   5.082   6.338   3.446
  814SOL    HW2 3342   4.981   6.415   3.549
  815SOL     OW 3343   6.859   3.087   2.698
  815SOL    HW1 3344   6.805   3.067   2.616
  815SOL    HW2 3345   6.915   3.168   2.683
  816SOL     OW 3346   6.804   0.094   7.010
  816SOL    HW1 3347   6.723   0.130   6.963
  816SOL    HW2 3348   6.785   0.001   0.019
  817SOL     OW 3349   1.765   3.595   1.958
  817SOL    HW1 3350   1.843   3.532   1.954
  817SOL    HW2 3351   1.680   3.542   1.959
  818SOL     OW 3352   6.655   3.164   0.892
  818SOL    HW1 3353   6.717   3.209   0.828
  818SOL    HW2 3354   6.622   3.231   0.959
  819SOL     OW 3355   6.148   2.948   3.772
  819SOL    HW1 3356   6.242   2.969   3.746
  819SOL    HW2 3357   6.149   2.882   3.848
  820SOL     OW 3358   1.682   2.599   6.097
  820SOL    HW1 3359   1.646   2.590   6.190
  820SOL    HW2 3360   1.775   2.634   6.100
  821SOL     OW 3361   2.452   5.176   0.396
  821SOL    HW1 3362   2.442   5.100   0.332
  821SOL    HW2 3363   2.399   5.254   0.362
  822SOL     OW 3364   1.128   5.258   4.796
  822SOL    HW1 3365   1.190   5.226   4.724
  822SOL    HW2 3366   1.170   5.336   4.843
  823SOL     OW 3367   5.005   4.482   6.868
  823SOL    HW1 3368   4.943   4.418   6.914
  823SOL    HW2 3369   5.014   4.564   6.923
  824SOL     OW 3370   5.603   0.895   5.311
  824SOL    HW1 3371   5.563   0.920   5.399
  824SOL    HW2 3372   5.570   0.958   5.240
  825SOL     OW 3373   1.689   3.960   1.149
  825SOL    HW1 3374   1.616   3.962   1.080
  825SOL    HW2 3375   1.726   3.867   1.155
  826SOL     OW 3376   5.456   3.849   0.314
  826SOL    HW1 3377   5.416   3.935   0.346
  826SOL    HW2 3378   5.503   3.864   0.227
  827SOL     OW 3379   2.833   5.419   6.054
  827SOL    HW1 3380   2.779   5.475   5.991
  827SOL    HW2 3381   2.909   5.377   6.003
  828SOL     OW 3382   6.152   0.314   5.392
  828SOL    HW1 3383   6.158   0.358   5.303
  828SOL    HW2 3384   6.237   0.331   5.444
  829SOL     OW 3385   2.994   3.759   4.380
  829SOL    HW1 3386   2.950   3.673   4.356
  829SOL    HW2 3387   3.031   3.752   4.473
  830SOL     OW 3388   4.886   4.941   6.028
  830SOL    HW1 3389   4.809   5.004   6.015
  830SOL    HW2 3390   4.888   4.875   5.953
  831SOL     OW 3391   0.069   0.491   4.766
  831SOL    HW1 3392   7.017   0.532   4.715
  831SOL    HW2 3393   0.095   0.551   4.842
  832SOL     OW 3394   1.413   0.840   0.166
  832SOL    HW1 3395   1.486   0.898   0.129
  832SOL    HW2 3396   1.329   0.855   0.114
  833SOL     OW 3397   0.393   5.648   6.019
  833SOL    HW1 3398   0.451   5.728   6.035
  833SOL    HW2 3399   0.359   5.650   5.925
  834SOL     OW 3400   3.735   4.053   1.440
  834SOL    HW1 3401   3.718   4.129   1.502
  834SOL    HW2 3402   3.657   4.042   1.378
  835SOL     OW 3403   3.530   6.975   4.022
  835SOL    HW1 3404   3.457   0.020   4.015
  835SOL    HW2 3405   3.614   7.019   4.053
  836SOL     OW 3406   3.253   6.532   6.663
  836SOL    HW1 3407   3.311   6.595   6.715
  836SOL    HW2 3408   3.262   6.440   6.700
  837SOL     OW 3409   4.984   6.356   6.384
  837SOL    HW1 3410   4.948   6.276   6.431
  837SOL    HW2 3411   5.009   6.426   6.450
  838SOL     OW 3412   0.719   0.515   4.700
  838SOL    HW1 3413   0.639   0.575   4.705
  838SOL    HW2 3414   0.760   0.522   4.609
  839SOL     OW 3415   2.640   1.766   2.062
  839SOL    HW1 3416   2.646   1.704   1.983
  839SOL    HW2 3417   2.725   1.759   2.115
  840SOL     OW 3418   5.953   0.279   5.655
  840SOL    HW1 3419   5.880   0.335   5.616
  840SOL    HW2 3420   6.017   0.336   5.706
  841SOL     OW 3421   5.655   4.444   0.576
  841SOL    HW1 3422   5.650   4.508   0.653
  841SOL    HW2 3423   5.597   4.478   0.502
  842SOL     OW 3424   4.274   5.120   4.375
  842SOL    HW1 3425   4.180   5.152   4.362
  842SOL    HW2 3426   4.274   5.020   4.384
  843SOL     OW 3427   4.711   2.126   6.947
  843SOL    HW1 3428   4.655   2.044   6.948
  843SOL    HW2 3429   4.657   2.204   6.980
  844SOL     OW 3430   4.560   6.499   1.059
  844SOL    HW1 3431   4.571   6.594   1.088
  844SOL    HW2 3432   4.492   6.454   1.116
  845SOL     OW 3433   6.404   3.360   4.142
  845SOL    HW1 3434   6.504   3.364   4.155
  845SOL    HW2 3435   6.382   3.287   4.076
  846SOL     OW 3436   5.270   1.601   6.494
  846SOL    HW1 3437   5.283   1.572   6.589
  846SOL    HW2 3438   5.197   1.547   6.452
  847SOL     OW 3439   6.375   3.351   0.578
  847SOL    HW1 3440   6.286   3.326   0.615
  847SOL    HW2 3441   6.433   3.386   0.651
  848SOL     OW 3442   6.372   1.250   6.463
  848SOL    HW1 3443   6.356   1.262   6.365
  848SOL    HW2 3444   6.465   1.220   6.479
  849SOL     OW 3445   0.721   5.657   5.453
  849SOL    HW1 3446   0.704   5.568   5.496
  849SOL    HW2 3447   0.671   5.728   5.503
  850SOL     OW 3448   4.960   0.769   3.366
  850SOL    HW1 3449   5.050   0.739   3.334
  850SOL    HW2 3450   4.899   0.690   3.372
  851SOL     OW 3451   6.987   1.625   1.122
  851SOL    HW1 3452   6.913   1.618   1.055
  851SOL    HW2 3453   6.994   1.539   1.173
  852SOL     OW 3454   2.539   2.513   6.976
  852SOL    HW1 3455   2.560   2.438   6.913
  852SOL    HW2 3456   2.501   2.476   0.037
  853SOL     OW 3457   1.303   3.939   3.334
  853SOL    HW1 3458   1.272   3.892   3.416
  853SOL    HW2 3459   1.255   4.027   3.326
  854SOL     OW 3460   4.981   6.082   2.491
  854SOL    HW1 3461   4.952   6.083   2.396
  854SOL    HW2 3462   4.995   6.176   2.523
  855SOL     OW 3463   5.940   6.804   1.144
  855SOL    HW1 3464   5.944   6.896   1.184
  855SOL    HW2 3465   5.982   6.738   1.206
  856SOL     OW 3466   2.285   1.543   5.118
  856SOL    HW1 3467   2.210   1.525   5.054
  856SOL    HW2 3468   2.299   1.642   5.126
  857SOL     OW 3469   5.708   5.298   1.024
  857SOL    HW1 3470   5.752   5.385   1.003
  857SOL    HW2 3471   5.611   5.314   1.046
  858SOL     OW 3472   2.566   4.668   1.982
  858SOL    HW1 3473   2.527   4.709   2.064
  858SOL    HW2 3474   2.666   4.664   1.990
  859SOL     OW 3475   5.834   5.398   6.730
  859SOL    HW1 3476   5.891   5.345   6.793
  859SOL    HW2 3477   5.738   5.390   6.758
  860SOL     OW 3478   4.642   4.417   0.757
  860SOL    HW1 3479   4.637   4.378   0.665
  860SOL    HW2 3480   4.611   4.348   0.824
  861SOL     OW 3481   1.865   7.017   4.660
  861SOL    HW1 3482   1.880   0.066   4.593
  861SOL    HW2 3483   1.885   0.029   4.752
  862SOL     OW 3484   6.534   3.821   5.115
  862SOL    HW1 3485   6.494   3.896   5.062
  862SOL    HW2 3486   6.465   3.750   5.129
  863SOL     OW 3487   1.346   0.322   0.475
  863SOL    HW1 3488   1.391   0.233   0.485
  863SOL    HW2 3489   1.410   0.395   0.498
  864SOL     OW 3490   5.516   4.492   3.988
  864SOL    HW1 3491   5.544   4.574   3.939
  864SOL    HW2 3492   5.597   4.443   4.021
  865SOL     OW 3493   0.984   6.885   4.812
  865SOL    HW1 3494   0.935   6.967   4.841
  865SOL    HW2 3495   0.938   6.845   4.733
  866SOL     OW 3496   1.724   1.927   1.420
  866SOL    HW1 3497   1.689   1.857   1.357
  866SOL    HW2 3498   1.807   1.966   1.383
  867SOL     OW 3499   3.261   2.435   1.264
  867SOL    HW1 3500   3.175   2.424   1.315
  867SOL    HW2 3501   3.334   2.461   1.328
  868SOL     OW 3502   6.221   6.504   0.991
  868SOL    HW1 3503   6.218   6.602   1.007
  868SOL    HW2 3504   6.311   6.479   0.953
  869SOL     OW 3505   6.429   5.557   2.830
  869SOL    HW1 3506   6.412   5.498   2.752
  869SOL    HW2 3507   6.445   5.501   2.912
  870SOL     OW 3508   5.949   4.210   0.761
  870SOL    HW1 3509   5.888   4.140   0.799
  870SOL    HW2 3510   5.985   4.266   0.836
  871SOL     OW 3511   6.829   2.995   2.083
  871SOL    HW1 3512   6.884   3.005   2.001
  871SOL    HW2 3513   6.889   2.994   2.163
  872SOL     OW 3514   6.536   3.780   4.134
  872SOL    HW1 3515   6.576   3.857   4.084
  872SOL    HW2 3516   6.551   3.695   4.083
  873SOL     OW 3517   4.219   0.331   2.791
  873SOL    HW1 3518   4.224   0.366   2.698
  873SOL    HW2 3519   4.127   0.344   2.827
  874SOL     OW 3520   1.264   3.854   5.710
  874SOL    HW1 3521   1.190   3.793   5.741
  874SOL    HW2 3522   1.302   3.902   5.789
  875SOL     OW 3523   5.003   4.034   1.016
  875SOL    HW1 3524   5.009   3.940   1.047
  875SOL    HW2 3525   4.918   4.075   1.051
  876SOL     OW 3526   6.749   4.348   3.025
  876SOL    HW1 3527   6.669   4.297   2.993
  876SOL    HW2 3528   6.743   4.360   3.124
  877SOL     OW 3529   4.726   4.716   6.830
  877SOL    HW1 3530   4.678   4.695   6.915
  877SOL    HW2 3531   4.754   4.631   6.785
  878SOL     OW 3532   3.901   5.762   6.224
  878SOL    HW1 3533   3.925   5.665   6.219
  878SOL    HW2 3534   3.954   5.806   6.296
  879SOL     OW 3535   4.147   2.274   2.486
  879SOL    HW1 3536   4.151   2.250   2.583
  879SOL    HW2 3537   4.101   2.201   2.436
  880SOL     OW 3538   3.367   4.629   0.188
  880SOL    HW1 3539   3.304   4.603   0.115
  880SOL    HW2 3540   3.457   4.589   0.171
  881SOL     OW 3541   4.336   4.837   5.207
  881SOL    HW1 3542   4.245   4.825   5.168
  881SOL    HW2 3543   4.335   4.913   5.272
  882SOL     OW 3544   2.047   1.306   4.006
  882SOL    HW1 3545   2.022   1.384   4.064
  882SOL    HW2 3546   1.990   1.228   4.029
  883SOL     OW 3547   4.561   5.179   5.340
  883SOL    HW1 3548   4.526   5.122   5.414
  883SOL    HW2 3549   4.600   5.263   5.378
  884SOL     OW 3550   6.715   3.823   2.308
  884SOL    HW1 3551   6.654   3.884   2.359
  884SOL    HW2 3552   6.684   3.817   2.213
  885SOL     OW 3553   5.633   6.483   0.101
  885SOL    HW1 3554   5.545   6.517   0.068
  885SOL    HW2 3555   5.661   6.405   0.045
  886SOL     OW 3556   4.529   0.849   0.663
  886SOL    HW1 3557   4.523   0.809   0.572
  886SOL    HW2 3558   4.441   0.889   0.688
  887SOL     OW 3559   4.250   6.252   5.675
  887SOL    HW1 3560   4.189   6.292   5.606
  887SOL    HW2 3561   4.265   6.155   5.653
  888SOL     OW 3562   6.688   6.457   3.391
  888SOL    HW1 3563   6.635   6.374   3.376
  888SOL    HW2 3564   6.634   6.537   3.366
  889SOL     OW 3565   0.227   0.295   5.724
  889SOL    HW1 3566   0.152   0.229   5.728
  889SOL    HW2 3567   0.260   0.314   5.816
  890SOL     OW 3568   2.842   4.799   2.160
  890SOL    HW1 3569   2.859   4.880   2.104
  890SOL    HW2 3570   2.829   4.720   2.100
  891SOL     OW 3571   5.883   3.808   1.435
  891SOL    HW1 3572   5.918   3.749   1.508
  891SOL    HW2 3573   5.928   3.897   1.440
  892SOL     OW 3574   4.249   3.724   0.394
  892SOL    HW1 3575   4.295   3.734   0.307
  892SOL    HW2 3576   4.153   3.751   0.385
  893SOL     OW 3577   2.083   0.684   0.925
  893SOL    HW1 3578   2.154   0.641   0.870
  893SOL    HW2 3579   2.111   0.778   0.949
  894SOL     OW 3580   2.219   4.069   4.072
  894SOL    HW1 3581   2.142   4.038   4.016
  894SOL    HW2 3582   2.234   4.167   4.056
  895SOL     OW 3583   1.776   0.003   4.283
  895SOL    HW1 3584   1.704   0.013   4.352
  895SOL    HW2 3585   1.742   0.035   4.195
  896SOL     OW 3586   5.814   5.784   3.950
  896SOL    HW1 3587   5.810   5.836   4.036
  896SOL    HW2 3588   5.908   5.754   3.934
  897SOL     OW 3589   4.810   1.215   0.751
  897SOL    HW1 3590   4.721   1.177   0.729
  897SOL    HW2 3591   4.803   1.274   0.832
  898SOL     OW 3592   4.808   5.864   4.030
  898SOL    HW1 3593   4.860   5.901   4.106
  898SOL    HW2 3594   4.783   5.937   3.967
  899SOL     OW 3595   0.403   5.020   0.098
  899SOL    HW1 3596   0.499   4.998   0.082
  899SOL    HW2 3597   0.390   5.119   0.089
  900SOL     OW 3598   5.944   5.735   1.777
  900SOL    HW1 3599   5.859   5.784   1.756
  900SOL    HW2 3600   6.022   5.788   1.743
  901SOL     OW 3601   0.296   1.846   4.630
  901SOL    HW1 3602   0.214   1.882   4.674
  901SOL    HW2 3603   0.345   1.786   4.694
  902SOL     OW 3604   0.222   0.978   6.459
  902SOL    HW1 3605   0.245   1.033   6.540
  902SOL    HW2 3606   0.306   0.948   6.414
  903SOL     OW 3607   6.477   4.287   0.047
  903SOL    HW1 3608   6.517   4.378   0.043
  903SOL    HW2 3609   6.459   4.254   6.978
  904SOL     OW 3610   1.453   1.867   4.032
  904SOL    HW1 3611   1.454   1.908   4.123
  904SOL    HW2 3612   1.366   1.889   3.987
  905SOL     OW 3613   5.352   2.690   7.014
  905SOL    HW1 3614   5.328   2.614   6.954
  905SOL    HW2 3615   5.451   2.695   7.023
  906SOL     OW 3616   0.390   4.234   0.117
  906SOL    HW1 3617   0.479   4.236   0.163
  906SOL    HW2 3618   0.348   4.324   0.121
  907SOL     OW 3619   5.981   2.110   3.052
  907SOL    HW1 3620   6.044   2.034   3.068
  907SOL    HW2 3621   5.975   2.166   3.135
  908SOL     OW 3622   1.356   0.100   4.046
  908SOL    HW1 3623   1.283   0.038   4.016
  908SOL    HW2 3624   1.399   0.142   3.966
  909SOL     OW 3625   2.660   0.990   0.562
  909SOL    HW1 3626   2.669   0.903   0.610
  909SOL    HW2 3627   2.661   0.973   0.463
  910SOL     OW 3628   2.013   0.375   0.876
  910SOL    HW1 3629   2.064   0.346   0.795
  910SOL    HW2 3630   1.975   0.466   0.860
  911SOL     OW 3631   0.371   4.790   1.111
  911SOL    HW1 3632   0.379   4.879   1.065
  911SOL    HW2 3633   0.314   4.800   1.192
  912SOL     OW 3634   0.963   1.468   5.743
  912SOL    HW1 3635   1.021   1.540   5.706
  912SOL    HW2 3636   0.891   1.510   5.799
  913SOL     OW 3637   1.903   0.732   3.368
  913SOL    HW1 3638   1.839   0.735   3.445
  913SOL    HW2 3639   1.996   0.721   3.402
  914SOL     OW 3640   2.458   5.691   4.916
  914SOL    HW1 3641   2.399   5.770   4.932
  914SOL    HW2 3642   2.420   5.635   4.842
  915SOL     OW 3643   0.568   3.282   0.681
  915SOL    HW1 3644   0.595   3.315   0.591
  915SOL    HW2 3645   0.633   3.213   0.713
  916SOL     OW 3646   2.045   2.216   1.612
  916SOL    HW1 3647   2.079   2.122   1.624
  916SOL    HW2 3648   1.949   2.213   1.582
  917SOL     OW 3649   3.917   0.760   1.199
  917SOL    HW1 3650   3.884   0.837   1.144
  917SOL    HW2 3651   4.017   0.762   1.201
  918SOL     OW 3652   3.288   6.219   6.658
  918SOL    HW1 3653   3.291   6.176   6.568
  918SOL    HW2 3654   3.382   6.236   6.690
  919SOL     OW 3655   1.414   6.365   1.790
  919SOL    HW1 3656   1.331   6.347   1.842
  919SOL    HW2 3657   1.391   6.407   1.703
  920SOL     OW 3658   2.394   0.825   2.979
  920SOL    HW1 3659   2.344   0.906   2.949
  920SOL    HW2 3660   2.413   0.767   2.900
  921SOL     OW 3661   5.764   4.401   4.066
  921SOL    HW1 3662   5.771   4.339   4.144
  921SOL    HW2 3663   5.783   4.495   4.097
  922SOL     OW 3664   3.375   3.686   6.719
  922SOL    HW1 3665   3.388   3.682   6.620
  922SOL    HW2 3666   3.464   3.681   6.764
  923SOL     OW 3667   2.727   6.186   0.102
  923SOL    HW1 3668   2.802   6.252   0.105
  923SOL    HW2 3669   2.710   6.160   0.007
  924SOL     OW 3670   5.489   3.157   2.279
  924SOL    HW1 3671   5.516   3.151   2.182
  924SOL    HW2 3672   5.391   3.177   2.284
  925SOL     OW 3673   6.816   1.873   5.763
  925SOL    HW1 3674   6.832   1.838   5.671
  925SOL    HW2 3675   6.868   1.818   5.829
  926SOL     OW 3676   5.906   0.194   0.404
  926SOL    HW1 3677   5.882   0.264   0.471
  926SOL    HW2 3678   5.952   0.118   0.450
  927SOL     OW 3679   4.632   4.294   3.887
  927SOL    HW1 3680   4.564   4.368   3.889
  927SOL    HW2 3681   4.660   4.273   3.980
  928SOL     OW 3682   1.470   6.990   0.769
  928SOL    HW1 3683   1.384   6.971   0.722
  928SOL    HW2 3684   1.509   0.051   0.733
  929SOL     OW 3685   6.958   2.759   2.213
  929SOL    HW1 3686   6.878   2.780   2.269
  929SOL    HW2 3687   6.947   2.670   2.169
  930SOL     OW 3688   6.428   5.201   4.066
  930SOL    HW1 3689   6.423   5.176   3.969
  930SOL    HW2 3690   6.415   5.120   4.123
  931SOL     OW 3691   0.173   3.492   3.047
  931SOL    HW1 3692   0.256   3.508   2.994
  931SOL    HW2 3693   0.136   3.402   3.026
  932SOL     OW 3694   3.603   6.156   2.185
  932SOL    HW1 3695   3.573   6.062   2.199
  932SOL    HW2 3696   3.702   6.158   2.169
  933SOL     OW 3697   1.264   4.441   3.487
  933SOL    HW1 3698   1.238   4.529   3.528
  933SOL    HW2 3699   1.294   4.457   3.392
  934SOL     OW 3700   2.682   1.502   4.628
  934SOL    HW1 3701   2.678   1.425   4.693
  934SOL    HW2 3702   2.736   1.576   4.668
  935SOL     OW 3703   4.642   3.997   5.976
  935SOL    HW1 3704   4.614   4.004   5.880
  935SOL    HW2 3705   4.667   4.087   6.010
  936SOL     OW 3706   0.259   6.923   0.790
  936SOL    HW1 3707   0.306   6.835   0.804
  936SOL    HW2 3708   0.316   6.982   0.733
  937SOL     OW 3709   4.583   1.964   4.579
  937SOL    HW1 3710   4.488   1.960   4.548
  937SOL    HW2 3711   4.624   2.050   4.551
  938SOL     OW 3712   0.176   4.186   6.645
  938SOL    HW1 3713   0.148   4.123   6.717
  938SOL    HW2 3714   0.212   4.270   6.686
  939SOL     OW 3715   5.265   1.213   6.075
  939SOL    HW1 3716   5.344   1.266   6.045
  939SOL    HW2 3717   5.244   1.143   6.007
  940SOL     OW 3718   6.909   1.817   2.914
  940SOL    HW1 3719   6.984   1.884   2.918
  940SOL    HW2 3720   6.908   1.764   2.999
  941SOL     OW 3721   6.078   1.038   3.635
  941SOL    HW1 3722   6.148   1.013   3.702
  941SOL    HW2 3723   6.022   1.112   3.671
  942SOL     OW 3724   4.862   6.896   5.052
  942SOL    HW1 3725   4.836   6.966   4.985
  942SOL    HW2 3726   4.896   6.815   5.003
  943SOL     OW 3727   0.168   3.384   2.110
  943SOL    HW1 3728   0.099   3.428   2.168
  943SOL    HW2 3729   0.248   3.360   2.166
  944SOL     OW 3730   6.404   3.529   4.734
  944SOL    HW1 3731   6.472   3.600   4.715
  944SOL    HW2 3732   6.401   3.511   4.832
  945SOL     OW 3733   4.852   4.711   4.538
  945SOL    HW1 3734   4.851   4.612   4.522
  945SOL    HW2 3735   4.924   4.732   4.604
  946SOL     OW 3736   5.963   2.956   5.985
  946SOL    HW1 3737   5.936   2.865   6.017
  946SOL    HW2 3738   5.939   3.024   6.054
  947SOL     OW 3739   2.980   3.452   6.036
  947SOL    HW1 3740   3.076   3.467   6.011
  947SOL    HW2 3741   2.974   3.374   6.098
  948SOL     OW 3742   4.231   0.751   0.493
  948SOL    HW1 3743   4.177   0.711   0.418
  948SOL    HW2 3744   4.240   0.849   0.478
  949SOL     OW 3745   6.519   6.094   5.884
  949SOL    HW1 3746   6.563   6.019   5.834
  949SOL    HW2 3747   6.525   6.178   5.830
  950SOL     OW 3748   4.018   5.301   2.586
  950SOL    HW1 3749   4.062   5.288   2.497
  950SOL    HW2 3750   3.934   5.247   2.590
  951SOL     OW 3751   0.979   0.342   1.939
  951SOL    HW1 3752   0.953   0.421   1.994
  951SOL    HW2 3753   0.900   0.281   1.929
  952SOL     OW 3754   5.297   1.903   2.695
  952SOL    HW1 3755   5.202   1.926   2.719
  952SOL    HW2 3756   5.350   1.987   2.686
  953SOL     OW 3757   4.175   5.736   5.582
  953SOL    HW1 3758   4.118   5.688   5.515
  953SOL    HW2 3759   4.195   5.675   5.658
  954SOL     OW 3760   6.080   0.309   0.955
  954SOL    HW1 3761   6.065   0.233   0.892
  954SOL    HW2 3762   6.069   0.395   0.907
  955SOL     OW 3763   0.846   4.912   4.008
  955SOL    HW1 3764   0.795   4.989   3.971
  955SOL    HW2 3765   0.932   4.902   3.957
  956SOL     OW 3766   1.069   1.513   1.201
  956SOL    HW1 3767   1.064   1.501   1.101
  956SOL    HW2 3768   1.112   1.432   1.241
  957SOL     OW 3769   1.667   5.033   5.092
  957SOL    HW1 3770   1.578   5.073   5.072
  957SOL    HW2 3771   1.712   5.086   5.165
  958SOL     OW 3772   5.199   1.917   0.783
  958SOL    HW1 3773   5.231   1.829   0.747
  958SOL    HW2 3774   5.276   1.967   0.822
  959SOL     OW 3775   2.973   4.947   3.037
  959SOL    HW1 3776   2.889   4.999   3.022
  959SOL    HW2 3777   2.964   4.892   3.120
  960SOL     OW 3778   1.197   5.652   4.122
  960SOL    HW1 3779   1.197   5.571   4.180
  960SOL    HW2 3780   1.292   5.679   4.103
  961SOL     OW 3781   4.308   6.729   2.170
  961SOL    HW1 3782   4.389   6.670   2.173
  961SOL    HW2 3783   4.284   6.756   2.264
  962SOL     OW 3784   1.389   1.220   3.645
  962SOL    HW1 3785   1.336   1.292   3.600
  962SOL    HW2 3786   1.462   1.262   3.699
  963SOL     OW 3787   6.167   0.341   0.575
  963SOL    HW1 3788   6.206   0.394   0.500
  963SOL    HW2 3789   6.067   0.340   0.568
  964SOL     OW 3790   5.556   3.168   0.830
  964SOL    HW1 3791   5.647   3.149   0.867
  964SOL    HW2 3792   5.521   3.254   0.869
  965SOL     OW 3793   6.031   1.876   0.810
  965SOL    HW1 3794   6.007   1.964   0.851
  965SOL    HW2 3795   6.095   1.891   0.735
  966SOL     OW 3796   5.792   1.471   2.878
  966SOL    HW1 3797   5.754   1.531   2.949
  966SOL    HW2 3798   5.885   1.443   2.905
  967SOL     OW 3799   1.535   5.413   0.738
  967SOL    HW1 3800   1.617   5.438   0.688
  967SOL    HW2 3801   1.463   5.480   0.721
  968SOL     OW 3802   4.550   2.499   2.276
  968SOL    HW1 3803   4.639   2.538   2.255
  968SOL    HW2 3804   4.480   2.546   2.222
  969SOL     OW 3805   3.332   5.839   5.154
  969SOL    HW1 3806   3.257   5.803   5.099
  969SOL    HW2 3807   3.417   5.792   5.130
  970SOL     OW 3808   4.789   1.541   5.260
  970SOL    HW1 3809   4.880   1.525   5.224
  970SOL    HW2 3810   4.787   1.519   5.357
  971SOL     OW 3811   0.153   1.232   2.687
  971SOL    HW1 3812   0.132   1.308   2.749
  971SOL    HW2 3813   0.208   1.163   2.736
  972SOL     OW 3814   5.643   4.625   0.789
  972SOL    HW1 3815   5.740   4.624   0.811
  972SOL    HW2 3816   5.612   4.720   0.781
  973SOL     OW 3817   0.464   5.004   6.500
  973SOL    HW1 3818   0.497   4.972   6.589
  973SOL    HW2 3819   0.476   5.103   6.493
  974SOL     OW 3820   3.839   0.712   2.005
  974SOL    HW1 3821   3.845   0.630   2.063
  974SOL    HW2 3822   3.852   0.685   1.909
  975SOL     OW 3823   2.767   6.321   6.417
  975SOL    HW1 3824   2.737   6.389   6.349
  975SOL    HW2 3825   2.814   6.367   6.492
  976SOL     OW 3826   6.687   2.747   2.367
  976SOL    HW1 3827   6.683   2.654   2.330
  976SOL    HW2 3828   6.598   2.771   2.406
  977SOL     OW 3829   1.986   1.452   4.248
  977SOL    HW1 3830   2.015   1.451   4.344
  977SOL    HW2 3831   1.886   1.462   4.244
  978SOL     OW 3832   5.261   4.123   4.741
  978SOL    HW1 3833   5.359   4.137   4.730
  978SOL    HW2 3834   5.213   4.210   4.737
  979SOL     OW 3835   6.325   1.261   3.089
  979SOL    HW1 3836   6.279   1.350   3.080
  979SOL    HW2 3837   6.399   1.269   3.156
  980SOL     OW 3838   5.307   2.330   3.552
  980SOL    HW1 3839   5.286   2.321   3.650
  980SOL    HW2 3840   5.383   2.394   3.541
  981SOL     OW 3841   1.653   2.034   4.730
  981SOL    HW1 3842   1.678   1.962   4.795
  981SOL    HW2 3843   1.659   2.123   4.775
  982SOL     OW 3844   1.988   2.504   2.773
  982SOL    HW1 3845   2.030   2.592   2.749
  982SOL    HW2 3846   1.889   2.509   2.761
  983SOL     OW 3847   5.894   2.720   3.537
  983SOL    HW1 3848   5.932   2.812   3.532
  983SOL    HW2 3849   5.794   2.726   3.547
  984SOL     OW 3850   3.742   0.321   4.949
  984SOL    HW1 3851   3.666   0.294   4.891
  984SOL    HW2 3852   3.764   0.417   4.933
  985SOL     OW 3853   4.683   4.470   6.717
  985SOL    HW1 3854   4.699   4.409   6.794
  985SOL    HW2 3855   4.766   4.476   6.660
  986SOL     OW 3856   5.413   5.464   6.993
  986SOL    HW1 3857   5.505   5.497   7.016
  986SOL    HW2 3858   5.350   5.541   6.985
  987SOL     OW 3859   4.056   6.893   1.000
  987SOL    HW1 3860   3.977   6.877   1.058
  987SOL    HW2 3861   4.131   6.833   1.027
  988SOL     OW 3862   4.153   2.662   1.246
  988SOL    HW1 3863   4.072   2.644   1.303
  988SOL    HW2 3864   4.235   2.638   1.298
  989SOL     OW 3865   0.436   0.909   5.987
  989SOL    HW1 3866   0.437   0.824   5.935
  989SOL    HW2 3867   0.424   0.986   5.925
  990SOL     OW 3868   5.152   6.658   3.633
  990SOL    HW1 3869   5.179   6.607   3.715
  990SOL    HW2 3870   5.228   6.716   3.603
  991SOL     OW 3871   1.685   1.817   4.881
  991SOL    HW1 3872   1.711   1.885   4.949
  991SOL    HW2 3873   1.611   1.759   4.917
  992SOL     OW 3874   0.824   3.231   0.576
  992SOL    HW1 3875   0.858   3.188   0.493
  992SOL    HW2 3876   0.798   3.160   0.642
  993SOL     OW 3877   2.304   5.139   2.687
  993SOL    HW1 3878   2.254   5.222   2.711
  993SOL    HW2 3879   2.379   5.162   2.624
  994SOL     OW 3880   3.418   3.758   3.155
  994SOL    HW1 3881   3.347   3.711   3.208
  994SOL    HW2 3882   3.495   3.696   3.139
  995SOL     OW 3883   2.530   2.353   6.413
  995SOL    HW1 3884   2.468   2.395   6.479
  995SOL    HW2 3885   2.601   2.302   6.462
  996SOL     OW 3886   1.858   3.817   3.943
  996SOL    HW1 3887   1.780   3.766   3.908
  996SOL    HW2 3888   1.884   3.781   4.032
  997SOL     OW 3889   6.918   0.096   1.466
  997SOL    HW1 3890   6.828   0.135   1.481
  997SOL    HW2 3891   6.936   0.025   1.534
  998SOL     OW 3892   4.817   0.021   3.393
  998SOL    HW1 3893   4.865   0.056   3.313
  998SOL    HW2 3894   4.766   6.963   3.368
  999SOL     OW 3895   5.266   5.407   1.427
  999SOL    HW1 3896   5.256   5.317   1.469
  999SOL    HW2 3897   5.196   5.469   1.463
 1000SOL     OW 3898   0.863   1.078   2.693
 1000SOL    HW1 3899   0.766   1.101   2.689
 1000SOL    HW2 3900   0.874   0.990   2.738
 1001SOL     OW 3901   4.486   6.709   6.431
 1001SOL    HW1 3902   4.481   6.769   6.510
 1001SOL    HW2 3903   4.497   6.614   6.461
 1002SOL     OW 3904   5.429   1.816   6.513
 1002SOL    HW1 3905   5.380   1.883   6.569
 1002SOL    HW2 3906   5.377   1.731   6.511
 1003SOL     OW 3907   2.705   6.900   1.564
 1003SOL    HW1 3908   2.729   6.864   1.474
 1003SOL    HW2 3909   2.788   6.905   1.620
 1004SOL     OW 3910   6.798   0.591   0.229
 1004SOL    HW1 3911   6.811   0.494   0.209
 1004SOL    HW2 3912   6.705   0.618   0.202
 1005SOL     OW 3913   6.781   0.734   2.969
 1005SOL    HW1 3914   6.718   0.736   2.892
 1005SOL    HW2 3915   6.760   0.809   3.032
 1006SOL     OW 3916   2.183   5.995   1.409
 1006SOL    HW1 3917   2.166   5.970   1.313
 1006SOL    HW2 3918   2.110   6.055   1.441
 1007SOL     OW 3919   6.233   0.118   3.647
 1007SOL    HW1 3920   6.297   0.069   3.587
 1007SOL    HW2 3921   6.281   0.148   3.729
 1008SOL     OW 3922   1.126   3.129   4.273
 1008SOL    HW1 3923   1.147   3.190   4.349
 1008SOL    HW2 3924   1.027   3.117   4.266
 1009SOL     OW 3925   6.933   5.568   3.727
 1009SOL    HW1 3926   6.882   5.643   3.769
 1009SOL    HW2 3927   6.870   5.501   3.688
 1010SOL     OW 3928   4.129   2.781   0.360
 1010SOL    HW1 3929   4.106   2.875   0.334
 1010SOL    HW2 3930   4.208   2.750   0.307
 1011SOL     OW 3931   2.753   5.592   2.876
 1011SOL    HW1 3932   2.773   5.685   2.907
 1011SOL    HW2 3933   2.656   5.573   2.887
 1012SOL     OW 3934   6.536   5.252   0.363
 1012SOL    HW1 3935   6.498   5.164   0.394
 1012SOL    HW2 3936   6.498   5.326   0.419
 1013SOL     OW 3937   0.597   1.675   6.512
 1013SOL    HW1 3938   0.656   1.603   6.548
 1013SOL    HW2 3939   0.631   1.764   6.541
 1014SOL     OW 3940   5.304   5.731   6.974
 1014SOL    HW1 3941   5.246   5.795   6.924
 1014SOL    HW2 3942   5.249   5.680   0.016
 1015SOL     OW 3943   3.032   6.711   5.235
 1015SOL    HW1 3944   3.013   6.623   5.190
 1015SOL    HW2 3945   3.055   6.779   5.165
 1016SOL     OW 3946   2.390   3.088   0.910
 1016SOL    HW1 3947   2.344   3.140   0.981
 1016SOL    HW2 3948   2.487   3.111   0.909
 1017SOL     OW 3949   4.409   2.962   0.483
 1017SOL    HW1 3950   4.363   2.981   0.396
 1017SOL    HW2 3951   4.344   2.972   0.558
 1018SOL     OW 3952   1.796   3.435   4.071
 1018SOL    HW1 3953   1.792   3.486   3.985
 1018SOL    HW2 3954   1.703   3.416   4.102
 1019SOL     OW 3955   0.443   1.039   7.018
 1019SOL    HW1 3956   0.536   1.047   6.982
 1019SOL    HW2 3957   0.401   0.956   6.982
 1020SOL     OW 3958   1.207   6.936   1.241
 1020SOL    HW1 3959   1.163   0.001   1.226
 1020SOL    HW2 3960   1.274   6.919   1.169
 1021SOL     OW 3961   6.080   1.075   0.806
 1021SOL    HW1 3962   6.136   1.122   0.875
 1021SOL    HW2 3963   6.057   0.983   0.838
 1022SOL     OW 3964   4.155   4.919   6.098
 1022SOL    HW1 3965   4.125   4.948   6.189
 1022SOL    HW2 3966   4.216   4.840   6.107
 1023SOL     OW 3967   6.895   6.836   2.703
 1023SOL    HW1 3968   6.797   6.854   2.717
 1023SOL    HW2 3969   6.946   6.922   2.710
 1024SOL     OW 3970   6.505   2.644   4.613
 1024SOL    HW1 3971   6.462   2.732   4.636
 1024SOL    HW2 3972   6.595   2.661   4.573
 1025SOL     OW 3973   3.668   4.222   0.205
 1025SOL    HW1 3974   3.633   4.158   0.274
 1025SOL    HW2 3975   3.768   4.221   0.207
 1026SOL     OW 3976   1.202   1.431   0.743
 1026SOL    HW1 3977   1.282   1.385   0.702
 1026SOL    HW2 3978   1.183   1.515   0.692
 1027SOL     OW 3979   3.078   6.043   1.550
 1027SOL    HW1 3980   3.143   6.102   1.599
 1027SOL    HW2 3981   3.087   5.949   1.582
 1028SOL     OW 3982   3.058   6.017   0.051
 1028SOL    HW1 3983   3.034   6.091   0.114
 1028SOL    HW2 3984   3.001   6.022   6.993
 1029SOL     OW 3985   1.842   0.789   0.195
 1029SOL    HW1 3986   1.806   0.877   0.229
 1029SOL    HW2 3987   1.941   0.788   0.204
 1030SOL     OW 3988   3.940   3.190   3.224
 1030SOL    HW1 3989   3.919   3.287   3.241
 1030SOL    HW2 3990   4.013   3.183   3.156
 1031SOL     OW 3991   4.540   5.116   1.070
 1031SOL    HW1 3992   4.543   5.020   1.097
 1031SOL    HW2 3993   4.566   5.173   1.148
 1032SOL     OW 3994   1.337   1.810   4.871
 1032SOL    HW1 3995   1.384   1.898   4.870
 1032SOL    HW2 3996   1.370   1.754   4.795
 1033SOL     OW 3997   1.560   6.790   1.569
 1033SOL    HW1 3998   1.620   6.818   1.644
 1033SOL    HW2 3999   1.575   6.693   1.548
 1034SOL     OW 4000   1.616   6.622   4.729
 1034SOL    HW1 4001   1.617   6.722   4.725
 1034SOL    HW2 4002   1.691   6.586   4.673
 1035SOL     OW 4003   2.632   1.910   3.391
 1035SOL    HW1 4004   2.571   1.984   3.421
 1035SOL    HW2 4005   2.663   1.928   3.298
 1036SOL     OW 4006   3.466   6.987   1.081
 1036SOL    HW1 4007   3.550   0.010   1.052
 1036SOL    HW2 4008   3.397   6.994   1.009
 1037SOL     OW 4009   1.357   1.200   1.198
 1037SOL    HW1 4010   1.265   1.226   1.167
 1037SOL    HW2 4011   1.423   1.267   1.167
 1038SOL     OW 4012   0.722   1.187   5.273
 1038SOL    HW1 4013   0.754   1.094   5.256
 1038SOL    HW2 4014   0.651   1.211   5.207
 1039SOL     OW 4015   4.410   2.044   5.494
 1039SOL    HW1 4016   4.486   2.100   5.462
 1039SOL    HW2 4017   4.440   1.989   5.573
 1040SOL     OW 4018   5.472   3.039   2.986
 1040SOL    HW1 4019   5.551   3.007   3.038
 1040SOL    HW2 4020   5.450   3.133   3.014
 1041SOL     OW 4021   6.634   6.968   4.445
 1041SOL    HW1 4022   6.609   6.941   4.352
 1041SOL    HW2 4023   6.730   6.995   4.448
 1042SOL     OW 4024   3.828   5.004   2.833
 1042SOL    HW1 4025   3.730   4.985   2.845
 1042SOL    HW2 4026   3.861   5.058   2.910
 1043SOL     OW 4027   3.917   1.216   5.882
 1043SOL    HW1 4028   3.904   1.146   5.952
 1043SOL    HW2 4029   3.828   1.240   5.843
 1044SOL     OW 4030   4.395   2.519   1.725
 1044SOL    HW1 4031   4.443   2.486   1.643
 1044SOL    HW2 4032   4.458   2.521   1.802
 1045SOL     OW 4033   2.925   0.081   1.397
 1045SOL    HW1 4034   2.832   0.094   1.365
 1045SOL    HW2 4035   2.949   7.007   1.393
 1046SOL     OW 4036   2.507   6.805   6.368
 1046SOL    HW1 4037   2.588   6.790   6.423
 1046SOL    HW2 4038   2.451   6.722   6.368
 1047SOL     OW 4039   1.529   5.335   3.124
 1047SOL    HW1 4040   1.432   5.357   3.118
 1047SOL    HW2 4041   1.540   5.236   3.132
 1048SOL     OW 4042   4.669   5.728   5.310
 1048SOL    HW1 4043   4.712   5.784   5.239
 1048SOL    HW2 4044   4.618   5.654   5.267
 1049SOL     OW 4045   0.414   4.161   4.862
 1049SOL    HW1 4046   0.314   4.169   4.858
 1049SOL    HW2 4047   0.439   4.064   4.865
 1050SOL     OW 4048   2.556   5.562   0.873
 1050SOL    HW1 4049   2.457   5.549   0.864
 1050SOL    HW2 4050   2.589   5.513   0.954
 1051SOL     OW 4051   3.939   4.629   0.540
 1051SOL    HW1 4052   3.959   4.694   0.613
 1051SOL    HW2 4053   3.957   4.672   0.452
 1052SOL     OW 4054   4.607   0.613   3.898
 1052SOL    HW1 4055   4.605   0.516   3.873
 1052SOL    HW2 4056   4.603   0.669   3.815
 1053SOL     OW 4057   5.683   5.774   3.497
 1053SOL    HW1 4058   5.599   5.720   3.504
 1053SOL    HW2 4059   5.689   5.834   3.577
 1054SOL     OW 4060   2.514   4.899   5.515
 1054SOL    HW1 4061   2.435   4.917   5.573
 1054SOL    HW2 4062   2.522   4.801   5.499
 1055SOL     OW 4063   5.343   6.236   4.764
 1055SOL    HW1 4064   5.349   6.271   4.857
 1055SOL    HW2 4065   5.358   6.137   4.764
 1056SOL     OW 4066   1.466   6.479   5.523
 1056SOL    HW1 4067   1.443   6.478   5.620
 1056SOL    HW2 4068   1.563   6.458   5.512
 1057SOL     OW 4069   2.952   3.663   3.197
 1057SOL    HW1 4070   2.994   3.741   3.243
 1057SOL    HW2 4071   3.004   3.641   3.114
 1058SOL     OW 4072   4.664   1.340   2.648
 1058SOL    HW1 4073   4.571   1.365   2.675
 1058SOL    HW2 4074   4.697   1.405   2.579
 1059SOL     OW 4075   3.182   0.693   1.764
 1059SOL    HW1 4076   3.083   0.701   1.775
 1059SOL    HW2 4077   3.207   0.713   1.669
 1060SOL     OW 4078   0.315   3.798   5.733
 1060SOL    HW1 4079   0.383   3.851   5.683
 1060SOL    HW2 4080   0.308   3.707   5.692
 1061SOL     OW 4081   4.355   4.510   1.178
 1061SOL    HW1 4082   4.394   4.473   1.263
 1061SOL    HW2 4083   4.272   4.461   1.156
 1062SOL     OW 4084   6.926   5.980   5.695
 1062SOL    HW1 4085   6.850   5.997   5.634
 1062SOL    HW2 4086   6.992   6.055   5.688
 1063SOL     OW 4087   1.222   4.224   1.065
 1063SOL    HW1 4088   1.248   4.233   0.969
 1063SOL    HW2 4089   1.123   4.209   1.072
 1064SOL     OW 4090   0.908   3.510   2.385
 1064SOL    HW1 4091   0.907   3.481   2.481
 1064SOL    HW2 4092   0.983   3.574   2.371
 1065SOL     OW 4093   4.301   0.608   5.355
 1065SOL    HW1 4094   4.327   0.703   5.333
 1065SOL    HW2 4095   4.368   0.569   5.418
 1066SOL     OW 4096   4.935   0.384   4.142
 1066SOL    HW1 4097   4.867   0.344   4.203
 1066SOL    HW2 4098   4.898   0.388   4.049
 1067SOL     OW 4099   1.264   2.896   0.835
 1067SOL    HW1 4100   1.206   2.969   0.799
 1067SOL    HW2 4101   1.214   2.810   0.834
 1068SOL     OW 4102   5.946   3.611   1.615
 1068SOL    HW1 4103   5.856   3.579   1.584
 1068SOL    HW2 4104   5.998   3.534   1.652
 1069SOL     OW 4105   4.533   4.861   1.147
 1069SOL    HW1 4106   4.527   4.794   1.073
 1069SOL    HW2 4107   4.585   4.822   1.223
 1070SOL     OW 4108   1.123   0.957   6.281
 1070SOL    HW1 4109   1.163   0.946   6.189
 1070SOL    HW2 4110   1.034   1.001   6.273
 1071SOL     OW 4111   3.869   0.789   3.405
 1071SOL    HW1 4112   3.947   0.811   3.463
 1071SOL    HW2 4113   3.869   0.849   3.325
 1072SOL     OW 4114   1.993   5.989   2.227
 1072SOL    HW1 4115   2.052   5.916   2.261
 1072SOL    HW2 4116   1.928   5.951   2.161
 1073SOL     OW 4117   3.349   5.810   2.415
 1073SOL    HW1 4118   3.319   5.856   2.498
 1073SOL    HW2 4119   3.280   5.825   2.343
 1074SOL     OW 4120   1.925   5.672   1.793
 1074SOL    HW1 4121   1.960   5.591   1.840
 1074SOL    HW2 4122   1.841   5.703   1.838
 1075SOL     OW 4123   4.868   5.014   3.318
 1075SOL    HW1 4124   4.801   5.085   3.296
 1075SOL    HW2 4125   4.830   4.924   3.295
 1076SOL     OW 4126   0.783   4.677   5.248
 1076SOL    HW1 4127   0.795   4.595   5.193
 1076SOL    HW2 4128   0.713   4.735   5.207
 1077SOL     OW 4129   6.067   6.864   0.212
 1077SOL    HW1 4130   6.034   6.911   0.294
 1077SOL    HW2 4131   6.034   6.769   0.213
 1078SOL     OW 4132   1.321   0.922   2.331
 1078SOL    HW1 4133   1.326   1.018   2.303
 1078SOL    HW2 4134   1.288   0.866   2.255
 1079SOL     OW 4135   1.959   4.986   3.428
 1079SOL    HW1 4136   1.939   5.080   3.401
 1079SOL    HW2 4137   1.876   4.931   3.419
 1080SOL     OW 4138   2.038   4.673   3.422
 1080SOL    HW1 4139   1.979   4.702   3.347
 1080SOL    HW2 4140   2.133   4.695   3.400
 1081SOL     OW 4141   0.139   1.656   5.374
 1081SOL    HW1 4142   0.146   1.745   5.418
 1081SOL    HW2 4143   0.196   1.590   5.423
 1082SOL     OW 4144   1.542   0.343   5.780
 1082SOL    HW1 4145   1.461   0.399   5.798
 1082SOL    HW2 4146   1.608   0.356   5.855
 1083SOL     OW 4147   3.767   4.105   1.909
 1083SOL    HW1 4148   3.815   4.067   1.831
 1083SOL    HW2 4149   3.730   4.195   1.885
 1084SOL     OW 4150   6.612   5.355   0.680
 1084SOL    HW1 4151   6.542   5.357   0.608
 1084SOL    HW2 4152   6.673   5.433   0.668
 1085SOL     OW 4153   2.008   4.046   3.938
 1085SOL    HW1 4154   1.961   3.959   3.925
 1085SOL    HW2 4155   1.953   4.120   3.899
 1086SOL     OW 4156   6.028   5.513   3.213
 1086SOL    HW1 4157   5.965   5.585   3.184
 1086SOL    HW2 4158   5.997   5.425   3.176
 1087SOL     OW 4159   5.052   3.001   5.622
 1087SOL    HW1 4160   4.957   2.991   5.592
 1087SOL    HW2 4161   5.067   3.093   5.657
 1088SOL     OW 4162   6.243   4.419   3.146
 1088SOL    HW1 4163   6.247   4.371   3.233
 1088SOL    HW2 4164   6.202   4.358   3.077
 1089SOL     OW 4165   0.556   0.587   4.353
 1089SOL    HW1 4166   0.475   0.568   4.298
 1089SOL    HW2 4167   0.622   0.513   4.341
 1090SOL     OW 4168   2.765   1.524   4.340
 1090SOL    HW1 4169   2.722   1.447   4.293
 1090SOL    HW2 4170   2.742   1.521   4.437
 1091SOL     OW 4171   1.972   2.087   3.710
 1091SOL    HW1 4172   1.929   2.022   3.772
 1091SOL    HW2 4173   1.940   2.180   3.731
 1092SOL     OW 4174   2.169   3.909   1.699
 1092SOL    HW1 4175   2.153   3.905   1.601
 1092SOL    HW2 4176   2.144   3.821   1.740
 1093SOL     OW 4177   1.860   1.798   2.659
 1093SOL    HW1 4178   1.876   1.884   2.611
 1093SOL    HW2 4179   1.933   1.781   2.725
 1094SOL     OW 4180   0.188   6.279   2.789
 1094SOL    HW1 4181   0.249   6.226   2.729
 1094SOL    HW2 4182   0.097   6.282   2.749
 1095SOL     OW 4183   6.291   2.192   5.969
 1095SOL    HW1 4184   6.274   2.249   6.049
 1095SOL    HW2 4185   6.345   2.243   5.902
 1096SOL     OW 4186   3.487   5.072   1.610
 1096SOL    HW1 4187   3.541   5.066   1.526
 1096SOL    HW2 4188   3.391   5.082   1.588
 1097SOL     OW 4189   1.081   4.701   4.854
 1097SOL    HW1 4190   1.154   4.645   4.892
 1097SOL    HW2 4191   1.094   4.796   4.882
 1098SOL     OW 4192   5.183   2.453   0.860
 1098SOL    HW1 4193   5.236   2.439   0.776
 1098SOL    HW2 4194   5.088   2.474   0.837
 1099SOL     OW 4195   4.217   1.612   4.921
 1099SOL    HW1 4196   4.192   1.635   4.827
 1099SOL    HW2 4197   4.149   1.650   4.984
 1100SOL     OW 4198   1.498   1.694   6.327
 1100SOL    HW1 4199   1.516   1.788   6.356
 1100SOL    HW2 4200   1.405   1.668   6.353
 1101SOL     OW 4201   5.534   3.149   1.109
 1101SOL    HW1 4202   5.467   3.094   1.160
 1101SOL    HW2 4203   5.497   3.241   1.095
 1102SOL     OW 4204   1.183   4.990   4.136
 1102SOL    HW1 4205   1.277   4.999   4.102
 1102SOL    HW2 4206   1.140   4.911   4.093
 1103SOL     OW 4207   2.271   0.668   1.622
 1103SOL    HW1 4208   2.252   0.756   1.580
 1103SOL    HW2 4209   2.247   0.671   1.720
 1104SOL     OW 4210   1.945   4.334   6.238
 1104SOL    HW1 4211   1.937   4.412   6.175
 1104SOL    HW2 4212   1.986   4.257   6.190
 1105SOL     OW 4213   4.635   4.251   6.475
 1105SOL    HW1 4214   4.646   4.329   6.537
 1105SOL    HW2 4215   4.722   4.201   6.470
 1106SOL     OW 4216   1.408   2.018   6.705
 1106SOL    HW1 4217   1.370   1.937   6.749
 1106SOL    HW2 4218   1.434   2.085   6.775
 1107SOL     OW 4219   0.619   0.495   6.488
 1107SOL    HW1 4220   0.641   0.443   6.406
 1107SOL    HW2 4221   0.551   0.446   6.542
 1108SOL     OW 4222   2.809   0.627   5.474
 1108SOL    HW1 4223   2.847   0.594   5.387
 1108SOL    HW2 4224   2.709   0.635   5.465
 1109SOL     OW 4225   4.155   5.474   4.744
 1109SOL    HW1 4226   4.205   5.451   4.827
 1109SOL    HW2 4227   4.085   5.542   4.765
 1110SOL     OW 4228   3.330   1.895   1.759
 1110SOL    HW1 4229   3.342   1.796   1.769
 1110SOL    HW2 4230   3.249   1.924   1.811
 1111SOL     OW 4231   5.480   6.175   6.867
 1111SOL    HW1 4232   5.486   6.175   6.967
 1111SOL    HW2 4233   5.441   6.261   6.836
 1112SOL     OW 4234   5.981   1.054   2.663
 1112SOL    HW1 4235   5.969   0.998   2.580
 1112SOL    HW2 4236   6.044   1.129   2.644
 1113SOL     OW 4237   6.222   3.055   2.195
 1113SOL    HW1 4238   6.291   3.123   2.172
 1113SOL    HW2 4239   6.146   3.100   2.242
 1114SOL     OW 4240   4.624   1.327   6.483
 1114SOL    HW1 4241   4.542   1.366   6.525
 1114SOL    HW2 4242   4.704   1.348   6.539
 1115SOL     OW 4243   4.353   3.024   0.217
 1115SOL    HW1 4244   4.392   3.112   0.190
 1115SOL    HW2 4245   4.254   3.035   0.228
 1116SOL     OW 4246   5.374   5.230   4.179
 1116SOL    HW1 4247   5.378   5.330   4.181
 1116SOL    HW2 4248   5.410   5.194   4.265
 1117SOL     OW 4249   2.916   2.753   1.459
 1117SOL    HW1 4250   2.901   2.800   1.546
 1117SOL    HW2 4251   2.830   2.716   1.426
 1118SOL     OW 4252   0.876   4.896   2.612
 1118SOL    HW1 4253   0.951   4.904   2.679
 1118SOL    HW2 4254   0.815   4.975   2.622
 1119SOL     OW 4255   3.603   3.757   1.363
 1119SOL    HW1 4256   3.541   3.834   1.348
 1119SOL    HW2 4257   3.696   3.791   1.375
 1120SOL     OW 4258   5.324   6.836   5.877
 1120SOL    HW1 4259   5.355   6.760   5.820
 1120SOL    HW2 4260   5.306   6.916   5.820
 1121SOL     OW 4261   5.199   3.144   2.284
 1121SOL    HW1 4262   5.192   3.174   2.379
 1121SOL    HW2 4263   5.109   3.147   2.241
 1122SOL     OW 4264   4.965   2.552   6.228
 1122SOL    HW1 4265   4.930   2.570   6.320
 1122SOL    HW2 4266   4.995   2.638   6.187
 1123SOL     OW 4267   4.350   1.589   2.214
 1123SOL    HW1 4268   4.278   1.583   2.144
 1123SOL    HW2 4269   4.399   1.675   2.203
 1124SOL     OW 4270   0.147   4.077   4.841
 1124SOL    HW1 4271   0.108   4.030   4.762
 1124SOL    HW2 4272   0.132   4.021   4.923
 1125SOL     OW 4273   2.763   2.020   5.034
 1125SOL    HW1 4274   2.814   2.085   4.978
 1125SOL    HW2 4275   2.667   2.046   5.036
 1126SOL     OW 4276   4.741   6.569   6.487
 1126SOL    HW1 4277   4.707   6.504   6.418
 1126SOL    HW2 4278   4.761   6.656   6.443
 1127SOL     OW 4279   3.315   4.392   5.951
 1127SOL    HW1 4280   3.291   4.418   5.858
 1127SOL    HW2 4281   3.382   4.456   5.988
 1128SOL     OW 4282   4.288   2.136   4.236
 1128SOL    HW1 4283   4.324   2.075   4.166
 1128SOL    HW2 4284   4.293   2.092   4.325
 1129SOL     OW 4285   3.699   0.144   7.024
 1129SOL    HW1 4286   3.792   0.146   6.988
 1129SOL    HW2 4287   3.699   0.100   0.090
 1130SOL     OW 4288   1.808   4.377   0.824
 1130SOL    HW1 4289   1.831   4.304   0.889
 1130SOL    HW2 4290   1.883   4.443   0.821
 1131SOL     OW 4291   0.592   6.659   5.736
 1131SOL    HW1 4292   0.617   6.608   5.654
 1131SOL    HW2 4293   0.674   6.683   5.788
 1132SOL     OW 4294   5.047   0.364   6.946
 1132SOL    HW1 4295   5.035   0.440   7.009
 1132SOL    HW2 4296   5.013   0.390   6.856
 1133SOL     OW 4297   6.929   2.104   1.588
 1133SOL    HW1 4298   6.936   2.025   1.648
 1133SOL    HW2 4299   6.939   2.075   1.493
 1134SOL     OW 4300   5.675   2.003   6.937
 1134SOL    HW1 4301   5.720   2.083   6.977
 1134SOL    HW2 4302   5.605   1.969   7.000
 1135SOL     OW 4303   3.281   1.913   2.846
 1135SOL    HW1 4304   3.318   1.960   2.927
 1135SOL    HW2 4305   3.181   1.915   2.849
 1136SOL     OW 4306   2.854   4.785   4.297
 1136SOL    HW1 4307   2.872   4.709   4.361
 1136SOL    HW2 4308   2.933   4.797   4.237
 1137SOL     OW 4309   1.197   2.611   6.977
 1137SOL    HW1 4310   1.126   2.674   6.944
 1137SOL    HW2 4311   1.286   2.639   6.941
 1138SOL     OW 4312   1.925   2.515   5.733
 1138SOL    HW1 4313   2.023   2.521   5.716
 1138SOL    HW2 4314   1.878   2.585   5.680
 1139SOL     OW 4315   2.195   6.169   2.531
 1139SOL    HW1 4316   2.276   6.118   2.562
 1139SOL    HW2 4317   2.127   6.170   2.604
 1140SOL     OW 4318   4.170   2.222   2.772
 1140SOL    HW1 4319   4.252   2.280   2.780
 1140SOL    HW2 4320   4.099   2.255   2.834
 1141SOL     OW 4321   5.831   5.483   6.287
 1141SOL    HW1 4322   5.841   5.482   6.187
 1141SOL    HW2 4323   5.863   5.396   6.324
 1142SOL     OW 4324   5.088   0.392   4.752
 1142SOL    HW1 4325   5.156   0.344   4.697
 1142SOL    HW2 4326   4.997   0.378   4.712
 1143SOL     OW 4327   3.680   2.097   2.577
 1143SOL    HW1 4328   3.629   2.107   2.491
 1143SOL    HW2 4329   3.615   2.085   2.652
 1144SOL     OW 4330   0.230   4.441   4.496
 1144SOL    HW1 4331   0.306   4.499   4.527
 1144SOL    HW2 4332   0.186   4.399   4.575
 1145SOL     OW 4333   0.074   5.344   3.373
 1145SOL    HW1 4334   0.138   5.341   3.296
 1145SOL    HW2 4335   0.119   5.309   3.455
 1146SOL     OW 4336   5.384   1.360   1.230
 1146SOL    HW1 4337   5.323   1.296   1.182
 1146SOL    HW2 4338   5.329   1.423   1.285
 1147SOL     OW 4339   1.680   3.664   0.874
 1147SOL    HW1 4340   1.707   3.709   0.959
 1147SOL    HW2 4341   1.739   3.584   0.858
 1148SOL     OW 4342   2.932   5.911   6.443
 1148SOL    HW1 4343   2.975   5.886   6.530
 1148SOL    HW2 4344   2.928   5.831   6.383
 1149SOL     OW 4345   5.711   3.075   3.120
 1149SOL    HW1 4346   5.696   3.022   3.203
 1149SOL    HW2 4347   5.719   3.172   3.143
 1150SOL     OW 4348   2.238   4.371   1.372
 1150SOL    HW1 4349   2.224   4.456   1.321
 1150SOL    HW2 4350   2.314   4.320   1.332
 1151SOL     OW 4351   5.594   5.756   6.536
 1151SOL    HW1 4352   5.679   5.806   6.550
 1151SOL    HW2 4353   5.556   5.730   6.624
 1152SOL     OW 4354   1.194   6.978   4.579
 1152SOL    HW1 4355   1.116   7.003   4.522
 1152SOL    HW2 4356   1.161   6.950   4.669
 1153SOL     OW 4357   2.414   6.440   2.529
 1153SOL    HW1 4358   2.387   6.345   2.521
 1153SOL    HW2 4359   2.345   6.499   2.486
 1154SOL     OW 4360   0.252   3.290   1.687
 1154SOL    HW1 4361   0.231   3.279   1.590
 1154SOL    HW2 4362   0.265   3.387   1.708
 1155SOL     OW 4363   3.528   5.747   0.050
 1155SOL    HW1 4364   3.467   5.827   0.045
 1155SOL    HW2 4365   3.519   5.705   0.140
 1156SOL     OW 4366   2.175   0.590   3.393
 1156SOL    HW1 4367   2.211   0.672   3.349
 1156SOL    HW2 4368   2.245   0.550   3.452
 1157SOL     OW 4369   6.967   2.507   4.386
 1157SOL    HW1 4370   6.989   2.473   4.294
 1157SOL    HW2 4371   6.885   2.461   4.419
 1158SOL     OW 4372   5.692   5.235   5.587
 1158SOL    HW1 4373   5.619   5.277   5.532
 1158SOL    HW2 4374   5.710   5.143   5.554
 1159SOL     OW 4375   4.374   0.557   2.865
 1159SOL    HW1 4376   4.328   0.470   2.844
 1159SOL    HW2 4377   4.306   0.631   2.866
 1160SOL     OW 4378   4.020   3.565   1.464
 1160SOL    HW1 4379   3.985   3.582   1.372
 1160SOL    HW2 4380   4.012   3.648   1.519
 1161SOL     OW 4381   5.063   6.898   5.244
 1161SOL    HW1 4382   5.147   6.854   5.214
 1161SOL    HW2 4383   4.990   6.879   5.178
 1162SOL     OW 4384   3.860   2.762   0.827
 1162SOL    HW1 4385   3.932   2.761   0.757
 1162SOL    HW2 4386   3.818   2.671   0.832
 1163SOL     OW 4387   5.277   2.184   2.396
 1163SOL    HW1 4388   5.307   2.130   2.317
 1163SOL    HW2 4389   5.329   2.157   2.476
 1164SOL     OW 4390   5.312   2.582   3.781
 1164SOL    HW1 4391   5.334   2.553   3.874
 1164SOL    HW2 4392   5.251   2.661   3.783
 1165SOL     OW 4393   1.490   3.609   3.672
 1165SOL    HW1 4394   1.528   3.683   3.618
 1165SOL    HW2 4395   1.400   3.635   3.707
 1166SOL     OW 4396   3.706   1.362   6.963
 1166SOL    HW1 4397   3.651   1.299   7.018
 1166SOL    HW2 4398   3.783   1.395   7.018
 1167SOL     OW 4399   3.084   0.031   5.373
 1167SOL    HW1 4400   3.022   0.032   5.295
 1167SOL    HW2 4401   3.076   6.969   5.422
 1168SOL     OW 4402   5.947   0.036   2.423
 1168SOL    HW1 4403   6.003   7.005   2.361
 1168SOL    HW2 4404   5.981   0.130   2.426
 1169SOL     OW 4405   7.008   2.960   0.371
 1169SOL    HW1 4406   6.931   2.902   0.400
 1169SOL    HW2 4407   0.052   2.963   0.444
 1170SOL     OW 4408   3.879   0.360   1.850
 1170SOL    HW1 4409   3.961   0.416   1.836
 1170SOL    HW2 4410   3.901   0.264   1.832
 1171SOL     OW 4411   2.880   5.958   0.869
 1171SOL    HW1 4412   2.920   5.950   0.960
 1171SOL    HW2 4413   2.950   5.991   0.805
 1172SOL     OW 4414   2.983   3.719   3.701
 1172SOL    HW1 4415   2.913   3.710   3.630
 1172SOL    HW2 4416   3.046   3.793   3.676
 1173SOL     OW 4417   3.400   0.425   5.521
 1173SOL    HW1 4418   3.323   0.484   5.496
 1173SOL    HW2 4419   3.472   0.481   5.562
 1174SOL     OW 4420   2.261   5.871   0.927
 1174SOL    HW1 4421   2.300   5.864   0.836
 1174SOL    HW2 4422   2.334   5.888   0.994
 1175SOL     OW 4423   5.274   4.239   6.970
 1175SOL    HW1 4424   5.335   4.315   6.950
 1175SOL    HW2 4425   5.259   4.233   0.045
 1176SOL     OW 4426   6.076   5.045   0.675
 1176SOL    HW1 4427   6.142   5.041   0.600
 1176SOL    HW2 4428   6.004   5.111   0.652
 1177SOL     OW 4429   0.053   2.191   5.251
 1177SOL    HW1 4430   0.077   2.188   5.348
 1177SOL    HW2 4431   0.086   2.276   5.211
 1178SOL     OW 4432   4.769   4.092   1.819
 1178SOL    HW1 4433   4.705   4.142   1.877
 1178SOL    HW2 4434   4.722   4.059   1.738
 1179SOL     OW 4435   2.320   4.328   0.664
 1179SOL    HW1 4436   2.276   4.313   0.753
 1179SOL    HW2 4437   2.319   4.425   0.643
 1180SOL     OW 4438   2.655   0.954   3.545
 1180SOL    HW1 4439   2.681   0.909   3.630
 1180SOL    HW2 4440   2.734   1.006   3.510
 1181SOL     OW 4441   1.246   3.878   4.750
 1181SOL    HW1 4442   1.200   3.967   4.747
 1181SOL    HW2 4443   1.228   3.828   4.665
 1182SOL     OW 4444   1.785   4.445   3.143
 1182SOL    HW1 4445   1.825   4.395   3.066
 1182SOL    HW2 4446   1.844   4.523   3.165
 1183SOL     OW 4447   4.675   5.443   2.394
 1183SOL    HW1 4448   4.656   5.539   2.372
 1183SOL    HW2 4449   4.725   5.439   2.481
 1184SOL     OW 4450   3.272   3.014   5.698
 1184SOL    HW1 4451   3.233   2.969   5.778
 1184SOL    HW2 4452   3.342   2.955   5.657
 1185SOL     OW 4453   2.274   0.162   0.262
 1185SOL    HW1 4454   2.221   0.239   0.299
 1185SOL    HW2 4455   2.266   0.162   0.163
 1186SOL     OW 4456   5.968   0.018   5.686
 1186SOL    HW1 4457   5.966   0.114   5.657
 1186SOL    HW2 4458   5.890   7.023   5.744
 1187SOL     OW 4459   5.251   6.467   5.356
 1187SOL    HW1 4460   5.212   6.408   5.427
 1187SOL    HW2 4461   5.297   6.545   5.398
 1188SOL     OW 4462   2.958   6.571   6.446
 1188SOL    HW1 4463   2.933   6.515   6.526
 1188SOL    HW2 4464   3.048   6.541   6.412
 1189SOL     OW 4465   4.811   1.485   2.436
 1189SOL    HW1 4466   4.739   1.541   2.395
 1189SOL    HW2 4467   4.900   1.514   2.400
 1190SOL     OW 4468   4.201   4.738   4.368
 1190SOL    HW1 4469   4.142   4.773   4.440
 1190SOL    HW2 4470   4.198   4.800   4.290
 1191SOL     OW 4471   3.704   5.300   5.973
 1191SOL    HW1 4472   3.663   5.350   6.049
 1191SOL    HW2 4473   3.720   5.205   6.001
 1192SOL     OW 4474   5.269   4.653   2.973
 1192SOL    HW1 4475   5.280   4.629   3.070
 1192SOL    HW2 4476   5.178   4.624   2.942
 1193SOL     OW 4477   6.209   6.964   4.508
 1193SOL    HW1 4478   6.117   7.001   4.519
 1193SOL    HW2 4479   6.271   7.012   4.571
 1194SOL     OW 4480   0.091   1.140   0.573
 1194SOL    HW1 4481   0.148   1.172   0.497
 1194SOL    HW2 4482   0.016   1.085   0.538
 1195SOL     OW 4483   6.196   1.889   0.281
 1195SOL    HW1 4484   6.096   1.889   0.284
 1195SOL    HW2 4485   6.228   1.795   0.269
 1196SOL     OW 4486   0.039   4.862   1.815
 1196SOL    HW1 4487   6.982   4.896   1.863
 1196SOL    HW2 4488   0.054   4.766   1.838
 1197SOL     OW 4489   3.813   6.000   5.696
 1197SOL    HW1 4490   3.733   5.987   5.754
 1197SOL    HW2 4491   3.786   6.052   5.615
 1198SOL     OW 4492   2.144   2.823   2.071
 1198SOL    HW1 4493   2.110   2.738   2.032
 1198SOL    HW2 4494   2.228   2.805   2.123
 1199SOL     OW 4495   4.074   3.757   3.192
 1199SOL    HW1 4496   4.005   3.811   3.143
 1199SOL    HW2 4497   4.076   3.784   3.288
 1200SOL     OW 4498   4.268   3.769   5.410
 1200SOL    HW1 4499   4.253   3.726   5.499
 1200SOL    HW2 4500   4.258   3.868   5.419
 1201SOL     OW 4501   1.018   1.634   4.567
 1201SOL    HW1 4502   1.113   1.662   4.558
 1201SOL    HW2 4503   1.007   1.579   4.650
 1202SOL     OW 4504   5.622   0.386   6.215
 1202SOL    HW1 4505   5.631   0.339   6.128
 1202SOL    HW2 4506   5.587   0.323   6.284
 1203SOL     OW 4507   5.508   6.977   0.917
 1203SOL    HW1 4508   5.505   6.878   0.923
 1203SOL    HW2 4509   5.598   7.009   0.949
 1204SOL     OW 4510   4.431   1.171   0.490
 1204SOL    HW1 4511   4.352   1.111   0.479
 1204SOL    HW2 4512   4.473   1.156   0.579
 1205SOL     OW 4513   5.492   3.389   6.924
 1205SOL    HW1 4514   5.531   3.407   6.834
 1205SOL    HW2 4515   5.477   3.291   6.934
 1206SOL     OW 4516   2.023   1.246   5.016
 1206SOL    HW1 4517   1.938   1.290   5.045
 1206SOL    HW2 4518   2.073   1.308   4.955
 1207SOL     OW 4519   6.665   6.360   1.051
 1207SOL    HW1 4520   6.674   6.420   1.130
 1207SOL    HW2 4521   6.600   6.400   0.986
 1208SOL     OW 4522   3.815   4.043   2.501
 1208SOL    HW1 4523   3.760   4.085   2.429
 1208SOL    HW2 4524   3.767   4.053   2.589
 1209SOL     OW 4525   5.929   6.077   5.515
 1209SOL    HW1 4526   5.942   6.157   5.457
 1209SOL    HW2 4527   5.960   6.098   5.608
 1210SOL     OW 4528   3.978   0.361   2.929
 1210SOL    HW1 4529   3.944   0.285   2.985
 1210SOL    HW2 4530   3.932   0.445   2.956
 1211SOL     OW 4531   1.712   3.602   3.849
 1211SOL    HW1 4532   1.777   3.571   3.780
 1211SOL    HW2 4533   1.620   3.602   3.811
 1212SOL     OW 4534   0.642   2.990   5.256
 1212SOL    HW1 4535   0.685   3.066   5.305
 1212SOL    HW2 4536   0.567   2.953   5.310
 1213SOL     OW 4537   6.213   2.814   5.128
 1213SOL    HW1 4538   6.251   2.772   5.045
 1213SOL    HW2 4539   6.143   2.753   5.166
 1214SOL     OW 4540   1.506   3.316   4.116
 1214SOL    HW1 4541   1.556   3.306   4.202
 1214SOL    HW2 4542   1.451   3.235   4.099
 1215SOL     OW 4543   2.197   3.988   2.138
 1215SOL    HW1 4544   2.103   4.020   2.135
 1215SOL    HW2 4545   2.260   4.066   2.133
 1216SOL     OW 4546   0.238   7.021   1.467
 1216SOL    HW1 4547   0.196   6.935   1.440
 1216SOL    HW2 4548   0.194   0.073   1.419
 1217SOL     OW 4549   1.240   6.573   1.009
 1217SOL    HW1 4550   1.241   6.474   1.016
 1217SOL    HW2 4551   1.186   6.611   1.084
 1218SOL     OW 4552   1.274   3.118   4.787
 1218SOL    HW1 4553   1.369   3.110   4.756
 1218SOL    HW2 4554   1.259   3.058   4.865
 1219SOL     OW 4555   4.184   5.134   0.772
 1219SOL    HW1 4556   4.257   5.199   0.750
 1219SOL    HW2 4557   4.222   5.042   0.776
 1220SOL     OW 4558   5.273   3.730   2.297
 1220SOL    HW1 4559   5.333   3.772   2.229
 1220SOL    HW2 4560   5.262   3.633   2.276
 1221SOL     OW 4561   6.073   3.779   6.740
 1221SOL    HW1 4562   6.059   3.837   6.820
 1221SOL    HW2 4563   6.144   3.819   6.682
 1222SOL     OW 4564   6.930   0.115   0.525
 1222SOL    HW1 4565   6.941   0.087   0.620
 1222SOL    HW2 4566   6.904   0.212   0.521
 1223SOL     OW 4567   5.490   0.772   0.523
 1223SOL    HW1 4568   5.438   0.830   0.585
 1223SOL    HW2 4569   5.527   0.694   0.574
 1224SOL     OW 4570   3.670   6.627   6.660
 1224SOL    HW1 4571   3.769   6.612   6.668
 1224SOL    HW2 4572   3.651   6.725   6.654
 1225SOL     OW 4573   4.057   1.882   1.097
 1225SOL    HW1 4574   4.043   1.935   1.180
 1225SOL    HW2 4575   4.126   1.812   1.113
 1226SOL     OW 4576   5.752   6.699   0.739
 1226SOL    HW1 4577   5.734   6.602   0.722
 1226SOL    HW2 4578   5.726   6.722   0.833
 1227SOL     OW 4579   5.795   5.010   5.780
 1227SOL    HW1 4580   5.759   4.971   5.695
 1227SOL    HW2 4581   5.765   4.954   5.857
 1228SOL     OW 4582   4.278   3.379   1.841
 1228SOL    HW1 4583   4.214   3.321   1.892
 1228SOL    HW2 4584   4.367   3.379   1.888
 1229SOL     OW 4585   1.293   0.110   2.198
 1229SOL    HW1 4586   1.347   0.079   2.119
 1229SOL    HW2 4587   1.235   0.035   2.229
 1230SOL     OW 4588   5.440   5.595   2.862
 1230SOL    HW1 4589   5.470   5.687   2.836
 1230SOL    HW2 4590   5.342   5.585   2.844
 1231SOL     OW 4591   1.929   2.657   6.191
 1231SOL    HW1 4592   2.023   2.690   6.192
 1231SOL    HW2 4593   1.890   2.665   6.282
 1232SOL     OW 4594   4.320   1.130   5.261
 1232SOL    HW1 4595   4.352   1.200   5.325
 1232SOL    HW2 4596   4.287   1.173   5.178
 1233SOL     OW 4597   0.917   5.003   3.619
 1233SOL    HW1 4598   0.829   5.042   3.644
 1233SOL    HW2 4599   0.970   5.069   3.566
 1234SOL     OW 4600   0.078   2.677   6.774
 1234SOL    HW1 4601   0.060   2.753   6.838
 1234SOL    HW2 4602   7.016   2.631   6.752
 1235SOL     OW 4603   6.331   5.137   6.755
 1235SOL    HW1 4604   6.255   5.163   6.695
 1235SOL    HW2 4605   6.379   5.059   6.716
 1236SOL     OW 4606   3.617   1.585   0.737
 1236SOL    HW1 4607   3.646   1.524   0.664
 1236SOL    HW2 4608   3.696   1.636   0.771
 1237SOL     OW 4609   1.663   0.156   4.882
 1237SOL    HW1 4610   1.581   0.098   4.884
 1237SOL    HW2 4611   1.680   0.185   4.788
 1238SOL     OW 4612   0.361   6.596   3.167
 1238SOL    HW1 4613   0.407   6.528   3.223
 1238SOL    HW2 4614   0.331   6.555   3.082
 1239SOL     OW 4615   0.064   5.397   4.285
 1239SOL    HW1 4616   7.004   5.403   4.338
 1239SOL    HW2 4617   0.103   5.305   4.294
 1240SOL     OW 4618   6.104   5.516   2.323
 1240SOL    HW1 4619   6.024   5.489   2.270
 1240SOL    HW2 4620   6.144   5.436   2.367
 1241SOL     OW 4621   0.170   4.795   4.448
 1241SOL    HW1 4622   0.207   4.767   4.359
 1241SOL    HW2 4623   0.212   4.741   4.520
 1242SOL     OW 4624   1.965   4.014   6.749
 1242SOL    HW1 4625   2.045   4.039   6.695
 1242SOL    HW2 4626   1.947   3.916   6.738
 1243SOL     OW 4627   6.899   2.674   5.184
 1243SOL    HW1 4628   6.821   2.663   5.246
 1243SOL    HW2 4629   6.904   2.769   5.154
 1244SOL     OW 4630   5.764   6.565   5.532
 1244SOL    HW1 4631   5.793   6.660   5.540
 1244SOL    HW2 4632   5.794   6.514   5.613
 1245SOL     OW 4633   5.368   5.815   1.250
 1245SOL    HW1 4634   5.468   5.815   1.247
 1245SOL    HW2 4635   5.337   5.853   1.337
 1246SOL     OW 4636   4.552   0.995   1.736
 1246SOL    HW1 4637   4.467   1.014   1.685
 1246SOL    HW2 4638   4.561   0.897   1.750
 1247SOL     OW 4639   6.543   6.587   4.579
 1247SOL    HW1 4640   6.459   6.629   4.613
 1247SOL    HW2 4641   6.539   6.488   4.595
 1248SOL     OW 4642   0.532   6.267   4.551
 1248SOL    HW1 4643   0.496   6.179   4.522
 1248SOL    HW2 4644   0.485   6.341   4.503
 1249SOL     OW 4645   0.297   4.081   1.352
 1249SOL    HW1 4646   0.226   4.041   1.410
 1249SOL    HW2 4647   0.304   4.029   1.267
 1250SOL     OW 4648   6.014   3.512   5.072
 1250SOL    HW1 4649   6.026   3.562   5.158
 1250SOL    HW2 4650   6.004   3.577   4.997
 1251SOL     OW 4651   2.156   1.528   2.982
 1251SOL    HW1 4652   2.186   1.578   3.063
 1251SOL    HW2 4653   2.172   1.430   2.995
 1252SOL     OW 4654   3.349   5.415   6.714
 1252SOL    HW1 4655   3.360   5.482   6.787
 1252SOL    HW2 4656   3.438   5.376   6.691
 1253SOL     OW 4657   3.291   0.603   0.996
 1253SOL    HW1 4658   3.205   0.648   1.022
 1253SOL    HW2 4659   3.271   0.509   0.967
 1254SOL     OW 4660   6.196   1.497   3.234
 1254SOL    HW1 4661   6.138   1.522   3.312
 1254SOL    HW2 4662   6.285   1.465   3.268
 1255SOL     OW 4663   5.602   2.664   5.116
 1255SOL    HW1 4664   5.643   2.627   5.199
 1255SOL    HW2 4665   5.589   2.762   5.125
 1256SOL     OW 4666   6.765   6.155   3.229
 1256SOL    HW1 4667   6.673   6.134   3.262
 1256SOL    HW2 4668   6.760   6.226   3.159
 1257SOL     OW 4669   0.195   4.630   4.236
 1257SOL    HW1 4670   0.106   4.619   4.192
 1257SOL    HW2 4671   0.207   4.558   4.305
 1258SOL     OW 4672   2.005   6.050   3.333
 1258SOL    HW1 4673   2.044   6.142   3.326
 1258SOL    HW2 4674   2.067   5.984   3.290
 1259SOL     OW 4675   4.053   6.992   4.813
 1259SOL    HW1 4676   4.011   0.021   4.739
 1259SOL    HW2 4677   4.070   0.028   4.891
 1260SOL     OW 4678   3.239   0.792   2.047
 1260SOL    HW1 4679   3.290   0.771   1.963
 1260SOL    HW2 4680   3.166   0.724   2.060
 1261SOL     OW 4681   6.806   3.625   0.534
 1261SOL    HW1 4682   6.778   3.529   0.526
 1261SOL    HW2 4683   6.894   3.630   0.581
 1262SOL     OW 4684   4.290   4.724   1.330
 1262SOL    HW1 4685   4.214   4.674   1.372
 1262SOL    HW2 4686   4.347   4.661   1.277
 1263SOL     OW 4687   6.345   2.219   1.402
 1263SOL    HW1 4688   6.281   2.149   1.370
 1263SOL    HW2 4689   6.382   2.268   1.324
 1264SOL     OW 4690   0.251   4.115   3.175
 1264SOL    HW1 4691   0.151   4.104   3.170
 1264SOL    HW2 4692   0.286   4.145   3.086
 1265SOL     OW 4693   0.135   4.287   4.080
 1265SOL    HW1 4694   0.108   4.196   4.109
 1265SOL    HW2 4695   0.209   4.320   4.138
 1266SOL     OW 4696   2.873   1.695   4.671
 1266SOL    HW1 4697   2.928   1.663   4.749
 1266SOL    HW2 4698   2.876   1.795   4.669
 1267SOL     OW 4699   6.222   5.652   2.089
 1267SOL    HW1 4700   6.142   5.659   2.030
 1267SOL    HW2 4701   6.204   5.588   2.164
 1268SOL     OW 4702   5.399   2.180   0.220
 1268SOL    HW1 4703   5.305   2.204   0.241
 1268SOL    HW2 4704   5.460   2.222   0.288
 1269SOL     OW 4705   6.767   6.862   5.339
 1269SOL    HW1 4706   6.786   6.798   5.265
 1269SOL    HW2 4707   6.669   6.881   5.342
 1270SOL     OW 4708   2.105   3.912   4.513
 1270SOL    HW1 4709   2.047   3.841   4.554
 1270SOL    HW2 4710   2.069   3.936   4.422
 1271SOL     OW 4711   3.807   1.897   2.940
 1271SOL    HW1 4712   3.718   1.868   2.976
 1271SOL    HW2 4713   3.798   1.986   2.895
 1272SOL     OW 4714   0.414   6.040   1.019
 1272SOL    HW1 4715   0.329   6.004   1.057
 1272SOL    HW2 4716   0.428   6.134   1.051
 1273SOL     OW 4717   2.265   3.720   0.004
 1273SOL    HW1 4718   2.266   3.742   6.930
 1273SOL    HW2 4719   2.323   3.640   0.021
 1274SOL     OW 4720   0.452   3.139   1.785
 1274SOL    HW1 4721   0.410   3.127   1.875
 1274SOL    HW2 4722   0.402   3.209   1.734
 1275SOL     OW 4723   4.608   0.389   3.701
 1275SOL    HW1 4724   4.651   0.312   3.654
 1275SOL    HW2 4725   4.568   0.452   3.634
 1276SOL     OW 4726   6.874   0.514   3.997
 1276SOL    HW1 4727   6.858   0.417   3.976
 1276SOL    HW2 4728   6.935   0.522   4.076
 1277SOL     OW 4729   0.716   0.786   4.191
 1277SOL    HW1 4730   0.732   0.691   4.163
 1277SOL    HW2 4731   0.650   0.788   4.266
 1278SOL     OW 4732   2.023   2.015   4.852
 1278SOL    HW1 4733   1.995   2.110   4.838
 1278SOL    HW2 4734   1.942   1.958   4.867
 1279SOL     OW 4735   2.018   6.936   0.794
 1279SOL    HW1 4736   2.075   6.970   0.869
 1279SOL    HW2 4737   1.955   6.867   0.830
 1280SOL     OW 4738   2.685   6.599   3.625
 1280SOL    HW1 4739   2.625   6.520   3.635
 1280SOL    HW2 4740   2.661   6.650   3.543
 1281SOL     OW 4741   0.935   5.484   2.765
 1281SOL    HW1 4742   0.958   5.550   2.836
 1281SOL    HW2 4743   0.847   5.509   2.723
 1282SOL     OW 4744   0.520   0.722   0.726
 1282SOL    HW1 4745   0.560   0.722   0.818
 1282SOL    HW2 4746   0.454   0.797   0.718
 1283SOL     OW 4747   5.306   3.634   5.433
 1283SOL    HW1 4748   5.241   3.562   5.460
 1283SOL    HW2 4749   5.361   3.601   5.356
 1284SOL     OW 4750   3.138   2.877   1.783
 1284SOL    HW1 4751   3.202   2.891   1.859
 1284SOL    HW2 4752   3.162   2.793   1.735
 1285SOL     OW 4753   5.758   3.775   6.239
 1285SOL    HW1 4754   5.666   3.777   6.278
 1285SOL    HW2 4755   5.825   3.789   6.311
 1286SOL     OW 4756   4.270   4.642   2.467
 1286SOL    HW1 4757   4.318   4.581   2.404
 1286SOL    HW2 4758   4.204   4.698   2.416
 1287SOL     OW 4759   5.841   4.480   6.764
 1287SOL    HW1 4760   5.906   4.500   6.691
 1287SOL    HW2 4761   5.763   4.542   6.756
 1288SOL     OW 4762   0.050   3.107   1.045
 1288SOL    HW1 4763   0.116   3.034   1.026
 1288SOL    HW2 4764   6.986   3.085   1.003
 1289SOL     OW 4765   0.361   5.911   1.516
 1289SOL    HW1 4766   0.460   5.926   1.516
 1289SOL    HW2 4767   0.339   5.830   1.570
 1290SOL     OW 4768   0.436   1.008   0.358
 1290SOL    HW1 4769   0.366   1.057   0.306
 1290SOL    HW2 4770   0.482   0.943   0.299
 1291SOL     OW 4771   1.590   4.944   6.204
 1291SOL    HW1 4772   1.584   4.871   6.271
 1291SOL    HW2 4773   1.652   4.917   6.130
 1292SOL     OW 4774   6.745   4.895   2.185
 1292SOL    HW1 4775   6.665   4.953   2.198
 1292SOL    HW2 4776   6.802   4.932   2.111
 1293SOL     OW 4777   3.053   1.548   6.211
 1293SOL    HW1 4778   3.004   1.621   6.259
 1293SOL    HW2 4779   3.025   1.547   6.115
 1294SOL     OW 4780   0.755   3.066   0.787
 1294SOL    HW1 4781   0.685   2.998   0.764
 1294SOL    HW2 4782   0.812   3.031   0.862
 1295SOL     OW 4783   6.218   3.956   2.708
 1295SOL    HW1 4784   6.171   3.874   2.677
 1295SOL    HW2 4785   6.305   3.931   2.752
 1296SOL     OW 4786   4.309   1.609   5.970
 1296SOL    HW1 4787   4.323   1.551   6.051
 1296SOL    HW2 4788   4.347   1.563   5.890
 1297SOL     OW 4789   5.372   0.909   6.339
 1297SOL    HW1 4790   5.460   0.867   6.316
 1297SOL    HW2 4791   5.327   0.855   6.410
 1298SOL     OW 4792   6.327   3.197   2.858
 1298SOL    HW1 4793   6.323   3.257   2.938
 1298SOL    HW2 4794   6.374   3.112   2.882
 1299SOL     OW 4795   1.558   4.310   3.121
 1299SOL    HW1 4796   1.580   4.219   3.155
 1299SOL    HW2 4797   1.638   4.370   3.131
 1300SOL     OW 4798   3.651   3.566   1.973
 1300SOL    HW1 4799   3.688   3.478   1.943
 1300SOL    HW2 4800   3.686   3.639   1.915
 1301SOL     OW 4801   1.273   6.031   2.683
 1301SOL    HW1 4802   1.193   5.985   2.645
 1301SOL    HW2 4803   1.343   6.041   2.612
 1302SOL     OW 4804   2.917   6.605   4.642
 1302SOL    HW1 4805   2.825   6.582   4.672
 1302SOL    HW2 4806   2.960   6.524   4.600
 1303SOL     OW 4807   4.189   1.203   0.731
 1303SOL    HW1 4808   4.259   1.256   0.778
 1303SOL    HW2 4809   4.218   1.107   0.723
 1304SOL     OW 4810   2.101   1.552   6.419
 1304SOL    HW1 4811   2.101   1.558   6.319
 1304SOL    HW2 4812   2.042   1.624   6.456
 1305SOL     OW 4813   5.916   6.057   6.798
 1305SOL    HW1 4814   5.962   6.102   6.874
 1305SOL    HW2 4815   5.984   6.028   6.731
 1306SOL     OW 4816   0.830   4.968   5.594
 1306SOL    HW1 4817   0.888   4.969   5.513
 1306SOL    HW2 4818   0.767   4.890   5.590
 1307SOL     OW 4819   1.684   3.191   3.946
 1307SOL    HW1 4820   1.743   3.272   3.954
 1307SOL    HW2 4821   1.592   3.214   3.979
 1308SOL     OW 4822   4.035   6.045   4.634
 1308SOL    HW1 4823   4.051   6.036   4.732
 1308SOL    HW2 4824   4.032   5.955   4.592
 1309SOL     OW 4825   5.438   3.134   5.295
 1309SOL    HW1 4826   5.397   3.204   5.354
 1309SOL    HW2 4827   5.510   3.175   5.239
 1310SOL     OW 4828   5.748   3.720   4.791
 1310SOL    HW1 4829   5.757   3.779   4.710
 1310SOL    HW2 4830   5.719   3.629   4.763
 1311SOL     OW 4831   6.463   6.619   4.295
 1311SOL    HW1 4832   6.534   6.599   4.362
 1311SOL    HW2 4833   6.383   6.656   4.342
 1312SOL     OW 4834   0.737   0.690   6.629
 1312SOL    HW1 4835   0.708   0.782   6.600
 1312SOL    HW2 4836   0.686   0.621   6.578
 1313SOL     OW 4837   2.320   5.799   5.846
 1313SOL    HW1 4838   2.278   5.845   5.768
 1313SOL    HW2 4839   2.248   5.767   5.908
 1314SOL     OW 4840   1.975   1.638   5.458
 1314SOL    HW1 4841   1.907   1.586   5.407
 1314SOL    HW2 4842   1.953   1.635   5.556
 1315SOL     OW 4843   0.555   1.303   0.373
 1315SOL    HW1 4844   0.474   1.320   0.430
 1315SOL    HW2 4845   0.528   1.252   0.291
 1316SOL     OW 4846   2.604   7.021   2.874
 1316SOL    HW1 4847   2.652   0.026   2.792
 1316SOL    HW2 4848   2.530   0.063   2.894
 1317SOL     OW 4849   1.185   4.326   4.783
 1317SOL    HW1 4850   1.225   4.303   4.694
 1317SOL    HW2 4851   1.243   4.393   4.829
 1318SOL     OW 4852   0.352   0.910   0.619
 1318SOL    HW1 4853   0.263   0.951   0.637
 1318SOL    HW2 4854   0.406   0.973   0.562
 1319SOL     OW 4855   6.765   1.808   0.141
 1319SOL    HW1 4856   6.670   1.777   0.141
 1319SOL    HW2 4857   6.797   1.815   0.046
 1320SOL     OW 4858   5.704   4.479   0.205
 1320SOL    HW1 4859   5.781   4.495   0.143
 1320SOL    HW2 4860   5.701   4.383   0.231
 1321SOL     OW 4861   4.000   2.343   0.150
 1321SOL    HW1 4862   3.944   2.355   0.068
 1321SOL    HW2 4863   3.978   2.416   0.216
 1322SOL     OW 4864   5.438   1.133   3.559
 1322SOL    HW1 4865   5.385   1.177   3.486
 1322SOL    HW2 4866   5.395   1.046   3.583
 1323SOL     OW 4867   5.181   2.155   5.321
 1323SOL    HW1 4868   5.184   2.158   5.421
 1323SOL    HW2 4869   5.259   2.103   5.287
 1324SOL     OW 4870   1.339   2.050   1.800
 1324SOL    HW1 4871   1.261   1.993   1.775
 1324SOL    HW2 4872   1.382   2.013   1.882
 1325SOL     OW 4873   2.700   6.766   2.541
 1325SOL    HW1 4874   2.645   6.695   2.585
 1325SOL    HW2 4875   2.681   6.766   2.443
 1326SOL     OW 4876   4.609   2.585   4.659
 1326SOL    HW1 4877   4.697   2.538   4.669
 1326SOL    HW2 4878   4.558   2.578   4.745
 1327SOL     OW 4879   2.968   5.462   2.733
 1327SOL    HW1 4880   2.899   5.526   2.768
 1327SOL    HW2 4881   2.924   5.392   2.678
 1328SOL     OW 4882   0.790   2.789   0.556
 1328SOL    HW1 4883   0.829   2.758   0.643
 1328SOL    HW2 4884   0.743   2.713   0.511
 1329SOL     OW 4885   6.433   1.725   0.359
 1329SOL    HW1 4886   6.477   1.776   0.432
 1329SOL    HW2 4887   6.461   1.629   0.363
 1330SOL     OW 4888   6.656   0.052   1.216
 1330SOL    HW1 4889   6.611   7.015   1.282
 1330SOL    HW2 4890   6.753   0.059   1.238
 1331SOL     OW 4891   4.816   2.032   3.353
 1331SOL    HW1 4892   4.742   2.090   3.388
 1331SOL    HW2 4893   4.776   1.949   3.312
 1332SOL     OW 4894   3.799   0.273   0.715
 1332SOL    HW1 4895   3.824   0.196   0.775
 1332SOL    HW2 4896   3.824   0.251   0.621
 1333SOL     OW 4897   3.825   4.337   5.699
 1333SOL    HW1 4898   3.842   4.299   5.608
 1333SOL    HW2 4899   3.906   4.386   5.729
 1334SOL     OW 4900   0.581   3.052   4.431
 1334SOL    HW1 4901   0.667   3.016   4.467
 1334SOL    HW2 4902   0.599   3.115   4.356
 1335SOL     OW 4903   2.833   6.170   2.502
 1335SOL    HW1 4904   2.855   6.267   2.504
 1335SOL    HW2 4905   2.911   6.118   2.468
 1336SOL     OW 4906   1.821   1.217   5.897
 1336SOL    HW1 4907   1.899   1.201   5.837
 1336SOL    HW2 4908   1.822   1.151   5.972
 1337SOL     OW 4909   0.955   2.406   5.122
 1337SOL    HW1 4910   0.952   2.442   5.029
 1337SOL    HW2 4911   0.863   2.374   5.148
 1338SOL     OW 4912   4.510   3.895   6.215
 1338SOL    HW1 4913   4.549   3.917   6.125
 1338SOL    HW2 4914   4.467   3.976   6.253
 1339SOL     OW 4915   0.067   6.047   0.114
 1339SOL    HW1 4916   0.094   6.015   0.205
 1339SOL    HW2 4917   7.011   6.107   0.123
 1340SOL     OW 4918   1.186   1.492   1.641
 1340SOL    HW1 4919   1.186   1.420   1.710
 1340SOL    HW2 4920   1.187   1.451   1.550
 1341SOL     OW 4921   4.231   0.455   5.626
 1341SOL    HW1 4922   4.321   0.475   5.588
 1341SOL    HW2 4923   4.185   0.387   5.569
 1342SOL     OW 4924   1.226   5.715   6.100
 1342SOL    HW1 4925   1.272   5.747   6.017
 1342SOL    HW2 4926   1.196   5.794   6.153
 1343SOL     OW 4927   3.721   6.752   2.540
 1343SOL    HW1 4928   3.798   6.723   2.596
 1343SOL    HW2 4929   3.755   6.791   2.454
 1344SOL     OW 4930   0.003   3.136   3.317
 1344SOL    HW1 4931   6.943   3.105   3.363
 1344SOL    HW2 4932   0.082   3.097   3.364
 1345SOL     OW 4933   0.517   1.226   3.514
 1345SOL    HW1 4934   0.527   1.141   3.567
 1345SOL    HW2 4935   0.608   1.261   3.491
 1346SOL     OW 4936   1.752   0.244   2.561
 1346SOL    HW1 4937   1.678   0.301   2.595
 1346SOL    HW2 4938   1.740   0.229   2.463
 1347SOL     OW 4939   6.423   6.358   3.946
 1347SOL    HW1 4940   6.329   6.369   3.916
 1347SOL    HW2 4941   6.448   6.261   3.946
 1348SOL     OW 4942   5.900   4.854   3.078
 1348SOL    HW1 4943   5.827   4.825   3.141
 1348SOL    HW2 4944   5.971   4.901   3.129
 1349SOL     OW 4945   4.942   2.591   6.498
 1349SOL    HW1 4946   4.897   2.592   6.587
 1349SOL    HW2 4947   4.978   2.500   6.480
 1350SOL     OW 4948   4.028   5.343   6.742
 1350SOL    HW1 4949   3.970   5.313   6.666
 1350SOL    HW2 4950   4.117   5.370   6.707
 1351SOL     OW 4951   0.966   0.978   3.139
 1351SOL    HW1 4952   0.908   0.903   3.106
 1351SOL    HW2 4953   0.927   1.065   3.110
 1352SOL     OW 4954   0.367   0.171   3.540
 1352SOL    HW1 4955   0.379   0.130   3.449
 1352SOL    HW2 4956   0.445   0.228   3.562
 1353SOL     OW 4957   6.876   4.235   6.211
 1353SOL    HW1 4958   6.920   4.218   6.298
 1353SOL    HW2 4959   6.929   4.194   6.137
 1354SOL     OW 4960   6.612   2.158   0.772
 1354SOL    HW1 4961   6.609   2.162   0.672
 1354SOL    HW2 4962   6.556   2.231   0.810
 1355SOL     OW 4963   5.216   3.660   6.489
 1355SOL    HW1 4964   5.168   3.579   6.455
 1355SOL    HW2 4965   5.189   3.677   6.584
 1356SOL     OW 4966   3.782   3.833   4.061
 1356SOL    HW1 4967   3.810   3.918   4.016
 1356SOL    HW2 4968   3.748   3.769   3.992
 1357SOL     OW 4969   2.376   3.365   6.095
 1357SOL    HW1 4970   2.313   3.409   6.158
 1357SOL    HW2 4971   2.469   3.399   6.112
 1358SOL     OW 4972   2.971   2.166   6.063
 1358SOL    HW1 4973   2.938   2.183   5.970
 1358SOL    HW2 4974   3.064   2.130   6.059
 1359SOL     OW 4975   6.548   3.963   1.515
 1359SOL    HW1 4976   6.597   3.899   1.455
 1359SOL    HW2 4977   6.475   4.007   1.464
 1360SOL     OW 4978   4.057   3.904   2.481
 1360SOL    HW1 4979   3.966   3.943   2.496
 1360SOL    HW2 4980   4.113   3.970   2.430
 1361SOL     OW 4981   0.046   7.000   6.285
 1361SOL    HW1 4982   0.015   7.005   6.380
 1361SOL    HW2 4983   0.035   6.906   6.251
 1362SOL     OW 4984   2.885   3.463   5.483
 1362SOL    HW1 4985   2.969   3.414   5.508
 1362SOL    HW2 4986   2.853   3.516   5.561
 1363SOL     OW 4987   6.444   6.247   4.275
 1363SOL    HW1 4988   6.384   6.174   4.242
 1363SOL    HW2 4989   6.437   6.325   4.213
 1364SOL     OW 4990   6.919   2.355   6.924
 1364SOL    HW1 4991   6.830   2.402   6.931
 1364SOL    HW2 4992   6.907   2.259   6.946
 1365SOL     OW 4993   0.852   3.643   5.547
 1365SOL    HW1 4994   0.933   3.643   5.487
 1365SOL    HW2 4995   0.851   3.558   5.600
 1366SOL     OW 4996   0.245   3.736   1.305
 1366SOL    HW1 4997   0.342   3.758   1.304
 1366SOL    HW2 4998   0.224   3.677   1.227
 1367SOL     OW 4999   1.104   4.963   3.106
 1367SOL    HW1 5000   1.146   4.917   3.184
 1367SOL    HW2 5001   1.033   5.025   3.139
 1368SOL     OW 5002   6.721   0.786   4.355
 1368SOL    HW1 5003   6.659   0.719   4.397
 1368SOL    HW2 5004   6.808   0.741   4.332
 1369SOL     OW 5005   2.316   5.824   1.612
 1369SOL    HW1 5006   2.244   5.865   1.556
 1369SOL    HW2 5007   2.305   5.854   1.707
 1370SOL     OW 5008   0.122   1.685   4.058
 1370SOL    HW1 5009   0.092   1.731   3.975
 1370SOL    HW2 5010   0.216   1.651   4.045
 1371SOL     OW 5011   4.913   1.176   4.793
 1371SOL    HW1 5012   4.901   1.249   4.861
 1371SOL    HW2 5013   4.846   1.103   4.811
 1372SOL     OW 5014   6.445   2.301   1.153
 1372SOL    HW1 5015   6.534   2.310   1.107
 1372SOL    HW2 5016   6.376   2.274   1.085
 1373SOL     OW 5017   5.679   1.870   0.783
 1373SOL    HW1 5018   5.693   1.865   0.882
 1373SOL    HW2 5019   5.675   1.778   0.745
 1374SOL     OW 5020   5.342   4.611   0.010
 1374SOL    HW1 5021   5.402   4.545   6.987
 1374SOL    HW2 5022   5.397   4.687   0.044
 1375SOL     OW 5023   0.021   6.698   6.342
 1375SOL    HW1 5024   6.947   6.696   6.364
 1375SOL    HW2 5025   0.073   6.678   6.425
 1376SOL     OW 5026   3.456   4.872   6.165
 1376SOL    HW1 5027   3.515   4.860   6.245
 1376SOL    HW2 5028   3.375   4.814   6.174
 1377SOL     OW 5029   1.161   2.662   3.831
 1377SOL    HW1 5030   1.183   2.610   3.749
 1377SOL    HW2 5031   1.101   2.608   3.890
 1378SOL     OW 5032   4.835   2.415   4.646
 1378SOL    HW1 5033   4.880   2.489   4.596
 1378SOL    HW2 5034   4.898   2.339   4.657
 1379SOL     OW 5035   4.782   5.421   3.099
 1379SOL    HW1 5036   4.749   5.478   3.174
 1379SOL    HW2 5037   4.856   5.468   3.052
 1380SOL     OW 5038   7.011   6.091   2.559
 1380SOL    HW1 5039   6.929   6.045   2.526
 1380SOL    HW2 5040   6.985   6.166   2.619
 1381SOL     OW 5041   5.786   1.550   6.949
 1381SOL    HW1 5042   5.818   1.619   6.885
 1381SOL    HW2 5043   5.825   1.567   0.016
 1382SOL     OW 5044   4.933   3.098   1.126
 1382SOL    HW1 5045   5.001   3.097   1.199
 1382SOL    HW2 5046   4.977   3.072   1.039
 1383SOL     OW 5047   0.472   6.995   1.312
 1383SOL    HW1 5048   0.391   0.003   1.361
 1383SOL    HW2 5049   0.537   6.956   1.377
 1384SOL     OW 5050   4.386   6.994   1.234
 1384SOL    HW1 5051   4.478   0.009   1.243
 1384SOL    HW2 5052   4.325   0.039   1.195
 1385SOL     OW 5053   2.012   4.405   3.560
 1385SOL    HW1 5054   2.043   4.484   3.507
 1385SOL    HW2 5055   1.919   4.381   3.532
 1386SOL     OW 5056   3.432   0.116   3.360
 1386SOL    HW1 5057   3.520   0.068   3.359
 1386SOL    HW2 5058   3.428   0.177   3.439
 1387SOL     OW 5059   3.072   5.496   2.194
 1387SOL    HW1 5060   3.115   5.483   2.105
 1387SOL    HW2 5061   2.987   5.547   2.183
 1388SOL     OW 5062   6.654   6.852   1.982
 1388SOL    HW1 5063   6.740   6.899   1.966
 1388SOL    HW2 5064   6.660   6.758   1.946
 1389SOL     OW 5065   6.130   2.276   3.788
 1389SOL    HW1 5066   6.106   2.373   3.793
 1389SOL    HW2 5067   6.056   2.226   3.743
 1390SOL     OW 5068   0.064   3.783   0.053
 1390SOL    HW1 5069   0.149   3.760   0.007
 1390SOL    HW2 5070   7.017   3.805   7.009
 1391SOL     OW 5071   5.998   0.267   4.590
 1391SOL    HW1 5072   6.055   0.344   4.618
 1391SOL    HW2 5073   5.949   0.231   4.669
 1392SOL     OW 5074   5.555   5.880   6.304
 1392SOL    HW1 5075   5.616   5.954   6.331
 1392SOL    HW2 5076   5.534   5.824   6.384
 1393SOL     OW 5077   6.010   5.002   5.599
 1393SOL    HW1 5078   6.006   5.061   5.518
 1393SOL    HW2 5079   5.964   5.046   5.676
 1394SOL     OW 5080   2.850   5.586   4.991
 1394SOL    HW1 5081   2.877   5.663   5.049
 1394SOL    HW2 5082   2.803   5.517   5.047
 1395SOL     OW 5083   2.544   4.240   5.874
 1395SOL    HW1 5084   2.538   4.210   5.779
 1395SOL    HW2 5085   2.634   4.217   5.910
 1396SOL     OW 5086   1.787   1.395   5.061
 1396SOL    HW1 5087   1.700   1.414   5.105
 1396SOL    HW2 5088   1.783   1.423   4.965
 1397SOL     OW 5089   0.386   0.442   3.659
 1397SOL    HW1 5090   0.465   0.444   3.598
 1397SOL    HW2 5091   0.309   0.489   3.616
 1398SOL     OW 5092   2.938   0.454   6.021
 1398SOL    HW1 5093   2.953   0.550   5.997
 1398SOL    HW2 5094   2.931   0.400   5.937
 1399SOL     OW 5095   3.294   6.082   0.498
 1399SOL    HW1 5096   3.379   6.049   0.459
 1399SOL    HW2 5097   3.218   6.058   0.437
 1400SOL     OW 5098   0.017   0.957   2.889
 1400SOL    HW1 5099   0.049   0.936   2.797
 1400SOL    HW2 5100   7.014   0.873   2.935
 1401SOL     OW 5101   6.753   2.511   4.773
 1401SOL    HW1 5102   6.665   2.485   4.814
 1401SOL    HW2 5103   6.738   2.581   4.704
 1402SOL     OW 5104   0.444   3.597   6.991
 1402SOL    HW1 5105   0.505   3.550   0.031
 1402SOL    HW2 5106   0.374   3.534   6.958
 1403SOL     OW 5107   2.274   2.460   1.660
 1403SOL    HW1 5108   2.358   2.504   1.630
 1403SOL    HW2 5109   2.267   2.370   1.617
 1404SOL     OW 5110   5.485   6.832   0.099
 1404SOL    HW1 5111   5.482   6.827   0.199
 1404SOL    HW2 5112   5.408   6.887   0.066
 1405SOL     OW 5113   2.030   3.803   1.027
 1405SOL    HW1 5114   2.080   3.889   1.035
 1405SOL    HW2 5115   2.070   3.748   0.953
 1406SOL     OW 5116   1.087   5.227   1.312
 1406SOL    HW1 5117   1.073   5.209   1.215
 1406SOL    HW2 5118   1.028   5.166   1.366
 1407SOL     OW 5119   0.385   1.872   2.448
 1407SOL    HW1 5120   0.422   1.952   2.495
 1407SOL    HW2 5121   0.374   1.797   2.514
 1408SOL     OW 5122   5.540   1.316   5.697
 1408SOL    HW1 5123   5.525   1.245   5.766
 1408SOL    HW2 5124   5.595   1.389   5.735
 1409SOL     OW 5125   0.781   1.145   4.737
 1409SOL    HW1 5126   0.763   1.131   4.640
 1409SOL    HW2 5127   0.728   1.223   4.770
 1410SOL     OW 5128   1.855   2.827   6.419
 1410SOL    HW1 5129   1.764   2.805   6.453
 1410SOL    HW2 5130   1.847   2.891   6.343
 1411SOL     OW 5131   2.846   6.677   1.889
 1411SOL    HW1 5132   2.854   6.689   1.988
 1411SOL    HW2 5133   2.841   6.766   1.845
 1412SOL     OW 5134   0.025   2.270   1.182
 1412SOL    HW1 5135   0.065   2.217   1.108
 1412SOL    HW2 5136   6.954   2.293   1.160
 1413SOL     OW 5137   1.589   1.497   5.226
 1413SOL    HW1 5138   1.500   1.483   5.268
 1413SOL    HW2 5139   1.637   1.573   5.272
 1414SOL     OW 5140   2.469   1.279   1.836
 1414SOL    HW1 5141   2.473   1.193   1.785
 1414SOL    HW2 5142   2.562   1.310   1.857
 1415SOL     OW 5143   2.190   0.687   4.592
 1415SOL    HW1 5144   2.148   0.682   4.682
 1415SOL    HW2 5145   2.284   0.721   4.600
 1416SOL     OW 5146   4.896   4.809   4.275
 1416SOL    HW1 5147   4.809   4.856   4.264
 1416SOL    HW2 5148   4.899   4.766   4.366
 1417SOL     OW 5149   2.969   1.900   0.509
 1417SOL    HW1 5150   2.996   1.950   0.591
 1417SOL    HW2 5151   3.048   1.888   0.450
 1418SOL     OW 5152   2.944   3.645   3.984
 1418SOL    HW1 5153   2.953   3.724   4.045
 1418SOL    HW2 5154   2.952   3.676   3.889
 1419SOL     OW 5155   2.147   6.222   5.200
 1419SOL    HW1 5156   2.064   6.265   5.163
 1419SOL    HW2 5157   2.227   6.260   5.154
 1420SOL     OW 5158   2.477   6.976   1.199
 1420SOL    HW1 5159   2.387   7.017   1.184
 1420SOL    HW2 5160   2.520   6.959   1.110
 1421SOL     OW 5161   1.850   3.739   3.615
 1421SOL    HW1 5162   1.876   3.645   3.595
 1421SOL    HW2 5163   1.764   3.761   3.567
 1422SOL     OW 5164   1.653   3.658   1.408
 1422SOL    HW1 5165   1.657   3.593   1.483
 1422SOL    HW2 5166   1.698   3.743   1.434
 1423SOL     OW 5167   5.364   6.227   3.238
 1423SOL    HW1 5168   5.458   6.251   3.218
 1423SOL    HW2 5169   5.327   6.289   3.307
 1424SOL     OW 5170   6.341   5.042   5.694
 1424SOL    HW1 5171   6.382   4.979   5.760
 1424SOL    HW2 5172   6.260   5.000   5.653
 1425SOL     OW 5173   1.086   6.483   5.104
 1425SOL    HW1 5174   1.159   6.416   5.095
 1425SOL    HW2 5175   1.076   6.534   5.019
 1426SOL     OW 5176   2.203   2.424   6.159
 1426SOL    HW1 5177   2.203   2.524   6.161
 1426SOL    HW2 5178   2.297   2.391   6.150
 1427SOL     OW 5179   0.113   6.752   3.669
 1427SOL    HW1 5180   0.158   6.841   3.678
 1427SOL    HW2 5181   0.177   6.688   3.626
 1428SOL     OW 5182   5.830   2.987   0.731
 1428SOL    HW1 5183   5.887   2.992   0.813
 1428SOL    HW2 5184   5.808   3.080   0.701
 1429SOL     OW 5185   5.118   2.232   0.346
 1429SOL    HW1 5186   5.129   2.311   0.286
 1429SOL    HW2 5187   5.023   2.201   0.344
 1430SOL     OW 5188   1.610   4.199   3.860
 1430SOL    HW1 5189   1.702   4.209   3.822
 1430SOL    HW2 5190   1.563   4.287   3.857
 1431SOL     OW 5191   2.285   1.984   1.082
 1431SOL    HW1 5192   2.381   2.012   1.093
 1431SOL    HW2 5193   2.280   1.914   1.010
 1432SOL     OW 5194   3.129   1.157   2.575
 1432SOL    HW1 5195   3.144   1.217   2.654
 1432SOL    HW2 5196   3.179   1.072   2.588
 1433SOL     OW 5197   4.076   1.032   5.746
 1433SOL    HW1 5198   4.104   1.072   5.659
 1433SOL    HW2 5199   4.041   1.104   5.807
 1434SOL     OW 5200   6.952   0.508   5.720
 1434SOL    HW1 5201   6.951   0.481   5.816
 1434SOL    HW2 5202   6.868   0.558   5.698
 1435SOL     OW 5203   6.198   0.011   3.328
 1435SOL    HW1 5204   6.128   0.021   3.257
 1435SOL    HW2 5205   6.241   0.100   3.346
 1436SOL     OW 5206   5.559   3.853   0.035
 1436SOL    HW1 5207   5.593   3.765   0.070
 1436SOL    HW2 5208   5.491   3.837   6.987
 1437SOL     OW 5209   2.872   2.315   3.500
 1437SOL    HW1 5210   2.808   2.305   3.577
 1437SOL    HW2 5211   2.824   2.358   3.423
 1438SOL     OW 5212   3.338   5.898   1.319
 1438SOL    HW1 5213   3.330   5.996   1.302
 1438SOL    HW2 5214   3.291   5.875   1.404
 1439SOL     OW 5215   6.961   5.663   1.294
 1439SOL    HW1 5216   0.017   5.608   1.269
 1439SOL    HW2 5217   6.923   5.704   1.211
 1440SOL     OW 5218   3.062   3.524   0.287
 1440SOL    HW1 5219   3.099   3.432   0.276
 1440SOL    HW2 5220   3.069   3.573   0.201
 1441SOL     OW 5221   5.939   0.798   3.804
 1441SOL    HW1 5222   5.896   0.832   3.721
 1441SOL    HW2 5223   6.023   0.849   3.822
 1442SOL     OW 5224   6.992   6.097   6.876
 1442SOL    HW1 5225   6.903   6.055   6.896
 1442SOL    HW2 5226   0.028   6.086   6.955
 1443SOL     OW 5227   0.593   3.058   2.956
 1443SOL    HW1 5228   0.678   3.079   3.004
 1443SOL    HW2 5229   0.516   3.064   3.019
 1444SOL     OW 5230   5.199   6.045   1.158
 1444SOL    HW1 5231   5.258   5.974   1.197
 1444SOL    HW2 5232   5.133   6.003   1.095
 1445SOL     OW 5233   1.011   2.847   2.872
 1445SOL    HW1 5234   1.089   2.901   2.906
 1445SOL    HW2 5235   0.926   2.889   2.903
 1446SOL     OW 5236   5.755   1.463   0.199
 1446SOL    HW1 5237   5.658   1.452   0.178
 1446SOL    HW2 5238   5.804   1.381   0.169
 1447SOL     OW 5239   6.175   6.106   4.198
 1447SOL    HW1 5240   6.146   6.021   4.241
 1447SOL    HW2 5241   6.183   6.093   4.099
 1448SOL     OW 5242   6.296   3.190   5.344
 1448SOL    HW1 5243   6.367   3.145   5.289
 1448SOL    HW2 5244   6.332   3.208   5.435
 1449SOL     OW 5245   1.548   3.286   6.011
 1449SOL    HW1 5246   1.628   3.278   5.951
 1449SOL    HW2 5247   1.535   3.382   6.037
 1450SOL     OW 5248   1.163   2.427   6.797
 1450SOL    HW1 5249   1.163   2.482   6.880
 1450SOL    HW2 5250   1.256   2.399   6.775
 1451SOL     OW 5251   0.970   6.130   2.469
 1451SOL    HW1 5252   1.017   6.054   2.515
 1451SOL    HW2 5253   0.872   6.111   2.466
 1452SOL     OW 5254   4.281   2.381   5.525
 1452SOL    HW1 5255   4.264   2.283   5.521
 1452SOL    HW2 5256   4.228   2.421   5.600
 1453SOL     OW 5257   0.692   4.481   6.072
 1453SOL    HW1 5258   0.695   4.502   5.974
 1453SOL    HW2 5259   0.685   4.383   6.086
 1454SOL     OW 5260   1.019   2.393   1.881
 1454SOL    HW1 5261   1.043   2.330   1.956
 1454SOL    HW2 5262   0.984   2.478   1.920
 1455SOL     OW 5263   1.604   6.949   1.976
 1455SOL    HW1 5264   1.643   6.913   2.061
 1455SOL    HW2 5265   1.639   6.896   1.899
 1456SOL     OW 5266   6.234   0.239   6.223
 1456SOL    HW1 5267   6.329   0.208   6.226
 1456SOL    HW2 5268   6.207   0.255   6.128
 1457SOL     OW 5269   0.814   5.858   0.586
 1457SOL    HW1 5270   0.836   5.816   0.497
 1457SOL    HW2 5271   0.790   5.954   0.572
 1458SOL     OW 5272   6.391   4.861   5.135
 1458SOL    HW1 5273   6.303   4.905   5.117
 1458SOL    HW2 5274   6.452   4.926   5.181
 1459SOL     OW 5275   3.701   7.003   5.518
 1459SOL    HW1 5276   3.613   6.960   5.536
 1459SOL    HW2 5277   3.766   6.976   5.590
 1460SOL     OW 5278   0.819   0.310   5.059
 1460SOL    HW1 5279   0.756   0.309   4.982
 1460SOL    HW2 5280   0.830   0.404   5.092
 1461SOL     OW 5281   6.863   4.045   2.589
 1461SOL    HW1 5282   6.884   4.031   2.685
 1461SOL    HW2 5283   6.939   4.091   2.544
 1462SOL     OW 5284   1.376   1.424   6.511
 1462SOL    HW1 5285   1.380   1.489   6.435
 1462SOL    HW2 5286   1.457   1.366   6.510
 1463SOL     OW 5287   0.967   5.514   5.672
 1463SOL    HW1 5288   0.875   5.539   5.643
 1463SOL    HW2 5289   1.017   5.596   5.700
 1464SOL     OW 5290   0.017   6.038   2.120
 1464SOL    HW1 5291   0.105   6.053   2.074
 1464SOL    HW2 5292   6.970   6.094   2.078
 1465SOL     OW 5293   1.488   1.057   4.031
 1465SOL    HW1 5294   1.396   1.026   4.008
 1465SOL    HW2 5295   1.487   1.099   4.122
 1466SOL     OW 5296   2.779   1.493   2.231
 1466SOL    HW1 5297   2.729   1.566   2.276
 1466SOL    HW2 5298   2.744   1.404   2.262
 1467SOL     OW 5299   1.798   1.296   3.840
 1467SOL    HW1 5300   1.877   1.357   3.851
 1467SOL    HW2 5301   1.755   1.315   3.752
 1468SOL     OW 5302   2.413   5.397   2.285
 1468SOL    HW1 5303   2.507   5.405   2.251
 1468SOL    HW2 5304   2.370   5.488   2.285
 1469SOL     OW 5305   6.510   0.506   3.442
 1469SOL    HW1 5306   6.543   0.601   3.442
 1469SOL    HW2 5307   6.527   0.465   3.353
 1470SOL     OW 5308   0.876   1.533   2.061
 1470SOL    HW1 5309   0.861   1.584   1.977
 1470SOL    HW2 5310   0.965   1.488   2.058
 1471SOL     OW 5311   0.844   0.182   0.749
 1471SOL    HW1 5312   0.823   0.113   0.679
 1471SOL    HW2 5313   0.882   0.264   0.705
 1472SOL     OW 5314   2.503   5.723   6.538
 1472SOL    HW1 5315   2.555   5.807   6.523
 1472SOL    HW2 5316   2.488   5.677   6.450
 1473SOL     OW 5317   3.517   5.284   5.608
 1473SOL    HW1 5318   3.615   5.303   5.617
 1473SOL    HW2 5319   3.469   5.368   5.582
 1474SOL     OW 5320   4.674   4.677   1.340
 1474SOL    HW1 5321   4.652   4.589   1.382
 1474SOL    HW2 5322   4.739   4.663   1.265
 1475SOL     OW 5323   5.537   0.890   0.938
 1475SOL    HW1 5324   5.618   0.922   0.888
 1475SOL    HW2 5325   5.461   0.877   0.875
 1476SOL     OW 5326   2.831   1.065   1.135
 1476SOL    HW1 5327   2.830   0.996   1.063
 1476SOL    HW2 5328   2.866   1.151   1.098
 1477SOL     OW 5329   3.658   6.199   6.420
 1477SOL    HW1 5330   3.630   6.104   6.432
 1477SOL    HW2 5331   3.583   6.260   6.446
 1478SOL     OW 5332   6.134   5.580   5.433
 1478SOL    HW1 5333   6.163   5.499   5.484
 1478SOL    HW2 5334   6.042   5.566   5.398
 1479SOL     OW 5335   2.632   3.533   1.115
 1479SOL    HW1 5336   2.721   3.505   1.078
 1479SOL    HW2 5337   2.564   3.462   1.094
 1480SOL     OW 5338   2.769   7.018   4.595
 1480SOL    HW1 5339   2.803   6.940   4.541
 1480SOL    HW2 5340   2.806   0.079   4.558
 1481SOL     OW 5341   6.155   3.174   6.071
 1481SOL    HW1 5342   6.219   3.098   6.074
 1481SOL    HW2 5343   6.199   3.256   6.107
 1482SOL     OW 5344   4.512   0.598   2.032
 1482SOL    HW1 5345   4.498   0.689   1.994
 1482SOL    HW2 5346   4.435   0.539   2.007
 1483SOL     OW 5347   5.279   2.352   5.612
 1483SOL    HW1 5348   5.316   2.395   5.530
 1483SOL    HW2 5349   5.300   2.254   5.611
 1484SOL     OW 5350   5.137   4.916   3.823
 1484SOL    HW1 5351   5.113   4.934   3.918
 1484SOL    HW2 5352   5.071   4.852   3.784
 1485SOL     OW 5353   4.833   0.374   4.559
 1485SOL    HW1 5354   4.843   0.465   4.520
 1485SOL    HW2 5355   4.863   0.306   4.492
 1486SOL     OW 5356   5.180   0.605   3.267
 1486SOL    HW1 5357   5.214   0.665   3.195
 1486SOL    HW2 5358   5.257   0.566   3.317
 1487SOL     OW 5359   0.298   2.194   6.973
 1487SOL    HW1 5360   0.270   2.288   6.953
 1487SOL    HW2 5361   0.219   2.142   7.005
 1488SOL     OW 5362   4.959   6.805   3.849
 1488SOL    HW1 5363   4.977   6.874   3.780
 1488SOL    HW2 5364   4.866   6.769   3.837
 1489SOL     OW 5365   3.637   5.376   6.710
 1489SOL    HW1 5366   3.721   5.342   6.668
 1489SOL    HW2 5367   3.661   5.442   6.782
 1490SOL     OW 5368   0.069   3.618   1.521
 1490SOL    HW1 5369   0.142   3.648   1.460
 1490SOL    HW2 5370   0.110   3.580   1.604
 1491SOL     OW 5371   6.604   4.355   2.258
 1491SOL    HW1 5372   6.517   4.390   2.290
 1491SOL    HW2 5373   6.661   4.431   2.225
 1492SOL     OW 5374   5.879   0.422   2.329
 1492SOL    HW1 5375   5.942   0.374   2.267
 1492SOL    HW2 5376   5.815   0.476   2.275
 1493SOL     OW 5377   3.841   0.487   6.131
 1493SOL    HW1 5378   3.910   0.478   6.059
 1493SOL    HW2 5379   3.789   0.571   6.117
 1494SOL     OW 5380   5.394   2.610   6.494
 1494SOL    HW1 5381   5.338   2.679   6.447
 1494SOL    HW2 5382   5.469   2.581   6.434
 1495SOL     OW 5383   0.437   4.259   5.269
 1495SOL    HW1 5384   0.371   4.213   5.328
 1495SOL    HW2 5385   0.521   4.277   5.320
 1496SOL     OW 5386   1.490   1.417   0.486
 1496SOL    HW1 5387   1.521   1.512   0.496
 1496SOL    HW2 5388   1.534   1.361   0.556
 1497SOL     OW 5389   5.435   3.031   1.973
 1497SOL    HW1 5390   5.502   2.987   2.033
 1497SOL    HW2 5391   5.448   2.998   1.879
 1498SOL     OW 5392   2.668   4.410   0.222
 1498SOL    HW1 5393   2.585   4.356   0.234
 1498SOL    HW2 5394   2.718   4.415   0.309
 1499SOL     OW 5395   0.289   2.565   5.616
 1499SOL    HW1 5396   0.259   2.646   5.666
 1499SOL    HW2 5397   0.237   2.558   5.530
 1500SOL     OW 5398   0.458   6.720   6.977
 1500SOL    HW1 5399   0.458   6.781   6.898
 1500SOL    HW2 5400   0.495   6.768   0.032
 1501SOL     OW 5401   6.093   2.220   6.323
 1501SOL    HW1 5402   6.071   2.123   6.313
 1501SOL    HW2 5403   6.009   2.273   6.325
 1502SOL     OW 5404   5.017   0.958   0.046
 1502SOL    HW1 5405   4.950   0.910   0.103
 1502SOL    HW2 5406   4.984   1.050   0.025
 1503SOL     OW 5407   1.673   3.068   2.573
 1503SOL    HW1 5408   1.664   3.156   2.620
 1503SOL    HW2 5409   1.756   3.022   2.603
 1504SOL     OW 5410   0.357   0.317   4.092
 1504SOL    HW1 5411   0.354   0.415   4.109
 1504SOL    HW2 5412   0.448   0.282   4.113
 1505SOL     OW 5413   4.496   0.252   5.629
 1505SOL    HW1 5414   4.491   0.225   5.725
 1505SOL    HW2 5415   4.455   0.342   5.617
 1506SOL     OW 5416   0.882   6.734   0.130
 1506SOL    HW1 5417   0.981   6.744   0.138
 1506SOL    HW2 5418   0.854   6.645   0.166
 1507SOL     OW 5419   0.301   1.980   6.048
 1507SOL    HW1 5420   0.356   1.920   5.990
 1507SOL    HW2 5421   0.352   2.065   6.066
 1508SOL     OW 5422   6.021   1.492   1.231
 1508SOL    HW1 5423   5.989   1.468   1.323
 1508SOL    HW2 5424   5.974   1.435   1.164
 1509SOL     OW 5425   4.340   2.016   4.766
 1509SOL    HW1 5426   4.339   2.068   4.680
 1509SOL    HW2 5427   4.349   2.079   4.843
 1510SOL     OW 5428   4.992   6.686   4.931
 1510SOL    HW1 5429   5.088   6.664   4.946
 1510SOL    HW2 5430   4.940   6.602   4.915
 1511SOL     OW 5431   4.074   3.700   4.327
 1511SOL    HW1 5432   4.134   3.715   4.248
 1511SOL    HW2 5433   4.107   3.622   4.380
 1512SOL     OW 5434   6.483   5.658   1.261
 1512SOL    HW1 5435   6.559   5.646   1.325
 1512SOL    HW2 5436   6.477   5.754   1.234
 1513SOL     OW 5437   4.196   0.550   4.415
 1513SOL    HW1 5438   4.164   0.633   4.370
 1513SOL    HW2 5439   4.163   0.549   4.510
 1514SOL     OW 5440   3.911   2.852   5.572
 1514SOL    HW1 5441   3.988   2.890   5.624
 1514SOL    HW2 5442   3.875   2.772   5.620
 1515SOL     OW 5443   5.334   1.713   2.518
 1515SOL    HW1 5444   5.316   1.617   2.541
 1515SOL    HW2 5445   5.305   1.771   2.594
 1516SOL     OW 5446   6.128   5.505   6.047
 1516SOL    HW1 5447   6.120   5.512   5.947
 1516SOL    HW2 5448   6.095   5.590   6.089
 1517SOL     OW 5449   4.392   6.375   2.717
 1517SOL    HW1 5450   4.399   6.287   2.670
 1517SOL    HW2 5451   4.482   6.401   2.752
 1518SOL     OW 5452   6.990   2.023   0.608
 1518SOL    HW1 5453   6.966   2.054   0.516
 1518SOL    HW2 5454   7.010   2.102   0.666
 1519SOL     OW 5455   6.385   4.476   1.424
 1519SOL    HW1 5456   6.313   4.526   1.376
 1519SOL    HW2 5457   6.438   4.422   1.358
 1520SOL     OW 5458   0.288   4.505   1.823
 1520SOL    HW1 5459   0.371   4.546   1.862
 1520SOL    HW2 5460   0.313   4.442   1.749
 1521SOL     OW 5461   2.604   4.747   6.610
 1521SOL    HW1 5462   2.639   4.653   6.602
 1521SOL    HW2 5463   2.675   4.805   6.651
 1522SOL     OW 5464   5.926   5.803   5.091
 1522SOL    HW1 5465   5.993   5.730   5.074
 1522SOL    HW2 5466   5.969   5.875   5.147
 1523SOL     OW 5467   3.879   6.825   6.858
 1523SOL    HW1 5468   3.914   6.746   6.808
 1523SOL    HW2 5469   3.822   6.880   6.798
 1524SOL     OW 5470   2.304   1.639   1.836
 1524SOL    HW1 5471   2.250   1.571   1.886
 1524SOL    HW2 5472   2.272   1.645   1.742
 1525SOL     OW 5473   6.178   3.168   0.263
 1525SOL    HW1 5474   6.235   3.251   0.256
 1525SOL    HW2 5475   6.221   3.104   0.326
 1526SOL     OW 5476   0.016   1.230   6.653
 1526SOL    HW1 5477   0.101   1.236   6.601
 1526SOL    HW2 5478   6.993   1.145   6.632
 1527SOL     OW 5479   3.350   1.264   4.400
 1527SOL    HW1 5480   3.376   1.323   4.324
 1527SOL    HW2 5481   3.333   1.171   4.366
 1528SOL     OW 5482   4.194   4.951   2.959
 1528SOL    HW1 5483   4.229   4.942   3.052
 1528SOL    HW2 5484   4.213   4.867   2.907
 1529SOL     OW 5485   4.235   0.391   6.992
 1529SOL    HW1 5486   4.315   0.388   6.933
 1529SOL    HW2 5487   4.257   0.352   0.057
 1530SOL     OW 5488   3.761   1.825   2.274
 1530SOL    HW1 5489   3.756   1.802   2.176
 1530SOL    HW2 5490   3.704   1.905   2.292
 1531SOL     OW 5491   4.705   0.431   5.410
 1531SOL    HW1 5492   4.805   0.420   5.413
 1531SOL    HW2 5493   4.670   0.393   5.324
 1532SOL     OW 5494   3.711   4.354   5.976
 1532SOL    HW1 5495   3.638   4.423   5.972
 1532SOL    HW2 5496   3.744   4.335   5.884
 1533SOL     OW 5497   6.655   4.907   0.174
 1533SOL    HW1 5498   6.666   4.810   0.198
 1533SOL    HW2 5499   6.560   4.924   0.147
 1534SOL     OW 5500   3.050   6.164   6.348
 1534SOL    HW1 5501   3.062   6.066   6.367
 1534SOL    HW2 5502   2.958   6.192   6.374
 1535SOL     OW 5503   5.312   6.036   4.372
 1535SOL    HW1 5504   5.369   6.100   4.421
 1535SOL    HW2 5505   5.219   6.037   4.410
 1536SOL     OW 5506   3.890   5.150   6.207
 1536SOL    HW1 5507   3.841   5.222   6.257
 1536SOL    HW2 5508   3.833   5.118   6.131
 1537SOL     OW 5509   4.549   5.801   4.121
 1537SOL    HW1 5510   4.592   5.880   4.078
 1537SOL    HW2 5511   4.619   5.737   4.152
 1538SOL     OW 5512   3.164   0.011   6.775
 1538SOL    HW1 5513   3.177   0.086   6.710
 1538SOL    HW2 5514   3.188   6.948   6.731
 1539SOL     OW 5515   4.870   3.423   1.741
 1539SOL    HW1 5516   4.794   3.427   1.676
 1539SOL    HW2 5517   4.873   3.332   1.783
 1540SOL     OW 5518   0.084   6.583   5.282
 1540SOL    HW1 5519   7.013   6.558   5.299
 1540SOL    HW2 5520   0.141   6.551   5.357
 1541SOL     OW 5521   2.990   3.233   4.491
 1541SOL    HW1 5522   2.966   3.174   4.568
 1541SOL    HW2 5523   3.044   3.311   4.524
 1542SOL     OW 5524   6.269   1.067   2.554
 1542SOL    HW1 5525   6.336   1.141   2.562
 1542SOL    HW2 5526   6.280   1.004   2.631
 1543SOL     OW 5527   3.295   4.953   5.102
 1543SOL    HW1 5528   3.280   4.892   5.024
 1543SOL    HW2 5529   3.342   5.035   5.071
 1544SOL     OW 5530   3.050   3.340   3.493
 1544SOL    HW1 5531   3.094   3.395   3.563
 1544SOL    HW2 5532   3.084   3.246   3.499
 1545SOL     OW 5533   5.028   0.324   2.727
 1545SOL    HW1 5534   5.087   0.259   2.775
 1545SOL    HW2 5535   4.933   0.294   2.733
 1546SOL     OW 5536   4.476   6.659   5.634
 1546SOL    HW1 5537   4.423   6.620   5.710
 1546SOL    HW2 5538   4.475   6.759   5.642
 1547SOL     OW 5539   1.944   3.961   1.246
 1547SOL    HW1 5540   1.965   3.915   1.160
 1547SOL    HW2 5541   1.845   3.978   1.252
 1548SOL     OW 5542   5.557   4.174   6.450
 1548SOL    HW1 5543   5.579   4.112   6.374
 1548SOL    HW2 5544   5.621   4.251   6.449
 1549SOL     OW 5545   3.875   1.801   1.650
 1549SOL    HW1 5546   3.885   1.896   1.619
 1549SOL    HW2 5547   3.795   1.793   1.708
 1550SOL     OW 5548   2.425   3.899   0.403
 1550SOL    HW1 5549   2.493   3.967   0.433
 1550SOL    HW2 5550   2.350   3.945   0.358
 1551SOL     OW 5551   1.713   4.225   6.018
 1551SOL    HW1 5552   1.675   4.209   5.927
 1551SOL    HW2 5553   1.678   4.156   6.082
 1552SOL     OW 5554   2.306   5.513   0.805
 1552SOL    HW1 5555   2.233   5.479   0.865
 1552SOL    HW2 5556   2.331   5.441   0.740
 1553SOL     OW 5557   6.274   1.526   0.034
 1553SOL    HW1 5558   6.230   1.465   6.992
 1553SOL    HW2 5559   6.370   1.538   0.010
 1554SOL     OW 5560   3.340   1.893   3.338
 1554SOL    HW1 5561   3.419   1.850   3.381
 1554SOL    HW2 5562   3.314   1.975   3.390
 1555SOL     OW 5563   5.515   3.489   0.228
 1555SOL    HW1 5564   5.459   3.477   0.310
 1555SOL    HW2 5565   5.474   3.437   0.153
 1556SOL     OW 5566   2.902   2.320   0.117
 1556SOL    HW1 5567   2.858   2.276   0.039
 1556SOL    HW2 5568   2.956   2.253   0.167
 1557SOL     OW 5569   1.944   2.257   4.791
 1557SOL    HW1 5570   2.018   2.323   4.777
 1557SOL    HW2 5571   1.856   2.304   4.788
 1558SOL     OW 5572   6.005   0.703   4.514
 1558SOL    HW1 5573   5.935   0.632   4.518
 1558SOL    HW2 5574   5.979   0.779   4.574
 1559SOL     OW 5575   2.102   2.338   6.615
 1559SOL    HW1 5576   2.175   2.362   6.678
 1559SOL    HW2 5577   2.036   2.413   6.611
 1560SOL     OW 5578   0.150   0.875   6.057
 1560SOL    HW1 5579   0.237   0.922   6.045
 1560SOL    HW2 5580   0.103   0.911   6.138
 1561SOL     OW 5581   5.911   6.590   3.516
 1561SOL    HW1 5582   5.856   6.636   3.585
 1561SOL    HW2 5583   5.851   6.545   3.450
 1562SOL     OW 5584   5.002   5.807   2.787
 1562SOL    HW1 5585   5.049   5.845   2.867
 1562SOL    HW2 5586   5.068   5.784   2.716
 1563SOL     OW 5587   1.951   0.315   4.806
 1563SOL    HW1 5588   1.960   0.232   4.862
 1563SOL    HW2 5589   2.012   0.308   4.726
 1564SOL     OW 5590   1.340   1.997   3.410
 1564SOL    HW1 5591   1.369   1.968   3.319
 1564SOL    HW2 5592   1.301   2.089   3.404
 1565SOL     OW 5593   4.511   4.519   3.601
 1565SOL    HW1 5594   4.521   4.520   3.701
 1565SOL    HW2 5595   4.439   4.583   3.575
 1566SOL     OW 5596   6.342   4.886   2.746
 1566SOL    HW1 5597   6.255   4.839   2.728
 1566SOL    HW2 5598   6.324   4.983   2.763
 1567SOL     OW 5599   6.485   6.178   0.774
 1567SOL    HW1 5600   6.566   6.122   0.754
 1567SOL    HW2 5601   6.446   6.150   0.862
 1568SOL     OW 5602   1.648   6.824   6.558
 1568SOL    HW1 5603   1.742   6.811   6.526
 1568SOL    HW2 5604   1.590   6.750   6.524
 1569SOL     OW 5605   4.750   6.078   3.486
 1569SOL    HW1 5606   4.765   6.113   3.393
 1569SOL    HW2 5607   4.667   6.022   3.487
 1570SOL     OW 5608   1.412   0.250   0.890
 1570SOL    HW1 5609   1.473   0.326   0.868
 1570SOL    HW2 5610   1.326   0.262   0.841
 1571SOL     OW 5611   5.574   2.510   0.802
 1571SOL    HW1 5612   5.494   2.468   0.759
 1571SOL    HW2 5613   5.545   2.569   0.877
 1572SOL     OW 5614   0.039   6.741   1.463
 1572SOL    HW1 5615   0.092   6.657   1.451
 1572SOL    HW2 5616   0.002   6.771   1.375
 1573SOL     OW 5617   5.428   2.425   2.684
 1573SOL    HW1 5618   5.368   2.453   2.759
 1573SOL    HW2 5619   5.382   2.440   2.597
 1574SOL     OW 5620   6.221   0.902   1.888
 1574SOL    HW1 5621   6.122   0.918   1.896
 1574SOL    HW2 5622   6.262   0.977   1.836
 1575SOL     OW 5623   3.006   1.019   0.398
 1575SOL    HW1 5624   3.058   1.038   0.482
 1575SOL    HW2 5625   3.056   1.055   0.319
 1576SOL     OW 5626   0.404   6.655   3.966
 1576SOL    HW1 5627   0.384   6.748   3.994
 1576SOL    HW2 5628   0.328   6.595   3.991
 1577SOL     OW 5629   3.515   1.782   4.588
 1577SOL    HW1 5630   3.446   1.847   4.556
 1577SOL    HW2 5631   3.567   1.823   4.663
 1578SOL     OW 5632   6.088   3.730   5.286
 1578SOL    HW1 5633   6.133   3.807   5.241
 1578SOL    HW2 5634   6.043   3.762   5.370
 1579SOL     OW 5635   0.026   2.061   2.900
 1579SOL    HW1 5636   0.066   2.146   2.866
 1579SOL    HW2 5637   0.099   2.000   2.931
 1580SOL     OW 5638   2.489   3.635   5.351
 1580SOL    HW1 5639   2.398   3.649   5.391
 1580SOL    HW2 5640   2.541   3.720   5.356
 1581SOL     OW 5641   0.299   4.492   5.260
 1581SOL    HW1 5642   0.350   4.561   5.312
 1581SOL    HW2 5643   0.346   4.404   5.266
 1582SOL     OW 5644   1.479   6.511   4.361
 1582SOL    HW1 5645   1.444   6.592   4.409
 1582SOL    HW2 5646   1.410   6.438   4.366
 1583SOL     OW 5647   0.871   3.798   3.656
 1583SOL    HW1 5648   0.913   3.828   3.742
 1583SOL    HW2 5649   0.793   3.738   3.676
 1584SOL     OW 5650   1.211   6.750   4.901
 1584SOL    HW1 5651   1.119   6.786   4.884
 1584SOL    HW2 5652   1.239   6.691   4.825
 1585SOL     OW 5653   5.839   1.405   3.587
 1585SOL    HW1 5654   5.776   1.332   3.614
 1585SOL    HW2 5655   5.919   1.404   3.647
 1586SOL     OW 5656   3.009   4.083   0.900
 1586SOL    HW1 5657   2.968   4.017   0.838
 1586SOL    HW2 5658   3.014   4.045   0.992
 1587SOL     OW 5659   2.870   5.489   0.043
 1587SOL    HW1 5660   2.969   5.478   0.048
 1587SOL    HW2 5661   2.834   5.507   0.135
 1588SOL     OW 5662   5.112   1.241   3.218
 1588SOL    HW1 5663   5.095   1.203   3.127
 1588SOL    HW2 5664   5.026   1.246   3.268
 1589SOL     OW 5665   6.365   4.053   2.955
 1589SOL    HW1 5666   6.400   4.115   3.025
 1589SOL    HW2 5667   6.319   4.106   2.883
 1590SOL     OW 5668   2.623   6.679   5.838
 1590SOL    HW1 5669   2.646   6.585   5.862
 1590SOL    HW2 5670   2.707   6.728   5.812
 1591SOL     OW 5671   0.784   4.916   3.095
 1591SOL    HW1 5672   0.867   4.867   3.070
 1591SOL    HW2 5673   0.742   4.955   3.013
 1592SOL     OW 5674   2.757   4.348   1.501
 1592SOL    HW1 5675   2.796   4.297   1.577
 1592SOL    HW2 5676   2.681   4.404   1.534
 1593SOL     OW 5677   0.824   6.347   4.059
 1593SOL    HW1 5678   0.824   6.307   4.151
 1593SOL    HW2 5679   0.746   6.310   4.008
 1594SOL     OW 5680   7.001   5.651   2.615
 1594SOL    HW1 5681   6.908   5.687   2.612
 1594SOL    HW2 5682   7.021   5.604   2.528
 1595SOL     OW 5683   1.286   5.144   6.776
 1595SOL    HW1 5684   1.356   5.104   6.717
 1595SOL    HW2 5685   1.249   5.226   6.732
 1596SOL     OW 5686   0.744   2.896   4.998
 1596SOL    HW1 5687   0.649   2.914   5.022
 1596SOL    HW2 5688   0.754   2.801   4.970
 1597SOL     OW 5689   2.428   5.822   0.143
 1597SOL    HW1 5690   2.507   5.843   0.085
 1597SOL    HW2 5691   2.344   5.850   0.096
 1598SOL     OW 5692   0.892   3.691   0.149
 1598SOL    HW1 5693   0.929   3.646   0.230
 1598SOL    HW2 5694   0.961   3.688   0.076
 1599SOL     OW 5695   5.049   4.203   5.648
 1599SOL    HW1 5696   5.082   4.296   5.634
 1599SOL    HW2 5697   5.029   4.189   5.745
 1600SOL     OW 5698   5.219   1.899   4.984
 1600SOL    HW1 5699   5.252   1.979   4.934
 1600SOL    HW2 5700   5.291   1.866   5.045
 1601SOL     OW 5701   0.487   5.106   4.496
 1601SOL    HW1 5702   0.542   5.083   4.415
 1601SOL    HW2 5703   0.500   5.202   4.519
 1602SOL     OW 5704   2.281   5.452   4.155
 1602SOL    HW1 5705   2.237   5.502   4.229
 1602SOL    HW2 5706   2.306   5.516   4.082
 1603SOL     OW 5707   0.414   6.032   2.263
 1603SOL    HW1 5708   0.378   5.945   2.296
 1603SOL    HW2 5709   0.339   6.094   2.242
 1604SOL     OW 5710   6.063   4.804   7.016
 1604SOL    HW1 5711   6.074   4.863   0.072
 1604SOL    HW2 5712   6.110   4.718   0.009
 1605SOL     OW 5713   6.280   6.668   2.279
 1605SOL    HW1 5714   6.281   6.586   2.336
 1605SOL    HW2 5715   6.196   6.720   2.297
 1606SOL     OW 5716   3.522   0.154   4.825
 1606SOL    HW1 5717   3.454   0.090   4.789
 1606SOL    HW2 5718   3.541   0.223   4.755
 1607SOL     OW 5719   4.576   2.643   0.783
 1607SOL    HW1 5720   4.608   2.695   0.704
 1607SOL    HW2 5721   4.477   2.653   0.791
 1608SOL     OW 5722   1.432   0.597   5.591
 1608SOL    HW1 5723   1.524   0.601   5.552
 1608SOL    HW2 5724   1.376   0.671   5.551
 1609SOL     OW 5725   4.259   0.789   0.078
 1609SOL    HW1 5726   4.327   0.812   0.147
 1609SOL    HW2 5727   4.297   0.721   0.015
 1610SOL     OW 5728   6.191   3.959   5.167
 1610SOL    HW1 5729   6.246   3.981   5.086
 1610SOL    HW2 5730   6.246   3.974   5.249
 1611SOL     OW 5731   3.645   3.475   1.447
 1611SOL    HW1 5732   3.687   3.469   1.538
 1611SOL    HW2 5733   3.627   3.571   1.425
 1612SOL     OW 5734   3.163   1.236   5.473
 1612SOL    HW1 5735   3.117   1.291   5.541
 1612SOL    HW2 5736   3.206   1.157   5.517
 1613SOL     OW 5737   1.770   5.943   1.767
 1613SOL    HW1 5738   1.672   5.950   1.749
 1613SOL    HW2 5739   1.816   5.907   1.686
 1614SOL     OW 5740   6.331   3.439   0.292
 1614SOL    HW1 5741   6.285   3.527   0.305
 1614SOL    HW2 5742   6.345   3.396   0.381
 1615SOL     OW 5743   6.160   4.659   0.782
 1615SOL    HW1 5744   6.143   4.644   0.880
 1615SOL    HW2 5745   6.191   4.574   0.740
 1616SOL     OW 5746   4.139   2.486   5.742
 1616SOL    HW1 5747   4.108   2.411   5.799
 1616SOL    HW2 5748   4.100   2.572   5.775
 1617SOL     OW 5749   6.191   7.005   1.466
 1617SOL    HW1 5750   6.186   0.036   1.383
 1617SOL    HW2 5751   6.227   6.914   1.443
 1618SOL     OW 5752   0.627   3.770   0.839
 1618SOL    HW1 5753   0.602   3.821   0.921
 1618SOL    HW2 5754   0.583   3.680   0.841
 1619SOL     OW 5755   1.279   2.002   3.848
 1619SOL    HW1 5756   1.373   2.030   3.870
 1619SOL    HW2 5757   1.216   2.076   3.872
 1620SOL     OW 5758   1.687   6.097   0.791
 1620SOL    HW1 5759   1.596   6.122   0.757
 1620SOL    HW2 5760   1.751   6.171   0.771
 1621SOL     OW 5761   0.317   1.369   0.528
 1621SOL    HW1 5762   0.275   1.399   0.614
 1621SOL    HW2 5763   0.246   1.340   0.464
 1622SOL     OW 5764   1.185   2.781   4.842
 1622SOL    HW1 5765   1.185   2.865   4.897
 1622SOL    HW2 5766   1.211   2.704   4.900
 1623SOL     OW 5767   2.629   3.121   6.016
 1623SOL    HW1 5768   2.571   3.073   5.950
 1623SOL    HW2 5769   2.581   3.128   6.103
 1624SOL     OW 5770   3.447   1.030   5.842
 1624SOL    HW1 5771   3.545   1.011   5.836
 1624SOL    HW2 5772   3.403   1.001   5.757
 1625SOL     OW 5773   1.294   5.816   2.086
 1625SOL    HW1 5774   1.251   5.744   2.031
 1625SOL    HW2 5775   1.226   5.886   2.107
 1626SOL     OW 5776   3.167   1.953   6.530
 1626SOL    HW1 5777   3.219   2.003   6.461
 1626SOL    HW2 5778   3.074   1.937   6.498
 1627SOL     OW 5779   6.433   2.349   4.154
 1627SOL    HW1 5780   6.436   2.392   4.244
 1627SOL    HW2 5781   6.355   2.287   4.149
 1628SOL     OW 5782   4.638   5.015   6.804
 1628SOL    HW1 5783   4.686   5.065   6.875
 1628SOL    HW2 5784   4.660   4.918   6.810
 1629SOL     OW 5785   3.279   1.930   4.515
 1629SOL    HW1 5786   3.205   1.864   4.521
 1629SOL    HW2 5787   3.248   2.010   4.465
 1630SOL     OW 5788   1.305   6.304   5.361
 1630SOL    HW1 5789   1.365   6.370   5.406
 1630SOL    HW2 5790   1.227   6.284   5.419
 1631SOL     OW 5791   0.260   1.198   6.225
 1631SOL    HW1 5792   0.242   1.281   6.171
 1631SOL    HW2 5793   0.207   1.201   6.309
 1632SOL     OW 5794   0.233   1.615   0.043
 1632SOL    HW1 5795   0.176   1.535   0.066
 1632SOL    HW2 5796   0.216   1.641   6.971
 1633SOL     OW 5797   4.993   2.312   3.671
 1633SOL    HW1 5798   5.043   2.340   3.589
 1633SOL    HW2 5799   5.058   2.287   3.742
 1634SOL     OW 5800   4.313   5.129   5.772
 1634SOL    HW1 5801   4.281   5.152   5.864
 1634SOL    HW2 5802   4.303   5.208   5.712
 1635SOL     OW 5803   6.229   5.311   5.398
 1635SOL    HW1 5804   6.313   5.289   5.448
 1635SOL    HW2 5805   6.245   5.296   5.300
 1636SOL     OW 5806   2.143   4.197   1.577
 1636SOL    HW1 5807   2.093   4.115   1.550
 1636SOL    HW2 5808   2.180   4.242   1.496
 1637SOL     OW 5809   6.522   0.541   3.131
 1637SOL    HW1 5810   6.602   0.480   3.137
 1637SOL    HW2 5811   6.552   0.635   3.143
 1638SOL     OW 5812   0.787   3.949   4.074
 1638SOL    HW1 5813   0.711   3.959   4.010
 1638SOL    HW2 5814   0.872   3.940   4.024
 1639SOL     OW 5815   4.890   0.057   2.774
 1639SOL    HW1 5816   4.834   0.034   2.695
 1639SOL    HW2 5817   4.860   0.144   2.813
 1640SOL     OW 5818   5.757   1.872   1.057
 1640SOL    HW1 5819   5.848   1.850   1.093
 1640SOL    HW2 5820   5.687   1.844   1.123
 1641SOL     OW 5821   5.448   3.060   3.974
 1641SOL    HW1 5822   5.469   3.152   3.941
 1641SOL    HW2 5823   5.471   2.993   3.904
 1642SOL     OW 5824   6.417   3.361   0.025
 1642SOL    HW1 5825   6.379   3.401   0.109
 1642SOL    HW2 5826   6.415   3.429   6.976
 1643SOL     OW 5827   3.070   5.609   4.115
 1643SOL    HW1 5828   3.046   5.534   4.054
 1643SOL    HW2 5829   3.066   5.695   4.065
 1644SOL     OW 5830   1.399   2.343   1.131
 1644SOL    HW1 5831   1.489   2.360   1.170
 1644SOL    HW2 5832   1.383   2.406   1.055
 1645SOL     OW 5833   3.186   6.498   4.871
 1645SOL    HW1 5834   3.100   6.529   4.913
 1645SOL    HW2 5835   3.247   6.577   4.860
 1646SOL     OW 5836   2.514   6.030   1.426
 1646SOL    HW1 5837   2.552   5.942   1.455
 1646SOL    HW2 5838   2.417   6.034   1.451
 1647SOL     OW 5839   5.338   2.199   4.238
 1647SOL    HW1 5840   5.311   2.106   4.264
 1647SOL    HW2 5841   5.316   2.262   4.313
 1648SOL     OW 5842   5.947   5.958   1.358
 1648SOL    HW1 5843   5.858   5.955   1.403
 1648SOL    HW2 5844   5.934   5.966   1.259
 1649SOL     OW 5845   3.477   0.718   3.669
 1649SOL    HW1 5846   3.405   0.779   3.704
 1649SOL    HW2 5847   3.475   0.632   3.720
 1650SOL     OW 5848   2.300   6.867   4.198
 1650SOL    HW1 5849   2.212   6.911   4.216
 1650SOL    HW2 5850   2.367   6.936   4.172
 1651SOL     OW 5851   0.887   1.125   1.217
 1651SOL    HW1 5852   0.864   1.189   1.291
 1651SOL    HW2 5853   0.814   1.126   1.149
 1652SOL     OW 5854   1.290   2.701   1.853
 1652SOL    HW1 5855   1.196   2.706   1.817
 1652SOL    HW2 5856   1.322   2.606   1.850
 1653SOL     OW 5857   0.220   6.441   1.984
 1653SOL    HW1 5858   0.166   6.490   1.915
 1653SOL    HW2 5859   0.245   6.351   1.949
 1654SOL     OW 5860   6.797   2.556   1.807
 1654SOL    HW1 5861   6.820   2.465   1.839
 1654SOL    HW2 5862   6.872   2.619   1.829
 1655SOL     OW 5863   5.444   3.737   5.684
 1655SOL    HW1 5864   5.408   3.812   5.628
 1655SOL    HW2 5865   5.532   3.708   5.647
 1656SOL     OW 5866   1.514   4.716   3.266
 1656SOL    HW1 5867   1.449   4.643   3.289
 1656SOL    HW2 5868   1.473   4.776   3.197
 1657SOL     OW 5869   0.248   1.522   4.358
 1657SOL    HW1 5870   0.230   1.584   4.282
 1657SOL    HW2 5871   0.164   1.473   4.382
 1658SOL     OW 5872   0.714   0.108   3.299
 1658SOL    HW1 5873   0.720   0.207   3.315
 1658SOL    HW2 5874   0.624   0.087   3.260
 1659SOL     OW 5875   3.826   1.756   6.001
 1659SOL    HW1 5876   3.915   1.792   6.031
 1659SOL    HW2 5877   3.829   1.737   5.903
 1660SOL     OW 5878   1.802   4.758   4.001
 1660SOL    HW1 5879   1.732   4.723   4.064
 1660SOL    HW2 5880   1.852   4.832   4.045
 1661SOL     OW 5881   3.263   1.344   1.658
 1661SOL    HW1 5882   3.272   1.427   1.713
 1661SOL    HW2 5883   3.231   1.369   1.566
 1662SOL     OW 5884   6.428   1.348   3.629
 1662SOL    HW1 5885   6.354   1.388   3.684
 1662SOL    HW2 5886   6.429   1.249   3.642
 1663SOL     OW 5887   2.847   1.467   3.244
 1663SOL    HW1 5888   2.816   1.540   3.184
 1663SOL    HW2 5889   2.771   1.403   3.261
 1664SOL     OW 5890   1.525   0.200   3.823
 1664SOL    HW1 5891   1.536   0.200   3.724
 1664SOL    HW2 5892   1.487   0.288   3.853
 1665SOL     OW 5893   6.750   1.607   2.693
 1665SOL    HW1 5894   6.815   1.680   2.714
 1665SOL    HW2 5895   6.712   1.571   2.778
 1666SOL     OW 5896   5.995   3.819   0.544
 1666SOL    HW1 5897   6.074   3.868   0.507
 1666SOL    HW2 5898   5.911   3.861   0.512
 1667SOL     OW 5899   5.461   6.682   0.919
 1667SOL    HW1 5900   5.546   6.678   0.972
 1667SOL    HW2 5901   5.477   6.646   0.827
 1668SOL     OW 5902   5.158   6.112   6.037
 1668SOL    HW1 5903   5.196   6.109   6.130
 1668SOL    HW2 5904   5.231   6.094   5.971
 1669SOL     OW 5905   6.235   6.964   0.856
 1669SOL    HW1 5906   6.290   7.005   0.929
 1669SOL    HW2 5907   6.161   0.004   0.831
 1670SOL     OW 5908   6.915   5.764   6.333
 1670SOL    HW1 5909   6.976   5.799   6.262
 1670SOL    HW2 5910   6.820   5.787   6.310
 1671SOL     OW 5911   4.471   2.393   0.913
 1671SOL    HW1 5912   4.381   2.421   0.947
 1671SOL    HW2 5913   4.512   2.468   0.861
 1672SOL     OW 5914   2.087   4.177   2.450
 1672SOL    HW1 5915   2.141   4.258   2.475
 1672SOL    HW2 5916   2.053   4.188   2.357
 1673SOL     OW 5917   0.725   2.656   4.468
 1673SOL    HW1 5918   0.772   2.697   4.389
 1673SOL    HW2 5919   0.737   2.557   4.466
 1674SOL     OW 5920   1.120   3.995   1.408
 1674SOL    HW1 5921   1.134   3.958   1.316
 1674SOL    HW2 5922   1.071   3.928   1.464
 1675SOL     OW 5923   4.086   6.932   6.239
 1675SOL    HW1 5924   4.175   6.968   6.267
 1675SOL    HW2 5925   4.099   6.854   6.177
 1676SOL     OW 5926   3.508   1.137   2.097
 1676SOL    HW1 5927   3.555   1.051   2.079
 1676SOL    HW2 5928   3.438   1.153   2.027
 1677SOL     OW 5929   4.379   2.669   5.671
 1677SOL    HW1 5930   4.337   2.652   5.760
 1677SOL    HW2 5931   4.388   2.582   5.621
 1678SOL     OW 5932   5.250   4.732   4.427
 1678SOL    HW1 5933   5.322   4.798   4.405
 1678SOL    HW2 5934   5.186   4.774   4.491
 1679SOL     OW 5935   2.064   3.440   5.036
 1679SOL    HW1 5936   2.066   3.519   5.097
 1679SOL    HW2 5937   2.097   3.467   4.946
 1680SOL     OW 5938   1.028   1.804   3.974
 1680SOL    HW1 5939   1.026   1.903   3.961
 1680SOL    HW2 5940   1.097   1.780   4.043
 1681SOL     OW 5941   6.455   5.939   1.212
 1681SOL    HW1 5942   6.363   5.975   1.197
 1681SOL    HW2 5943   6.521   5.996   1.162
 1682SOL     OW 5944   0.189   2.999   4.557
 1682SOL    HW1 5945   0.150   3.091   4.559
 1682SOL    HW2 5946   0.246   2.988   4.476
 1683SOL     OW 5947   3.776   5.703   1.205
 1683SOL    HW1 5948   3.768   5.619   1.258
 1683SOL    HW2 5949   3.870   5.737   1.210
 1684SOL     OW 5950   1.391   6.060   2.930
 1684SOL    HW1 5951   1.340   6.042   3.014
 1684SOL    HW2 5952   1.331   6.050   2.852
 1685SOL     OW 5953   2.914   1.297   6.829
 1685SOL    HW1 5954   3.009   1.295   6.798
 1685SOL    HW2 5955   2.878   1.390   6.820
 1686SOL     OW 5956   2.039   4.856   5.528
 1686SOL    HW1 5957   2.017   4.784   5.462
 1686SOL    HW2 5958   2.102   4.820   5.597
 1687SOL     OW 5959   2.124   3.195   1.411
 1687SOL    HW1 5960   2.095   3.286   1.442
 1687SOL    HW2 5961   2.088   3.179   1.319
 1688SOL     OW 5962   1.259   2.471   3.603
 1688SOL    HW1 5963   1.236   2.483   3.506
 1688SOL    HW2 5964   1.359   2.467   3.614
 1689SOL     OW 5965   3.827   0.745   1.687
 1689SOL    HW1 5966   3.789   0.723   1.597
 1689SOL    HW2 5967   3.776   0.821   1.727
 1690SOL     OW 5968   1.147   2.516   3.361
 1690SOL    HW1 5969   1.106   2.607   3.361
 1690SOL    HW2 5970   1.139   2.475   3.270
 1691SOL     OW 5971   4.908   3.640   3.187
 1691SOL    HW1 5972   4.866   3.730   3.175
 1691SOL    HW2 5973   4.900   3.613   3.283
 1692SOL     OW 5974   6.517   6.949   1.416
 1692SOL    HW1 5975   6.430   6.913   1.448
 1692SOL    HW2 5976   6.542   0.005   1.471
 1693SOL     OW 5977   1.161   2.249   2.079
 1693SOL    HW1 5978   1.204   2.289   2.160
 1693SOL    HW2 5979   1.139   2.153   2.097
 1694SOL     OW 5980   4.397   6.592   4.202
 1694SOL    HW1 5981   4.472   6.612   4.139
 1694SOL    HW2 5982   4.424   6.616   4.295
 1695SOL     OW 5983   2.621   1.417   5.372
 1695SOL    HW1 5984   2.602   1.355   5.448
 1695SOL    HW2 5985   2.557   1.400   5.298
 1696SOL     OW 5986   5.379   5.248   0.734
 1696SOL    HW1 5987   5.293   5.226   0.781
 1696SOL    HW2 5988   5.391   5.348   0.733
 1697SOL     OW 5989   6.366   6.633   2.036
 1697SOL    HW1 5990   6.333   6.706   1.977
 1697SOL    HW2 5991   6.329   6.646   2.128
 1698SOL     OW 5992   4.453   1.458   0.452
 1698SOL    HW1 5993   4.426   1.502   0.538
 1698SOL    HW2 5994   4.462   1.359   0.467
 1699SOL     OW 5995   2.870   1.148   2.468
 1699SOL    HW1 5996   2.960   1.175   2.503
 1699SOL    HW2 5997   2.871   1.050   2.448
 1700SOL     OW 5998   6.301   2.061   3.809
 1700SOL    HW1 5999   6.215   2.010   3.807
 1700SOL    HW2 6000   6.281   2.159   3.808
 1701SOL     OW 6001   4.906   3.175   5.131
 1701SOL    HW1 6002   4.813   3.141   5.143
 1701SOL    HW2 6003   4.971   3.103   5.155
 1702SOL     OW 6004   7.021   3.528   0.732
 1702SOL    HW1 6005   6.947   3.545   0.798
 1702SOL    HW2 6006   0.085   3.531   0.780
 1703SOL     OW 6007   3.531   4.144   2.980
 1703SOL    HW1 6008   3.447   4.139   3.033
 1703SOL    HW2 6009   3.517   4.204   2.901
 1704SOL     OW 6010   0.662   1.376   1.159
 1704SOL    HW1 6011   0.717   1.390   1.076
 1704SOL    HW2 6012   0.566   1.395   1.138
 1705SOL     OW 6013   3.445   2.013   2.075
 1705SOL    HW1 6014   3.361   2.011   2.129
 1705SOL    HW2 6015   3.428   2.061   1.989
 1706SOL     OW 6016   4.066   6.783   1.279
 1706SOL    HW1 6017   4.130   6.821   1.346
 1706SOL    HW2 6018   4.088   6.687   1.263
 1707SOL     OW 6019   4.379   1.343   2.675
 1707SOL    HW1 6020   4.345   1.432   2.645
 1707SOL    HW2 6021   4.351   1.273   2.609
 1708SOL     OW 6022   5.186   5.522   2.262
 1708SOL    HW1 6023   5.174   5.606   2.208
 1708SOL    HW2 6024   5.281   5.494   2.259
 1709SOL     OW 6025   2.572   5.900   1.806
 1709SOL    HW1 6026   2.651   5.921   1.748
 1709SOL    HW2 6027   2.489   5.900   1.751
 1710SOL     OW 6028   5.901   4.399   3.831
 1710SOL    HW1 6029   5.844   4.387   3.912
 1710SOL    HW2 6030   5.966   4.473   3.846
 1711SOL     OW 6031   1.584   4.643   5.170
 1711SOL    HW1 6032   1.663   4.602   5.217
 1711SOL    HW2 6033   1.573   4.738   5.200
 1712SOL     OW 6034   0.965   3.027   6.586
 1712SOL    HW1 6035   0.972   2.939   6.538
 1712SOL    HW2 6036   1.057   3.064   6.601
 1713SOL     OW 6037   3.274   1.596   1.165
 1713SOL    HW1 6038   3.278   1.496   1.175
 1713SOL    HW2 6039   3.365   1.630   1.143
 1714SOL     OW 6040   4.481   1.787   6.146
 1714SOL    HW1 6041   4.424   1.747   6.075
 1714SOL    HW2 6042   4.469   1.737   6.231
 1715SOL     OW 6043   6.489   3.892   2.602
 1715SOL    HW1 6044   6.535   3.981   2.597
 1715SOL    HW2 6045   6.444   3.873   2.515
 1716SOL     OW 6046   4.999   6.787   1.606
 1716SOL    HW1 6047   4.939   6.707   1.611
 1716SOL    HW2 6048   5.095   6.757   1.604
 1717SOL     OW 6049   2.001   6.148   6.295
 1717SOL    HW1 6050   2.026   6.078   6.363
 1717SOL    HW2 6051   1.903   6.168   6.303
 1718SOL     OW 6052   1.940   1.706   0.945
 1718SOL    HW1 6053   1.951   1.745   1.037
 1718SOL    HW2 6054   2.029   1.697   0.902
 1719SOL     OW 6055   2.434   4.171   1.319
 1719SOL    HW1 6056   2.512   4.230   1.299
 1719SOL    HW2 6057   2.426   4.100   1.250
 1720SOL     OW 6058   6.968   0.998   1.491
 1720SOL    HW1 6059   6.929   0.906   1.499
 1720SOL    HW2 6060   0.031   0.993   1.441
 1721SOL     OW 6061   1.353   6.384   2.497
 1721SOL    HW1 6062   1.427   6.406   2.433
 1721SOL    HW2 6063   1.356   6.287   2.520
 1722SOL     OW 6064   5.245   1.411   4.028
 1722SOL    HW1 6065   5.152   1.401   3.991
 1722SOL    HW2 6066   5.258   1.347   4.104
 1723SOL     OW 6067   6.809   2.590   3.273
 1723SOL    HW1 6068   6.866   2.621   3.196
 1723SOL    HW2 6069   6.852   2.511   3.317
 1724SOL     OW 6070   5.685   1.597   0.677
 1724SOL    HW1 6071   5.622   1.542   0.731
 1724SOL    HW2 6072   5.669   1.579   0.580
 1725SOL     OW 6073   2.791   4.949   0.442
 1725SOL    HW1 6074   2.783   5.047   0.427
 1725SOL    HW2 6075   2.869   4.913   0.391
 1726SOL     OW 6076   0.186   4.428   5.725
 1726SOL    HW1 6077   0.145   4.470   5.644
 1726SOL    HW2 6078   0.286   4.436   5.720
 1727SOL     OW 6079   3.470   3.169   4.375
 1727SOL    HW1 6080   3.390   3.116   4.344
 1727SOL    HW2 6081   3.499   3.136   4.465
 1728SOL     OW 6082   5.540   5.436   4.829
 1728SOL    HW1 6083   5.577   5.343   4.826
 1728SOL    HW2 6084   5.614   5.502   4.814
 1729SOL     OW 6085   2.109   3.518   3.801
 1729SOL    HW1 6086   2.110   3.544   3.898
 1729SOL    HW2 6087   2.160   3.586   3.748
 1730SOL     OW 6088   6.668   0.712   4.758
 1730SOL    HW1 6089   6.595   0.724   4.691
 1730SOL    HW2 6090   6.744   0.773   4.736
 1731SOL     OW 6091   1.050   5.435   2.113
 1731SOL    HW1 6092   1.092   5.398   2.196
 1731SOL    HW2 6093   0.962   5.477   2.136
 1732SOL     OW 6094   2.339   4.420   6.196
 1732SOL    HW1 6095   2.286   4.339   6.222
 1732SOL    HW2 6096   2.311   4.498   6.253
 1733SOL     OW 6097   1.238   3.762   2.666
 1733SOL    HW1 6098   1.163   3.825   2.689
 1733SOL    HW2 6099   1.320   3.787   2.718
 1734SOL     OW 6100   4.857   2.830   1.904
 1734SOL    HW1 6101   4.796   2.826   1.825
 1734SOL    HW2 6102   4.824   2.900   1.968
 1735SOL     OW 6103   5.599   5.613   1.078
 1735SOL    HW1 6104   5.517   5.658   1.042
 1735SOL    HW2 6105   5.576   5.565   1.162
 1736SOL     OW 6106   4.728   1.838   0.658
 1736SOL    HW1 6107   4.786   1.840   0.739
 1736SOL    HW2 6108   4.772   1.785   0.586
 1737SOL     OW 6109   2.812   0.407   4.205
 1737SOL    HW1 6110   2.911   0.404   4.211
 1737SOL    HW2 6111   2.785   0.465   4.128
 1738SOL     OW 6112   1.865   2.377   4.029
 1738SOL    HW1 6113   1.866   2.444   3.954
 1738SOL    HW2 6114   1.832   2.290   3.994
 1739SOL     OW 6115   4.694   3.009   5.179
 1739SOL    HW1 6116   4.601   3.016   5.213
 1739SOL    HW2 6117   4.696   2.950   5.098
 1740SOL     OW 6118   7.016   1.832   6.739
 1740SOL    HW1 6119   0.051   1.752   6.732
 1740SOL    HW2 6120   0.047   1.915   6.730
 1741SOL     OW 6121   2.704   1.162   2.874
 1741SOL    HW1 6122   2.631   1.165   2.806
 1741SOL    HW2 6123   2.685   1.091   2.941
 1742SOL     OW 6124   4.267   5.993   5.640
 1742SOL    HW1 6125   4.307   5.980   5.731
 1742SOL    HW2 6126   4.220   5.909   5.612
 1743SOL     OW 6127   2.028   1.261   2.030
 1743SOL    HW1 6128   2.047   1.163   2.027
 1743SOL    HW2 6129   2.100   1.310   1.982
 1744SOL     OW 6130   0.416   6.809   1.880
 1744SOL    HW1 6131   0.448   6.853   1.964
 1744SOL    HW2 6132   0.317   6.796   1.884
 1745SOL     OW 6133   6.980   0.858   4.228
 1745SOL    HW1 6134   6.976   0.823   4.134
 1745SOL    HW2 6135   7.017   0.951   4.228
 1746SOL     OW 6136   2.047   5.216   5.296
 1746SOL    HW1 6137   2.086   5.181   5.381
 1746SOL    HW2 6138   2.036   5.315   5.302
 1747SOL     OW 6139   5.014   6.951   2.313
 1747SOL    HW1 6140   4.986   6.938   2.218
 1747SOL    HW2 6141   4.977   6.876   2.369
 1748SOL     OW 6142   0.170   0.466   3.484
 1748SOL    HW1 6143   0.141   0.491   3.391
 1748SOL    HW2 6144   0.116   0.389   3.516
 1749SOL     OW 6145   2.933   6.524   5.057
 1749SOL    HW1 6146   2.909   6.447   4.998
 1749SOL    HW2 6147   2.860   6.592   5.054
 1750SOL     OW 6148   5.706   0.930   3.654
 1750SOL    HW1 6149   5.646   0.861   3.613
 1750SOL    HW2 6150   5.738   0.993   3.583
 1751SOL     OW 6151   3.422   5.415   4.701
 1751SOL    HW1 6152   3.341   5.407   4.644
 1751SOL    HW2 6153   3.432   5.332   4.757
 1752SOL     OW 6154   6.733   2.084   2.237
 1752SOL    HW1 6155   6.717   2.043   2.327
 1752SOL    HW2 6156   6.735   2.183   2.245
 1753SOL     OW 6157   0.318   1.980   1.005
 1753SOL    HW1 6158   0.337   1.886   1.035
 1753SOL    HW2 6159   0.402   2.022   0.970
 1754SOL     OW 6160   3.425   3.429   1.749
 1754SOL    HW1 6161   3.383   3.365   1.685
 1754SOL    HW2 6162   3.476   3.498   1.698
 1755SOL     OW 6163   5.713   5.039   2.030
 1755SOL    HW1 6164   5.658   5.121   2.049
 1755SOL    HW2 6165   5.661   4.957   2.054
 1756SOL     OW 6166   4.290   4.351   6.365
 1756SOL    HW1 6167   4.194   4.377   6.375
 1756SOL    HW2 6168   4.347   4.409   6.423
 1757SOL     OW 6169   2.564   6.026   4.628
 1757SOL    HW1 6170   2.491   5.991   4.569
 1757SOL    HW2 6171   2.596   6.113   4.592
 1758SOL     OW 6172   2.172   0.489   3.104
 1758SOL    HW1 6173   2.156   0.583   3.133
 1758SOL    HW2 6174   2.248   0.486   3.039
 1759SOL     OW 6175   1.027   4.994   6.176
 1759SOL    HW1 6176   1.064   4.917   6.229
 1759SOL    HW2 6177   1.058   4.986   6.081
 1760SOL     OW 6178   6.881   1.281   1.966
 1760SOL    HW1 6179   6.912   1.211   1.903
 1760SOL    HW2 6180   6.854   1.363   1.916
 1761SOL     OW 6181   0.067   0.251   0.321
 1761SOL    HW1 6182   0.023   0.167   0.353
 1761SOL    HW2 6183   0.149   0.268   0.376
 1762SOL     OW 6184   6.134   1.621   5.221
 1762SOL    HW1 6185   6.220   1.600   5.175
 1762SOL    HW2 6186   6.146   1.612   5.320
 1763SOL     OW 6187   1.785   3.695   4.916
 1763SOL    HW1 6188   1.781   3.638   4.834
 1763SOL    HW2 6189   1.786   3.792   4.890
 1764SOL     OW 6190   1.712   4.071   2.968
 1764SOL    HW1 6191   1.682   4.062   3.063
 1764SOL    HW2 6192   1.806   4.104   2.966
 1765SOL     OW 6193   3.504   2.324   7.022
 1765SOL    HW1 6194   3.510   2.412   0.044
 1765SOL    HW2 6195   3.419   2.320   6.969
 1766SOL     OW 6196   4.909   3.476   4.125
 1766SOL    HW1 6197   4.900   3.517   4.216
 1766SOL    HW2 6198   4.909   3.547   4.056
 1767SOL     OW 6199   5.869   3.794   2.746
 1767SOL    HW1 6200   5.814   3.719   2.783
 1767SOL    HW2 6201   5.952   3.758   2.705
 1768SOL     OW 6202   3.714   1.345   4.725
 1768SOL    HW1 6203   3.790   1.283   4.705
 1768SOL    HW2 6204   3.724   1.429   4.671
 1769SOL     OW 6205   4.372   2.253   4.891
 1769SOL    HW1 6206   4.403   2.293   4.805
 1769SOL    HW2 6207   4.321   2.321   4.943
 1770SOL     OW 6208   0.813   5.722   4.647
 1770SOL    HW1 6209   0.773   5.804   4.689
 1770SOL    HW2 6210   0.848   5.746   4.556
 1771SOL     OW 6211   2.709   5.223   0.466
 1771SOL    HW1 6212   2.616   5.208   0.431
 1771SOL    HW2 6213   2.704   5.277   0.551
 1772SOL     OW 6214   3.190   7.019   3.333
 1772SOL    HW1 6215   3.289   0.003   3.330
 1772SOL    HW2 6216   3.149   0.087   3.337
 1773SOL     OW 6217   2.700   4.976   5.967
 1773SOL    HW1 6218   2.740   4.905   5.908
 1773SOL    HW2 6219   2.615   5.009   5.925
 1774SOL     OW 6220   4.085   6.446   1.551
 1774SOL    HW1 6221   4.154   6.384   1.588
 1774SOL    HW2 6222   4.014   6.462   1.619
 1775SOL     OW 6223   1.147   4.818   4.392
 1775SOL    HW1 6224   1.130   4.906   4.435
 1775SOL    HW2 6225   1.231   4.822   4.339
 1776SOL     OW 6226   2.898   0.046   3.947
 1776SOL    HW1 6227   2.919   0.134   3.904
 1776SOL    HW2 6228   2.946   6.996   3.901
 1777SOL     OW 6229   2.970   5.146   5.626
 1777SOL    HW1 6230   2.943   5.224   5.570
 1777SOL    HW2 6231   3.069   5.132   5.619
 1778SOL     OW 6232   4.285   3.396   5.292
 1778SOL    HW1 6233   4.216   3.468   5.282
 1778SOL    HW2 6234   4.240   3.307   5.297
 1779SOL     OW 6235   4.195   1.030   4.671
 1779SOL    HW1 6236   4.209   1.066   4.579
 1779SOL    HW2 6237   4.226   0.934   4.674
 1780SOL     OW 6238   3.286   3.003   6.271
 1780SOL    HW1 6239   3.286   3.103   6.280
 1780SOL    HW2 6240   3.218   2.963   6.333
 1781SOL     OW 6241   4.670   5.714   3.621
 1781SOL    HW1 6242   4.647   5.654   3.698
 1781SOL    HW2 6243   4.743   5.777   3.648
 1782SOL     OW 6244   3.714   1.636   2.642
 1782SOL    HW1 6245   3.618   1.641   2.617
 1782SOL    HW2 6246   3.771   1.663   2.564
 1783SOL     OW 6247   1.549   4.752   6.414
 1783SOL    HW1 6248   1.640   4.711   6.422
 1783SOL    HW2 6249   1.512   4.769   6.505
 1784SOL     OW 6250   3.732   1.409   5.602
 1784SOL    HW1 6251   3.724   1.426   5.701
 1784SOL    HW2 6252   3.802   1.468   5.563
 1785SOL     OW 6253   6.424   4.657   3.331
 1785SOL    HW1 6254   6.335   4.613   3.316
 1785SOL    HW2 6255   6.419   4.715   3.412
 1786SOL     OW 6256   1.206   2.180   1.183
 1786SOL    HW1 6257   1.278   2.245   1.163
 1786SOL    HW2 6258   1.132   2.191   1.117
 1787SOL     OW 6259   2.586   1.071   4.982
 1787SOL    HW1 6260   2.632   0.986   5.010
 1787SOL    HW2 6261   2.489   1.052   4.967
 1788SOL     OW 6262   3.507   3.129   0.434
 1788SOL    HW1 6263   3.498   3.182   0.518
 1788SOL    HW2 6264   3.467   3.038   0.447
 1789SOL     OW 6265   6.193   2.354   3.446
 1789SOL    HW1 6266   6.114   2.381   3.501
 1789SOL    HW2 6267   6.238   2.436   3.410
 1790SOL     OW 6268   3.895   6.120   4.240
 1790SOL    HW1 6269   3.923   6.057   4.313
 1790SOL    HW2 6270   3.893   6.214   4.276
 1791SOL     OW 6271   6.694   1.008   3.641
 1791SOL    HW1 6272   6.790   1.008   3.613
 1791SOL    HW2 6273   6.689   0.992   3.739
 1792SOL     OW 6274   0.060   3.268   4.564
 1792SOL    HW1 6275   0.040   3.272   4.662
 1792SOL    HW2 6276   7.001   3.286   4.511
 1793SOL     OW 6277   6.729   6.676   3.648
 1793SOL    HW1 6278   6.795   6.750   3.657
 1793SOL    HW2 6279   6.757   6.600   3.707
 1794SOL     OW 6280   5.866   6.208   6.225
 1794SOL    HW1 6281   5.786   6.216   6.165
 1794SOL    HW2 6282   5.839   6.160   6.308
 1795SOL     OW 6283   1.135   2.558   1.236
 1795SOL    HW1 6284   1.047   2.517   1.258
 1795SOL    HW2 6285   1.199   2.488   1.203
 1796SOL     OW 6286   2.417   0.550   4.274
 1796SOL    HW1 6287   2.457   0.491   4.343
 1796SOL    HW2 6288   2.484   0.568   4.202
 1797SOL     OW 6289   1.553   0.319   6.795
 1797SOL    HW1 6290   1.498   0.248   6.752
 1797SOL    HW2 6291   1.630   0.343   6.736
 1798SOL     OW 6292   5.125   1.890   4.598
 1798SOL    HW1 6293   5.056   1.952   4.636
 1798SOL    HW2 6294   5.165   1.931   4.516
 1799SOL     OW 6295   6.439   1.501   5.862
 1799SOL    HW1 6296   6.373   1.561   5.907
 1799SOL    HW2 6297   6.510   1.557   5.819
 1800SOL     OW 6298   3.846   4.831   2.462
 1800SOL    HW1 6299   3.843   4.923   2.422
 1800SOL    HW2 6300   3.914   4.776   2.415
 1801SOL     OW 6301   0.294   0.497   2.491
 1801SOL    HW1 6302   0.341   0.583   2.510
 1801SOL    HW2 6303   0.305   0.436   2.569
 1802SOL     OW 6304   5.613   5.357   2.804
 1802SOL    HW1 6305   5.572   5.290   2.866
 1802SOL    HW2 6306   5.556   5.440   2.802
 1803SOL     OW 6307   0.645   6.303   6.646
 1803SOL    HW1 6308   0.599   6.219   6.675
 1803SOL    HW2 6309   0.577   6.377   6.637
 1804SOL     OW 6310   2.256   3.726   5.498
 1804SOL    HW1 6311   2.309   3.739   5.582
 1804SOL    HW2 6312   2.166   3.687   5.520
 1805SOL     OW 6313   6.544   4.323   5.639
 1805SOL    HW1 6314   6.574   4.233   5.672
 1805SOL    HW2 6315   6.446   4.319   5.618
 1806SOL     OW 6316   0.794   0.584   0.283
 1806SOL    HW1 6317   0.811   0.490   0.315
 1806SOL    HW2 6318   0.872   0.642   0.305
 1807SOL     OW 6319   5.026   2.645   5.283
 1807SOL    HW1 6320   5.065   2.614   5.196
 1807SOL    HW2 6321   5.040   2.744   5.292
 1808SOL     OW 6322   0.594   4.196   6.059
 1808SOL    HW1 6323   0.557   4.103   6.062
 1808SOL    HW2 6324   0.692   4.193   6.079
 1809SOL     OW 6325   2.194   2.398   4.504
 1809SOL    HW1 6326   2.271   2.450   4.540
 1809SOL    HW2 6327   2.223   2.347   4.423
 1810SOL     OW 6328   2.755   0.056   3.634
 1810SOL    HW1 6329   2.726   0.151   3.645
 1810SOL    HW2 6330   2.804   0.046   3.547
 1811SOL     OW 6331   5.423   4.889   3.602
 1811SOL    HW1 6332   5.364   4.966   3.577
 1811SOL    HW2 6333   5.512   4.924   3.632
 1812SOL     OW 6334   4.343   6.008   4.889
 1812SOL    HW1 6335   4.251   6.048   4.892
 1812SOL    HW2 6336   4.362   5.961   4.975
 1813SOL     OW 6337   6.510   5.337   0.943
 1813SOL    HW1 6338   6.596   5.296   0.975
 1813SOL    HW2 6339   6.510   5.341   0.843
 1814SOL     OW 6340   6.111   1.584   0.519
 1814SOL    HW1 6341   6.073   1.496   0.548
 1814SOL    HW2 6342   6.210   1.576   0.510
 1815SOL     OW 6343   6.297   2.110   2.062
 1815SOL    HW1 6344   6.281   2.131   2.158
 1815SOL    HW2 6345   6.288   2.194   2.008
 1816SOL     OW 6346   2.642   3.745   1.296
 1816SOL    HW1 6347   2.653   3.693   1.211
 1816SOL    HW2 6348   2.716   3.811   1.305
 1817SOL     OW 6349   3.823   0.185   2.603
 1817SOL    HW1 6350   3.806   0.234   2.517
 1817SOL    HW2 6351   3.849   0.251   2.674
 1818SOL     OW 6352   2.034   6.156   2.748
 1818SOL    HW1 6353   2.047   6.210   2.830
 1818SOL    HW2 6354   2.078   6.067   2.758
 1819SOL     OW 6355   0.868   5.095   1.416
 1819SOL    HW1 6356   0.859   4.998   1.393
 1819SOL    HW2 6357   0.787   5.144   1.385
 1820SOL     OW 6358   4.829   0.908   1.961
 1820SOL    HW1 6359   4.858   0.955   1.878
 1820SOL    HW2 6360   4.806   0.813   1.940
 1821SOL     OW 6361   0.789   0.880   1.941
 1821SOL    HW1 6362   0.889   0.881   1.943
 1821SOL    HW2 6363   0.757   0.923   1.856
 1822SOL     OW 6364   2.522   2.974   1.377
 1822SOL    HW1 6365   2.468   2.890   1.379
 1822SOL    HW2 6366   2.549   2.998   1.470
 1823SOL     OW 6367   3.088   5.920   2.989
 1823SOL    HW1 6368   3.101   5.829   3.027
 1823SOL    HW2 6369   2.996   5.927   2.951
 1824SOL     OW 6370   3.185   2.605   1.741
 1824SOL    HW1 6371   3.130   2.563   1.813
 1824SOL    HW2 6372   3.277   2.567   1.743
 1825SOL     OW 6373   1.482   1.532   3.226
 1825SOL    HW1 6374   1.477   1.463   3.154
 1825SOL    HW2 6375   1.577   1.558   3.241
 1826SOL     OW 6376   3.118   6.889   1.027
 1826SOL    HW1 6377   3.021   6.869   1.035
 1826SOL    HW2 6378   3.169   6.839   1.098
 1827SOL     OW 6379   6.887   5.695   2.274
 1827SOL    HW1 6380   6.792   5.679   2.248
 1827SOL    HW2 6381   6.942   5.708   2.191
 1828SOL     OW 6382   1.072   2.078   0.551
 1828SOL    HW1 6383   1.108   2.170   0.564
 1828SOL    HW2 6384   0.973   2.083   0.533
 1829SOL     OW 6385   4.017   0.291   3.451
 1829SOL    HW1 6386   4.116   0.297   3.434
 1829SOL    HW2 6387   4.000   0.231   3.529
 1830SOL     OW 6388   6.075   5.756   3.908
 1830SOL    HW1 6389   6.083   5.742   3.810
 1830SOL    HW2 6390   6.149   5.815   3.940
 1831SOL     OW 6391   5.970   0.077   2.063
 1831SOL    HW1 6392   5.918   0.111   1.985
 1831SOL    HW2 6393   5.999   0.154   2.120
 1832SOL     OW 6394   5.210   1.161   1.149
 1832SOL    HW1 6395   5.252   1.081   1.190
 1832SOL    HW2 6396   5.117   1.139   1.121
 1833SOL     OW 6397   5.368   0.532   5.519
 1833SOL    HW1 6398   5.327   0.443   5.500
 1833SOL    HW2 6399   5.465   0.530   5.498
 1834SOL     OW 6400   2.625   4.110   0.435
 1834SOL    HW1 6401   2.722   4.099   0.412
 1834SOL    HW2 6402   2.616   4.144   0.528
 1835SOL     OW 6403   1.300   4.225   1.336
 1835SOL    HW1 6404   1.288   4.196   1.241
 1835SOL    HW2 6405   1.268   4.153   1.398
 1836SOL     OW 6406   5.074   1.597   1.185
 1836SOL    HW1 6407   5.100   1.568   1.093
 1836SOL    HW2 6408   5.055   1.695   1.185
 1837SOL     OW 6409   1.064   2.363   4.559
 1837SOL    HW1 6410   1.131   2.355   4.485
 1837SOL    HW2 6411   1.043   2.459   4.575
 1838SOL     OW 6412   0.137   1.923   4.248
 1838SOL    HW1 6413   0.151   1.837   4.199
 1838SOL    HW2 6414   0.042   1.952   4.239
 1839SOL     OW 6415   5.033   2.800   4.955
 1839SOL    HW1 6416   5.122   2.798   5.000
 1839SOL    HW2 6417   5.045   2.808   4.856
 1840SOL     OW 6418   3.592   5.804   1.414
 1840SOL    HW1 6419   3.501   5.840   1.394
 1840SOL    HW2 6420   3.644   5.796   1.329
 1841SOL     OW 6421   2.424   1.986   4.074
 1841SOL    HW1 6422   2.462   1.897   4.049
 1841SOL    HW2 6423   2.336   1.998   4.028
 1842SOL     OW 6424   0.781   5.193   0.511
 1842SOL    HW1 6425   0.831   5.250   0.446
 1842SOL    HW2 6426   0.846   5.146   0.571
 1843SOL     OW 6427   0.219   2.194   4.294
 1843SOL    HW1 6428   0.181   2.221   4.382
 1843SOL    HW2 6429   0.214   2.094   4.285
 1844SOL     OW 6430   3.645   0.473   5.710
 1844SOL    HW1 6431   3.698   0.521   5.780
 1844SOL    HW2 6432   3.637   0.376   5.736
 1845SOL     OW 6433   1.924   6.748   4.800
 1845SOL    HW1 6434   1.909   6.840   4.766
 1845SOL    HW2 6435   1.901   6.743   4.897
 1846SOL     OW 6436   4.364   2.577   0.353
 1846SOL    HW1 6437   4.444   2.632   0.376
 1846SOL    HW2 6438   4.353   2.574   0.253
 1847SOL     OW 6439   1.017   0.494   6.024
 1847SOL    HW1 6440   0.954   0.509   6.100
 1847SOL    HW2 6441   1.095   0.439   6.055
 1848SOL     OW 6442   0.803   6.694   2.561
 1848SOL    HW1 6443   0.862   6.757   2.510
 1848SOL    HW2 6444   0.845   6.673   2.649
 1849SOL     OW 6445   3.560   1.900   0.916
 1849SOL    HW1 6446   3.658   1.895   0.935
 1849SOL    HW2 6447   3.545   1.895   0.817
 1850SOL     OW 6448   0.230   3.179   2.433
 1850SOL    HW1 6449   0.236   3.195   2.532
 1850SOL    HW2 6450   0.322   3.163   2.397
 1851SOL     OW 6451   0.611   2.150   1.448
 1851SOL    HW1 6452   0.692   2.095   1.467
 1851SOL    HW2 6453   0.528   2.100   1.473
 1852SOL     OW 6454   5.702   3.806   1.823
 1852SOL    HW1 6455   5.680   3.779   1.729
 1852SOL    HW2 6456   5.651   3.889   1.846
 1853SOL     OW 6457   0.061   3.225   3.058
 1853SOL    HW1 6458   0.037   3.154   2.992
 1853SOL    HW2 6459   0.047   3.191   3.151
 1854SOL     OW 6460   2.323   6.173   3.294
 1854SOL    HW1 6461   2.251   6.243   3.302
 1854SOL    HW2 6462   2.374   6.169   3.380
 1855SOL     OW 6463   4.853   4.061   6.679
 1855SOL    HW1 6464   4.863   4.120   6.759
 1855SOL    HW2 6465   4.787   3.989   6.698
 1856SOL     OW 6466   6.788   3.812   5.222
 1856SOL    HW1 6467   6.823   3.848   5.135
 1856SOL    HW2 6468   6.688   3.822   5.223
 1857SOL     OW 6469   3.883   0.998   6.044
 1857SOL    HW1 6470   3.900   1.021   6.140
 1857SOL    HW2 6471   3.874   0.899   6.035
 1858SOL     OW 6472   6.011   2.961   3.538
 1858SOL    HW1 6473   5.947   3.028   3.574
 1858SOL    HW2 6474   6.075   2.933   3.609
 1859SOL     OW 6475   4.221   1.450   3.593
 1859SOL    HW1 6476   4.151   1.389   3.631
 1859SOL    HW2 6477   4.223   1.439   3.493
 1860SOL     OW 6478   6.636   0.686   4.000
 1860SOL    HW1 6479   6.622   0.771   4.050
 1860SOL    HW2 6480   6.730   0.655   4.012
 1861SOL     OW 6481   5.509   0.028   2.449
 1861SOL    HW1 6482   5.431   7.008   2.404
 1861SOL    HW2 6483   5.506   0.127   2.433
 1862SOL     OW 6484   2.743   0.634   6.366
 1862SOL    HW1 6485   2.699   0.592   6.287
 1862SOL    HW2 6486   2.707   0.727   6.380
 1863SOL     OW 6487   2.077   1.398   0.729
 1863SOL    HW1 6488   2.116   1.460   0.797
 1863SOL    HW2 6489   2.151   1.358   0.675
 1864SOL     OW 6490   0.792   6.677   5.964
 1864SOL    HW1 6491   0.819   6.596   6.015
 1864SOL    HW2 6492   0.765   6.749   6.027
 1865SOL     OW 6493   3.661   0.297   6.052
 1865SOL    HW1 6494   3.574   0.335   6.020
 1865SOL    HW2 6495   3.718   0.371   6.088
 1866SOL     OW 6496   4.151   4.749   3.322
 1866SOL    HW1 6497   4.114   4.670   3.273
 1866SOL    HW2 6498   4.092   4.771   3.400
 1867SOL     OW 6499   0.418   3.854   0.121
 1867SOL    HW1 6500   0.404   3.927   0.053
 1867SOL    HW2 6501   0.426   3.766   0.074
 1868SOL     OW 6502   4.924   4.263   0.124
 1868SOL    HW1 6503   4.900   4.200   0.197
 1868SOL    HW2 6504   4.924   4.215   0.037
 1869SOL     OW 6505   5.804   2.810   5.442
 1869SOL    HW1 6506   5.768   2.720   5.466
 1869SOL    HW2 6507   5.841   2.854   5.524
 1870SOL     OW 6508   2.066   2.939   5.664
 1870SOL    HW1 6509   2.117   2.862   5.624
 1870SOL    HW2 6510   2.056   2.925   5.762
 1871SOL     OW 6511   0.390   1.104   6.723
 1871SOL    HW1 6512   0.311   1.078   6.779
 1871SOL    HW2 6513   0.460   1.146   6.780
 1872SOL     OW 6514   3.311   2.598   0.156
 1872SOL    HW1 6515   3.356   2.668   0.102
 1872SOL    HW2 6516   3.214   2.594   0.130
 1873SOL     OW 6517   4.903   1.730   6.069
 1873SOL    HW1 6518   4.937   1.736   5.976
 1873SOL    HW2 6519   4.979   1.739   6.133
 1874SOL     OW 6520   3.333   1.021   1.174
 1874SOL    HW1 6521   3.335   1.029   1.074
 1874SOL    HW2 6522   3.252   1.067   1.210
 1875SOL     OW 6523   0.175   1.252   0.326
 1875SOL    HW1 6524   0.240   1.279   0.254
 1875SOL    HW2 6525   0.094   1.212   0.283
 1876SOL     OW 6526   4.067   6.912   5.913
 1876SOL    HW1 6527   4.022   6.851   5.978
 1876SOL    HW2 6528   4.131   6.971   5.962
 1877SOL     OW 6529   0.587   0.036   2.683
 1877SOL    HW1 6530   0.575   6.986   2.616
 1877SOL    HW2 6531   0.567   0.001   2.774
 1878SOL     OW 6532   6.884   2.017   3.703
 1878SOL    HW1 6533   6.823   2.071   3.645
 1878SOL    HW2 6534   6.831   1.972   3.775
 1879SOL     OW 6535   1.440   4.560   4.201
 1879SOL    HW1 6536   1.536   4.583   4.215
 1879SOL    HW2 6537   1.400   4.529   4.287
 1880SOL     OW 6538   6.874   2.195   4.705
 1880SOL    HW1 6539   6.895   2.283   4.663
 1880SOL    HW2 6540   6.892   2.200   4.803
 1881SOL     OW 6541   5.936   1.707   3.186
 1881SOL    HW1 6542   6.010   1.698   3.119
 1881SOL    HW2 6543   5.969   1.681   3.276
 1882SOL     OW 6544   1.257   3.762   6.333
 1882SOL    HW1 6545   1.275   3.852   6.371
 1882SOL    HW2 6546   1.254   3.768   6.233
 1883SOL     OW 6547   0.096   1.992   3.327
 1883SOL    HW1 6548   0.115   2.001   3.424
 1883SOL    HW2 6549   0.123   1.901   3.295
 1884SOL     OW 6550   0.151   2.474   0.875
 1884SOL    HW1 6551   0.080   2.544   0.880
 1884SOL    HW2 6552   0.216   2.488   0.949
 1885SOL     OW 6553   2.003   2.055   6.226
 1885SOL    HW1 6554   2.041   1.998   6.298
 1885SOL    HW2 6555   1.993   2.149   6.260
 1886SOL     OW 6556   1.592   0.740   1.485
 1886SOL    HW1 6557   1.576   0.642   1.491
 1886SOL    HW2 6558   1.673   0.757   1.430
 1887SOL     OW 6559   1.180   5.969   4.923
 1887SOL    HW1 6560   1.210   6.013   5.008
 1887SOL    HW2 6561   1.085   5.993   4.904
 1888SOL     OW 6562   3.087   2.131   0.167
 1888SOL    HW1 6563   3.167   2.191   0.162
 1888SOL    HW2 6564   3.108   2.053   0.226
 1889SOL     OW 6565   0.120   3.037   5.772
 1889SOL    HW1 6566   0.161   3.121   5.735
 1889SOL    HW2 6567   0.022   3.037   5.752
 1890SOL     OW 6568   1.701   5.937   4.255
 1890SOL    HW1 6569   1.757   6.004   4.305
 1890SOL    HW2 6570   1.672   5.977   4.168
 1891SOL     OW 6571   5.440   2.683   1.957
 1891SOL    HW1 6572   5.433   2.733   2.044
 1891SOL    HW2 6573   5.487   2.596   1.972
 1892SOL     OW 6574   2.144   0.682   2.470
 1892SOL    HW1 6575   2.161   0.604   2.530
 1892SOL    HW2 6576   2.143   0.766   2.525
 1893SOL     OW 6577   3.203   3.703   1.257
 1893SOL    HW1 6578   3.106   3.681   1.263
 1893SOL    HW2 6579   3.252   3.662   1.334
 1894SOL     OW 6580   3.455   4.053   3.672
 1894SOL    HW1 6581   3.546   4.083   3.701
 1894SOL    HW2 6582   3.386   4.093   3.732
 1895SOL     OW 6583   4.409   0.509   1.706
 1895SOL    HW1 6584   4.447   0.444   1.639
 1895SOL    HW2 6585   4.478   0.579   1.727
 1896SOL     OW 6586   5.181   1.227   1.444
 1896SOL    HW1 6587   5.281   1.238   1.440
 1896SOL    HW2 6588   5.144   1.286   1.516
 1897SOL     OW 6589   2.148   5.554   1.401
 1897SOL    HW1 6590   2.133   5.522   1.494
 1897SOL    HW2 6591   2.074   5.616   1.374
 1898SOL     OW 6592   2.235   5.392   3.789
 1898SOL    HW1 6593   2.137   5.377   3.775
 1898SOL    HW2 6594   2.274   5.312   3.835
 1899SOL     OW 6595   0.332   1.666   1.633
 1899SOL    HW1 6596   0.350   1.663   1.731
 1899SOL    HW2 6597   0.250   1.720   1.616
 1900SOL     OW 6598   2.121   0.347   7.018
 1900SOL    HW1 6599   2.117   0.423   6.952
 1900SOL    HW2 6600   2.171   0.271   6.977
 1901SOL     OW 6601   1.865   1.852   0.701
 1901SOL    HW1 6602   1.885   1.948   0.720
 1901SOL    HW2 6603   1.890   1.796   0.780
 1902SOL     OW 6604   1.935   0.924   5.443
 1902SOL    HW1 6605   1.984   0.849   5.400
 1902SOL    HW2 6606   1.994   1.004   5.448
 1903SOL     OW 6607   0.318   3.804   2.820
 1903SOL    HW1 6608   0.410   3.841   2.804
 1903SOL    HW2 6609   0.265   3.811   2.736
 1904SOL     OW 6610   5.760   5.352   3.748
 1904SOL    HW1 6611   5.743   5.428   3.686
 1904SOL    HW2 6612   5.801   5.385   3.833
 1905SOL     OW 6613   0.971   0.143   3.460
 1905SOL    HW1 6614   1.044   0.128   3.393
 1905SOL    HW2 6615   0.885   0.106   3.424
 1906SOL     OW 6616   1.867   0.200   4.480
 1906SOL    HW1 6617   1.794   0.251   4.525
 1906SOL    HW2 6618   1.832   0.158   4.397
 1907SOL     OW 6619   3.776   1.474   2.057
 1907SOL    HW1 6620   3.791   1.564   2.016
 1907SOL    HW2 6621   3.680   1.465   2.084
 1908SOL     OW 6622   3.496   6.575   5.789
 1908SOL    HW1 6623   3.546   6.578   5.875
 1908SOL    HW2 6624   3.541   6.512   5.726
 1909SOL     OW 6625   0.978   3.541   3.301
 1909SOL    HW1 6626   1.042   3.538   3.224
 1909SOL    HW2 6627   1.025   3.515   3.385
 1910SOL     OW 6628   0.142   5.511   6.276
 1910SOL    HW1 6629   0.163   5.583   6.342
 1910SOL    HW2 6630   0.206   5.516   6.199
 1911SOL     OW 6631   0.186   3.696   4.947
 1911SOL    HW1 6632   0.195   3.622   5.014
 1911SOL    HW2 6633   0.133   3.771   4.987
 1912SOL     OW 6634   3.125   5.765   1.007
 1912SOL    HW1 6635   3.139   5.832   0.934
 1912SOL    HW2 6636   3.064   5.804   1.076
 1913SOL     OW 6637   2.205   0.305   4.669
 1913SOL    HW1 6638   2.193   0.293   4.571
 1913SOL    HW2 6639   2.297   0.340   4.687
 1914SOL     OW 6640   4.039   3.311   6.492
 1914SOL    HW1 6641   3.959   3.369   6.479
 1914SOL    HW2 6642   4.106   3.330   6.420
 1915SOL     OW 6643   3.553   2.722   5.790
 1915SOL    HW1 6644   3.525   2.787   5.720
 1915SOL    HW2 6645   3.580   2.771   5.873
 1916SOL     OW 6646   4.054   5.698   1.505
 1916SOL    HW1 6647   3.954   5.703   1.503
 1916SOL    HW2 6648   4.091   5.722   1.415
 1917SOL     OW 6649   2.390   3.100   0.140
 1917SOL    HW1 6650   2.455   3.029   0.164
 1917SOL    HW2 6651   2.415   3.185   0.186
 1918SOL     OW 6652   1.484   1.620   4.709
 1918SOL    HW1 6653   1.494   1.567   4.793
 1918SOL    HW2 6654   1.574   1.639   4.670
 1919SOL     OW 6655   1.381   1.435   1.897
 1919SOL    HW1 6656   1.323   1.506   1.936
 1919SOL    HW2 6657   1.477   1.460   1.906
 1920SOL     OW 6658   0.223   4.107   2.894
 1920SOL    HW1 6659   0.172   4.028   2.926
 1920SOL    HW2 6660   0.224   4.108   2.794
 1921SOL     OW 6661   1.858   3.610   6.988
 1921SOL    HW1 6662   1.802   3.579   0.041
 1921SOL    HW2 6663   1.935   3.664   7.023
 1922SOL     OW 6664   2.989   3.592   1.537
 1922SOL    HW1 6665   2.945   3.671   1.579
 1922SOL    HW2 6666   3.033   3.536   1.608
 1923SOL     OW 6667   4.149   1.824   6.322
 1923SOL    HW1 6668   4.113   1.737   6.290
 1923SOL    HW2 6669   4.077   1.875   6.370
 1924SOL     OW 6670   4.514   6.475   0.287
 1924SOL    HW1 6671   4.549   6.429   0.206
 1924SOL    HW2 6672   4.561   6.562   0.299
 1925SOL     OW 6673   1.219   4.792   0.682
 1925SOL    HW1 6674   1.298   4.757   0.630
 1925SOL    HW2 6675   1.143   4.808   0.620
 1926SOL     OW 6676   3.141   6.580   2.957
 1926SOL    HW1 6677   3.066   6.647   2.952
 1926SOL    HW2 6678   3.138   6.521   2.876
 1927SOL     OW 6679   2.530   4.887   0.274
 1927SOL    HW1 6680   2.520   4.802   0.222
 1927SOL    HW2 6681   2.589   4.870   0.354
 1928SOL     OW 6682   6.365   4.240   4.804
 1928SOL    HW1 6683   6.459   4.225   4.774
 1928SOL    HW2 6684   6.302   4.196   4.741
 1929SOL     OW 6685   2.584   0.332   1.532
 1929SOL    HW1 6686   2.537   0.406   1.483
 1929SOL    HW2 6687   2.580   0.249   1.477
 1930SOL     OW 6688   5.658   3.735   6.630
 1930SOL    HW1 6689   5.598   3.737   6.550
 1930SOL    HW2 6690   5.617   3.788   6.704
 1931SOL     OW 6691   0.581   2.370   0.420
 1931SOL    HW1 6692   0.512   2.298   0.412
 1931SOL    HW2 6693   0.655   2.353   0.356
 1932SOL     OW 6694   4.709   2.849   3.524
 1932SOL    HW1 6695   4.784   2.878   3.583
 1932SOL    HW2 6696   4.675   2.760   3.554
 1933SOL     OW 6697   1.105   3.105   0.764
 1933SOL    HW1 6698   1.040   3.110   0.840
 1933SOL    HW2 6699   1.126   3.198   0.732
 1934SOL     OW 6700   0.102   1.457   4.815
 1934SOL    HW1 6701   0.122   1.515   4.894
 1934SOL    HW2 6702   0.085   1.515   4.735
 1935SOL     OW 6703   4.774   5.038   3.628
 1935SOL    HW1 6704   4.807   5.054   3.535
 1935SOL    HW2 6705   4.819   4.957   3.665
 1936SOL     OW 6706   4.813   3.973   3.942
 1936SOL    HW1 6707   4.880   3.957   3.869
 1936SOL    HW2 6708   4.733   4.019   3.904
 1937SOL     OW 6709   4.099   6.105   0.146
 1937SOL    HW1 6710   4.040   6.182   0.119
 1937SOL    HW2 6711   4.139   6.123   0.236
 1938SOL     OW 6712   1.837   2.014   1.072
 1938SOL    HW1 6713   1.740   2.025   1.091
 1938SOL    HW2 6714   1.855   2.039   0.977
 1939SOL     OW 6715   6.621   6.690   4.893
 1939SOL    HW1 6716   6.532   6.676   4.850
 1939SOL    HW2 6717   6.676   6.752   4.837
 1940SOL     OW 6718   6.068   4.358   1.354
 1940SOL    HW1 6719   6.079   4.453   1.381
 1940SOL    HW2 6720   6.133   4.336   1.282
 1941SOL     OW 6721   1.712   2.629   4.056
 1941SOL    HW1 6722   1.742   2.656   4.148
 1941SOL    HW2 6723   1.753   2.690   3.988
 1942SOL     OW 6724   5.256   3.332   2.845
 1942SOL    HW1 6725   5.334   3.383   2.810
 1942SOL    HW2 6726   5.250   3.244   2.798
 1943SOL     OW 6727   1.350   0.604   2.872
 1943SOL    HW1 6728   1.317   0.532   2.933
 1943SOL    HW2 6729   1.284   0.680   2.872
 1944SOL     OW 6730   5.945   4.124   0.324
 1944SOL    HW1 6731   5.877   4.131   0.251
 1944SOL    HW2 6732   5.934   4.202   0.386
 1945SOL     OW 6733   3.975   5.767   6.859
 1945SOL    HW1 6734   3.987   5.812   6.947
 1945SOL    HW2 6735   3.942   5.673   6.874
 1946SOL     OW 6736   5.901   0.350   1.157
 1946SOL    HW1 6737   5.906   0.450   1.159
 1946SOL    HW2 6738   5.969   0.315   1.092
 1947SOL     OW 6739   5.580   5.936   3.965
 1947SOL    HW1 6740   5.653   5.885   3.918
 1947SOL    HW2 6741   5.610   6.030   3.982
 1948SOL     OW 6742   6.235   5.124   2.759
 1948SOL    HW1 6743   6.305   5.171   2.705
 1948SOL    HW2 6744   6.155   5.106   2.702
 1949SOL     OW 6745   4.054   3.201   0.109
 1949SOL    HW1 6746   4.118   3.209   0.033
 1949SOL    HW2 6747   3.961   3.192   0.073
 1950SOL     OW 6748   3.981   3.120   2.920
 1950SOL    HW1 6749   3.933   3.206   2.934
 1950SOL    HW2 6750   3.996   3.106   2.822
 1951SOL     OW 6751   0.146   4.699   6.202
 1951SOL    HW1 6752   0.138   4.680   6.300
 1951SOL    HW2 6753   0.223   4.648   6.164
 1952SOL     OW 6754   5.271   4.781   0.950
 1952SOL    HW1 6755   5.337   4.837   0.901
 1952SOL    HW2 6756   5.291   4.784   1.048
 1953SOL     OW 6757   6.908   1.747   6.024
 1953SOL    HW1 6758   6.863   1.668   6.066
 1953SOL    HW2 6759   6.993   1.767   6.073
 1954SOL     OW 6760   6.151   0.424   1.436
 1954SOL    HW1 6761   6.136   0.374   1.522
 1954SOL    HW2 6762   6.071   0.479   1.415
 1955SOL     OW 6763   0.130   1.057   2.326
 1955SOL    HW1 6764   0.084   1.042   2.239
 1955SOL    HW2 6765   0.227   1.037   2.316
 1956SOL     OW 6766   4.414   0.059   1.961
 1956SOL    HW1 6767   4.428   0.052   2.060
 1956SOL    HW2 6768   4.478   0.126   1.922
 1957SOL     OW 6769   5.149   4.834   4.122
 1957SOL    HW1 6770   5.066   4.820   4.176
 1957SOL    HW2 6771   5.210   4.899   4.168
 1958SOL     OW 6772   4.581   1.256   1.891
 1958SOL    HW1 6773   4.509   1.242   1.958
 1958SOL    HW2 6774   4.597   1.170   1.841
 1959SOL     OW 6775   0.328   6.887   4.089
 1959SOL    HW1 6776   0.330   6.827   4.169
 1959SOL    HW2 6777   0.287   6.975   4.114
 1960SOL     OW 6778   6.983   3.884   2.260
 1960SOL    HW1 6779   6.887   3.894   2.285
 1960SOL    HW2 6780   0.009   3.838   2.334
 1961SOL     OW 6781   5.940   4.223   4.690
 1961SOL    HW1 6782   5.943   4.311   4.643
 1961SOL    HW2 6783   6.030   4.181   4.688
 1962SOL     OW 6784   1.588   6.419   2.691
 1962SOL    HW1 6785   1.605   6.328   2.728
 1962SOL    HW2 6786   1.492   6.443   2.704
 1963SOL     OW 6787   1.328   1.900   1.455
 1963SOL    HW1 6788   1.375   1.984   1.429
 1963SOL    HW2 6789   1.364   1.867   1.542
 1964SOL     OW 6790   4.151   5.043   1.931
 1964SOL    HW1 6791   4.124   5.041   1.835
 1964SOL    HW2 6792   4.240   4.999   1.941
 1965SOL     OW 6793   1.879   2.459   4.532
 1965SOL    HW1 6794   1.868   2.475   4.434
 1965SOL    HW2 6795   1.976   2.441   4.552
 1966SOL     OW 6796   1.522   5.630   1.208
 1966SOL    HW1 6797   1.483   5.540   1.227
 1966SOL    HW2 6798   1.572   5.627   1.121
 1967SOL     OW 6799   6.417   2.736   4.185
 1967SOL    HW1 6800   6.498   2.729   4.126
 1967SOL    HW2 6801   6.370   2.822   4.168
 1968SOL     OW 6802   2.528   0.681   5.477
 1968SOL    HW1 6803   2.450   0.642   5.428
 1968SOL    HW2 6804   2.514   0.780   5.488
 1969SOL     OW 6805   3.268   0.560   1.282
 1969SOL    HW1 6806   3.220   0.496   1.222
 1969SOL    HW2 6807   3.363   0.530   1.292
 1970SOL     OW 6808   0.166   0.502   5.245
 1970SOL    HW1 6809   0.219   0.448   5.180
 1970SOL    HW2 6810   0.184   0.470   5.338
 1971SOL     OW 6811   0.441   1.092   5.783
 1971SOL    HW1 6812   0.541   1.088   5.794
 1971SOL    HW2 6813   0.415   1.047   5.698
 1972SOL     OW 6814   5.517   2.624   1.356
 1972SOL    HW1 6815   5.541   2.550   1.293
 1972SOL    HW2 6816   5.421   2.648   1.343
 1973SOL     OW 6817   2.819   4.054   1.720
 1973SOL    HW1 6818   2.843   3.958   1.730
 1973SOL    HW2 6819   2.732   4.062   1.671
 1974SOL     OW 6820   4.680   6.579   4.718
 1974SOL    HW1 6821   4.704   6.524   4.798
 1974SOL    HW2 6822   4.642   6.519   4.647
 1975SOL     OW 6823   2.180   1.997   3.892
 1975SOL    HW1 6824   2.121   2.045   3.827
 1975SOL    HW2 6825   2.130   1.979   3.977
 1976SOL     OW 6826   5.433   5.666   0.378
 1976SOL    HW1 6827   5.457   5.728   0.303
 1976SOL    HW2 6828   5.335   5.649   0.378
 1977SOL     OW 6829   1.878   3.428   5.269
 1977SOL    HW1 6830   1.789   3.429   5.223
 1977SOL    HW2 6831   1.951   3.424   5.201
 1978SOL     OW 6832   1.840   5.817   2.997
 1978SOL    HW1 6833   1.885   5.739   2.954
 1978SOL    HW2 6834   1.852   5.812   3.097
 1979SOL     OW 6835   5.255   5.242   0.017
 1979SOL    HW1 6836   5.184   5.268   0.082
 1979SOL    HW2 6837   5.305   5.324   7.013
 1980SOL     OW 6838   4.098   0.704   2.895
 1980SOL    HW1 6839   4.001   0.701   2.917
 1980SOL    HW2 6840   4.149   0.736   2.975
 1981SOL     OW 6841   5.536   2.866   2.413
 1981SOL    HW1 6842   5.507   2.877   2.508
 1981SOL    HW2 6843   5.577   2.951   2.380
 1982SOL     OW 6844   6.501   3.530   3.835
 1982SOL    HW1 6845   6.416   3.526   3.888
 1982SOL    HW2 6846   6.579   3.518   3.896
 1983SOL     OW 6847   1.096   0.518   1.371
 1983SOL    HW1 6848   1.182   0.492   1.414
 1983SOL    HW2 6849   1.111   0.530   1.273
 1984SOL     OW 6850   4.543   2.544   5.331
 1984SOL    HW1 6851   4.594   2.517   5.413
 1984SOL    HW2 6852   4.607   2.582   5.264
 1985SOL     OW 6853   7.011   5.776   2.017
 1985SOL    HW1 6854   7.020   5.862   2.067
 1985SOL    HW2 6855   0.018   5.789   1.923
 1986SOL     OW 6856   3.133   0.840   6.123
 1986SOL    HW1 6857   3.194   0.767   6.152
 1986SOL    HW2 6858   3.071   0.864   6.198
 1987SOL     OW 6859   2.196   1.752   3.740
 1987SOL    HW1 6860   2.231   1.685   3.805
 1987SOL    HW2 6861   2.170   1.836   3.788
 1988SOL     OW 6862   0.638   1.801   1.089
 1988SOL    HW1 6863   0.672   1.743   1.163
 1988SOL    HW2 6864   0.544   1.776   1.067
 1989SOL     OW 6865   2.055   5.950   4.241
 1989SOL    HW1 6866   2.018   6.043   4.252
 1989SOL    HW2 6867   1.979   5.884   4.244
 1990SOL     OW 6868   3.790   6.361   0.318
 1990SOL    HW1 6869   3.813   6.391   0.226
 1990SOL    HW2 6870   3.694   6.336   0.322
 1991SOL     OW 6871   2.108   5.673   0.208
 1991SOL    HW1 6872   2.030   5.693   0.150
 1991SOL    HW2 6873   2.096   5.717   0.297
 1992SOL     OW 6874   7.022   0.592   0.431
 1992SOL    HW1 6875   0.087   0.636   0.418
 1992SOL    HW2 6876   6.961   0.615   0.355
 1993SOL     OW 6877   3.342   1.859   4.972
 1993SOL    HW1 6878   3.351   1.954   5.002
 1993SOL    HW2 6879   3.283   1.855   4.891
 1994SOL     OW 6880   5.037   2.126   1.286
 1994SOL    HW1 6881   5.118   2.082   1.248
 1994SOL    HW2 6882   4.964   2.059   1.297
 1995SOL     OW 6883   5.565   2.866   3.788
 1995SOL    HW1 6884   5.543   2.838   3.694
 1995SOL    HW2 6885   5.656   2.831   3.812
 1996SOL     OW 6886   2.556   1.866   1.669
 1996SOL    HW1 6887   2.572   1.915   1.755
 1996SOL    HW2 6888   2.599   1.915   1.594
 1997SOL     OW 6889   3.330   1.516   3.674
 1997SOL    HW1 6890   3.326   1.611   3.703
 1997SOL    HW2 6891   3.238   1.478   3.669
 1998SOL     OW 6892   1.632   3.739   0.584
 1998SOL    HW1 6893   1.650   3.696   0.673
 1998SOL    HW2 6894   1.541   3.780   0.586
 1999SOL     OW 6895   0.840   0.567   5.238
 1999SOL    HW1 6896   0.930   0.528   5.261
 1999SOL    HW2 6897   0.853   0.651   5.185
 2000SOL     OW 6898   3.970   3.239   5.896
 2000SOL    HW1 6899   4.011   3.208   5.982
 2000SOL    HW2 6900   3.917   3.323   5.913
 2001SOL     OW 6901   2.041   1.099   0.017
 2001SOL    HW1 6902   1.958   1.146   7.011
 2001SOL    HW2 6903   2.055   1.116   0.115
 2002SOL     OW 6904   0.418   5.416   0.920
 2002SOL    HW1 6905   0.455   5.327   0.892
 2002SOL    HW2 6906   0.324   5.424   0.889
 2003SOL     OW 6907   6.760   4.963   1.693
 2003SOL    HW1 6908   6.775   4.999   1.601
 2003SOL    HW2 6909   6.746   4.864   1.688
 2004SOL     OW 6910   4.399   0.521   5.103
 2004SOL    HW1 6911   4.379   0.544   5.198
 2004SOL    HW2 6912   4.410   0.422   5.093
 2005SOL     OW 6913   0.197   4.977   6.894
 2005SOL    HW1 6914   0.287   4.946   6.866
 2005SOL    HW2 6915   0.199   5.075   6.914
 2006SOL     OW 6916   5.866   6.416   4.387
 2006SOL    HW1 6917   5.769   6.428   4.371
 2006SOL    HW2 6918   5.917   6.434   4.303
 2007SOL     OW 6919   5.378   4.165   1.579
 2007SOL    HW1 6920   5.318   4.085   1.578
 2007SOL    HW2 6921   5.421   4.173   1.669
 2008SOL     OW 6922   2.048   3.259   3.395
 2008SOL    HW1 6923   1.995   3.308   3.463
 2008SOL    HW2 6924   2.048   3.311   3.309
 2009SOL     OW 6925   5.435   6.357   2.490
 2009SOL    HW1 6926   5.387   6.396   2.568
 2009SOL    HW2 6927   5.474   6.430   2.434
 2010SOL     OW 6928   2.101   1.199   1.541
 2010SOL    HW1 6929   2.076   1.174   1.634
 2010SOL    HW2 6930   2.019   1.220   1.488
 2011SOL     OW 6931   0.371   1.188   4.820
 2011SOL    HW1 6932   0.365   1.281   4.855
 2011SOL    HW2 6933   0.354   1.188   4.721
 2012SOL     OW 6934   1.755   3.380   2.183
 2012SOL    HW1 6935   1.716   3.327   2.107
 2012SOL    HW2 6936   1.849   3.406   2.160
 2013SOL     OW 6937   6.755   3.146   3.709
 2013SOL    HW1 6938   6.810   3.224   3.739
 2013SOL    HW2 6939   6.776   3.124   3.614
 2014SOL     OW 6940   2.898   0.182   3.044
 2014SOL    HW1 6941   2.842   0.103   3.067
 2014SOL    HW2 6942   2.898   0.195   2.944
 2015SOL     OW 6943   3.783   6.463   0.031
 2015SOL    HW1 6944   3.794   6.421   6.964
 2015SOL    HW2 6945   3.693   6.506   0.036
 2016SOL     OW 6946   1.641   5.616   5.555
 2016SOL    HW1 6947   1.701   5.690   5.522
 2016SOL    HW2 6948   1.550   5.628   5.516
 2017SOL     OW 6949   4.423   0.651   3.262
 2017SOL    HW1 6950   4.478   0.578   3.304
 2017SOL    HW2 6951   4.336   0.659   3.310
 2018SOL     OW 6952   6.843   3.068   4.043
 2018SOL    HW1 6953   6.846   3.059   3.943
 2018SOL    HW2 6954   6.751   3.097   4.071
 2019SOL     OW 6955   6.360   4.038   6.158
 2019SOL    HW1 6956   6.260   4.049   6.158
 2019SOL    HW2 6957   6.403   4.128   6.161
 2020SOL     OW 6958   1.704   6.319   5.645
 2020SOL    HW1 6959   1.678   6.249   5.711
 2020SOL    HW2 6960   1.707   6.408   5.691
 2021SOL     OW 6961   6.175   6.681   4.126
 2021SOL    HW1 6962   6.254   6.685   4.065
 2021SOL    HW2 6963   6.206   6.666   4.220
 2022SOL     OW 6964   1.873   4.629   4.586
 2022SOL    HW1 6965   1.903   4.698   4.520
 2022SOL    HW2 6966   1.793   4.663   4.636
 2023SOL     OW 6967   0.311   0.084   6.780
 2023SOL    HW1 6968   0.291   0.111   6.874
 2023SOL    HW2 6969   0.263   0.145   6.717
 2024SOL     OW 6970   6.852   5.846   3.847
 2024SOL    HW1 6971   6.904   5.911   3.791
 2024SOL    HW2 6972   6.762   5.832   3.808
 2025SOL     OW 6973   3.087   0.502   3.865
 2025SOL    HW1 6974   3.105   0.583   3.810
 2025SOL    HW2 6975   3.168   0.443   3.864
 2026SOL     OW 6976   6.468   1.788   6.458
 2026SOL    HW1 6977   6.396   1.783   6.528
 2026SOL    HW2 6978   6.536   1.718   6.476
 2027SOL     OW 6979   0.542   6.309   1.399
 2027SOL    HW1 6980   0.566   6.404   1.418
 2027SOL    HW2 6981   0.624   6.252   1.403
 2028SOL     OW 6982   3.410   5.545   3.106
 2028SOL    HW1 6983   3.330   5.598   3.134
 2028SOL    HW2 6984   3.490   5.605   3.103
 2029SOL     OW 6985   6.659   2.524   6.998
 2029SOL    HW1 6986   6.605   2.440   6.991
 2029SOL    HW2 6987   6.621   2.594   6.938
 2030SOL     OW 6988   3.524   0.418   2.526
 2030SOL    HW1 6989   3.604   0.408   2.467
 2030SOL    HW2 6990   3.450   0.463   2.475
 2031SOL     OW 6991   0.076   6.319   2.442
 2031SOL    HW1 6992   0.009   6.385   2.477
 2031SOL    HW2 6993   0.058   6.230   2.484
 2032SOL     OW 6994   3.362   1.329   1.159
 2032SOL    HW1 6995   3.424   1.343   1.236
 2032SOL    HW2 6996   3.283   1.275   1.188
 2033SOL     OW 6997   2.309   0.577   0.809
 2033SOL    HW1 6998   2.392   0.545   0.856
 2033SOL    HW2 6999   2.324   0.670   0.776
 2034SOL     OW 7000   1.680   5.133   5.756
 2034SOL    HW1 7001   1.694   5.084   5.669
 2034SOL    HW2 7002   1.605   5.198   5.746
 2035SOL     OW 7003   6.608   6.724   2.291
 2035SOL    HW1 7004   6.517   6.733   2.251
 2035SOL    HW2 7005   6.609   6.649   2.357
 2036SOL     OW 7006   1.588   3.813   3.515
 2036SOL    HW1 7007   1.573   3.908   3.543
 2036SOL    HW2 7008   1.568   3.804   3.418
 2037SOL     OW 7009   6.320   2.966   6.150
 2037SOL    HW1 7010   6.291   2.910   6.072
 2037SOL    HW2 7011   6.321   2.910   6.233
 2038SOL     OW 7012   2.270   0.804   0.381
 2038SOL    HW1 7013   2.368   0.789   0.372
 2038SOL    HW2 7014   2.253   0.894   0.421
 2039SOL     OW 7015   0.334   6.494   2.894
 2039SOL    HW1 7016   0.427   6.457   2.888
 2039SOL    HW2 7017   0.270   6.432   2.848
 2040SOL     OW 7018   1.860   1.608   0.151
 2040SOL    HW1 7019   1.947   1.593   0.197
 2040SOL    HW2 7020   1.791   1.548   0.190
 2041SOL     OW 7021   1.046   0.345   5.481
 2041SOL    HW1 7022   1.069   0.399   5.400
 2041SOL    HW2 7023   0.951   0.316   5.477
 2042SOL     OW 7024   4.903   0.373   6.048
 2042SOL    HW1 7025   4.921   0.279   6.018
 2042SOL    HW2 7026   4.828   0.374   6.114
 2043SOL     OW 7027   6.426   2.446   2.322
 2043SOL    HW1 7028   6.378   2.505   2.257
 2043SOL    HW2 7029   6.523   2.443   2.299
 2044SOL     OW 7030   6.029   0.971   1.207
 2044SOL    HW1 7031   6.069   1.061   1.219
 2044SOL    HW2 7032   6.096   0.910   1.165
 2045SOL     OW 7033   1.283   5.684   4.830
 2045SOL    HW1 7034   1.277   5.777   4.865
 2045SOL    HW2 7035   1.266   5.619   4.905
 2046SOL     OW 7036   6.443   2.592   5.410
 2046SOL    HW1 7037   6.434   2.495   5.391
 2046SOL    HW2 7038   6.441   2.608   5.509
 2047SOL     OW 7039   5.896   2.554   1.127
 2047SOL    HW1 7040   5.990   2.546   1.162
 2047SOL    HW2 7041   5.894   2.528   1.030
 2048SOL     OW 7042   0.266   1.048   4.583
 2048SOL    HW1 7043   0.263   0.998   4.496
 2048SOL    HW2 7044   0.175   1.086   4.602
 2049SOL     OW 7045   5.127   1.159   4.613
 2049SOL    HW1 7046   5.065   1.205   4.549
 2049SOL    HW2 7047   5.082   1.149   4.702
 2050SOL     OW 7048   0.334   2.630   4.710
 2050SOL    HW1 7049   0.389   2.572   4.770
 2050SOL    HW2 7050   0.381   2.643   4.623
 2051SOL     OW 7051   1.903   5.954   6.904
 2051SOL    HW1 7052   1.964   5.903   6.843
 2051SOL    HW2 7053   1.862   6.030   6.853
 2052SOL     OW 7054   1.476   2.969   0.690
 2052SOL    HW1 7055   1.448   3.062   0.666
 2052SOL    HW2 7056   1.400   2.922   0.736
 2053SOL     OW 7057   1.277   5.455   4.997
 2053SOL    HW1 7058   1.368   5.447   4.954
 2053SOL    HW2 7059   1.284   5.429   5.093
 2054SOL     OW 7060   3.603   3.239   3.005
 2054SOL    HW1 7061   3.626   3.149   3.040
 2054SOL    HW2 7062   3.686   3.290   2.984
 2055SOL     OW 7063   6.875   2.725   4.928
 2055SOL    HW1 7064   6.953   2.717   4.990
 2055SOL    HW2 7065   6.865   2.641   4.875
 2056SOL     OW 7066   4.265   4.609   1.576
 2056SOL    HW1 7067   4.216   4.579   1.657
 2056SOL    HW2 7068   4.311   4.695   1.594
 2057SOL     OW 7069   5.126   3.301   4.728
 2057SOL    HW1 7070   5.044   3.329   4.778
 2057SOL    HW2 7071   5.125   3.202   4.714
 2058SOL     OW 7072   0.910   6.554   2.295
 2058SOL    HW1 7073   1.005   6.529   2.309
 2058SOL    HW2 7074   0.875   6.601   2.376
 2059SOL     OW 7075   2.696   0.356   5.612
 2059SOL    HW1 7076   2.678   0.450   5.586
 2059SOL    HW2 7077   2.639   0.295   5.557
 2060SOL     OW 7078   0.801   3.188   1.654
 2060SOL    HW1 7079   0.871   3.153   1.716
 2060SOL    HW2 7080   0.769   3.113   1.595
 2061SOL     OW 7081   1.901   2.313   2.151
 2061SOL    HW1 7082   1.903   2.413   2.142
 2061SOL    HW2 7083   1.968   2.284   2.219
 2062SOL     OW 7084   6.472   5.829   5.303
 2062SOL    HW1 7085   6.572   5.832   5.291
 2062SOL    HW2 7086   6.450   5.763   5.375
 2063SOL     OW 7087   1.345   6.745   4.472
 2063SOL    HW1 7088   1.306   6.786   4.555
 2063SOL    HW2 7089   1.321   6.801   4.393
 2064SOL     OW 7090   0.867   3.035   4.280
 2064SOL    HW1 7091   0.778   3.032   4.236
 2064SOL    HW2 7092   0.855   3.054   4.378
 2065SOL     OW 7093   5.310   3.372   5.858
 2065SOL    HW1 7094   5.303   3.439   5.785
 2065SOL    HW2 7095   5.350   3.415   5.939
 2066SOL     OW 7096   6.787   4.090   5.288
 2066SOL    HW1 7097   6.799   3.996   5.254
 2066SOL    HW2 7098   6.808   4.093   5.386
 2067SOL     OW 7099   6.000   5.032   1.379
 2067SOL    HW1 7100   5.931   4.971   1.418
 2067SOL    HW2 7101   5.972   5.058   1.286
 2068SOL     OW 7102   4.045   1.246   4.173
 2068SOL    HW1 7103   4.099   1.297   4.239
 2068SOL    HW2 7104   4.004   1.309   4.107
 2069SOL     OW 7105   0.293   2.434   3.821
 2069SOL    HW1 7106   0.211   2.377   3.816
 2069SOL    HW2 7107   0.371   2.379   3.851
 2070SOL     OW 7108   1.462   2.927   1.017
 2070SOL    HW1 7109   1.517   2.867   0.958
 2070SOL    HW2 7110   1.368   2.929   0.984
 2071SOL     OW 7111   6.153   1.875   6.303
 2071SOL    HW1 7112   6.116   1.789   6.267
 2071SOL    HW2 7113   6.235   1.901   6.252
 2072SOL     OW 7114   4.112   5.248   5.344
 2072SOL    HW1 7115   4.084   5.289   5.257
 2072SOL    HW2 7116   4.085   5.308   5.419
 2073SOL     OW 7117   3.609   6.213   5.848
 2073SOL    HW1 7118   3.635   6.271   5.925
 2073SOL    HW2 7119   3.590   6.121   5.881
 2074SOL     OW 7120   1.810   2.257   6.555
 2074SOL    HW1 7121   1.862   2.209   6.484
 2074SOL    HW2 7122   1.855   2.343   6.578
 2075SOL     OW 7123   6.597   2.031   3.233
 2075SOL    HW1 7124   6.533   2.013   3.308
 2075SOL    HW2 7125   6.685   1.988   3.253
 2076SOL     OW 7126   6.552   0.649   5.280
 2076SOL    HW1 7127   6.600   0.598   5.351
 2076SOL    HW2 7128   6.611   0.657   5.199
 2077SOL     OW 7129   6.172   2.075   1.776
 2077SOL    HW1 7130   6.200   2.165   1.810
 2077SOL    HW2 7131   6.095   2.042   1.830
 2078SOL     OW 7132   1.371   5.133   6.167
 2078SOL    HW1 7133   1.425   5.055   6.198
 2078SOL    HW2 7134   1.430   5.212   6.152
 2079SOL     OW 7135   5.664   0.901   1.991
 2079SOL    HW1 7136   5.725   0.954   2.049
 2079SOL    HW2 7137   5.711   0.877   1.906
 2080SOL     OW 7138   3.697   1.595   5.154
 2080SOL    HW1 7139   3.646   1.622   5.072
 2080SOL    HW2 7140   3.660   1.645   5.233
 2081SOL     OW 7141   0.914   6.475   3.838
 2081SOL    HW1 7142   0.985   6.427   3.787
 2081SOL    HW2 7143   0.897   6.427   3.924
 2082SOL     OW 7144   0.774   6.238   3.233
 2082SOL    HW1 7145   0.818   6.226   3.144
 2082SOL    HW2 7146   0.795   6.160   3.292
 2083SOL     OW 7147   0.745   5.797   4.104
 2083SOL    HW1 7148   0.715   5.865   4.036
 2083SOL    HW2 7149   0.844   5.796   4.107
 2084SOL     OW 7150   1.106   2.494   1.621
 2084SOL    HW1 7151   1.055   2.455   1.544
 2084SOL    HW2 7152   1.091   2.438   1.703
 2085SOL     OW 7153   4.945   6.167   0.818
 2085SOL    HW1 7154   4.871   6.150   0.883
 2085SOL    HW2 7155   5.022   6.208   0.867
 2086SOL     OW 7156   3.375   6.293   6.999
 2086SOL    HW1 7157   3.379   6.373   6.940
 2086SOL    HW2 7158   3.350   6.321   0.068
 2087SOL     OW 7159   4.179   2.173   0.238
 2087SOL    HW1 7160   4.112   2.242   0.212
 2087SOL    HW2 7161   4.144   2.120   0.315
 2088SOL     OW 7162   1.223   6.059   5.174
 2088SOL    HW1 7163   1.147   6.005   5.209
 2088SOL    HW2 7164   1.235   6.141   5.230
 2089SOL     OW 7165   4.057   2.319   5.331
 2089SOL    HW1 7166   4.022   2.408   5.360
 2089SOL    HW2 7167   4.048   2.254   5.407
 2090SOL     OW 7168   5.015   2.949   5.333
 2090SOL    HW1 7169   4.923   2.941   5.372
 2090SOL    HW2 7170   5.069   3.012   5.388
 2091SOL     OW 7171   6.849   6.132   1.338
 2091SOL    HW1 7172   6.917   6.059   1.345
 2091SOL    HW2 7173   6.890   6.219   1.364
 2092SOL     OW 7174   5.272   3.689   0.481
 2092SOL    HW1 7175   5.349   3.719   0.423
 2092SOL    HW2 7176   5.308   3.637   0.559
 2093SOL     OW 7177   3.641   2.059   2.262
 2093SOL    HW1 7178   3.721   2.109   2.227
 2093SOL    HW2 7179   3.570   2.057   2.192
 2094SOL     OW 7180   5.635   2.284   0.524
 2094SOL    HW1 7181   5.548   2.277   0.573
 2094SOL    HW2 7182   5.690   2.202   0.542
 2095SOL     OW 7183   6.122   6.156   3.283
 2095SOL    HW1 7184   6.078   6.073   3.249
 2095SOL    HW2 7185   6.144   6.216   3.207
 2096SOL     OW 7186   4.613   6.185   3.026
 2096SOL    HW1 7187   4.615   6.251   2.950
 2096SOL    HW2 7188   4.616   6.092   2.989
 2097SOL     OW 7189   3.064   3.910   6.354
 2097SOL    HW1 7190   2.978   3.861   6.341
 2097SOL    HW2 7191   3.098   3.942   6.266
 2098SOL     OW 7192   4.190   6.335   2.894
 2098SOL    HW1 7193   4.246   6.396   2.838
 2098SOL    HW2 7194   4.172   6.251   2.844
 2099SOL     OW 7195   4.511   1.995   0.362
 2099SOL    HW1 7196   4.461   2.082   0.364
 2099SOL    HW2 7197   4.559   1.982   0.448
 2100SOL     OW 7198   5.152   1.118   0.621
 2100SOL    HW1 7199   5.186   1.172   0.698
 2100SOL    HW2 7200   5.053   1.123   0.618
 2101SOL     OW 7201   0.080   6.242   1.072
 2101SOL    HW1 7202   0.101   6.171   1.004
 2101SOL    HW2 7203   0.048   6.324   1.025
 2102SOL     OW 7204   4.510   3.907   1.118
 2102SOL    HW1 7205   4.479   3.848   1.193
 2102SOL    HW2 7206   4.489   3.864   1.030
 2103SOL     OW 7207   3.052   3.686   0.507
 2103SOL    HW1 7208   2.973   3.664   0.565
 2103SOL    HW2 7209   3.051   3.628   0.426
 2104SOL     OW 7210   1.326   4.687   2.214
 2104SOL    HW1 7211   1.412   4.651   2.249
 2104SOL    HW2 7212   1.254   4.674   2.282
 2105SOL     OW 7213   4.358   4.553   6.853
 2105SOL    HW1 7214   4.293   4.561   6.778
 2105SOL    HW2 7215   4.428   4.624   6.845
 2106SOL     OW 7216   5.362   3.608   1.600
 2106SOL    HW1 7217   5.271   3.646   1.585
 2106SOL    HW2 7218   5.417   3.673   1.653
 2107SOL     OW 7219   5.913   3.473   5.400
 2107SOL    HW1 7220   5.919   3.454   5.498
 2107SOL    HW2 7221   5.836   3.422   5.362
 2108SOL     OW 7222   5.495   6.401   6.327
 2108SOL    HW1 7223   5.480   6.312   6.284
 2108SOL    HW2 7224   5.512   6.470   6.257
 2109SOL     OW 7225   3.153   5.312   2.408
 2109SOL    HW1 7226   3.115   5.394   2.366
 2109SOL    HW2 7227   3.252   5.321   2.417
 2110SOL     OW 7228   4.272   0.468   6.258
 2110SOL    HW1 7229   4.293   0.562   6.231
 2110SOL    HW2 7230   4.205   0.470   6.333
 2111SOL     OW 7231   1.041   2.542   5.641
 2111SOL    HW1 7232   1.003   2.455   5.674
 2111SOL    HW2 7233   1.001   2.564   5.552
 2112SOL     OW 7234   5.873   2.106   6.556
 2112SOL    HW1 7235   5.923   2.165   6.619
 2112SOL    HW2 7236   5.820   2.039   6.607
 2113SOL     OW 7237   2.051   6.891   4.508
 2113SOL    HW1 7238   1.976   6.929   4.561
 2113SOL    HW2 7239   2.137   6.907   4.556
 2114SOL     OW 7240   2.483   2.789   0.054
 2114SOL    HW1 7241   2.570   2.781   0.103
 2114SOL    HW2 7242   2.440   2.699   0.047
 2115SOL     OW 7243   0.913   4.701   2.085
 2115SOL    HW1 7244   0.961   4.613   2.081
 2115SOL    HW2 7245   0.980   4.776   2.085
 2116SOL     OW 7246   0.361   2.703   0.853
 2116SOL    HW1 7247   0.271   2.703   0.810
 2116SOL    HW2 7248   0.385   2.610   0.881
 2117SOL     OW 7249   5.172   3.111   1.268
 2117SOL    HW1 7250   5.198   3.106   1.365
 2117SOL    HW2 7251   5.230   3.049   1.215
 2118SOL     OW 7252   6.207   3.743   2.201
 2118SOL    HW1 7253   6.178   3.812   2.135
 2118SOL    HW2 7254   6.135   3.674   2.211
 2119SOL     OW 7255   1.455   1.096   6.785
 2119SOL    HW1 7256   1.471   1.152   6.866
 2119SOL    HW2 7257   1.511   1.013   6.791
 2120SOL     OW 7258   6.404   1.972   2.719
 2120SOL    HW1 7259   6.375   2.046   2.779
 2120SOL    HW2 7260   6.417   1.888   2.773
 2121SOL     OW 7261   2.421   1.673   6.126
 2121SOL    HW1 7262   2.385   1.586   6.092
 2121SOL    HW2 7263   2.393   1.747   6.065
 2122SOL     OW 7264   5.958   6.687   5.951
 2122SOL    HW1 7265   5.990   6.722   6.039
 2122SOL    HW2 7266   6.027   6.627   5.912
 2123SOL     OW 7267   6.881   6.532   2.392
 2123SOL    HW1 7268   6.890   6.622   2.350
 2123SOL    HW2 7269   6.844   6.543   2.485
 2124SOL     OW 7270   3.024   2.186   5.599
 2124SOL    HW1 7271   3.108   2.232   5.574
 2124SOL    HW2 7272   2.980   2.149   5.517
 2125SOL     OW 7273   1.823   6.095   3.019
 2125SOL    HW1 7274   1.851   6.002   2.999
 2125SOL    HW2 7275   1.902   6.156   3.012
 2126SOL     OW 7276   3.767   3.152   0.285
 2126SOL    HW1 7277   3.679   3.158   0.331
 2126SOL    HW2 7278   3.779   3.231   0.225
 2127SOL     OW 7279   6.815   2.342   5.337
 2127SOL    HW1 7280   6.832   2.348   5.435
 2127SOL    HW2 7281   6.902   2.349   5.288
 2128SOL     OW 7282   5.606   3.842   0.722
 2128SOL    HW1 7283   5.553   3.876   0.800
 2128SOL    HW2 7284   5.559   3.764   0.681
 2129SOL     OW 7285   5.089   4.168   3.903
 2129SOL    HW1 7286   5.180   4.186   3.865
 2129SOL    HW2 7287   5.029   4.245   3.884
 2130SOL     OW 7288   2.378   1.634   1.265
 2130SOL    HW1 7289   2.428   1.654   1.349
 2130SOL    HW2 7290   2.310   1.562   1.282
 2131SOL     OW 7291   5.506   1.919   0.091
 2131SOL    HW1 7292   5.429   1.856   0.080
 2131SOL    HW2 7293   5.472   2.011   0.112
 2132SOL     OW 7294   3.265   1.134   0.244
 2132SOL    HW1 7295   3.193   1.193   0.207
 2132SOL    HW2 7296   3.259   1.044   0.202
 2133SOL     OW 7297   2.699   2.371   1.460
 2133SOL    HW1 7298   2.756   2.356   1.540
 2133SOL    HW2 7299   2.722   2.459   1.419
 2134SOL     OW 7300   0.811   0.475   4.447
 2134SOL    HW1 7301   0.874   0.397   4.454
 2134SOL    HW2 7302   0.856   0.549   4.397
 2135SOL     OW 7303   0.497   2.275   3.923
 2135SOL    HW1 7304   0.587   2.318   3.930
 2135SOL    HW2 7305   0.458   2.263   4.014
 2136SOL     OW 7306   1.203   3.846   5.260
 2136SOL    HW1 7307   1.122   3.879   5.211
 2136SOL    HW2 7308   1.255   3.924   5.295
 2137SOL     OW 7309   0.797   6.902   5.038
 2137SOL    HW1 7310   0.865   6.968   5.069
 2137SOL    HW2 7311   0.777   6.838   5.111
 2138SOL     OW 7312   6.283   2.370   1.666
 2138SOL    HW1 7313   6.308   2.347   1.573
 2138SOL    HW2 7314   6.200   2.425   1.666
 2139SOL     OW 7315   3.257   0.771   4.040
 2139SOL    HW1 7316   3.283   0.861   4.073
 2139SOL    HW2 7317   3.219   0.779   3.948
 2140SOL     OW 7318   2.713   6.135   2.984
 2140SOL    HW1 7319   2.692   6.230   2.962
 2140SOL    HW2 7320   2.737   6.128   3.081
 2141SOL     OW 7321   6.568   2.505   1.648
 2141SOL    HW1 7322   6.642   2.536   1.708
 2141SOL    HW2 7323   6.602   2.433   1.588
 2142SOL     OW 7324   1.643   2.126   3.095
 2142SOL    HW1 7325   1.612   2.043   3.048
 2142SOL    HW2 7326   1.736   2.112   3.130
 2143SOL     OW 7327   3.803   6.100   1.364
 2143SOL    HW1 7328   3.794   6.056   1.275
 2143SOL    HW2 7329   3.894   6.142   1.371
 2144SOL     OW 7330   1.631   0.889   3.126
 2144SOL    HW1 7331   1.643   0.790   3.123
 2144SOL    HW2 7332   1.674   0.930   3.045
 2145SOL     OW 7333   3.269   5.642   3.538
 2145SOL    HW1 7334   3.287   5.719   3.599
 2145SOL    HW2 7335   3.171   5.629   3.528
 2146SOL     OW 7336   3.134   4.010   2.247
 2146SOL    HW1 7337   3.095   4.057   2.168
 2146SOL    HW2 7338   3.098   3.917   2.253
 2147SOL     OW 7339   0.018   1.439   0.087
 2147SOL    HW1 7340   6.999   1.508   0.146
 2147SOL    HW2 7341   0.020   1.351   0.136
 2148SOL     OW 7342   4.911   3.703   3.965
 2148SOL    HW1 7343   5.007   3.731   3.962
 2148SOL    HW2 7344   4.852   3.783   3.956
 2149SOL     OW 7345   3.613   0.298   1.765
 2149SOL    HW1 7346   3.711   0.311   1.776
 2149SOL    HW2 7347   3.579   0.360   1.693
 2150SOL     OW 7348   3.357   1.871   2.563
 2150SOL    HW1 7349   3.259   1.881   2.577
 2150SOL    HW2 7350   3.385   1.778   2.588
 2151SOL     OW 7351   3.731   2.524   5.434
 2151SOL    HW1 7352   3.648   2.574   5.409
 2151SOL    HW2 7353   3.811   2.573   5.398
 2152SOL     OW 7354   5.619   6.105   1.955
 2152SOL    HW1 7355   5.531   6.057   1.953
 2152SOL    HW2 7356   5.603   6.204   1.956
 2153SOL     OW 7357   4.654   1.176   3.959
 2153SOL    HW1 7358   4.721   1.244   3.991
 2153SOL    HW2 7359   4.572   1.181   4.015
 2154SOL     OW 7360   3.226   6.011   4.394
 2154SOL    HW1 7361   3.150   5.961   4.435
 2154SOL    HW2 7362   3.311   5.986   4.441
 2155SOL     OW 7363   1.545   5.237   0.104
 2155SOL    HW1 7364   1.475   5.308   0.098
 2155SOL    HW2 7365   1.503   5.151   0.134
 2156SOL     OW 7366   1.827   0.336   1.300
 2156SOL    HW1 7367   1.895   0.408   1.310
 2156SOL    HW2 7368   1.736   0.373   1.317
 2157SOL     OW 7369   6.656   1.163   4.810
 2157SOL    HW1 7370   6.662   1.255   4.849
 2157SOL    HW2 7371   6.563   1.129   4.819
 2158SOL     OW 7372   3.509   6.603   0.083
 2158SOL    HW1 7373   3.498   6.596   0.182
 2158SOL    HW2 7374   3.464   6.686   0.050
 2159SOL     OW 7375   1.596   6.965   5.189
 2159SOL    HW1 7376   1.625   0.017   5.247
 2159SOL    HW2 7377   1.623   6.878   5.232
 2160SOL     OW 7378   4.216   4.289   1.593
 2160SOL    HW1 7379   4.263   4.279   1.681
 2160SOL    HW2 7380   4.237   4.210   1.535
 2161SOL     OW 7381   4.877   3.571   3.448
 2161SOL    HW1 7382   4.812   3.621   3.506
 2161SOL    HW2 7383   4.930   3.508   3.505
 2162SOL     OW 7384   1.508   0.813   6.843
 2162SOL    HW1 7385   1.465   0.727   6.869
 2162SOL    HW2 7386   1.600   0.817   6.881
 2163SOL     OW 7387   1.484   6.636   6.465
 2163SOL    HW1 7388   1.484   6.550   6.517
 2163SOL    HW2 7389   1.390   6.660   6.441
 2164SOL     OW 7390   2.343   0.594   6.099
 2164SOL    HW1 7391   2.379   0.650   6.024
 2164SOL    HW2 7392   2.418   0.543   6.141
 2165SOL     OW 7393   1.666   0.586   2.522
 2165SOL    HW1 7394   1.613   0.669   2.508
 2165SOL    HW2 7395   1.604   0.511   2.545
 2166SOL     OW 7396   1.475   2.622   5.391
 2166SOL    HW1 7397   1.395   2.579   5.433
 2166SOL    HW2 7398   1.472   2.721   5.406
 2167SOL     OW 7399   3.001   0.557   2.111
 2167SOL    HW1 7400   2.969   0.563   2.205
 2167SOL    HW2 7401   3.084   0.503   2.107
 2168SOL     OW 7402   6.180   3.067   4.962
 2168SOL    HW1 7403   6.122   3.137   5.003
 2168SOL    HW2 7404   6.164   2.979   5.007
 2169SOL     OW 7405   5.606   2.532   6.315
 2169SOL    HW1 7406   5.620   2.581   6.229
 2169SOL    HW2 7407   5.600   2.434   6.297
 2170SOL     OW 7408   5.174   4.800   5.145
 2170SOL    HW1 7409   5.091   4.746   5.161
 2170SOL    HW2 7410   5.239   4.746   5.092
 2171SOL     OW 7411   6.822   2.853   6.900
 2171SOL    HW1 7412   6.893   2.834   6.967
 2171SOL    HW2 7413   6.734   2.860   6.946
 2172SOL     OW 7414   2.970   0.763   0.326
 2172SOL    HW1 7415   2.939   0.852   0.359
 2172SOL    HW2 7416   2.985   0.768   0.227
 2173SOL     OW 7417   3.975   0.426   5.878
 2173SOL    HW1 7418   4.018   0.463   5.796
 2173SOL    HW2 7419   3.931   0.339   5.855
 2174SOL     OW 7420   6.626   4.559   5.748
 2174SOL    HW1 7421   6.633   4.465   5.715
 2174SOL    HW2 7422   6.642   4.560   5.847
 2175SOL     OW 7423   3.142   0.735   3.710
 2175SOL    HW1 7424   3.131   0.683   3.625
 2175SOL    HW2 7425   3.066   0.800   3.720
 2176SOL     OW 7426   1.640   1.848   1.689
 2176SOL    HW1 7427   1.557   1.792   1.678
 2176SOL    HW2 7428   1.665   1.887   1.601
 2177SOL     OW 7429   6.362   1.412   2.285
 2177SOL    HW1 7430   6.333   1.498   2.326
 2177SOL    HW2 7431   6.444   1.428   2.229
 2178SOL     OW 7432   0.946   4.373   0.502
 2178SOL    HW1 7433   1.022   4.434   0.477
 2178SOL    HW2 7434   0.970   4.321   0.583
 2179SOL     OW 7435   1.693   5.743   3.895
 2179SOL    HW1 7436   1.657   5.717   3.806
 2179SOL    HW2 7437   1.780   5.695   3.911
 2180SOL     OW 7438   3.174   3.559   2.997
 2180SOL    HW1 7439   3.124   3.605   2.924
 2180SOL    HW2 7440   3.232   3.487   2.958
 2181SOL     OW 7441   4.535   4.814   5.953
 2181SOL    HW1 7442   4.478   4.804   5.871
 2181SOL    HW2 7443   4.553   4.911   5.969
 2182SOL     OW 7444   0.040   3.477   6.425
 2182SOL    HW1 7445   0.068   3.572   6.408
 2182SOL    HW2 7446   0.102   3.416   6.375
 2183SOL     OW 7447   2.850   2.997   0.707
 2183SOL    HW1 7448   2.943   2.989   0.745
 2183SOL    HW2 7449   2.851   3.060   0.630
 2184SOL     OW 7450   4.016   0.848   6.407
 2184SOL    HW1 7451   3.931   0.900   6.420
 2184SOL    HW2 7452   4.067   0.845   6.493
 2185SOL     OW 7453   1.675   1.596   0.637
 2185SOL    HW1 7454   1.775   1.597   0.631
 2185SOL    HW2 7455   1.648   1.555   0.724
 2186SOL     OW 7456   0.137   4.798   2.110
 2186SOL    HW1 7457   0.115   4.715   2.162
 2186SOL    HW2 7458   0.224   4.835   2.142
 2187SOL     OW 7459   0.110   1.364   1.428
 2187SOL    HW1 7460   0.140   1.345   1.522
 2187SOL    HW2 7461   0.175   1.324   1.364
 2188SOL     OW 7462   4.885   5.857   3.751
 2188SOL    HW1 7463   4.970   5.900   3.721
 2188SOL    HW2 7464   4.907   5.770   3.796
 2189SOL     OW 7465   1.783   6.848   5.965
 2189SOL    HW1 7466   1.852   6.776   5.968
 2189SOL    HW2 7467   1.711   6.828   6.032
 2190SOL     OW 7468   6.062   2.535   1.681
 2190SOL    HW1 7469   6.057   2.537   1.581
 2190SOL    HW2 7470   6.063   2.628   1.716
 2191SOL     OW 7471   3.491   2.413   6.412
 2191SOL    HW1 7472   3.469   2.352   6.488
 2191SOL    HW2 7473   3.582   2.390   6.377
 2192SOL     OW 7474   4.146   6.234   5.164
 2192SOL    HW1 7475   4.165   6.271   5.073
 2192SOL    HW2 7476   4.215   6.269   5.228
 2193SOL     OW 7477   0.171   5.368   5.832
 2193SOL    HW1 7478   0.252   5.328   5.788
 2193SOL    HW2 7479   0.131   5.301   5.894
 2194SOL     OW 7480   1.750   5.853   0.337
 2194SOL    HW1 7481   1.770   5.819   0.429
 2194SOL    HW2 7482   1.778   5.949   0.330
 2195SOL     OW 7483   0.612   6.383   1.808
 2195SOL    HW1 7484   0.660   6.308   1.852
 2195SOL    HW2 7485   0.578   6.447   1.877
 2196SOL     OW 7486   3.236   0.745   5.224
 2196SOL    HW1 7487   3.150   0.795   5.222
 2196SOL    HW2 7488   3.294   0.773   5.148
 2197SOL     OW 7489   4.644   4.468   2.006
 2197SOL    HW1 7490   4.588   4.528   1.950
 2197SOL    HW2 7491   4.635   4.374   1.974
 2198SOL     OW 7492   6.699   3.403   6.853
 2198SOL    HW1 7493   6.669   3.494   6.822
 2198SOL    HW2 7494   6.719   3.406   6.951
 2199SOL     OW 7495   4.806   6.549   0.633
 2199SOL    HW1 7496   4.853   6.515   0.714
 2199SOL    HW2 7497   4.872   6.566   0.560
 2200SOL     OW 7498   4.270   0.763   4.695
 2200SOL    HW1 7499   4.283   0.768   4.794
 2200SOL    HW2 7500   4.178   0.730   4.675
 2201SOL     OW 7501   5.946   3.719   1.931
 2201SOL    HW1 7502   5.858   3.750   1.894
 2201SOL    HW2 7503   5.947   3.619   1.937
 2202SOL     OW 7504   3.821   4.927   4.777
 2202SOL    HW1 7505   3.897   4.898   4.719
 2202SOL    HW2 7506   3.856   4.947   4.869
 2203SOL     OW 7507   3.632   2.116   3.062
 2203SOL    HW1 7508   3.689   2.186   3.020
 2203SOL    HW2 7509   3.646   2.115   3.161
 2204SOL     OW 7510   3.536   1.160   7.022
 2204SOL    HW1 7511   3.475   1.167   6.943
 2204SOL    HW2 7512   3.487   1.189   0.080
 2205SOL     OW 7513   1.041   0.163   6.651
 2205SOL    HW1 7514   1.064   0.072   6.615
 2205SOL    HW2 7515   1.126   0.213   6.668
 2206SOL     OW 7516   2.797   3.722   6.355
 2206SOL    HW1 7517   2.716   3.780   6.356
 2206SOL    HW2 7518   2.778   3.636   6.402
 2207SOL     OW 7519   1.086   4.088   6.416
 2207SOL    HW1 7520   1.134   4.091   6.503
 2207SOL    HW2 7521   0.989   4.070   6.433
 2208SOL     OW 7522   0.660   3.483   1.778
 2208SOL    HW1 7523   0.652   3.582   1.768
 2208SOL    HW2 7524   0.616   3.438   1.700
 2209SOL     OW 7525   1.602   5.937   6.588
 2209SOL    HW1 7526   1.582   6.019   6.642
 2209SOL    HW2 7527   1.534   5.926   6.516
 2210SOL     OW 7528   0.737   4.915   3.371
 2210SOL    HW1 7529   0.778   4.908   3.280
 2210SOL    HW2 7530   0.810   4.919   3.439
 2211SOL     OW 7531   5.914   1.587   5.387
 2211SOL    HW1 7532   5.833   1.637   5.356
 2211SOL    HW2 7533   5.987   1.598   5.320
 2212SOL     OW 7534   0.241   6.569   5.974
 2212SOL    HW1 7535   0.202   6.622   5.899
 2212SOL    HW2 7536   0.168   6.534   6.032
 2213SOL     OW 7537   4.029   2.216   4.337
 2213SOL    HW1 7538   4.123   2.226   4.304
 2213SOL    HW2 7539   4.031   2.196   4.435
 2214SOL     OW 7540   5.226   0.392   5.332
 2214SOL    HW1 7541   5.310   0.409   5.281
 2214SOL    HW2 7542   5.164   0.470   5.319
 2215SOL     OW 7543   6.700   1.560   5.563
 2215SOL    HW1 7544   6.761   1.544   5.641
 2215SOL    HW2 7545   6.725   1.646   5.519
 2216SOL     OW 7546   1.319   6.735   1.397
 2216SOL    HW1 7547   1.406   6.755   1.442
 2216SOL    HW2 7548   1.285   6.816   1.350
 2217SOL     OW 7549   4.113   0.154   0.699
 2217SOL    HW1 7550   4.124   0.253   0.688
 2217SOL    HW2 7551   4.192   0.117   0.749
 2218SOL     OW 7552   1.029   6.271   6.532
 2218SOL    HW1 7553   1.071   6.353   6.491
 2218SOL    HW2 7554   0.982   6.297   6.616
 2219SOL     OW 7555   1.696   4.069   3.238
 2219SOL    HW1 7556   1.786   4.083   3.278
 2219SOL    HW2 7557   1.661   3.980   3.267
 2220SOL     OW 7558   0.432   2.071   4.733
 2220SOL    HW1 7559   0.530   2.064   4.750
 2220SOL    HW2 7560   0.405   2.003   4.665
 2221SOL     OW 7561   6.572   1.927   1.187
 2221SOL    HW1 7562   6.612   1.929   1.096
 2221SOL    HW2 7563   6.483   1.973   1.186
 2222SOL     OW 7564   4.179   0.249   1.725
 2222SOL    HW1 7565   4.180   0.348   1.709
 2222SOL    HW2 7566   4.262   0.209   1.686
 2223SOL     OW 7567   6.363   4.998   3.328
 2223SOL    HW1 7568   6.422   5.076   3.306
 2223SOL    HW2 7569   6.391   4.919   3.274
 2224SOL     OW 7570   1.698   4.758   1.637
 2224SOL    HW1 7571   1.767   4.686   1.644
 2224SOL    HW2 7572   1.679   4.777   1.541
 2225SOL     OW 7573   6.122   4.600   2.451
 2225SOL    HW1 7574   6.120   4.626   2.354
 2225SOL    HW2 7575   6.086   4.675   2.506
 2226SOL     OW 7576   3.839   3.028   1.153
 2226SOL    HW1 7577   3.887   2.941   1.170
 2226SOL    HW2 7578   3.850   3.087   1.233
 2227SOL     OW 7579   6.804   4.086   5.867
 2227SOL    HW1 7580   6.731   4.139   5.911
 2227SOL    HW2 7581   6.893   4.125   5.893
 2228SOL     OW 7582   3.226   4.825   0.576
 2228SOL    HW1 7583   3.281   4.829   0.660
 2228SOL    HW2 7584   3.270   4.764   0.510
 2229SOL     OW 7585   4.678   1.279   4.316
 2229SOL    HW1 7586   4.735   1.350   4.276
 2229SOL    HW2 7587   4.596   1.320   4.357
 2230SOL     OW 7588   1.366   5.328   4.199
 2230SOL    HW1 7589   1.401   5.398   4.262
 2230SOL    HW2 7590   1.278   5.295   4.232
 2231SOL     OW 7591   1.672   1.182   2.264
 2231SOL    HW1 7592   1.683   1.119   2.187
 2231SOL    HW2 7593   1.749   1.245   2.267
 2232SOL     OW 7594   0.420   3.247   2.769
 2232SOL    HW1 7595   0.477   3.326   2.746
 2232SOL    HW2 7596   0.479   3.170   2.794
 2233SOL     OW 7597   3.334   5.370   0.568
 2233SOL    HW1 7598   3.275   5.370   0.488
 2233SOL    HW2 7599   3.323   5.456   0.617
 2234SOL     OW 7600   3.817   1.891   0.958
 2234SOL    HW1 7601   3.911   1.909   0.987
 2234SOL    HW2 7602   3.814   1.806   0.906
 2235SOL     OW 7603   1.187   0.040   6.431
 2235SOL    HW1 7604   1.221   0.030   6.337
 2235SOL    HW2 7605   1.253   0.092   6.484
 2236SOL     OW 7606   0.354   4.291   0.950
 2236SOL    HW1 7607   0.375   4.221   0.882
 2236SOL    HW2 7608   0.294   4.252   1.020
 2237SOL     OW 7609   6.593   3.492   4.522
 2237SOL    HW1 7610   6.540   3.457   4.600
 2237SOL    HW2 7611   6.530   3.528   4.453
 2238SOL     OW 7612   0.262   5.300   1.992
 2238SOL    HW1 7613   0.354   5.326   2.022
 2238SOL    HW2 7614   0.264   5.206   1.956
 2239SOL     OW 7615   4.338   4.702   3.532
 2239SOL    HW1 7616   4.265   4.701   3.463
 2239SOL    HW2 7617   4.375   4.795   3.539
 2240SOL     OW 7618   6.606   5.412   3.626
 2240SOL    HW1 7619   6.632   5.386   3.533
 2240SOL    HW2 7620   6.506   5.411   3.633
 2241SOL     OW 7621   0.013   6.395   2.168
 2241SOL    HW1 7622   0.101   6.410   2.123
 2241SOL    HW2 7623   0.025   6.399   2.267
 2242SOL     OW 7624   5.064   2.094   3.255
 2242SOL    HW1 7625   4.968   2.092   3.283
 2242SOL    HW2 7626   5.080   2.025   3.184
 2243SOL     OW 7627   2.598   6.103   4.285
 2243SOL    HW1 7628   2.673   6.169   4.293
 2243SOL    HW2 7629   2.637   6.013   4.264
 2244SOL     OW 7630   3.651   0.869   4.239
 2244SOL    HW1 7631   3.699   0.828   4.317
 2244SOL    HW2 7632   3.717   0.892   4.168
 2245SOL     OW 7633   6.925   2.364   2.160
 2245SOL    HW1 7634   6.973   2.336   2.243
 2245SOL    HW2 7635   6.945   2.300   2.087
 2246SOL     OW 7636   1.296   3.393   5.418
 2246SOL    HW1 7637   1.340   3.333   5.484
 2246SOL    HW2 7638   1.351   3.476   5.405
 2247SOL     OW 7639   2.343   2.151   5.346
 2247SOL    HW1 7640   2.326   2.240   5.303
 2247SOL    HW2 7641   2.373   2.086   5.277
 2248SOL     OW 7642   5.012   4.381   5.230
 2248SOL    HW1 7643   4.929   4.332   5.256
 2248SOL    HW2 7644   5.067   4.324   5.170
 2249SOL     OW 7645   5.217   5.893   2.939
 2249SOL    HW1 7646   5.238   5.950   2.859
 2249SOL    HW2 7647   5.278   5.918   3.014
 2250SOL     OW 7648   5.522   3.771   1.292
 2250SOL    HW1 7649   5.586   3.828   1.241
 2250SOL    HW2 7650   5.542   3.674   1.273
 2251SOL     OW 7651   6.068   1.682   0.060
 2251SOL    HW1 7652   6.009   1.662   0.138
 2251SOL    HW2 7653   6.140   1.612   0.054
 2252SOL     OW 7654   5.447   2.776   5.347
 2252SOL    HW1 7655   5.482   2.853   5.294
 2252SOL    HW2 7656   5.386   2.810   5.419
 2253SOL     OW 7657   2.574   2.972   6.885
 2253SOL    HW1 7658   2.544   2.912   6.959
 2253SOL    HW2 7659   2.523   3.058   6.890
 2254SOL     OW 7660   1.946   3.441   6.093
 2254SOL    HW1 7661   1.897   3.377   6.152
 2254SOL    HW2 7662   2.005   3.500   6.150
 2255SOL     OW 7663   6.054   2.770   1.837
 2255SOL    HW1 7664   6.025   2.858   1.799
 2255SOL    HW2 7665   6.090   2.784   1.929
 2256SOL     OW 7666   3.464   4.862   2.246
 2256SOL    HW1 7667   3.506   4.833   2.160
 2256SOL    HW2 7668   3.518   4.827   2.323
 2257SOL     OW 7669   1.527   3.644   4.394
 2257SOL    HW1 7670   1.449   3.704   4.376
 2257SOL    HW2 7671   1.495   3.551   4.411
 2258SOL     OW 7672   1.856   4.791   5.243
 2258SOL    HW1 7673   1.817   4.755   5.328
 2258SOL    HW2 7674   1.828   4.887   5.232
 2259SOL     OW 7675   5.883   4.094   6.339
 2259SOL    HW1 7676   5.842   4.106   6.429
 2259SOL    HW2 7677   5.828   4.142   6.271
 2260SOL     OW 7678   4.216   5.098   2.712
 2260SOL    HW1 7679   4.232   5.076   2.808
 2260SOL    HW2 7680   4.150   5.033   2.673
 2261SOL     OW 7681   5.411   6.344   1.018
 2261SOL    HW1 7682   5.492   6.372   0.967
 2261SOL    HW2 7683   5.428   6.352   1.116
 2262SOL     OW 7684   5.690   2.029   4.496
 2262SOL    HW1 7685   5.665   2.101   4.561
 2262SOL    HW2 7686   5.699   2.068   4.404
 2263SOL     OW 7687   1.884   5.496   5.480
 2263SOL    HW1 7688   1.793   5.533   5.496
 2263SOL    HW2 7689   1.897   5.414   5.536
 2264SOL     OW 7690   3.203   3.045   2.894
 2264SOL    HW1 7691   3.123   3.088   2.936
 2264SOL    HW2 7692   3.254   2.994   2.964
 2265SOL     OW 7693   6.964   1.208   2.496
 2265SOL    HW1 7694   0.008   1.248   2.557
 2265SOL    HW2 7695   7.009   1.175   2.413
 2266SOL     OW 7696   6.358   0.962   0.927
 2266SOL    HW1 7697   6.338   0.934   1.021
 2266SOL    HW2 7698   6.384   1.059   0.926
 2267SOL     OW 7699   5.840   2.385   4.869
 2267SOL    HW1 7700   5.886   2.333   4.941
 2267SOL    HW2 7701   5.744   2.399   4.895
 2268SOL     OW 7702   6.735   6.244   0.663
 2268SOL    HW1 7703   6.670   6.222   0.735
 2268SOL    HW2 7704   6.805   6.305   0.699
 2269SOL     OW 7705   6.321   6.310   5.744
 2269SOL    HW1 7706   6.301   6.268   5.656
 2269SOL    HW2 7707   6.284   6.252   5.817
 2270SOL     OW 7708   3.119   3.326   2.080
 2270SOL    HW1 7709   3.060   3.276   2.016
 2270SOL    HW2 7710   3.212   3.330   2.043
 2271SOL     OW 7711   5.785   4.410   1.447
 2271SOL    HW1 7712   5.733   4.368   1.373
 2271SOL    HW2 7713   5.881   4.419   1.419
 2272SOL     OW 7714   4.937   2.337   5.500
 2272SOL    HW1 7715   5.027   2.312   5.464
 2272SOL    HW2 7716   4.883   2.380   5.428
 2273SOL     OW 7717   0.446   0.074   3.298
 2273SOL    HW1 7718   0.453   6.999   3.285
 2273SOL    HW2 7719   0.401   0.116   3.220
 2274SOL     OW 7720   1.550   3.287   4.958
 2274SOL    HW1 7721   1.596   3.199   4.968
 2274SOL    HW2 7722   1.507   3.313   5.045
 2275SOL     OW 7723   5.053   5.810   4.500
 2275SOL    HW1 7724   4.968   5.778   4.542
 2275SOL    HW2 7725   5.112   5.732   4.481
 2276SOL     OW 7726   4.200   4.271   0.828
 2276SOL    HW1 7727   4.197   4.316   0.739
 2276SOL    HW2 7728   4.112   4.281   0.873
 2277SOL     OW 7729   3.047   3.291   5.731
 2277SOL    HW1 7730   3.081   3.271   5.822
 2277SOL    HW2 7731   3.098   3.239   5.663
 2278SOL     OW 7732   5.425   6.103   2.435
 2278SOL    HW1 7733   5.401   6.199   2.448
 2278SOL    HW2 7734   5.520   6.088   2.466
 2279SOL     OW 7735   5.499   3.369   4.412
 2279SOL    HW1 7736   5.543   3.322   4.335
 2279SOL    HW2 7737   5.422   3.423   4.378
 2280SOL     OW 7738   6.837   6.184   5.410
 2280SOL    HW1 7739   6.838   6.185   5.310
 2280SOL    HW2 7740   6.813   6.092   5.442
 2281SOL     OW 7741   3.669   1.982   1.847
 2281SOL    HW1 7742   3.702   2.048   1.915
 2281SOL    HW2 7743   3.672   2.024   1.757
 2282SOL     OW 7744   4.867   5.241   4.450
 2282SOL    HW1 7745   4.891   5.330   4.489
 2282SOL    HW2 7746   4.907   5.168   4.505
 2283SOL     OW 7747   6.828   3.855   3.079
 2283SOL    HW1 7748   6.886   3.850   2.997
 2283SOL    HW2 7749   6.735   3.880   3.051
 2284SOL     OW 7750   2.444   2.610   1.862
 2284SOL    HW1 7751   2.532   2.580   1.827
 2284SOL    HW2 7752   2.416   2.552   1.938
 2285SOL     OW 7753   1.619   3.657   0.334
 2285SOL    HW1 7754   1.636   3.740   0.280
 2285SOL    HW2 7755   1.635   3.677   0.431
 2286SOL     OW 7756   6.877   5.801   4.934
 2286SOL    HW1 7757   6.950   5.732   4.935
 2286SOL    HW2 7758   6.818   5.785   4.855
 2287SOL     OW 7759   2.257   2.484   0.907
 2287SOL    HW1 7760   2.239   2.548   0.982
 2287SOL    HW2 7761   2.354   2.490   0.882
 2288SOL     OW 7762   0.435   6.494   3.725
 2288SOL    HW1 7763   0.526   6.501   3.685
 2288SOL    HW2 7764   0.421   6.569   3.790
 2289SOL     OW 7765   5.170   1.642   2.327
 2289SOL    HW1 7766   5.089   1.694   2.355
 2289SOL    HW2 7767   5.244   1.659   2.391
 2290SOL     OW 7768   2.877   3.637   3.457
 2290SOL    HW1 7769   2.908   3.547   3.488
 2290SOL    HW2 7770   2.894   3.646   3.359
 2291SOL     OW 7771   2.000   1.676   1.220
 2291SOL    HW1 7772   2.057   1.728   1.283
 2291SOL    HW2 7773   2.016   1.578   1.234
 2292SOL     OW 7774   4.802   2.357   4.046
 2292SOL    HW1 7775   4.844   2.435   3.999
 2292SOL    HW2 7776   4.873   2.292   4.073
 2293SOL     OW 7777   5.532   1.479   1.037
 2293SOL    HW1 7778   5.598   1.419   0.991
 2293SOL    HW2 7779   5.485   1.427   1.109
 2294SOL     OW 7780   2.081   2.538   5.359
 2294SOL    HW1 7781   2.063   2.446   5.394
 2294SOL    HW2 7782   1.994   2.583   5.337
 2295SOL     OW 7783   6.458   0.336   1.497
 2295SOL    HW1 7784   6.459   0.417   1.556
 2295SOL    HW2 7785   6.370   0.329   1.451
 2296SOL     OW 7786   2.295   5.104   3.630
 2296SOL    HW1 7787   2.328   5.114   3.724
 2296SOL    HW2 7788   2.266   5.010   3.615
 2297SOL     OW 7789   5.332   4.817   5.397
 2297SOL    HW1 7790   5.288   4.793   5.483
 2297SOL    HW2 7791   5.270   4.797   5.321
 2298SOL     OW 7792   3.908   3.207   4.671
 2298SOL    HW1 7793   3.842   3.132   4.672
 2298SOL    HW2 7794   3.930   3.234   4.765
 2299SOL     OW 7795   5.527   3.269   4.807
 2299SOL    HW1 7796   5.485   3.214   4.879
 2299SOL    HW2 7797   5.473   3.352   4.794
 2300SOL     OW 7798   3.896   6.910   3.540
 2300SOL    HW1 7799   3.936   6.906   3.632
 2300SOL    HW2 7800   3.842   6.829   3.523
 2301SOL     OW 7801   3.422   3.327   4.130
 2301SOL    HW1 7802   3.340   3.313   4.074
 2301SOL    HW2 7803   3.425   3.259   4.203
 2302SOL     OW 7804   3.986   1.382   0.648
 2302SOL    HW1 7805   4.011   1.429   0.563
 2302SOL    HW2 7806   4.058   1.317   0.673
 2303SOL     OW 7807   2.611   2.712   1.108
 2303SOL    HW1 7808   2.694   2.766   1.122
 2303SOL    HW2 7809   2.609   2.678   1.014
 2304SOL     OW 7810   6.296   5.935   3.379
 2304SOL    HW1 7811   6.237   6.007   3.343
 2304SOL    HW2 7812   6.255   5.846   3.360
 2305SOL     OW 7813   1.312   1.162   4.280
 2305SOL    HW1 7814   1.235   1.102   4.300
 2305SOL    HW2 7815   1.282   1.239   4.224
 2306SOL     OW 7816   1.823   4.679   3.643
 2306SOL    HW1 7817   1.907   4.646   3.601
 2306SOL    HW2 7818   1.804   4.625   3.726
 2307SOL     OW 7819   1.010   3.172   5.627
 2307SOL    HW1 7820   1.072   3.157   5.704
 2307SOL    HW2 7821   1.024   3.264   5.590
 2308SOL     OW 7822   2.149   4.840   1.486
 2308SOL    HW1 7823   2.058   4.865   1.454
 2308SOL    HW2 7824   2.179   4.904   1.557
 2309SOL     OW 7825   1.671   0.041   4.041
 2309SOL    HW1 7826   1.687   6.976   3.999
 2309SOL    HW2 7827   1.624   0.101   3.975
 2310SOL     OW 7828   4.536   6.753   1.940
 2310SOL    HW1 7829   4.592   6.771   1.859
 2310SOL    HW2 7830   4.440   6.741   1.913
 2311SOL     OW 7831   2.653   6.109   0.361
 2311SOL    HW1 7832   2.662   6.129   0.263
 2311SOL    HW2 7833   2.571   6.153   0.397
 2312SOL     OW 7834   3.685   5.737   2.604
 2312SOL    HW1 7835   3.742   5.667   2.648
 2312SOL    HW2 7836   3.589   5.722   2.629
 2313SOL     OW 7837   5.246   5.094   3.037
 2313SOL    HW1 7838   5.215   5.016   3.091
 2313SOL    HW2 7839   5.217   5.084   2.942
 2314SOL     OW 7840   2.762   5.404   3.294
 2314SOL    HW1 7841   2.666   5.377   3.296
 2314SOL    HW2 7842   2.770   5.504   3.301
 2315SOL     OW 7843   4.770   3.045   6.169
 2315SOL    HW1 7844   4.695   3.076   6.111
 2315SOL    HW2 7845   4.734   3.014   6.257
 2316SOL     OW 7846   5.492   2.722   2.921
 2316SOL    HW1 7847   5.510   2.820   2.925
 2316SOL    HW2 7848   5.397   2.707   2.893
 2317SOL     OW 7849   1.150   4.661   2.412
 2317SOL    HW1 7850   1.055   4.688   2.400
 2317SOL    HW2 7851   1.185   4.697   2.499
 2318SOL     OW 7852   0.317   1.509   3.125
 2318SOL    HW1 7853   0.410   1.539   3.146
 2318SOL    HW2 7854   0.320   1.424   3.072
 2319SOL     OW 7855   1.998   4.035   4.282
 2319SOL    HW1 7856   2.046   4.105   4.229
 2319SOL    HW2 7857   1.921   4.077   4.331
 2320SOL     OW 7858   0.191   2.525   4.067
 2320SOL    HW1 7859   0.220   2.515   3.972
 2320SOL    HW2 7860   0.266   2.562   4.122
 2321SOL     OW 7861   2.636   6.805   4.791
 2321SOL    HW1 7862   2.677   6.876   4.734
 2321SOL    HW2 7863   2.652   6.715   4.749
 2322SOL     OW 7864   1.252   1.431   5.629
 2322SOL    HW1 7865   1.263   1.387   5.540
 2322SOL    HW2 7866   1.165   1.403   5.669
 2323SOL     OW 7867   4.315   5.604   3.168
 2323SOL    HW1 7868   4.266   5.621   3.254
 2323SOL    HW2 7869   4.376   5.526   3.180
 2324SOL     OW 7870   0.900   6.183   2.994
 2324SOL    HW1 7871   0.920   6.225   2.905
 2324SOL    HW2 7872   0.867   6.090   2.979
 2325SOL     OW 7873   1.156   3.934   1.145
 2325SOL    HW1 7874   1.079   3.992   1.117
 2325SOL    HW2 7875   1.234   3.950   1.083
 2326SOL     OW 7876   1.997   5.150   6.859
 2326SOL    HW1 7877   1.940   5.117   6.784
 2326SOL    HW2 7878   2.055   5.225   6.826
 2327SOL     OW 7879   5.031   2.503   4.193
 2327SOL    HW1 7880   4.934   2.495   4.213
 2327SOL    HW2 7881   5.055   2.600   4.180
 2328SOL     OW 7882   4.719   1.228   3.121
 2328SOL    HW1 7883   4.716   1.130   3.102
 2328SOL    HW2 7884   4.777   1.273   3.052
 2329SOL     OW 7885   0.900   5.541   4.291
 2329SOL    HW1 7886   0.881   5.443   4.290
 2329SOL    HW2 7887   0.841   5.586   4.358
 2330SOL     OW 7888   0.747   4.464   2.020
 2330SOL    HW1 7889   0.694   4.494   2.099
 2330SOL    HW2 7890   0.844   4.469   2.041
 2331SOL     OW 7891   0.391   3.799   5.359
 2331SOL    HW1 7892   0.450   3.799   5.279
 2331SOL    HW2 7893   0.429   3.860   5.429
 2332SOL     OW 7894   5.206   2.854   6.097
 2332SOL    HW1 7895   5.107   2.860   6.110
 2332SOL    HW2 7896   5.238   2.935   6.047
 2333SOL     OW 7897   1.268   5.283   3.390
 2333SOL    HW1 7898   1.347   5.223   3.375
 2333SOL    HW2 7899   1.189   5.228   3.417
 2334SOL     OW 7900   3.324   6.858   7.015
 2334SOL    HW1 7901   3.347   6.862   6.918
 2334SOL    HW2 7902   3.318   6.951   0.027
 2335SOL     OW 7903   5.061   6.934   3.320
 2335SOL    HW1 7904   5.070   6.954   3.222
 2335SOL    HW2 7905   5.105   7.006   3.373
 2336SOL     OW 7906   4.766   1.051   6.061
 2336SOL    HW1 7907   4.727   0.992   6.131
 2336SOL    HW2 7908   4.742   1.146   6.080
 2337SOL     OW 7909   5.515   0.328   3.304
 2337SOL    HW1 7910   5.436   0.269   3.286
 2337SOL    HW2 7911   5.483   0.418   3.334
 2338SOL     OW 7912   6.971   6.817   6.698
 2338SOL    HW1 7913   6.966   6.723   6.666
 2338SOL    HW2 7914   0.010   6.822   6.776
 2339SOL     OW 7915   3.586   4.624   6.993
 2339SOL    HW1 7916   3.624   4.537   0.000
 2339SOL    HW2 7917   3.634   4.699   0.015
 2340SOL     OW 7918   3.600   5.894   4.800
 2340SOL    HW1 7919   3.536   5.827   4.761
 2340SOL    HW2 7920   3.552   5.979   4.818
 2341SOL     OW 7921   5.682   5.157   0.799
 2341SOL    HW1 7922   5.698   5.204   0.886
 2341SOL    HW2 7923   5.586   5.166   0.773
 2342SOL     OW 7924   6.737   0.373   5.078
 2342SOL    HW1 7925   6.823   0.405   5.117
 2342SOL    HW2 7926   6.671   0.357   5.151
 2343SOL     OW 7927   1.139   5.932   0.932
 2343SOL    HW1 7928   1.137   5.965   1.026
 2343SOL    HW2 7929   1.116   6.006   0.870
 2344SOL     OW 7930   2.252   1.706   2.582
 2344SOL    HW1 7931   2.210   1.630   2.631
 2344SOL    HW2 7932   2.327   1.672   2.525
 2345SOL     OW 7933   1.465   0.914   4.720
 2345SOL    HW1 7934   1.385   0.857   4.739
 2345SOL    HW2 7935   1.542   0.856   4.694
 2346SOL     OW 7936   4.759   3.706   5.657
 2346SOL    HW1 7937   4.666   3.676   5.639
 2346SOL    HW2 7938   4.819   3.626   5.661
 2347SOL     OW 7939   1.707   3.284   1.931
 2347SOL    HW1 7940   1.634   3.338   1.890
 2347SOL    HW2 7941   1.782   3.274   1.866
 2348SOL     OW 7942   2.750   6.388   3.294
 2348SOL    HW1 7943   2.741   6.330   3.375
 2348SOL    HW2 7944   2.844   6.381   3.258
 2349SOL     OW 7945   0.096   6.748   5.824
 2349SOL    HW1 7946   0.026   6.694   5.777
 2349SOL    HW2 7947   0.052   6.822   5.874
 2350SOL     OW 7948   2.793   0.224   5.258
 2350SOL    HW1 7949   2.725   0.198   5.327
 2350SOL    HW2 7950   2.844   0.142   5.230
 2351SOL     OW 7951   2.667   4.806   3.604
 2351SOL    HW1 7952   2.673   4.773   3.699
 2351SOL    HW2 7953   2.722   4.888   3.594
 2352SOL     OW 7954   0.055   4.389   2.936
 2352SOL    HW1 7955   0.141   4.341   2.915
 2352SOL    HW2 7956   7.010   4.323   2.966
 2353SOL     OW 7957   2.772   4.162   5.999
 2353SOL    HW1 7958   2.869   4.178   5.982
 2353SOL    HW2 7959   2.756   4.064   6.011
 2354SOL     OW 7960   3.583   2.343   0.746
 2354SOL    HW1 7961   3.516   2.300   0.806
 2354SOL    HW2 7962   3.550   2.433   0.717
 2355SOL     OW 7963   0.312   6.557   0.249
 2355SOL    HW1 7964   0.241   6.623   0.223
 2355SOL    HW2 7965   0.274   6.464   0.247
 2356SOL     OW 7966   2.035   4.898   2.775
 2356SOL    HW1 7967   2.013   4.803   2.754
 2356SOL    HW2 7968   2.134   4.911   2.774
 2357SOL     OW 7969   5.460   4.194   2.581
 2357SOL    HW1 7970   5.386   4.129   2.567
 2357SOL    HW2 7971   5.426   4.271   2.636
 2358SOL     OW 7972   3.772   0.342   5.234
 2358SOL    HW1 7973   3.755   0.308   5.141
 2358SOL    HW2 7974   3.813   0.433   5.230
 2359SOL     OW 7975   2.824   1.654   5.627
 2359SOL    HW1 7976   2.800   1.713   5.703
 2359SOL    HW2 7977   2.774   1.682   5.545
 2360SOL     OW 7978   3.986   4.785   0.780
 2360SOL    HW1 7979   4.046   4.845   0.728
 2360SOL    HW2 7980   4.041   4.728   0.841
 2361SOL     OW 7981   3.411   6.708   2.909
 2361SOL    HW1 7982   3.443   6.680   2.818
 2361SOL    HW2 7983   3.322   6.667   2.927
 2362SOL     OW 7984   4.803   5.873   4.624
 2362SOL    HW1 7985   4.707   5.851   4.644
 2362SOL    HW2 7986   4.814   5.884   4.525
 2363SOL     OW 7987   3.471   3.344   6.899
 2363SOL    HW1 7988   3.379   3.361   6.863
 2363SOL    HW2 7989   3.537   3.347   6.824
 2364SOL     OW 7990   4.611   1.534   1.896
 2364SOL    HW1 7991   4.552   1.579   1.830
 2364SOL    HW2 7992   4.603   1.435   1.886
 2365SOL     OW 7993   5.199   3.541   4.563
 2365SOL    HW1 7994   5.171   3.447   4.582
 2365SOL    HW2 7995   5.118   3.600   4.557
 2366SOL     OW 7996   1.963   3.846   5.787
 2366SOL    HW1 7997   1.950   3.930   5.735
 2366SOL    HW2 7998   2.060   3.823   5.791
 2367SOL     OW 7999   0.680   3.554   6.447
 2367SOL    HW1 8000   0.649   3.629   6.505
 2367SOL    HW2 8001   0.640   3.563   6.356
 2368SOL     OW 8002   5.189   0.488   4.210
 2368SOL    HW1 8003   5.098   0.449   4.196
 2368SOL    HW2 8004   5.192   0.535   4.298
 2369SOL     OW 8005   3.620   1.417   3.400
 2369SOL    HW1 8006   3.625   1.452   3.493
 2369SOL    HW2 8007   3.620   1.493   3.335
 2370SOL     OW 8008   4.576   2.719   1.135
 2370SOL    HW1 8009   4.623   2.781   1.198
 2370SOL    HW2 8010   4.633   2.638   1.119
 2371SOL     OW 8011   0.851   6.670   2.836
 2371SOL    HW1 8012   0.922   6.690   2.903
 2371SOL    HW2 8013   0.843   6.571   2.824
 2372SOL     OW 8014   6.265   1.301   5.712
 2372SOL    HW1 8015   6.327   1.297   5.634
 2372SOL    HW2 8016   6.309   1.349   5.788
 2373SOL     OW 8017   6.427   0.707   6.221
 2373SOL    HW1 8018   6.448   0.652   6.302
 2373SOL    HW2 8019   6.510   0.750   6.187
 2374SOL     OW 8020   5.983   5.982   3.166
 2374SOL    HW1 8021   5.886   5.987   3.192
 2374SOL    HW2 8022   5.992   6.000   3.068
 2375SOL     OW 8023   0.869   0.490   3.812
 2375SOL    HW1 8024   0.805   0.552   3.767
 2375SOL    HW2 8025   0.838   0.395   3.801
 2376SOL     OW 8026   6.670   2.271   3.066
 2376SOL    HW1 8027   6.768   2.254   3.073
 2376SOL    HW2 8028   6.620   2.198   3.112
 2377SOL     OW 8029   3.658   4.800   6.336
 2377SOL    HW1 8030   3.710   4.841   6.411
 2377SOL    HW2 8031   3.704   4.715   6.308
 2378SOL     OW 8032   6.005   2.286   0.601
 2378SOL    HW1 8033   5.971   2.378   0.622
 2378SOL    HW2 8034   5.930   2.220   0.609
 2379SOL     OW 8035   0.136   5.255   0.534
 2379SOL    HW1 8036   0.121   5.163   0.569
 2379SOL    HW2 8037   0.198   5.305   0.595
 2380SOL     OW 8038   5.666   3.509   5.066
 2380SOL    HW1 8039   5.717   3.506   4.980
 2380SOL    HW2 8040   5.669   3.601   5.103
 2381SOL     OW 8041   2.223   4.662   5.099
 2381SOL    HW1 8042   2.158   4.640   5.026
 2381SOL    HW2 8043   2.196   4.615   5.183
 2382SOL     OW 8044   1.862   5.712   2.646
 2382SOL    HW1 8045   1.796   5.777   2.609
 2382SOL    HW2 8046   1.840   5.692   2.742
 2383SOL     OW 8047   5.172   5.936   5.600
 2383SOL    HW1 8048   5.108   5.938   5.677
 2383SOL    HW2 8049   5.170   6.025   5.553
 2384SOL     OW 8050   0.831   2.298   1.691
 2384SOL    HW1 8051   0.835   2.217   1.633
 2384SOL    HW2 8052   0.909   2.298   1.754
 2385SOL     OW 8053   0.515   2.042   0.563
 2385SOL    HW1 8054   0.526   2.011   0.469
 2385SOL    HW2 8055   0.480   1.966   0.619
 2386SOL     OW 8056   3.007   5.081   4.313
 2386SOL    HW1 8057   2.995   5.070   4.411
 2386SOL    HW2 8058   2.998   4.992   4.268
 2387SOL     OW 8059   0.702   2.854   3.477
 2387SOL    HW1 8060   0.610   2.849   3.515
 2387SOL    HW2 8061   0.754   2.773   3.504
 2388SOL     OW 8062   7.003   2.075   5.990
 2388SOL    HW1 8063   6.906   2.053   6.004
 2388SOL    HW2 8064   0.035   2.012   6.043
 2389SOL     OW 8065   5.740   5.032   4.430
 2389SOL    HW1 8066   5.795   5.106   4.469
 2389SOL    HW2 8067   5.740   4.954   4.492
 2390SOL     OW 8068   4.410   3.458   6.371
 2390SOL    HW1 8069   4.317   3.494   6.363
 2390SOL    HW2 8070   4.405   3.359   6.389
 2391SOL     OW 8071   3.381   3.612   6.437
 2391SOL    HW1 8072   3.438   3.569   6.366
 2391SOL    HW2 8073   3.288   3.624   6.402
 2392SOL     OW 8074   3.342   5.174   5.851
 2392SOL    HW1 8075   3.406   5.221   5.790
 2392SOL    HW2 8076   3.309   5.091   5.807
 2393SOL     OW 8077   3.964   5.371   1.796
 2393SOL    HW1 8078   4.053   5.353   1.756
 2393SOL    HW2 8079   3.922   5.449   1.750
 2394SOL     OW 8080   0.138   3.585   3.534
 2394SOL    HW1 8081   0.179   3.508   3.486
 2394SOL    HW2 8082   0.209   3.637   3.582
 2395SOL     OW 8083   0.356   3.392   6.648
 2395SOL    HW1 8084   0.435   3.369   6.590
 2395SOL    HW2 8085   0.350   3.492   6.658
 2396SOL     OW 8086   5.410   0.679   5.167
 2396SOL    HW1 8087   5.451   0.757   5.214
 2396SOL    HW2 8088   5.314   0.699   5.146
 2397SOL     OW 8089   0.633   5.281   5.858
 2397SOL    HW1 8090   0.722   5.249   5.890
 2397SOL    HW2 8091   0.593   5.340   5.927
 2398SOL     OW 8092   2.447   5.530   3.608
 2398SOL    HW1 8093   2.357   5.572   3.599
 2398SOL    HW2 8094   2.440   5.432   3.590
 2399SOL     OW 8095   2.688   2.260   3.703
 2399SOL    HW1 8096   2.639   2.219   3.626
 2399SOL    HW2 8097   2.637   2.339   3.736
 2400SOL     OW 8098   2.312   4.010   0.110
 2400SOL    HW1 8099   2.236   4.075   0.103
 2400SOL    HW2 8100   2.291   3.929   0.055
 2401SOL     OW 8101   3.344   0.097   4.351
 2401SOL    HW1 8102   3.443   0.085   4.354
 2401SOL    HW2 8103   3.322   0.194   4.351
 2402SOL     OW 8104   1.187   2.135   2.719
 2402SOL    HW1 8105   1.269   2.143   2.776
 2402SOL    HW2 8106   1.195   2.055   2.659
 2403SOL     OW 8107   3.605   3.510   0.866
 2403SOL    HW1 8108   3.645   3.440   0.806
 2403SOL    HW2 8109   3.554   3.466   0.940
 2404SOL     OW 8110   6.267   1.632   1.516
 2404SOL    HW1 8111   6.331   1.706   1.538
 2404SOL    HW2 8112   6.282   1.602   1.422
 2405SOL     OW 8113   2.818   4.708   6.978
 2405SOL    HW1 8114   2.847   4.770   6.905
 2405SOL    HW2 8115   2.803   4.617   6.941
 2406SOL     OW 8116   1.520   0.511   3.629
 2406SOL    HW1 8117   1.471   0.598   3.617
 2406SOL    HW2 8118   1.490   0.468   3.714
 2407SOL     OW 8119   4.463   2.102   3.380
 2407SOL    HW1 8120   4.471   2.156   3.464
 2407SOL    HW2 8121   4.446   2.007   3.402
 2408SOL     OW 8122   2.238   5.910   3.258
 2408SOL    HW1 8123   2.290   5.995   3.264
 2408SOL    HW2 8124   2.238   5.877   3.164
 2409SOL     OW 8125   2.330   2.878   1.151
 2409SOL    HW1 8126   2.384   2.897   1.070
 2409SOL    HW2 8127   2.374   2.919   1.231
 2410SOL     OW 8128   5.997   3.378   5.718
 2410SOL    HW1 8129   6.016   3.454   5.781
 2410SOL    HW2 8130   5.899   3.358   5.718
 2411SOL     OW 8131   2.836   4.274   6.528
 2411SOL    HW1 8132   2.879   4.339   6.465
 2411SOL    HW2 8133   2.890   4.268   6.611
 2412SOL     OW 8134   3.020   3.085   6.879
 2412SOL    HW1 8135   2.960   3.006   6.864
 2412SOL    HW2 8136   3.039   3.129   6.791
 2413SOL     OW 8137   6.724   3.148   5.950
 2413SOL    HW1 8138   6.699   3.100   6.034
 2413SOL    HW2 8139   6.698   3.245   5.958
 2414SOL     OW 8140   5.693   2.448   3.968
 2414SOL    HW1 8141   5.669   2.540   4.000
 2414SOL    HW2 8142   5.615   2.388   3.982
 2415SOL     OW 8143   2.444   6.615   0.367
 2415SOL    HW1 8144   2.421   6.679   0.293
 2415SOL    HW2 8145   2.516   6.553   0.336
 2416SOL     OW 8146   0.589   3.477   2.668
 2416SOL    HW1 8147   0.554   3.529   2.590
 2416SOL    HW2 8148   0.686   3.458   2.654
 2417SOL     OW 8149   4.932   2.605   6.924
 2417SOL    HW1 8150   4.971   2.657   7.000
 2417SOL    HW2 8151   4.867   2.662   6.874
 2418SOL     OW 8152   4.089   4.192   5.221
 2418SOL    HW1 8153   4.066   4.289   5.231
 2418SOL    HW2 8154   4.023   4.149   5.160
 2419SOL     OW 8155   2.069   7.001   4.266
 2419SOL    HW1 8156   1.979   7.011   4.224
 2419SOL    HW2 8157   2.060   6.954   4.354
 2420SOL     OW 8158   3.544   5.780   1.972
 2420SOL    HW1 8159   3.496   5.823   1.895
 2420SOL    HW2 8160   3.581   5.692   1.943
 2421SOL     OW 8161   3.626   6.322   3.627
 2421SOL    HW1 8162   3.596   6.360   3.715
 2421SOL    HW2 8163   3.726   6.324   3.622
 2422SOL     OW 8164   3.851   6.899   1.206
 2422SOL    HW1 8165   3.934   6.853   1.237
 2422SOL    HW2 8166   3.772   6.865   1.258
 2423SOL     OW 8167   2.126   5.476   1.656
 2423SOL    HW1 8168   2.096   5.507   1.747
 2423SOL    HW2 8169   2.092   5.383   1.640
 2424SOL     OW 8170   5.399   6.445   6.928
 2424SOL    HW1 8171   5.348   6.427   6.843
 2424SOL    HW2 8172   5.335   6.477   6.998
 2425SOL     OW 8173   4.905   5.671   5.700
 2425SOL    HW1 8174   4.955   5.700   5.782
 2425SOL    HW2 8175   4.928   5.732   5.624
 2426SOL     OW 8176   1.621   5.922   4.838
 2426SOL    HW1 8177   1.529   5.958   4.820
 2426SOL    HW2 8178   1.618   5.822   4.840
 2427SOL     OW 8179   4.790   6.123   6.391
 2427SOL    HW1 8180   4.831   6.082   6.310
 2427SOL    HW2 8181   4.692   6.136   6.376
 2428SOL     OW 8182   0.287   1.165   3.332
 2428SOL    HW1 8183   0.235   1.235   3.284
 2428SOL    HW2 8184   0.348   1.208   3.399
 2429SOL     OW 8185   5.348   5.021   2.575
 2429SOL    HW1 8186   5.374   4.931   2.539
 2429SOL    HW2 8187   5.298   5.071   2.506
 2430SOL     OW 8188   5.885   2.451   0.866
 2430SOL    HW1 8189   5.786   2.469   0.863
 2430SOL    HW2 8190   5.934   2.529   0.828
 2431SOL     OW 8191   5.867   1.634   2.086
 2431SOL    HW1 8192   5.858   1.706   2.156
 2431SOL    HW2 8193   5.964   1.613   2.072
 2432SOL     OW 8194   3.227   5.252   1.889
 2432SOL    HW1 8195   3.181   5.187   1.949
 2432SOL    HW2 8196   3.171   5.267   1.807
 2433SOL     OW 8197   0.570   5.512   0.211
 2433SOL    HW1 8198   0.575   5.604   0.249
 2433SOL    HW2 8199   0.652   5.493   0.158
 2434SOL     OW 8200   4.318   2.339   2.251
 2434SOL    HW1 8201   4.241   2.336   2.315
 2434SOL    HW2 8202   4.390   2.397   2.289
 2435SOL     OW 8203   5.540   5.855   0.194
 2435SOL    HW1 8204   5.622   5.865   0.250
 2435SOL    HW2 8205   5.562   5.803   0.111
 2436SOL     OW 8206   1.642   1.134   1.424
 2436SOL    HW1 8207   1.658   1.092   1.514
 2436SOL    HW2 8208   1.557   1.186   1.426
 2437SOL     OW 8209   5.820   5.559   2.211
 2437SOL    HW1 8210   5.732   5.606   2.201
 2437SOL    HW2 8211   5.829   5.523   2.304
 2438SOL     OW 8212   3.665   1.969   4.739
 2438SOL    HW1 8213   3.719   1.909   4.798
 2438SOL    HW2 8214   3.623   2.041   4.795
 2439SOL     OW 8215   0.208   5.868   6.765
 2439SOL    HW1 8216   0.210   5.787   6.824
 2439SOL    HW2 8217   0.139   5.856   6.694
 2440SOL     OW 8218   4.406   0.799   4.475
 2440SOL    HW1 8219   4.344   0.784   4.551
 2440SOL    HW2 8220   4.465   0.718   4.464
 2441SOL     OW 8221   5.335   0.573   6.960
 2441SOL    HW1 8222   5.294   0.641   7.021
 2441SOL    HW2 8223   5.403   0.519   7.009
 2442SOL     OW 8224   5.777   3.584   2.402
 2442SOL    HW1 8225   5.754   3.673   2.441
 2442SOL    HW2 8226   5.702   3.519   2.420
 2443SOL     OW 8227   2.319   0.936   6.539
 2443SOL    HW1 8228   2.380   1.000   6.491
 2443SOL    HW2 8229   2.288   0.866   6.475
 2444SOL     OW 8230   4.175   4.835   0.395
 2444SOL    HW1 8231   4.115   4.880   0.461
 2444SOL    HW2 8232   4.270   4.856   0.417
 2445SOL     OW 8233   6.108   1.540   2.023
 2445SOL    HW1 8234   6.173   1.610   2.050
 2445SOL    HW2 8235   6.113   1.526   1.924
 2446SOL     OW 8236   0.871   2.295   2.155
 2446SOL    HW1 8237   0.969   2.273   2.154
 2446SOL    HW2 8238   0.860   2.393   2.176
 2447SOL     OW 8239   2.119   0.309   0.648
 2447SOL    HW1 8240   2.170   0.381   0.601
 2447SOL    HW2 8241   2.183   0.237   0.677
 2448SOL     OW 8242   6.206   2.178   4.218
 2448SOL    HW1 8243   6.121   2.224   4.245
 2448SOL    HW2 8244   6.188   2.081   4.204
 2449SOL     OW 8245   1.095   3.929   2.072
 2449SOL    HW1 8246   1.051   3.957   2.157
 2449SOL    HW2 8247   1.175   3.873   2.093
 2450SOL     OW 8248   3.115   5.081   0.182
 2450SOL    HW1 8249   3.214   5.079   0.170
 2450SOL    HW2 8250   3.072   5.014   0.122
 2451SOL     OW 8251   0.987   0.124   3.931
 2451SOL    HW1 8252   0.964   0.030   3.955
 2451SOL    HW2 8253   1.046   0.124   3.850
 2452SOL     OW 8254   2.335   2.250   3.280
 2452SOL    HW1 8255   2.371   2.300   3.202
 2452SOL    HW2 8256   2.298   2.162   3.250
 2453SOL     OW 8257   6.786   2.748   0.749
 2453SOL    HW1 8258   6.794   2.764   0.651
 2453SOL    HW2 8259   6.693   2.769   0.779
 2454SOL     OW 8260   2.776   5.624   6.866
 2454SOL    HW1 8261   2.824   5.586   6.945
 2454SOL    HW2 8262   2.703   5.562   6.837
 2455SOL     OW 8263   3.901   1.108   0.492
 2455SOL    HW1 8264   3.827   1.107   0.559
 2455SOL    HW2 8265   3.876   1.167   0.416
 2456SOL     OW 8266   0.802   3.532   6.805
 2456SOL    HW1 8267   0.766   3.625   6.802
 2456SOL    HW2 8268   0.805   3.500   6.900
 2457SOL     OW 8269   5.825   1.010   5.618
 2457SOL    HW1 8270   5.796   0.926   5.571
 2457SOL    HW2 8271   5.746   1.071   5.629
 2458SOL     OW 8272   0.870   0.389   3.451
 2458SOL    HW1 8273   0.882   0.435   3.364
 2458SOL    HW2 8274   0.935   0.313   3.459
 2459SOL     OW 8275   2.947   6.193   5.345
 2459SOL    HW1 8276   3.013   6.177   5.418
 2459SOL    HW2 8277   2.979   6.267   5.286
 2460SOL     OW 8278   0.994   0.877   0.497
 2460SOL    HW1 8279   1.005   0.796   0.439
 2460SOL    HW2 8280   0.901   0.880   0.533
 2461SOL     OW 8281   5.031   6.918   4.328
 2461SOL    HW1 8282   5.073   6.914   4.237
 2461SOL    HW2 8283   5.102   6.919   4.397
 2462SOL     OW 8284   1.781   5.039   0.703
 2462SOL    HW1 8285   1.826   4.965   0.752
 2462SOL    HW2 8286   1.774   5.120   0.762
 2463SOL     OW 8287   6.794   2.011   0.322
 2463SOL    HW1 8288   6.814   2.104   0.291
 2463SOL    HW2 8289   6.776   1.953   0.243
 2464SOL     OW 8290   1.449   2.981   3.079
 2464SOL    HW1 8291   1.483   2.978   3.173
 2464SOL    HW2 8292   1.435   3.076   3.051
 2465SOL     OW 8293   6.686   6.168   6.134
 2465SOL    HW1 8294   6.592   6.151   6.164
 2465SOL    HW2 8295   6.690   6.166   6.034
 2466SOL     OW 8296   1.476   1.737   2.259
 2466SOL    HW1 8297   1.388   1.783   2.247
 2466SOL    HW2 8298   1.534   1.756   2.180
 2467SOL     OW 8299   4.967   1.780   5.795
 2467SOL    HW1 8300   4.904   1.857   5.805
 2467SOL    HW2 8301   4.969   1.751   5.699
 2468SOL     OW 8302   4.424   0.060   0.153
 2468SOL    HW1 8303   4.432   0.042   0.055
 2468SOL    HW2 8304   4.418   0.158   0.169
 2469SOL     OW 8305   3.720   3.300   5.375
 2469SOL    HW1 8306   3.722   3.371   5.445
 2469SOL    HW2 8307   3.748   3.339   5.287
 2470SOL     OW 8308   3.987   5.480   6.263
 2470SOL    HW1 8309   4.002   5.465   6.165
 2470SOL    HW2 8310   4.058   5.432   6.315
 2471SOL     OW 8311   3.240   0.016   0.277
 2471SOL    HW1 8312   3.234   0.067   0.191
 2471SOL    HW2 8313   3.232   0.079   0.354
 2472SOL     OW 8314   4.147   2.170   3.505
 2472SOL    HW1 8315   4.054   2.187   3.538
 2472SOL    HW2 8316   4.144   2.141   3.409
 2473SOL     OW 8317   1.234   4.239   5.640
 2473SOL    HW1 8318   1.290   4.317   5.669
 2473SOL    HW2 8319   1.277   4.195   5.561
 2474SOL     OW 8320   1.020   5.162   1.034
 2474SOL    HW1 8321   1.046   5.071   1.002
 2474SOL    HW2 8322   1.091   5.228   1.007
 2475SOL     OW 8323   4.849   0.267   1.975
 2475SOL    HW1 8324   4.812   0.313   2.056
 2475SOL    HW2 8325   4.932   0.217   2.001
 2476SOL     OW 8326   5.694   0.370   2.522
 2476SOL    HW1 8327   5.605   0.334   2.494
 2476SOL    HW2 8328   5.756   0.370   2.443
 2477SOL     OW 8329   4.097   1.143   3.425
 2477SOL    HW1 8330   4.046   1.223   3.454
 2477SOL    HW2 8331   4.070   1.117   3.332
 2478SOL     OW 8332   5.817   1.050   1.672
 2478SOL    HW1 8333   5.763   1.134   1.663
 2478SOL    HW2 8334   5.823   1.005   1.583
 2479SOL     OW 8335   1.079   3.068   2.114
 2479SOL    HW1 8336   1.017   3.142   2.142
 2479SOL    HW2 8337   1.173   3.096   2.127
 2480SOL     OW 8338   4.014   3.088   0.907
 2480SOL    HW1 8339   3.957   3.043   0.976
 2480SOL    HW2 8340   4.102   3.113   0.947
 2481SOL     OW 8341   3.270   6.745   1.209
 2481SOL    HW1 8342   3.281   6.793   1.296
 2481SOL    HW2 8343   3.283   6.646   1.224
 2482SOL     OW 8344   5.466   3.210   6.209
 2482SOL    HW1 8345   5.421   3.127   6.241
 2482SOL    HW2 8346   5.522   3.248   6.283
 2483SOL     OW 8347   2.129   1.764   6.747
 2483SOL    HW1 8348   2.151   1.861   6.752
 2483SOL    HW2 8349   2.197   1.712   6.799
 2484SOL     OW 8350   3.416   0.799   0.401
 2484SOL    HW1 8351   3.370   0.751   0.476
 2484SOL    HW2 8352   3.449   0.888   0.434
 2485SOL     OW 8353   5.078   3.090   0.891
 2485SOL    HW1 8354   5.089   3.188   0.910
 2485SOL    HW2 8355   5.168   3.049   0.874
 2486SOL     OW 8356   1.459   5.053   5.442
 2486SOL    HW1 8357   1.489   5.149   5.449
 2486SOL    HW2 8358   1.394   5.033   5.514
 2487SOL     OW 8359   4.617   6.723   0.285
 2487SOL    HW1 8360   4.682   6.775   0.340
 2487SOL    HW2 8361   4.534   6.777   0.272
 2488SOL     OW 8362   0.798   3.862   2.048
 2488SOL    HW1 8363   0.875   3.893   1.992
 2488SOL    HW2 8364   0.817   3.769   2.082
 2489SOL     OW 8365   0.970   5.976   3.873
 2489SOL    HW1 8366   1.041   6.042   3.848
 2489SOL    HW2 8367   0.880   6.017   3.860
 2490SOL     OW 8368   0.073   5.404   0.934
 2490SOL    HW1 8369   0.113   5.417   0.843
 2490SOL    HW2 8370   6.997   5.407   0.927
 2491SOL     OW 8371   3.268   4.244   0.312
 2491SOL    HW1 8372   3.179   4.284   0.290
 2491SOL    HW2 8373   3.333   4.317   0.333
 2492SOL     OW 8374   4.460   4.276   0.920
 2492SOL    HW1 8375   4.364   4.279   0.894
 2492SOL    HW2 8376   4.480   4.190   0.967
 2493SOL     OW 8377   6.475   0.088   1.851
 2493SOL    HW1 8378   6.505   0.036   1.931
 2493SOL    HW2 8379   6.496   0.185   1.864
 2494SOL     OW 8380   5.671   4.282   2.717
 2494SOL    HW1 8381   5.595   4.230   2.678
 2494SOL    HW2 8382   5.724   4.223   2.777
 2495SOL     OW 8383   5.135   6.077   3.827
 2495SOL    HW1 8384   5.146   5.983   3.859
 2495SOL    HW2 8385   5.102   6.076   3.732
 2496SOL     OW 8386   0.594   2.780   6.497
 2496SOL    HW1 8387   0.600   2.877   6.474
 2496SOL    HW2 8388   0.508   2.743   6.464
 2497SOL     OW 8389   0.578   0.288   0.728
 2497SOL    HW1 8390   0.503   0.240   0.774
 2497SOL    HW2 8391   0.665   0.245   0.752
 2498SOL     OW 8392   2.893   2.192   5.364
 2498SOL    HW1 8393   2.932   2.138   5.289
 2498SOL    HW2 8394   2.798   2.165   5.378
 2499SOL     OW 8395   6.112   3.149   1.953
 2499SOL    HW1 8396   6.024   3.102   1.952
 2499SOL    HW2 8397   6.171   3.108   2.022
 2500SOL     OW 8398   3.747   4.385   6.796
 2500SOL    HW1 8399   3.717   4.298   6.759
 2500SOL    HW2 8400   3.676   4.422   6.857
 2501SOL     OW 8401   5.046   5.372   0.790
 2501SOL    HW1 8402   4.952   5.397   0.816
 2501SOL    HW2 8403   5.077   5.295   0.846
 2502SOL     OW 8404   1.028   0.299   4.392
 2502SOL    HW1 8405   1.119   0.310   4.432
 2502SOL    HW2 8406   1.018   0.205   4.358
 2503SOL     OW 8407   2.315   6.584   4.172
 2503SOL    HW1 8408   2.369   6.657   4.130
 2503SOL    HW2 8409   2.255   6.623   4.242
 2504SOL     OW 8410   3.994   5.226   3.794
 2504SOL    HW1 8411   3.922   5.196   3.857
 2504SOL    HW2 8412   4.028   5.316   3.822
 2505SOL     OW 8413   0.017   0.027   2.776
 2505SOL    HW1 8414   0.094   7.012   2.826
 2505SOL    HW2 8415   6.976   0.068   2.840
 2506SOL     OW 8416   0.004   3.922   6.301
 2506SOL    HW1 8417   6.955   3.897   6.237
 2506SOL    HW2 8418   0.089   3.938   6.251
 2507SOL     OW 8419   6.637   3.201   0.026
 2507SOL    HW1 8420   6.649   3.198   6.951
 2507SOL    HW2 8421   6.548   3.241   0.048
 2508SOL     OW 8422   3.025   1.529   3.436
 2508SOL    HW1 8423   2.938   1.520   3.388
 2508SOL    HW2 8424   3.098   1.549   3.370
 2509SOL     OW 8425   0.188   4.141   0.574
 2509SOL    HW1 8426   0.256   4.174   0.640
 2509SOL    HW2 8427   0.183   4.205   0.497
 2510SOL     OW 8428   2.586   5.194   1.177
 2510SOL    HW1 8429   2.639   5.128   1.230
 2510SOL    HW2 8430   2.501   5.153   1.146
 2511SOL     OW 8431   3.653   2.121   3.925
 2511SOL    HW1 8432   3.703   2.143   4.008
 2511SOL    HW2 8433   3.567   2.075   3.949
 2512SOL     OW 8434   4.646   3.995   5.320
 2512SOL    HW1 8435   4.600   3.907   5.334
 2512SOL    HW2 8436   4.579   4.069   5.329
 2513SOL     OW 8437   2.085   4.775   4.807
 2513SOL    HW1 8438   2.031   4.740   4.730
 2513SOL    HW2 8439   2.171   4.813   4.773
 2514SOL     OW 8440   0.588   3.857   5.160
 2514SOL    HW1 8441   0.528   3.905   5.097
 2514SOL    HW2 8442   0.612   3.767   5.122
 2515SOL     OW 8443   0.954   6.536   0.372
 2515SOL    HW1 8444   1.052   6.556   0.362
 2515SOL    HW2 8445   0.922   6.487   0.291
 2516SOL     OW 8446   5.127   1.501   3.121
 2516SOL    HW1 8447   5.205   1.549   3.081
 2516SOL    HW2 8448   5.159   1.419   3.169
 2517SOL     OW 8449   0.449   6.897   6.204
 2517SOL    HW1 8450   0.412   6.807   6.180
 2517SOL    HW2 8451   0.503   6.932   6.127
 2518SOL     OW 8452   1.777   5.472   0.577
 2518SOL    HW1 8453   1.755   5.471   0.479
 2518SOL    HW2 8454   1.876   5.473   0.589
 2519SOL     OW 8455   3.563   6.392   2.007
 2519SOL    HW1 8456   3.550   6.307   1.956
 2519SOL    HW2 8457   3.521   6.384   2.097
 2520SOL     OW 8458   3.339   1.595   0.804
 2520SOL    HW1 8459   3.436   1.576   0.786
 2520SOL    HW2 8460   3.294   1.510   0.832
 2521SOL     OW 8461   2.876   0.503   5.235
 2521SOL    HW1 8462   2.976   0.500   5.243
 2521SOL    HW2 8463   2.838   0.412   5.256
 2522SOL     OW 8464   0.542   2.244   5.367
 2522SOL    HW1 8465   0.626   2.294   5.387
 2522SOL    HW2 8466   0.473   2.267   5.435
 2523SOL     OW 8467   0.816   2.758   0.963
 2523SOL    HW1 8468   0.721   2.774   0.990
 2523SOL    HW2 8469   0.876   2.781   1.039
 2524SOL     OW 8470   0.409   6.582   5.099
 2524SOL    HW1 8471   0.419   6.583   5.199
 2524SOL    HW2 8472   0.313   6.590   5.075
 2525SOL     OW 8473   0.787   2.350   5.409
 2525SOL    HW1 8474   0.857   2.279   5.414
 2525SOL    HW2 8475   0.831   2.440   5.404
 2526SOL     OW 8476   1.646   5.065   6.457
 2526SOL    HW1 8477   1.630   5.035   6.363
 2526SOL    HW2 8478   1.614   5.159   6.468
 2527SOL     OW 8479   5.477   6.323   5.942
 2527SOL    HW1 8480   5.532   6.350   5.863
 2527SOL    HW2 8481   5.521   6.246   5.989
 2528SOL     OW 8482   6.440   4.740   6.887
 2528SOL    HW1 8483   6.403   4.797   6.961
 2528SOL    HW2 8484   6.456   4.797   6.807
 2529SOL     OW 8485   6.502   6.217   6.451
 2529SOL    HW1 8486   6.493   6.175   6.361
 2529SOL    HW2 8487   6.429   6.183   6.511
 2530SOL     OW 8488   2.855   6.339   4.534
 2530SOL    HW1 8489   2.761   6.357   4.564
 2530SOL    HW2 8490   2.870   6.383   4.446
 2531SOL     OW 8491   5.413   5.947   4.812
 2531SOL    HW1 8492   5.431   5.903   4.724
 2531SOL    HW2 8493   5.488   5.927   4.875
 2532SOL     OW 8494   0.324   6.158   0.495
 2532SOL    HW1 8495   0.396   6.223   0.522
 2532SOL    HW2 8496   0.257   6.151   0.569
 2533SOL     OW 8497   3.825   6.525   4.198
 2533SOL    HW1 8498   3.784   6.615   4.185
 2533SOL    HW2 8499   3.925   6.533   4.190
 2534SOL     OW 8500   3.825   1.147   1.973
 2534SOL    HW1 8501   3.763   1.153   2.051
 2534SOL    HW2 8502   3.911   1.193   1.995
 2535SOL     OW 8503   3.163   3.212   5.491
 2535SOL    HW1 8504   3.258   3.242   5.491
 2535SOL    HW2 8505   3.157   3.119   5.456
 2536SOL     OW 8506   1.015   1.513   4.905
 2536SOL    HW1 8507   1.082   1.514   4.979
 2536SOL    HW2 8508   0.923   1.513   4.944
 2537SOL     OW 8509   3.535   0.529   6.280
 2537SOL    HW1 8510   3.460   0.471   6.312
 2537SOL    HW2 8511   3.500   0.596   6.214
 2538SOL     OW 8512   0.560   4.179   3.337
 2538SOL    HW1 8513   0.653   4.146   3.352
 2538SOL    HW2 8514   0.497   4.102   3.330
 2539SOL     OW 8515   5.926   0.917   4.687
 2539SOL    HW1 8516   5.861   0.891   4.759
 2539SOL    HW2 8517   5.994   0.980   4.725
 2540SOL     OW 8518   3.983   1.753   2.778
 2540SOL    HW1 8519   3.907   1.766   2.842
 2540SOL    HW2 8520   3.965   1.805   2.694
 2541SOL     OW 8521   2.507   0.553   5.133
 2541SOL    HW1 8522   2.435   0.559   5.063
 2541SOL    HW2 8523   2.580   0.617   5.110
 2542SOL     OW 8524   3.003   2.520   5.867
 2542SOL    HW1 8525   3.010   2.558   5.774
 2542SOL    HW2 8526   2.939   2.444   5.867
 2543SOL     OW 8527   1.182   0.830   2.864
 2543SOL    HW1 8528   1.195   0.829   2.765
 2543SOL    HW2 8529   1.238   0.903   2.904
 2544SOL     OW 8530   0.387   6.109   1.344
 2544SOL    HW1 8531   0.392   6.057   1.428
 2544SOL    HW2 8532   0.441   6.193   1.353
 2545SOL     OW 8533   0.853   6.990   2.357
 2545SOL    HW1 8534   0.765   6.952   2.388
 2545SOL    HW2 8535   0.838   0.056   2.317
 2546SOL     OW 8536   6.552   0.599   2.226
 2546SOL    HW1 8537   6.629   0.654   2.258
 2546SOL    HW2 8538   6.474   0.658   2.206
 2547SOL     OW 8539   6.664   4.644   0.275
 2547SOL    HW1 8540   6.749   4.603   0.308
 2547SOL    HW2 8541   6.612   4.681   0.353
 2548SOL     OW 8542   0.911   6.749   5.711
 2548SOL    HW1 8543   0.922   6.702   5.798
 2548SOL    HW2 8544   0.900   6.847   5.727
 2549SOL     OW 8545   1.779   0.275   0.998
 2549SOL    HW1 8546   1.836   0.339   0.947
 2549SOL    HW2 8547   1.773   0.304   1.094
 2550SOL     OW 8548   0.354   0.520   6.612
 2550SOL    HW1 8549   0.296   0.601   6.606
 2550SOL    HW2 8550   0.331   0.470   6.696
 2551SOL     OW 8551   3.086   5.309   0.333
 2551SOL    HW1 8552   3.116   5.377   0.266
 2551SOL    HW2 8553   3.046   5.230   0.286
 2552SOL     OW 8554   1.893   6.269   4.592
 2552SOL    HW1 8555   1.882   6.368   4.604
 2552SOL    HW2 8556   1.813   6.222   4.629
 2553SOL     OW 8557   4.838   3.527   6.022
 2553SOL    HW1 8558   4.759   3.498   6.077
 2553SOL    HW2 8559   4.831   3.625   6.004
 2554SOL     OW 8560   2.071   6.927   0.087
 2554SOL    HW1 8561   2.086   6.853   0.154
 2554SOL    HW2 8562   2.044   7.010   0.136
 2555SOL     OW 8563   5.282   6.788   5.148
 2555SOL    HW1 8564   5.378   6.796   5.121
 2555SOL    HW2 8565   5.247   6.698   5.121
 2556SOL     OW 8566   4.307   6.060   7.003
 2556SOL    HW1 8567   4.276   6.037   6.911
 2556SOL    HW2 8568   4.228   6.067   0.041
 2557SOL     OW 8569   2.396   4.628   6.848
 2557SOL    HW1 8570   2.439   4.718   6.852
 2557SOL    HW2 8571   2.369   4.599   6.940
 2558SOL     OW 8572   5.336   1.487   4.894
 2558SOL    HW1 8573   5.425   1.529   4.910
 2558SOL    HW2 8574   5.331   1.399   4.942
 2559SOL     OW 8575   0.676   4.157   4.967
 2559SOL    HW1 8576   0.584   4.190   4.991
 2559SOL    HW2 8577   0.719   4.118   5.048
 2560SOL     OW 8578   5.499   2.689   4.525
 2560SOL    HW1 8579   5.541   2.775   4.497
 2560SOL    HW2 8580   5.506   2.623   4.451
 2561SOL     OW 8581   3.055   5.855   5.036
 2561SOL    HW1 8582   3.034   5.861   5.134
 2561SOL    HW2 8583   2.986   5.904   4.984
 2562SOL     OW 8584   2.271   5.080   1.366
 2562SOL    HW1 8585   2.223   5.071   1.454
 2562SOL    HW2 8586   2.214   5.131   1.302
 2563SOL     OW 8587   3.805   1.792   0.367
 2563SOL    HW1 8588   3.854   1.767   0.450
 2563SOL    HW2 8589   3.711   1.818   0.389
 2564SOL     OW 8590   2.200   5.368   6.295
 2564SOL    HW1 8591   2.218   5.289   6.354
 2564SOL    HW2 8592   2.101   5.380   6.286
 2565SOL     OW 8593   1.344   0.183   7.002
 2565SOL    HW1 8594   1.273   0.128   6.958
 2565SOL    HW2 8595   1.304   0.269   0.011
 2566SOL     OW 8596   2.255   6.622   1.010
 2566SOL    HW1 8597   2.310   6.667   1.080
 2566SOL    HW2 8598   2.168   6.593   1.050
 2567SOL     OW 8599   0.945   0.591   0.850
 2567SOL    HW1 8600   0.853   0.618   0.877
 2567SOL    HW2 8601   0.982   0.528   0.919
 2568SOL     OW 8602   4.690   0.788   6.975
 2568SOL    HW1 8603   4.598   0.760   6.947
 2568SOL    HW2 8604   4.758   0.738   6.921
 2569SOL     OW 8605   3.003   1.142   2.184
 2569SOL    HW1 8606   2.929   1.129   2.117
 2569SOL    HW2 8607   2.970   1.116   2.275
 2570SOL     OW 8608   5.707   6.991   6.976
 2570SOL    HW1 8609   5.708   6.897   6.944
 2570SOL    HW2 8610   5.671   6.994   0.046
 2571SOL     OW 8611   2.440   4.481   5.083
 2571SOL    HW1 8612   2.382   4.407   5.050
 2571SOL    HW2 8613   2.389   4.567   5.083
 2572SOL     OW 8614   2.388   6.157   0.753
 2572SOL    HW1 8615   2.421   6.149   0.659
 2572SOL    HW2 8616   2.463   6.136   0.817
 2573SOL     OW 8617   6.899   1.783   1.626
 2573SOL    HW1 8618   6.818   1.841   1.635
 2573SOL    HW2 8619   6.894   1.732   1.540
 2574SOL     OW 8620   5.659   4.002   0.493
 2574SOL    HW1 8621   5.710   3.942   0.431
 2574SOL    HW2 8622   5.640   3.954   0.578
 2575SOL     OW 8623   5.304   5.451   0.955
 2575SOL    HW1 8624   5.273   5.419   0.865
 2575SOL    HW2 8625   5.350   5.376   1.002
 2576SOL     OW 8626   4.319   6.639   4.775
 2576SOL    HW1 8627   4.327   6.540   4.761
 2576SOL    HW2 8628   4.366   6.687   4.701
 2577SOL     OW 8629   3.845   6.420   2.323
 2577SOL    HW1 8630   3.829   6.486   2.249
 2577SOL    HW2 8631   3.774   6.431   2.393
 2578SOL     OW 8632   4.868   1.600   4.847
 2578SOL    HW1 8633   4.826   1.519   4.886
 2578SOL    HW2 8634   4.965   1.602   4.872
 2579SOL     OW 8635   1.937   6.750   2.956
 2579SOL    HW1 8636   1.919   6.771   3.052
 2579SOL    HW2 8637   1.916   6.654   2.938
 2580SOL     OW 8638   3.486   4.617   6.743
 2580SOL    HW1 8639   3.398   4.570   6.749
 2580SOL    HW2 8640   3.529   4.619   6.833
 2581SOL     OW 8641   1.956   4.888   1.850
 2581SOL    HW1 8642   2.037   4.890   1.908
 2581SOL    HW2 8643   1.957   4.806   1.793
 2582SOL     OW 8644   0.352   4.524   1.157
 2582SOL    HW1 8645   0.339   4.623   1.149
 2582SOL    HW2 8646   0.450   4.503   1.160
 2583SOL     OW 8647   1.513   1.996   6.080
 2583SOL    HW1 8648   1.527   1.897   6.071
 2583SOL    HW2 8649   1.597   2.039   6.113
 2584SOL     OW 8650   5.129   5.170   6.080
 2584SOL    HW1 8651   5.093   5.220   6.002
 2584SOL    HW2 8652   5.058   5.160   6.149
 2585SOL     OW 8653   3.765   3.369   0.679
 2585SOL    HW1 8654   3.791   3.460   0.647
 2585SOL    HW2 8655   3.804   3.354   0.771
 2586SOL     OW 8656   3.703   0.767   4.756
 2586SOL    HW1 8657   3.603   0.776   4.756
 2586SOL    HW2 8658   3.740   0.813   4.675
 2587SOL     OW 8659   6.314   0.782   3.496
 2587SOL    HW1 8660   6.259   0.798   3.414
 2587SOL    HW2 8661   6.277   0.703   3.545
 2588SOL     OW 8662   5.235   2.008   6.615
 2588SOL    HW1 8663   5.184   2.081   6.571
 2588SOL    HW2 8664   5.321   2.044   6.651
 2589SOL     OW 8665   1.372   6.726   5.419
 2589SOL    HW1 8666   1.294   6.692   5.367
 2589SOL    HW2 8667   1.424   6.648   5.456
 2590SOL     OW 8668   3.742   5.133   0.070
 2590SOL    HW1 8669   3.742   5.034   0.053
 2590SOL    HW2 8670   3.756   5.150   0.168
 2591SOL     OW 8671   6.919   4.633   2.919
 2591SOL    HW1 8672   6.820   4.624   2.913
 2591SOL    HW2 8673   6.956   4.562   2.979
 2592SOL     OW 8674   3.003   5.460   0.590
 2592SOL    HW1 8675   2.973   5.427   0.679
 2592SOL    HW2 8676   2.995   5.387   0.523
 2593SOL     OW 8677   4.583   6.105   6.942
 2593SOL    HW1 8678   4.635   6.105   0.003
 2593SOL    HW2 8679   4.490   6.074   6.960
 2594SOL     OW 8680   1.689   4.345   6.352
 2594SOL    HW1 8681   1.768   4.324   6.294
 2594SOL    HW2 8682   1.698   4.296   6.439
 2595SOL     OW 8683   0.183   1.071   4.225
 2595SOL    HW1 8684   0.255   1.138   4.212
 2595SOL    HW2 8685   0.219   0.992   4.275
 2596SOL     OW 8686   3.182   2.231   1.796
 2596SOL    HW1 8687   3.191   2.246   1.698
 2596SOL    HW2 8688   3.118   2.297   1.834
 2597SOL     OW 8689   0.780   5.452   6.443
 2597SOL    HW1 8690   0.774   5.492   6.352
 2597SOL    HW2 8691   0.734   5.363   6.443
 2598SOL     OW 8692   6.465   1.742   2.848
 2598SOL    HW1 8693   6.457   1.787   2.936
 2598SOL    HW2 8694   6.552   1.692   2.844
 2599SOL     OW 8695   1.517   6.078   1.035
 2599SOL    HW1 8696   1.587   6.082   0.964
 2599SOL    HW2 8697   1.547   6.132   1.114
 2600SOL     OW 8698   5.532   2.491   4.342
 2600SOL    HW1 8699   5.595   2.418   4.317
 2600SOL    HW2 8700   5.438   2.461   4.324
 2601SOL     OW 8701   1.786   1.480   1.595
 2601SOL    HW1 8702   1.813   1.533   1.676
 2601SOL    HW2 8703   1.688   1.489   1.581
 2602SOL     OW 8704   1.138   4.981   4.939
 2602SOL    HW1 8705   1.061   4.962   5.000
 2602SOL    HW2 8706   1.113   5.054   4.875
 2603SOL     OW 8707   3.204   1.160   3.040
 2603SOL    HW1 8708   3.283   1.196   3.090
 2603SOL    HW2 8709   3.227   1.072   2.998
 2604SOL     OW 8710   4.511   2.152   3.107
 2604SOL    HW1 8711   4.517   2.251   3.092
 2604SOL    HW2 8712   4.528   2.132   3.204
 2605SOL     OW 8713   1.944   3.078   2.644
 2605SOL    HW1 8714   2.040   3.053   2.636
 2605SOL    HW2 8715   1.934   3.155   2.707
 2606SOL     OW 8716   6.086   5.193   1.591
 2606SOL    HW1 8717   6.037   5.279   1.577
 2606SOL    HW2 8718   6.061   5.129   1.518
 2607SOL     OW 8719   0.565   1.713   1.477
 2607SOL    HW1 8720   0.640   1.698   1.542
 2607SOL    HW2 8721   0.479   1.682   1.518
 2608SOL     OW 8722   3.959   5.457   0.598
 2608SOL    HW1 8723   3.939   5.538   0.543
 2608SOL    HW2 8724   3.874   5.409   0.619
 2609SOL     OW 8725   6.006   1.343   2.235
 2609SOL    HW1 8726   6.050   1.416   2.183
 2609SOL    HW2 8727   6.004   1.367   2.332
 2610SOL     OW 8728   1.103   4.354   4.501
 2610SOL    HW1 8729   1.187   4.302   4.486
 2610SOL    HW2 8730   1.127   4.449   4.522
 2611SOL     OW 8731   4.577   6.189   0.491
 2611SOL    HW1 8732   4.569   6.273   0.543
 2611SOL    HW2 8733   4.519   6.118   0.533
 2612SOL     OW 8734   5.858   6.337   4.664
 2612SOL    HW1 8735   5.867   6.268   4.593
 2612SOL    HW2 8736   5.937   6.333   4.725
 2613SOL     OW 8737   2.492   5.138   5.872
 2613SOL    HW1 8738   2.516   5.175   5.962
 2613SOL    HW2 8739   2.395   5.153   5.855
 2614SOL     OW 8740   6.832   2.482   0.173
 2614SOL    HW1 8741   6.777   2.488   0.090
 2614SOL    HW2 8742   6.925   2.516   0.155
 2615SOL     OW 8743   0.841   3.241   2.121
 2615SOL    HW1 8744   0.798   3.203   2.203
 2615SOL    HW2 8745   0.786   3.216   2.041
 2616SOL     OW 8746   2.437   2.142   5.954
 2616SOL    HW1 8747   2.459   2.211   6.023
 2616SOL    HW2 8748   2.342   2.154   5.925
 2617SOL     OW 8749   4.684   1.076   0.443
 2617SOL    HW1 8750   4.720   1.065   0.535
 2617SOL    HW2 8751   4.591   1.113   0.448
 2618SOL     OW 8752   6.531   0.193   4.127
 2618SOL    HW1 8753   6.619   0.159   4.160
 2618SOL    HW2 8754   6.463   0.120   4.134
 2619SOL     OW 8755   4.643   1.884   1.883
 2619SOL    HW1 8756   4.726   1.926   1.920
 2619SOL    HW2 8757   4.658   1.862   1.787
 2620SOL     OW 8758   6.561   0.079   3.188
 2620SOL    HW1 8759   6.556   0.047   3.282
 2620SOL    HW2 8760   6.656   0.086   3.159
 2621SOL     OW 8761   1.194   5.372   2.384
 2621SOL    HW1 8762   1.115   5.349   2.440
 2621SOL    HW2 8763   1.233   5.459   2.414
 2622SOL     OW 8764   2.214   3.658   5.932
 2622SOL    HW1 8765   2.256   3.574   5.897
 2622SOL    HW2 8766   2.275   3.735   5.915
 2623SOL     OW 8767   1.030   1.101   5.213
 2623SOL    HW1 8768   1.128   1.084   5.209
 2623SOL    HW2 8769   1.009   1.190   5.172
 2624SOL     OW 8770   0.246   1.976   5.227
 2624SOL    HW1 8771   0.185   1.897   5.228
 2624SOL    HW2 8772   0.192   2.060   5.232
 2625SOL     OW 8773   2.470   3.794   5.664
 2625SOL    HW1 8774   2.525   3.723   5.708
 2625SOL    HW2 8775   2.515   3.823   5.579
 2626SOL     OW 8776   6.842   0.191   6.226
 2626SOL    HW1 8777   6.802   0.210   6.137
 2626SOL    HW2 8778   6.938   0.216   6.226
 2627SOL     OW 8779   2.285   1.244   5.683
 2627SOL    HW1 8780   2.223   1.226   5.607
 2627SOL    HW2 8781   2.271   1.176   5.755
 2628SOL     OW 8782   2.018   3.686   5.163
 2628SOL    HW1 8783   1.930   3.733   5.176
 2628SOL    HW2 8784   2.081   3.714   5.236
 2629SOL     OW 8785   3.871   3.736   2.676
 2629SOL    HW1 8786   3.917   3.786   2.749
 2629SOL    HW2 8787   3.928   3.739   2.593
 2630SOL     OW 8788   3.536   1.269   2.864
 2630SOL    HW1 8789   3.512   1.174   2.843
 2630SOL    HW2 8790   3.590   1.307   2.789
 2631SOL     OW 8791   5.007   1.044   6.532
 2631SOL    HW1 8792   4.953   1.126   6.553
 2631SOL    HW2 8793   5.040   1.048   6.438
 2632SOL     OW 8794   5.759   3.631   0.139
 2632SOL    HW1 8795   5.805   3.571   0.074
 2632SOL    HW2 8796   5.679   3.583   0.178
 2633SOL     OW 8797   6.521   2.420   4.902
 2633SOL    HW1 8798   6.518   2.341   4.840
 2633SOL    HW2 8799   6.520   2.387   4.996
 2634SOL     OW 8800   0.568   5.729   3.578
 2634SOL    HW1 8801   0.478   5.740   3.622
 2634SOL    HW2 8802   0.638   5.723   3.648
 2635SOL     OW 8803   6.701   5.565   4.207
 2635SOL    HW1 8804   6.744   5.481   4.242
 2635SOL    HW2 8805   6.624   5.541   4.148
 2636SOL     OW 8806   3.991   0.845   6.700
 2636SOL    HW1 8807   3.953   0.935   6.678
 2636SOL    HW2 8808   3.924   0.774   6.679
 2637SOL     OW 8809   6.311   1.590   4.022
 2637SOL    HW1 8810   6.366   1.662   4.063
 2637SOL    HW2 8811   6.274   1.531   4.095
 2638SOL     OW 8812   0.137   6.740   4.681
 2638SOL    HW1 8813   0.104   6.828   4.715
 2638SOL    HW2 8814   0.066   6.696   4.626
 2639SOL     OW 8815   6.663   5.933   6.480
 2639SOL    HW1 8816   6.695   5.868   6.548
 2639SOL    HW2 8817   6.633   6.017   6.526
 2640SOL     OW 8818   6.804   6.691   5.135
 2640SOL    HW1 8819   6.726   6.680   5.073
 2640SOL    HW2 8820   6.832   6.602   5.170
 2641SOL     OW 8821   5.091   2.209   1.555
 2641SOL    HW1 8822   5.088   2.185   1.458
 2641SOL    HW2 8823   5.140   2.295   1.567
 2642SOL     OW 8824   6.327   0.044   4.213
 2642SOL    HW1 8825   6.367   7.008   4.282
 2642SOL    HW2 8826   6.247   7.024   4.171
 2643SOL     OW 8827   1.224   3.666   3.747
 2643SOL    HW1 8828   1.187   3.721   3.672
 2643SOL    HW2 8829   1.187   3.698   3.834
 2644SOL     OW 8830   4.299   5.049   5.375
 2644SOL    HW1 8831   4.357   5.078   5.451
 2644SOL    HW2 8832   4.210   5.095   5.380
 2645SOL     OW 8833   5.251   5.099   3.664
 2645SOL    HW1 8834   5.215   5.028   3.725
 2645SOL    HW2 8835   5.283   5.177   3.718
 2646SOL     OW 8836   0.109   2.561   0.161
 2646SOL    HW1 8837   0.111   2.506   0.078
 2646SOL    HW2 8838   0.188   2.538   0.218
 2647SOL     OW 8839   5.770   0.119   1.617
 2647SOL    HW1 8840   5.780   0.181   1.539
 2647SOL    HW2 8841   5.860   0.095   1.652
 2648SOL     OW 8842   6.959   6.595   4.544
 2648SOL    HW1 8843   6.933   6.511   4.497
 2648SOL    HW2 8844   6.881   6.630   4.595
 2649SOL     OW 8845   6.252   3.286   1.358
 2649SOL    HW1 8846   6.290   3.264   1.447
 2649SOL    HW2 8847   6.302   3.363   1.318
 2650SOL     OW 8848   2.483   5.645   4.442
 2650SOL    HW1 8849   2.396   5.642   4.491
 2650SOL    HW2 8850   2.466   5.649   4.343
 2651SOL     OW 8851   2.851   1.268   0.445
 2651SOL    HW1 8852   2.840   1.331   0.368
 2651SOL    HW2 8853   2.895   1.184   0.413
 2652SOL     OW 8854   4.821   3.343   5.817
 2652SOL    HW1 8855   4.823   3.410   5.891
 2652SOL    HW2 8856   4.782   3.257   5.852
 2653SOL     OW 8857   4.541   5.787   5.944
 2653SOL    HW1 8858   4.587   5.874   5.958
 2653SOL    HW2 8859   4.592   5.732   5.878
 2654SOL     OW 8860   4.865   6.178   1.290
 2654SOL    HW1 8861   4.900   6.125   1.367
 2654SOL    HW2 8862   4.827   6.265   1.322
 2655SOL     OW 8863   4.650   5.499   3.819
 2655SOL    HW1 8864   4.586   5.482   3.894
 2655SOL    HW2 8865   4.737   5.453   3.839
 2656SOL     OW 8866   3.558   5.024   3.910
 2656SOL    HW1 8867   3.616   4.947   3.884
 2656SOL    HW2 8868   3.464   5.007   3.880
 2657SOL     OW 8869   2.099   3.358   0.775
 2657SOL    HW1 8870   2.019   3.367   0.716
 2657SOL    HW2 8871   2.169   3.302   0.729
 2658SOL     OW 8872   4.484   4.938   0.108
 2658SOL    HW1 8873   4.410   4.934   0.175
 2658SOL    HW2 8874   4.464   4.875   0.033
 2659SOL     OW 8875   4.717   3.210   5.443
 2659SOL    HW1 8876   4.672   3.300   5.446
 2659SOL    HW2 8877   4.652   3.142   5.409
 2660SOL     OW 8878   0.725   0.719   1.483
 2660SOL    HW1 8879   0.708   0.743   1.578
 2660SOL    HW2 8880   0.757   0.624   1.478
 2661SOL     OW 8881   1.943   6.585   1.649
 2661SOL    HW1 8882   1.866   6.599   1.712
 2661SOL    HW2 8883   1.963   6.671   1.602
 2662SOL     OW 8884   2.488   0.320   3.738
 2662SOL    HW1 8885   2.492   0.222   3.720
 2662SOL    HW2 8886   2.505   0.337   3.835
 2663SOL     OW 8887   4.580   5.459   6.527
 2663SOL    HW1 8888   4.625   5.375   6.556
 2663SOL    HW2 8889   4.484   5.457   6.557
 2664SOL     OW 8890   4.216   3.137   5.378
 2664SOL    HW1 8891   4.119   3.137   5.352
 2664SOL    HW2 8892   4.239   3.050   5.422
 2665SOL     OW 8893   2.217   3.393   5.318
 2665SOL    HW1 8894   2.178   3.441   5.397
 2665SOL    HW2 8895   2.265   3.459   5.261
 2666SOL     OW 8896   1.508   4.392   1.446
 2666SOL    HW1 8897   1.448   4.313   1.462
 2666SOL    HW2 8898   1.509   4.413   1.349
 2667SOL     OW 8899   0.872   5.464   4.012
 2667SOL    HW1 8900   0.905   5.502   4.099
 2667SOL    HW2 8901   0.933   5.492   3.938
 2668SOL     OW 8902   5.785   2.698   4.280
 2668SOL    HW1 8903   5.844   2.626   4.318
 2668SOL    HW2 8904   5.726   2.734   4.353
 2669SOL     OW 8905   3.670   5.589   6.888
 2669SOL    HW1 8906   3.767   5.568   6.898
 2669SOL    HW2 8907   3.640   5.645   6.965
 2670SOL     OW 8908   5.858   2.768   4.564
 2670SOL    HW1 8909   5.848   2.834   4.639
 2670SOL    HW2 8910   5.801   2.688   4.583
 2671SOL     OW 8911   4.843   5.525   5.990
 2671SOL    HW1 8912   4.895   5.457   5.939
 2671SOL    HW2 8913   4.787   5.479   6.059
 2672SOL     OW 8914   3.357   6.757   1.804
 2672SOL    HW1 8915   3.433   6.693   1.817
 2672SOL    HW2 8916   3.386   6.849   1.830
 2673SOL     OW 8917   5.585   1.660   2.187
 2673SOL    HW1 8918   5.671   1.631   2.146
 2673SOL    HW2 8919   5.593   1.656   2.287
 2674SOL     OW 8920   1.447   4.997   4.088
 2674SOL    HW1 8921   1.501   5.055   4.028
 2674SOL    HW2 8922   1.500   4.974   4.170
 2675SOL     OW 8923   0.127   6.710   4.361
 2675SOL    HW1 8924   0.213   6.662   4.381
 2675SOL    HW2 8925   0.053   6.669   4.415
 2676SOL     OW 8926   3.718   3.432   2.408
 2676SOL    HW1 8927   3.722   3.512   2.468
 2676SOL    HW2 8928   3.704   3.350   2.464
 2677SOL     OW 8929   2.688   5.010   1.361
 2677SOL    HW1 8930   2.612   4.951   1.389
 2677SOL    HW2 8931   2.770   4.954   1.347
 2678SOL     OW 8932   6.778   2.290   1.788
 2678SOL    HW1 8933   6.703   2.235   1.824
 2678SOL    HW2 8934   6.865   2.241   1.799
 2679SOL     OW 8935   1.707   4.521   2.723
 2679SOL    HW1 8936   1.723   4.567   2.811
 2679SOL    HW2 8937   1.627   4.561   2.679
 2680SOL     OW 8938   1.042   2.466   0.178
 2680SOL    HW1 8939   1.085   2.485   0.090
 2680SOL    HW2 8940   1.081   2.382   0.217
 2681SOL     OW 8941   1.203   2.983   5.032
 2681SOL    HW1 8942   1.148   3.038   5.095
 2681SOL    HW2 8943   1.275   2.936   5.083
 2682SOL     OW 8944   5.064   3.929   3.228
 2682SOL    HW1 8945   5.109   3.841   3.242
 2682SOL    HW2 8946   5.124   3.990   3.177
 2683SOL     OW 8947   2.083   4.622   2.272
 2683SOL    HW1 8948   2.050   4.530   2.251
 2683SOL    HW2 8949   2.182   4.620   2.286
 2684SOL     OW 8950   4.961   0.003   1.455
 2684SOL    HW1 8951   4.900   0.037   1.527
 2684SOL    HW2 8952   4.994   6.936   1.479
 2685SOL     OW 8953   6.164   4.939   5.336
 2685SOL    HW1 8954   6.238   4.904   5.393
 2685SOL    HW2 8955   6.198   4.952   5.242
 2686SOL     OW 8956   1.005   1.510   5.294
 2686SOL    HW1 8957   1.063   1.437   5.257
 2686SOL    HW2 8958   0.920   1.470   5.328
 2687SOL     OW 8959   3.602   6.268   0.751
 2687SOL    HW1 8960   3.532   6.260   0.822
 2687SOL    HW2 8961   3.612   6.363   0.723
 2688SOL     OW 8962   2.910   1.708   0.718
 2688SOL    HW1 8963   2.951   1.787   0.673
 2688SOL    HW2 8964   2.957   1.691   0.805
 2689SOL     OW 8965   0.390   3.927   2.491
 2689SOL    HW1 8966   0.406   3.997   2.422
 2689SOL    HW2 8967   0.312   3.954   2.547
 2690SOL     OW 8968   2.949   3.458   6.740
 2690SOL    HW1 8969   2.981   3.403   6.662
 2690SOL    HW2 8970   2.945   3.554   6.714
 2691SOL     OW 8971   0.078   4.436   3.653
 2691SOL    HW1 8972   0.072   4.529   3.691
 2691SOL    HW2 8973   7.011   4.404   3.628
 2692SOL     OW 8974   2.205   6.630   2.729
 2692SOL    HW1 8975   2.131   6.576   2.768
 2692SOL    HW2 8976   2.177   6.726   2.724
 2693SOL     OW 8977   2.196   4.577   3.964
 2693SOL    HW1 8978   2.203   4.481   3.990
 2693SOL    HW2 8979   2.272   4.601   3.904
 2694SOL     OW 8980   4.089   6.744   3.289
 2694SOL    HW1 8981   4.062   6.834   3.323
 2694SOL    HW2 8982   4.176   6.752   3.239
 2695SOL     OW 8983   5.856   6.911   2.961
 2695SOL    HW1 8984   5.838   6.931   3.057
 2695SOL    HW2 8985   5.836   6.992   2.906
 2696SOL     OW 8986   4.757   4.180   5.500
 2696SOL    HW1 8987   4.842   4.172   5.552
 2696SOL    HW2 8988   4.754   4.109   5.430
 2697SOL     OW 8989   4.367   1.906   2.569
 2697SOL    HW1 8990   4.424   1.833   2.607
 2697SOL    HW2 8991   4.291   1.924   2.631
 2698SOL     OW 8992   1.950   4.863   6.794
 2698SOL    HW1 8993   2.022   4.816   6.743
 2698SOL    HW2 8994   1.987   4.943   6.840
 2699SOL     OW 8995   2.634   6.068   1.195
 2699SOL    HW1 8996   2.728   6.099   1.185
 2699SOL    HW2 8997   2.610   6.064   1.292
 2700SOL     OW 8998   2.808   1.428   1.163
 2700SOL    HW1 8999   2.781   1.387   1.250
 2700SOL    HW2 9000   2.784   1.525   1.162
 2701SOL     OW 9001   5.222   2.085   5.587
 2701SOL    HW1 9002   5.261   1.998   5.556
 2701SOL    HW2 9003   5.200   2.078   5.684
 2702SOL     OW 9004   1.046   2.010   2.961
 2702SOL    HW1 9005   1.081   1.919   2.981
 2702SOL    HW2 9006   1.114   2.061   2.908
 2703SOL     OW 9007   1.465   5.532   1.542
 2703SOL    HW1 9008   1.561   5.542   1.572
 2703SOL    HW2 9009   1.425   5.623   1.529
 2704SOL     OW 9010   6.996   5.503   2.093
 2704SOL    HW1 9011   7.006   5.576   2.025
 2704SOL    HW2 9012   0.063   5.466   2.115
 2705SOL     OW 9013   6.708   0.744   5.058
 2705SOL    HW1 9014   6.800   0.761   5.093
 2705SOL    HW2 9015   6.710   0.741   4.958
 2706SOL     OW 9016   6.546   4.717   4.266
 2706SOL    HW1 9017   6.609   4.640   4.256
 2706SOL    HW2 9018   6.458   4.684   4.298
 2707SOL     OW 9019   4.207   0.031   4.231
 2707SOL    HW1 9020   4.153   0.069   4.156
 2707SOL    HW2 9021   4.168   6.968   4.261
 2708SOL     OW 9022   6.558   2.819   0.864
 2708SOL    HW1 9023   6.508   2.901   0.835
 2708SOL    HW2 9024   6.528   2.792   0.956
 2709SOL     OW 9025   5.064   0.126   6.623
 2709SOL    HW1 9026   5.115   0.087   6.700
 2709SOL    HW2 9027   4.989   0.182   6.659
 2710SOL     OW 9028   1.958   2.759   3.886
 2710SOL    HW1 9029   2.043   2.712   3.908
 2710SOL    HW2 9030   1.969   2.858   3.901
 2711SOL     OW 9031   3.086   0.985   3.520
 2711SOL    HW1 9032   3.128   1.049   3.456
 2711SOL    HW2 9033   3.066   0.899   3.473
 2712SOL     OW 9034   2.776   5.351   2.228
 2712SOL    HW1 9035   2.785   5.442   2.186
 2712SOL    HW2 9036   2.769   5.361   2.327
 2713SOL     OW 9037   4.003   3.908   6.348
 2713SOL    HW1 9038   4.051   3.982   6.302
 2713SOL    HW2 9039   3.954   3.852   6.281
 2714SOL     OW 9040   3.822   3.634   0.013
 2714SOL    HW1 9041   3.810   3.716   0.069
 2714SOL    HW2 9042   3.795   3.553   0.066
 2715SOL     OW 9043   5.411   2.272   0.984
 2715SOL    HW1 9044   5.487   2.250   1.046
 2715SOL    HW2 9045   5.407   2.371   0.971
 2716SOL     OW 9046   5.193   3.065   3.729
 2716SOL    HW1 9047   5.254   3.098   3.657
 2716SOL    HW2 9048   5.156   3.143   3.780
 2717SOL     OW 9049   0.827   6.783   2.087
 2717SOL    HW1 9050   0.868   6.843   2.019
 2717SOL    HW2 9051   0.886   6.703   2.100
 2718SOL     OW 9052   0.152   1.426   5.171
 2718SOL    HW1 9053   0.144   1.485   5.251
 2718SOL    HW2 9054   0.065   1.379   5.156
 2719SOL     OW 9055   1.063   4.488   1.780
 2719SOL    HW1 9056   0.992   4.535   1.727
 2719SOL    HW2 9057   1.128   4.444   1.718
 2720SOL     OW 9058   0.796   0.245   3.751
 2720SOL    HW1 9059   0.838   0.199   3.829
 2720SOL    HW2 9060   0.863   0.251   3.676
 2721SOL     OW 9061   3.387   6.662   3.209
 2721SOL    HW1 9062   3.476   6.628   3.182
 2721SOL    HW2 9063   3.355   6.729   3.142
 2722SOL     OW 9064   4.866   5.354   6.413
 2722SOL    HW1 9065   4.822   5.391   6.331
 2722SOL    HW2 9066   4.901   5.262   6.393
 2723SOL     OW 9067   2.394   6.367   6.605
 2723SOL    HW1 9068   2.363   6.450   6.557
 2723SOL    HW2 9069   2.329   6.293   6.589
 2724SOL     OW 9070   1.440   6.215   6.517
 2724SOL    HW1 9071   1.428   6.166   6.431
 2724SOL    HW2 9072   1.403   6.161   6.592
 2725SOL     OW 9073   5.401   3.819   4.670
 2725SOL    HW1 9074   5.455   3.796   4.751
 2725SOL    HW2 9075   5.337   3.744   4.651
 2726SOL     OW 9076   0.748   1.831   1.679
 2726SOL    HW1 9077   0.784   1.912   1.633
 2726SOL    HW2 9078   0.667   1.857   1.732
 2727SOL     OW 9079   1.785   3.737   4.451
 2727SOL    HW1 9080   1.776   3.824   4.498
 2727SOL    HW2 9081   1.697   3.689   4.452
 2728SOL     OW 9082   5.434   6.149   6.280
 2728SOL    HW1 9083   5.452   6.111   6.371
 2728SOL    HW2 9084   5.336   6.143   6.260
 2729SOL     OW 9085   6.605   6.606   0.349
 2729SOL    HW1 9086   6.651   6.695   0.356
 2729SOL    HW2 9087   6.593   6.582   0.252
 2730SOL     OW 9088   0.837   5.965   1.953
 2730SOL    HW1 9089   0.782   6.020   2.016
 2730SOL    HW2 9090   0.782   5.942   1.872
 2731SOL     OW 9091   3.399   3.399   3.227
 2731SOL    HW1 9092   3.441   3.375   3.139
 2731SOL    HW2 9093   3.326   3.333   3.247
 2732SOL     OW 9094   5.915   2.314   1.305
 2732SOL    HW1 9095   5.885   2.408   1.286
 2732SOL    HW2 9096   5.834   2.257   1.322
 2733SOL     OW 9097   0.163   1.622   5.006
 2733SOL    HW1 9098   0.175   1.549   5.073
 2733SOL    HW2 9099   0.095   1.687   5.039
 2734SOL     OW 9100   3.440   5.667   1.607
 2734SOL    HW1 9101   3.503   5.623   1.673
 2734SOL    HW2 9102   3.493   5.719   1.541
 2735SOL     OW 9103   1.434   2.129   1.353
 2735SOL    HW1 9104   1.459   2.166   1.443
 2735SOL    HW2 9105   1.360   2.184   1.315
 2736SOL     OW 9106   6.071   6.289   4.858
 2736SOL    HW1 9107   6.141   6.231   4.817
 2736SOL    HW2 9108   6.110   6.378   4.881
 2737SOL     OW 9109   2.631   3.521   6.102
 2737SOL    HW1 9110   2.630   3.543   6.005
 2737SOL    HW2 9111   2.717   3.552   6.142
 2738SOL     OW 9112   6.192   6.420   2.383
 2738SOL    HW1 9113   6.124   6.433   2.455
 2738SOL    HW2 9114   6.157   6.354   2.316
 2739SOL     OW 9115   0.545   5.187   0.863
 2739SOL    HW1 9116   0.633   5.191   0.911
 2739SOL    HW2 9117   0.560   5.157   0.769
 2740SOL     OW 9118   6.720   5.285   1.795
 2740SOL    HW1 9119   6.749   5.301   1.889
 2740SOL    HW2 9120   6.748   5.193   1.766
 2741SOL     OW 9121   0.101   1.992   4.789
 2741SOL    HW1 9122   0.175   2.030   4.845
 2741SOL    HW2 9123   0.014   2.005   4.835
 2742SOL     OW 9124   1.978   5.180   1.334
 2742SOL    HW1 9125   1.907   5.250   1.337
 2742SOL    HW2 9126   2.039   5.196   1.257
 2743SOL     OW 9127   6.733   4.633   2.267
 2743SOL    HW1 9128   6.714   4.624   2.365
 2743SOL    HW2 9129   6.754   4.729   2.246
 2744SOL     OW 9130   4.357   3.166   1.641
 2744SOL    HW1 9131   4.315   3.245   1.687
 2744SOL    HW2 9132   4.298   3.086   1.650
 2745SOL     OW 9133   6.532   1.285   5.488
 2745SOL    HW1 9134   6.539   1.375   5.532
 2745SOL    HW2 9135   6.591   1.220   5.537
 2746SOL     OW 9136   0.926   2.593   4.240
 2746SOL    HW1 9137   1.013   2.624   4.277
 2746SOL    HW2 9138   0.906   2.501   4.274
 2747SOL     OW 9139   4.826   5.754   6.860
 2747SOL    HW1 9140   4.831   5.813   6.940
 2747SOL    HW2 9141   4.730   5.740   6.835
 2748SOL     OW 9142   4.272   0.806   1.710
 2748SOL    HW1 9143   4.253   0.904   1.707
 2748SOL    HW2 9144   4.234   0.766   1.793
 2749SOL     OW 9145   0.280   4.798   0.825
 2749SOL    HW1 9146   0.305   4.886   0.865
 2749SOL    HW2 9147   0.342   4.727   0.860
 2750SOL     OW 9148   2.031   4.348   2.228
 2750SOL    HW1 9149   2.037   4.311   2.135
 2750SOL    HW2 9150   1.935   4.350   2.257
 2751SOL     OW 9151   1.486   2.190   1.603
 2751SOL    HW1 9152   1.445   2.165   1.691
 2751SOL    HW2 9153   1.498   2.289   1.598
 2752SOL     OW 9154   3.485   4.158   5.978
 2752SOL    HW1 9155   3.564   4.216   5.994
 2752SOL    HW2 9156   3.407   4.215   5.949
 2753SOL     OW 9157   7.011   6.067   4.932
 2753SOL    HW1 9158   0.001   6.110   4.842
 2753SOL    HW2 9159   6.966   5.979   4.920
 2754SOL     OW 9160   0.200   0.113   0.006
 2754SOL    HW1 9161   0.195   0.206   0.042
 2754SOL    HW2 9162   0.121   0.095   6.972
 2755SOL     OW 9163   3.924   0.194   3.179
 2755SOL    HW1 9164   3.842   0.147   3.147
 2755SOL    HW2 9165   3.919   0.206   3.278
 2756SOL     OW 9166   4.155   6.192   0.414
 2756SOL    HW1 9167   4.063   6.211   0.449
 2756SOL    HW2 9168   4.204   6.278   0.399
 2757SOL     OW 9169   1.877   6.791   1.029
 2757SOL    HW1 9170   1.831   6.879   1.041
 2757SOL    HW2 9171   1.820   6.719   1.068
 2758SOL     OW 9172   4.585   0.015   4.530
 2758SOL    HW1 9173   4.604   0.098   4.582
 2758SOL    HW2 9174   4.671   7.002   4.494
 2759SOL     OW 9175   5.540   6.574   5.367
 2759SOL    HW1 9176   5.605   6.517   5.418
 2759SOL    HW2 9177   5.556   6.670   5.389
 2760SOL     OW 9178   1.041   5.776   1.264
 2760SOL    HW1 9179   1.071   5.695   1.213
 2760SOL    HW2 9180   1.000   5.746   1.351
 2761SOL     OW 9181   2.186   4.494   4.375
 2761SOL    HW1 9182   2.271   4.468   4.329
 2761SOL    HW2 9183   2.194   4.473   4.473
 2762SOL     OW 9184   1.038   0.984   4.884
 2762SOL    HW1 9185   1.114   1.022   4.830
 2762SOL    HW2 9186   0.953   1.029   4.857
 2763SOL     OW 9187   5.533   1.440   3.984
 2763SOL    HW1 9188   5.538   1.380   3.904
 2763SOL    HW2 9189   5.444   1.432   4.027
 2764SOL     OW 9190   6.363   0.362   1.116
 2764SOL    HW1 9191   6.288   0.340   1.054
 2764SOL    HW2 9192   6.442   0.303   1.095
 2765SOL     OW 9193   5.630   0.110   0.571
 2765SOL    HW1 9194   5.625   0.183   0.503
 2765SOL    HW2 9195   5.588   0.141   0.656
 2766SOL     OW 9196   4.880   2.799   0.411
 2766SOL    HW1 9197   4.790   2.791   0.455
 2766SOL    HW2 9198   4.907   2.895   0.409
 2767SOL     OW 9199   6.883   4.794   6.904
 2767SOL    HW1 9200   6.867   4.708   6.855
 2767SOL    HW2 9201   6.797   4.824   6.947
 2768SOL     OW 9202   5.027   0.783   0.462
 2768SOL    HW1 9203   5.078   0.698   0.476
 2768SOL    HW2 9204   5.083   0.847   0.409
 2769SOL     OW 9205   0.596   3.973   3.883
 2769SOL    HW1 9206   0.499   3.981   3.906
 2769SOL    HW2 9207   0.614   4.017   3.795
 2770SOL     OW 9208   2.516   5.623   6.277
 2770SOL    HW1 9209   2.589   5.577   6.327
 2770SOL    HW2 9210   2.505   5.581   6.187
 2771SOL     OW 9211   5.779   1.199   2.133
 2771SOL    HW1 9212   5.727   1.156   2.207
 2771SOL    HW2 9213   5.856   1.249   2.173
 2772SOL     OW 9214   4.636   1.727   1.213
 2772SOL    HW1 9215   4.648   1.668   1.293
 2772SOL    HW2 9216   4.544   1.713   1.176
 2773SOL     OW 9217   5.802   2.953   5.206
 2773SOL    HW1 9218   5.707   2.939   5.176
 2773SOL    HW2 9219   5.817   2.905   5.292
 2774SOL     OW 9220   6.587   3.451   2.745
 2774SOL    HW1 9221   6.596   3.435   2.843
 2774SOL    HW2 9222   6.514   3.392   2.709
 2775SOL     OW 9223   0.158   5.268   6.858
 2775SOL    HW1 9224   0.188   5.357   6.891
 2775SOL    HW2 9225   0.133   5.274   6.762
 2776SOL     OW 9226   5.475   4.884   5.665
 2776SOL    HW1 9227   5.482   4.975   5.707
 2776SOL    HW2 9228   5.414   4.827   5.721
 2777SOL     OW 9229   2.703   0.881   1.998
 2777SOL    HW1 9230   2.658   0.861   1.911
 2777SOL    HW2 9231   2.654   0.834   2.072
 2778SOL     OW 9232   1.213   0.774   4.766
 2778SOL    HW1 9233   1.163   0.845   4.817
 2778SOL    HW2 9234   1.177   0.684   4.791
 2779SOL     OW 9235   4.983   6.497   0.857
 2779SOL    HW1 9236   5.002   6.434   0.932
 2779SOL    HW2 9237   5.027   6.585   0.876
 2780SOL     OW 9238   7.007   5.990   6.626
 2780SOL    HW1 9239   0.048   6.045   6.573
 2780SOL    HW2 9240   7.009   6.018   6.722
 2781SOL     OW 9241   6.148   5.558   1.537
 2781SOL    HW1 9242   6.166   5.641   1.591
 2781SOL    HW2 9243   6.208   5.556   1.458
 2782SOL     OW 9244   2.914   1.950   5.706
 2782SOL    HW1 9245   2.824   1.973   5.671
 2782SOL    HW2 9246   2.981   2.017   5.674
 2783SOL     OW 9247   6.109   3.161   4.711
 2783SOL    HW1 9248   6.142   3.101   4.638
 2783SOL    HW2 9249   6.147   3.132   4.798
 2784SOL     OW 9250   3.059   1.767   1.281
 2784SOL    HW1 9251   3.148   1.786   1.239
 2784SOL    HW2 9252   2.995   1.839   1.255
 2785SOL     OW 9253   5.950   1.613   0.812
 2785SOL    HW1 9254   5.856   1.623   0.781
 2785SOL    HW2 9255   5.993   1.703   0.816
 2786SOL     OW 9256   4.141   5.631   1.939
 2786SOL    HW1 9257   4.156   5.580   2.024
 2786SOL    HW2 9258   4.052   5.678   1.944
 2787SOL     OW 9259   2.723   2.711   6.588
 2787SOL    HW1 9260   2.813   2.687   6.552
 2787SOL    HW2 9261   2.654   2.647   6.552
 2788SOL     OW 9262   2.795   4.439   6.879
 2788SOL    HW1 9263   2.851   4.357   6.888
 2788SOL    HW2 9264   2.699   4.417   6.894
 2789SOL     OW 9265   2.179   3.018   3.339
 2789SOL    HW1 9266   2.121   3.100   3.341
 2789SOL    HW2 9267   2.215   3.000   3.430
 2790SOL     OW 9268   2.492   5.224   2.468
 2790SOL    HW1 9269   2.465   5.282   2.391
 2790SOL    HW2 9270   2.528   5.137   2.434
 2791SOL     OW 9271   1.352   3.820   4.351
 2791SOL    HW1 9272   1.318   3.821   4.257
 2791SOL    HW2 9273   1.308   3.893   4.403
 2792SOL     OW 9274   0.616   6.999   4.840
 2792SOL    HW1 9275   0.606   6.929   4.769
 2792SOL    HW2 9276   0.672   6.963   4.914
 2793SOL     OW 9277   4.821   2.997   2.849
 2793SOL    HW1 9278   4.829   2.979   2.947
 2793SOL    HW2 9279   4.858   3.087   2.828
 2794SOL     OW 9280   6.888   2.737   1.154
 2794SOL    HW1 9281   6.809   2.739   1.216
 2794SOL    HW2 9282   6.877   2.806   1.083
 2795SOL     OW 9283   2.220   3.170   0.629
 2795SOL    HW1 9284   2.315   3.141   0.627
 2795SOL    HW2 9285   2.167   3.117   0.562
 2796SOL     OW 9286   6.463   5.216   2.634
 2796SOL    HW1 9287   6.440   5.309   2.604
 2796SOL    HW2 9288   6.545   5.186   2.587
 2797SOL     OW 9289   4.809   5.273   4.188
 2797SOL    HW1 9290   4.900   5.311   4.175
 2797SOL    HW2 9291   4.793   5.256   4.285
 2798SOL     OW 9292   1.275   4.664   1.842
 2798SOL    HW1 9293   1.190   4.613   1.855
 2798SOL    HW2 9294   1.330   4.619   1.771
 2799SOL     OW 9295   6.950   6.639   6.992
 2799SOL    HW1 9296   6.930   6.553   6.946
 2799SOL    HW2 9297   7.019   6.690   6.940
 2800SOL     OW 9298   4.429   5.295   6.811
 2800SOL    HW1 9299   4.338   5.256   6.823
 2800SOL    HW2 9300   4.494   5.249   6.871
 2801SOL     OW 9301   5.031   5.581   4.850
 2801SOL    HW1 9302   4.935   5.563   4.867
 2801SOL    HW2 9303   5.048   5.679   4.853
 2802SOL     OW 9304   4.533   2.846   5.999
 2802SOL    HW1 9305   4.513   2.899   5.916
 2802SOL    HW2 9306   4.579   2.761   5.974
 2803SOL     OW 9307   3.380   6.076   6.067
 2803SOL    HW1 9308   3.343   6.005   6.126
 2803SOL    HW2 9309   3.476   6.092   6.090
 2804SOL     OW 9310   6.866   5.025   4.838
 2804SOL    HW1 9311   6.775   5.010   4.799
 2804SOL    HW2 9312   6.866   4.994   4.933
 2805SOL     OW 9313   5.023   2.679   2.030
 2805SOL    HW1 9314   4.957   2.744   1.990
 2805SOL    HW2 9315   5.082   2.727   2.095
 2806SOL     OW 9316   7.012   5.041   3.805
 2806SOL    HW1 9317   0.082   5.067   3.826
 2806SOL    HW2 9318   6.985   5.081   3.717
 2807SOL     OW 9319   6.040   5.420   3.580
 2807SOL    HW1 9320   5.968   5.478   3.540
 2807SOL    HW2 9321   6.044   5.334   3.530
 2808SOL     OW 9322   5.107   2.861   2.629
 2808SOL    HW1 9323   5.067   2.870   2.538
 2808SOL    HW2 9324   5.115   2.951   2.671
 2809SOL     OW 9325   5.726   2.753   1.931
 2809SOL    HW1 9326   5.817   2.726   1.901
 2809SOL    HW2 9327   5.660   2.736   1.858
 2810SOL     OW 9328   3.277   6.184   3.882
 2810SOL    HW1 9329   3.303   6.088   3.868
 2810SOL    HW2 9330   3.326   6.220   3.962
 2811SOL     OW 9331   0.618   0.780   3.226
 2811SOL    HW1 9332   0.611   0.720   3.146
 2811SOL    HW2 9333   0.527   0.805   3.257
 2812SOL     OW 9334   5.229   3.526   7.009
 2812SOL    HW1 9335   5.306   3.482   6.962
 2812SOL    HW2 9336   5.187   3.460   0.048
 2813SOL     OW 9337   6.615   0.229   5.778
 2813SOL    HW1 9338   6.588   0.289   5.853
 2813SOL    HW2 9339   6.542   0.161   5.763
 2814SOL     OW 9340   5.221   3.376   6.605
 2814SOL    HW1 9341   5.273   3.294   6.580
 2814SOL    HW2 9342   5.129   3.370   6.564
 2815SOL     OW 9343   7.011   1.227   5.455
 2815SOL    HW1 9344   6.979   1.150   5.401
 2815SOL    HW2 9345   7.021   1.199   5.551
 2816SOL     OW 9346   6.602   6.210   3.666
 2816SOL    HW1 9347   6.524   6.249   3.617
 2816SOL    HW2 9348   6.674   6.186   3.600
 2817SOL     OW 9349   2.426   6.666   1.258
 2817SOL    HW1 9350   2.356   6.727   1.294
 2817SOL    HW2 9351   2.506   6.719   1.231
 2818SOL     OW 9352   0.157   6.811   6.893
 2818SOL    HW1 9353   0.224   6.873   6.851
 2818SOL    HW2 9354   0.148   6.832   6.990
 2819SOL     OW 9355   0.376   1.290   1.292
 2819SOL    HW1 9356   0.379   1.305   1.391
 2819SOL    HW2 9357   0.433   1.212   1.268
 2820SOL     OW 9358   1.253   1.795   2.969
 2820SOL    HW1 9359   1.295   1.810   2.879
 2820SOL    HW2 9360   1.317   1.822   3.040
 2821SOL     OW 9361   4.100   3.451   0.232
 2821SOL    HW1 9362   4.014   3.481   0.274
 2821SOL    HW2 9363   4.085   3.363   0.186
 2822SOL     OW 9364   4.315   2.058   0.036
 2822SOL    HW1 9365   4.238   2.087   0.093
 2822SOL    HW2 9366   4.373   2.137   0.016
 2823SOL     OW 9367   3.497   6.638   0.364
 2823SOL    HW1 9368   3.502   6.735   0.341
 2823SOL    HW2 9369   3.403   6.606   0.354
 2824SOL     OW 9370   2.492   1.024   4.064
 2824SOL    HW1 9371   2.513   0.980   4.151
 2824SOL    HW2 9372   2.569   1.082   4.037
 2825SOL     OW 9373   6.789   0.449   6.721
 2825SOL    HW1 9374   6.883   0.483   6.710
 2825SOL    HW2 9375   6.768   0.384   6.649
 2826SOL     OW 9376   5.042   2.093   0.078
 2826SOL    HW1 9377   5.007   2.065   0.167
 2826SOL    HW2 9378   5.060   2.191   0.078
 2827SOL     OW 9379   6.047   0.968   4.981
 2827SOL    HW1 9380   6.120   0.927   4.926
 2827SOL    HW2 9381   6.083   0.996   5.070
 2828SOL     OW 9382   2.749   0.971   0.297
 2828SOL    HW1 9383   2.752   0.918   0.213
 2828SOL    HW2 9384   2.840   0.973   0.339
 2829SOL     OW 9385   3.462   3.668   5.805
 2829SOL    HW1 9386   3.517   3.715   5.737
 2829SOL    HW2 9387   3.372   3.646   5.767
 2830SOL     OW 9388   0.997   3.342   6.762
 2830SOL    HW1 9389   0.974   3.267   6.700
 2830SOL    HW2 9390   0.916   3.397   6.779
 2831SOL     OW 9391   0.631   6.082   3.586
 2831SOL    HW1 9392   0.702   6.069   3.517
 2831SOL    HW2 9393   0.672   6.076   3.677
 2832SOL     OW 9394   0.840   1.322   2.262
 2832SOL    HW1 9395   0.868   1.393   2.197
 2832SOL    HW2 9396   0.790   1.365   2.337
 2833SOL     OW 9397   4.715   2.648   2.581
 2833SOL    HW1 9398   4.634   2.595   2.609
 2833SOL    HW2 9399   4.720   2.651   2.482
 2834SOL     OW 9400   2.629   6.772   5.347
 2834SOL    HW1 9401   2.574   6.846   5.386
 2834SOL    HW2 9402   2.707   6.753   5.407
 2835SOL     OW 9403   0.008   0.665   2.358
 2835SOL    HW1 9404   0.056   0.624   2.280
 2835SOL    HW2 9405   0.074   0.711   2.418
 2836SOL     OW 9406   6.167   6.889   2.053
 2836SOL    HW1 9407   6.115   6.973   2.071
 2836SOL    HW2 9408   6.265   6.908   2.059
 2837SOL     OW 9409   5.643   3.809   3.261
 2837SOL    HW1 9410   5.699   3.891   3.255
 2837SOL    HW2 9411   5.562   3.819   3.203
 2838SOL     OW 9412   1.858   4.184   1.020
 2838SOL    HW1 9413   1.808   4.106   1.058
 2838SOL    HW2 9414   1.879   4.249   1.092
 2839SOL     OW 9415   5.692   1.967   1.857
 2839SOL    HW1 9416   5.623   1.944   1.925
 2839SOL    HW2 9417   5.725   2.061   1.872
 2840SOL     OW 9418   1.374   0.716   3.731
 2840SOL    HW1 9419   1.319   0.792   3.695
 2840SOL    HW2 9420   1.349   0.699   3.826
 2841SOL     OW 9421   0.695   1.166   6.138
 2841SOL    HW1 9422   0.788   1.179   6.172
 2841SOL    HW2 9423   0.676   1.069   6.128
 2842SOL     OW 9424   0.083   3.657   4.176
 2842SOL    HW1 9425   0.142   3.704   4.242
 2842SOL    HW2 9426   0.003   3.713   4.155
 2843SOL     OW 9427   2.619   1.592   2.825
 2843SOL    HW1 9428   2.536   1.537   2.816
 2843SOL    HW2 9429   2.700   1.532   2.820
 2844SOL     OW 9430   1.027   5.671   0.682
 2844SOL    HW1 9431   0.942   5.634   0.645
 2844SOL    HW2 9432   1.013   5.767   0.708
 2845SOL     OW 9433   0.665   3.003   1.231
 2845SOL    HW1 9434   0.741   3.026   1.170
 2845SOL    HW2 9435   0.603   2.939   1.184
 2846SOL     OW 9436   4.428   1.027   6.521
 2846SOL    HW1 9437   4.527   1.034   6.509
 2846SOL    HW2 9438   4.403   0.932   6.537
 2847SOL     OW 9439   5.248   3.284   3.314
 2847SOL    HW1 9440   5.257   3.221   3.391
 2847SOL    HW2 9441   5.152   3.306   3.299
 2848SOL     OW 9442   1.483   3.239   6.270
 2848SOL    HW1 9443   1.386   3.236   6.293
 2848SOL    HW2 9444   1.495   3.280   6.180
 2849SOL     OW 9445   3.592   6.766   1.313
 2849SOL    HW1 9446   3.552   6.823   1.241
 2849SOL    HW2 9447   3.588   6.815   1.400
 2850SOL     OW 9448   3.162   6.853   2.692
 2850SOL    HW1 9449   3.074   6.879   2.730
 2850SOL    HW2 9450   3.218   6.810   2.763
 2851SOL     OW 9451   0.154   2.763   5.721
 2851SOL    HW1 9452   0.104   2.688   5.764
 2851SOL    HW2 9453   0.118   2.850   5.754
 2852SOL     OW 9454   5.905   4.341   0.516
 2852SOL    HW1 9455   5.810   4.371   0.518
 2852SOL    HW2 9456   5.931   4.306   0.606
 2853SOL     OW 9457   1.957   2.481   0.573
 2853SOL    HW1 9458   2.040   2.427   0.568
 2853SOL    HW2 9459   1.980   2.577   0.590
 2854SOL     OW 9460   4.080   1.138   5.484
 2854SOL    HW1 9461   4.022   1.125   5.404
 2854SOL    HW2 9462   4.174   1.155   5.455
 2855SOL     OW 9463   2.961   0.919   6.319
 2855SOL    HW1 9464   2.866   0.906   6.348
 2855SOL    HW2 9465   2.987   1.014   6.334
 2856SOL     OW 9466   1.640   2.761   5.648
 2856SOL    HW1 9467   1.641   2.824   5.725
 2856SOL    HW2 9468   1.620   2.811   5.564
 2857SOL     OW 9469   3.192   1.686   2.293
 2857SOL    HW1 9470   3.285   1.691   2.329
 2857SOL    HW2 9471   3.127   1.679   2.368
 2858SOL     OW 9472   5.413   3.823   2.083
 2858SOL    HW1 9473   5.435   3.790   1.992
 2858SOL    HW2 9474   5.487   3.881   2.117
 2859SOL     OW 9475   5.170   2.412   0.152
 2859SOL    HW1 9476   5.123   2.497   0.177
 2859SOL    HW2 9477   5.210   2.422   0.061
 2860SOL     OW 9478   3.728   1.784   1.311
 2860SOL    HW1 9479   3.826   1.768   1.308
 2860SOL    HW2 9480   3.703   1.829   1.397
 2861SOL     OW 9481   4.259   4.672   6.171
 2861SOL    HW1 9482   4.232   4.684   6.267
 2861SOL    HW2 9483   4.358   4.656   6.167
 2862SOL     OW 9484   5.309   2.099   3.428
 2862SOL    HW1 9485   5.229   2.072   3.373
 2862SOL    HW2 9486   5.284   2.174   3.488
 2863SOL     OW 9487   4.792   1.486   0.112
 2863SOL    HW1 9488   4.826   1.567   0.065
 2863SOL    HW2 9489   4.710   1.510   0.164
 2864SOL     OW 9490   4.195   1.213   1.372
 2864SOL    HW1 9491   4.147   1.287   1.420
 2864SOL    HW2 9492   4.291   1.211   1.400
 2865SOL     OW 9493   5.516   4.618   5.543
 2865SOL    HW1 9494   5.439   4.681   5.535
 2865SOL    HW2 9495   5.576   4.648   5.617
 2866SOL     OW 9496   6.416   6.023   0.012
 2866SOL    HW1 9497   6.473   6.033   0.094
 2866SOL    HW2 9498   6.423   6.106   6.980
 2867SOL     OW 9499   5.701   3.916   2.110
 2867SOL    HW1 9500   5.752   3.924   2.196
 2867SOL    HW2 9501   5.731   3.835   2.060
 2868SOL     OW 9502   0.196   2.764   5.224
 2868SOL    HW1 9503   0.181   2.764   5.125
 2868SOL    HW2 9504   0.156   2.846   5.264
 2869SOL     OW 9505   6.187   1.071   4.107
 2869SOL    HW1 9506   6.256   1.032   4.167
 2869SOL    HW2 9507   6.097   1.066   4.152
 2870SOL     OW 9508   0.585   1.723   4.219
 2870SOL    HW1 9509   0.679   1.747   4.195
 2870SOL    HW2 9510   0.550   1.787   4.287
 2871SOL     OW 9511   0.845   2.315   0.296
 2871SOL    HW1 9512   0.895   2.246   0.244
 2871SOL    HW2 9513   0.899   2.400   0.299
 2872SOL     OW 9514   2.778   1.703   3.137
 2872SOL    HW1 9515   2.727   1.787   3.119
 2872SOL    HW2 9516   2.875   1.719   3.123
 2873SOL     OW 9517   0.136   4.790   2.980
 2873SOL    HW1 9518   0.096   4.729   2.912
 2873SOL    HW2 9519   0.235   4.796   2.965
 2874SOL     OW 9520   4.094   6.337   3.207
 2874SOL    HW1 9521   4.179   6.369   3.250
 2874SOL    HW2 9522   4.100   6.351   3.108
 2875SOL     OW 9523   5.369   6.361   0.619
 2875SOL    HW1 9524   5.310   6.432   0.656
 2875SOL    HW2 9525   5.464   6.393   0.616
 2876SOL     OW 9526   0.504   0.265   2.016
 2876SOL    HW1 9527   0.433   0.271   1.946
 2876SOL    HW2 9528   0.469   0.215   2.095
 2877SOL     OW 9529   3.818   2.891   5.124
 2877SOL    HW1 9530   3.887   2.930   5.063
 2877SOL    HW2 9531   3.853   2.805   5.163
 2878SOL     OW 9532   4.191   5.160   4.719
 2878SOL    HW1 9533   4.287   5.132   4.724
 2878SOL    HW2 9534   4.185   5.258   4.703
 2879SOL     OW 9535   4.913   4.439   1.064
 2879SOL    HW1 9536   5.003   4.432   1.022
 2879SOL    HW2 9537   4.884   4.534   1.065
 2880SOL     OW 9538   6.114   0.120   1.227
 2880SOL    HW1 9539   6.110   0.219   1.245
 2880SOL    HW2 9540   6.022   0.082   1.236
 2881SOL     OW 9541   5.632   6.461   0.665
 2881SOL    HW1 9542   5.672   6.379   0.707
 2881SOL    HW2 9543   5.653   6.462   0.567
 2882SOL     OW 9544   0.609   4.098   2.552
 2882SOL    HW1 9545   0.550   4.136   2.623
 2882SOL    HW2 9546   0.586   4.002   2.537
 2883SOL     OW 9547   5.445   6.578   3.570
 2883SOL    HW1 9548   5.403   6.571   3.661
 2883SOL    HW2 9549   5.545   6.574   3.579
 2884SOL     OW 9550   0.614   5.511   3.434
 2884SOL    HW1 9551   0.576   5.540   3.346
 2884SOL    HW2 9552   0.603   5.584   3.501
 2885SOL     OW 9553   0.745   3.143   2.491
 2885SOL    HW1 9554   0.712   3.233   2.463
 2885SOL    HW2 9555   0.730   3.077   2.417
 2886SOL     OW 9556   2.644   4.055   6.493
 2886SOL    HW1 9557   2.579   4.028   6.422
 2886SOL    HW2 9558   2.691   4.138   6.466
 2887SOL     OW 9559   1.547   7.021   4.430
 2887SOL    HW1 9560   1.551   6.931   4.475
 2887SOL    HW2 9561   1.528   0.068   4.499
 2888SOL     OW 9562   0.791   4.538   6.952
 2888SOL    HW1 9563   0.826   4.485   0.005
 2888SOL    HW2 9564   0.851   4.616   6.935
 2889SOL     OW 9565   2.030   6.902   2.500
 2889SOL    HW1 9566   1.938   6.917   2.463
 2889SOL    HW2 9567   2.034   6.935   2.595
 2890SOL     OW 9568   2.970   0.210   0.856
 2890SOL    HW1 9569   2.962   0.136   0.788
 2890SOL    HW2 9570   3.003   0.172   0.942
 2891SOL     OW 9571   2.140   3.791   3.637
 2891SOL    HW1 9572   2.041   3.782   3.638
 2891SOL    HW2 9573   2.168   3.862   3.703
 2892SOL     OW 9574   5.398   3.783   6.874
 2892SOL    HW1 9575   5.338   3.707   6.852
 2892SOL    HW2 9576   5.368   3.865   6.825
 2893SOL     OW 9577   0.055   6.511   4.852
 2893SOL    HW1 9578   0.082   6.593   4.802
 2893SOL    HW2 9579   0.128   6.485   4.916
 2894SOL     OW 9580   2.953   2.942   0.376
 2894SOL    HW1 9581   2.859   2.958   0.406
 2894SOL    HW2 9582   2.976   2.846   0.387
 2895SOL     OW 9583   4.078   2.945   6.427
 2895SOL    HW1 9584   4.089   2.846   6.432
 2895SOL    HW2 9585   4.068   2.983   6.519
 2896SOL     OW 9586   3.375   5.156   6.848
 2896SOL    HW1 9587   3.432   5.182   6.926
 2896SOL    HW2 9588   3.340   5.238   6.803
 2897SOL     OW 9589   3.171   5.677   3.177
 2897SOL    HW1 9590   3.226   5.726   3.244
 2897SOL    HW2 9591   3.079   5.661   3.214
 2898SOL     OW 9592   4.269   5.125   3.751
 2898SOL    HW1 9593   4.186   5.175   3.731
 2898SOL    HW2 9594   4.342   5.153   3.689
 2899SOL     OW 9595   0.608   1.818   0.102
 2899SOL    HW1 9596   0.644   1.726   0.083
 2899SOL    HW2 9597   0.680   1.874   0.141
 2900SOL     OW 9598   2.105   4.495   5.686
 2900SOL    HW1 9599   2.028   4.552   5.713
 2900SOL    HW2 9600   2.189   4.530   5.727
 2901SOL     OW 9601   1.877   0.081   3.027
 2901SOL    HW1 9602   1.802   0.147   3.026
 2901SOL    HW2 9603   1.960   0.125   3.059
 2902SOL     OW 9604   5.444   6.244   1.688
 2902SOL    HW1 9605   5.490   6.219   1.603
 2902SOL    HW2 9606   5.511   6.279   1.754
 2903SOL     OW 9607   3.286   0.308   0.720
 2903SOL    HW1 9608   3.325   0.377   0.659
 2903SOL    HW2 9609   3.211   0.348   0.772
 2904SOL     OW 9610   1.780   3.355   5.568
 2904SOL    HW1 9611   1.877   3.331   5.565
 2904SOL    HW2 9612   1.751   3.392   5.480
 2905SOL     OW 9613   1.776   2.629   3.522
 2905SOL    HW1 9614   1.681   2.607   3.500
 2905SOL    HW2 9615   1.836   2.560   3.482
 2906SOL     OW 9616   5.135   5.666   2.563
 2906SOL    HW1 9617   5.143   5.763   2.541
 2906SOL    HW2 9618   5.106   5.616   2.481
 2907SOL     OW 9619   0.515   1.325   3.966
 2907SOL    HW1 9620   0.583   1.400   3.966
 2907SOL    HW2 9621   0.507   1.289   4.059
 2908SOL     OW 9622   4.489   6.898   4.187
 2908SOL    HW1 9623   4.421   6.896   4.261
 2908SOL    HW2 9624   4.524   6.991   4.177
 2909SOL     OW 9625   0.453   6.265   3.839
 2909SOL    HW1 9626   0.377   6.200   3.833
 2909SOL    HW2 9627   0.433   6.345   3.782
 2910SOL     OW 9628   4.761   5.909   4.358
 2910SOL    HW1 9629   4.813   5.985   4.318
 2910SOL    HW2 9630   4.666   5.915   4.329
 2911SOL     OW 9631   1.729   5.436   3.656
 2911SOL    HW1 9632   1.659   5.424   3.726
 2911SOL    HW2 9633   1.714   5.523   3.609
 2912SOL     OW 9634   4.370   0.048   6.369
 2912SOL    HW1 9635   4.298   0.116   6.353
 2912SOL    HW2 9636   4.338   7.006   6.437
 2913SOL     OW 9637   2.120   4.975   2.471
 2913SOL    HW1 9638   2.094   5.071   2.477
 2913SOL    HW2 9639   2.047   4.923   2.426
 2914SOL     OW 9640   5.994   6.385   5.692
 2914SOL    HW1 9641   6.047   6.454   5.742
 2914SOL    HW2 9642   6.047   6.351   5.615
 2915SOL     OW 9643   5.389   1.490   5.278
 2915SOL    HW1 9644   5.485   1.511   5.257
 2915SOL    HW2 9645   5.385   1.419   5.348
 2916SOL     OW 9646   6.395   5.799   6.106
 2916SOL    HW1 9647   6.439   5.715   6.072
 2916SOL    HW2 9648   6.323   5.826   6.042
 2917SOL     OW 9649   4.110   6.565   2.063
 2917SOL    HW1 9650   4.173   6.628   2.111
 2917SOL    HW2 9651   4.022   6.564   2.110
 2918SOL     OW 9652   6.746   4.024   3.514
 2918SOL    HW1 9653   6.647   4.038   3.509
 2918SOL    HW2 9654   6.772   3.944   3.460
 2919SOL     OW 9655   6.844   0.903   0.897
 2919SOL    HW1 9656   6.797   0.815   0.901
 2919SOL    HW2 9657   6.943   0.887   0.893
 2920SOL     OW 9658   2.924   1.835   2.182
 2920SOL    HW1 9659   2.969   1.814   2.269
 2920SOL    HW2 9660   2.957   1.923   2.147
 2921SOL     OW 9661   0.913   6.986   2.960
 2921SOL    HW1 9662   0.845   0.035   2.949
 2921SOL    HW2 9663   0.875   6.912   3.016
 2922SOL     OW 9664   5.977   0.300   0.147
 2922SOL    HW1 9665   5.948   0.275   0.240
 2922SOL    HW2 9666   5.996   0.217   0.095
 2923SOL     OW 9667   0.029   4.603   1.848
 2923SOL    HW1 9668   0.120   4.594   1.807
 2923SOL    HW2 9669   0.028   4.557   1.936
 2924SOL     OW 9670   0.433   1.929   6.951
 2924SOL    HW1 9671   0.468   1.882   0.008
 2924SOL    HW2 9672   0.465   2.024   6.951
 2925SOL     OW 9673   4.844   0.981   3.528
 2925SOL    HW1 9674   4.875   0.922   3.454
 2925SOL    HW2 9675   4.805   0.925   3.601
 2926SOL     OW 9676   0.290   1.392   4.619
 2926SOL    HW1 9677   0.258   1.467   4.561
 2926SOL    HW2 9678   0.229   1.382   4.698
 2927SOL     OW 9679   1.604   1.486   2.205
 2927SOL    HW1 9680   1.633   1.394   2.230
 2927SOL    HW2 9681   1.635   1.551   2.274
 2928SOL     OW 9682   6.856   2.283   6.161
 2928SOL    HW1 9683   6.873   2.185   6.164
 2928SOL    HW2 9684   6.943   2.332   6.154
 2929SOL     OW 9685   0.599   0.709   6.314
 2929SOL    HW1 9686   0.556   0.795   6.342
 2929SOL    HW2 9687   0.603   0.647   6.392
 2930SOL     OW 9688   4.231   6.322   4.919
 2930SOL    HW1 9689   4.188   6.326   4.829
 2930SOL    HW2 9690   4.325   6.355   4.913
 2931SOL     OW 9691   5.650   5.554   0.047
 2931SOL    HW1 9692   5.727   5.603   0.007
 2931SOL    HW2 9693   5.678   5.513   0.134
 2932SOL     OW 9694   1.417   5.387   2.050
 2932SOL    HW1 9695   1.467   5.403   1.965
 2932SOL    HW2 9696   1.358   5.307   2.040
 2933SOL     OW 9697   6.302   3.342   3.095
 2933SOL    HW1 9698   6.233   3.411   3.119
 2933SOL    HW2 9699   6.393   3.377   3.118
 2934SOL     OW 9700   4.265   1.391   0.255
 2934SOL    HW1 9701   4.337   1.412   0.321
 2934SOL    HW2 9702   4.251   1.470   0.195
 2935SOL     OW 9703   6.236   3.546   1.674
 2935SOL    HW1 9704   6.230   3.645   1.684
 2935SOL    HW2 9705   6.330   3.521   1.653
 2936SOL     OW 9706   4.418   4.989   2.361
 2936SOL    HW1 9707   4.386   5.040   2.440
 2936SOL    HW2 9708   4.514   5.013   2.343
 2937SOL     OW 9709   4.294   5.075   0.270
 2937SOL    HW1 9710   4.364   5.145   0.257
 2937SOL    HW2 9711   4.206   5.120   0.287
 2938SOL     OW 9712   5.312   4.783   5.874
 2938SOL    HW1 9713   5.251   4.822   5.943
 2938SOL    HW2 9714   5.379   4.723   5.918
 2939SOL     OW 9715   0.614   0.264   4.540
 2939SOL    HW1 9716   0.613   0.278   4.440
 2939SOL    HW2 9717   0.598   0.351   4.585
 2940SOL     OW 9718   5.917   6.680   6.516
 2940SOL    HW1 9719   5.847   6.737   6.558
 2940SOL    HW2 9720   6.007   6.722   6.530
 2941SOL     OW 9721   2.400   2.237   4.389
 2941SOL    HW1 9722   2.445   2.226   4.300
 2941SOL    HW2 9723   2.451   2.304   4.444
 2942SOL     OW 9724   2.559   2.169   1.361
 2942SOL    HW1 9725   2.629   2.232   1.396
 2942SOL    HW2 9726   2.602   2.099   1.305
 2943SOL     OW 9727   6.022   4.174   2.759
 2943SOL    HW1 9728   6.047   4.081   2.732
 2943SOL    HW2 9729   6.040   4.187   2.857
 2944SOL     OW 9730   2.325   5.925   5.009
 2944SOL    HW1 9731   2.299   6.006   4.957
 2944SOL    HW2 9732   2.410   5.942   5.059
 2945SOL     OW 9733   3.656   4.130   3.834
 2945SOL    HW1 9734   3.738   4.079   3.861
 2945SOL    HW2 9735   3.603   4.154   3.916
 2946SOL     OW 9736   1.050   5.579   6.564
 2946SOL    HW1 9737   1.005   5.599   6.477
 2946SOL    HW2 9738   0.980   5.565   6.635
 2947SOL     OW 9739   0.777   4.017   6.824
 2947SOL    HW1 9740   0.689   4.063   6.811
 2947SOL    HW2 9741   0.851   4.080   6.803
 2948SOL     OW 9742   6.968   4.747   5.476
 2948SOL    HW1 9743   6.950   4.683   5.401
 2948SOL    HW2 9744   6.929   4.711   5.560
 2949SOL     OW 9745   2.060   5.963   1.153
 2949SOL    HW1 9746   2.010   5.879   1.173
 2949SOL    HW2 9747   2.101   5.958   1.062
 2950SOL     OW 9748   4.977   3.711   4.648
 2950SOL    HW1 9749   4.949   3.806   4.662
 2950SOL    HW2 9750   4.988   3.666   4.737
 2951SOL     OW 9751   6.649   2.294   1.504
 2951SOL    HW1 9752   6.713   2.240   1.559
 2951SOL    HW2 9753   6.568   2.239   1.482
 2952SOL     OW 9754   0.866   6.156   5.402
 2952SOL    HW1 9755   0.786   6.102   5.376
 2952SOL    HW2 9756   0.879   6.230   5.335
 2953SOL     OW 9757   4.926   2.982   3.097
 2953SOL    HW1 9758   5.025   2.985   3.085
 2953SOL    HW2 9759   4.902   3.014   3.189
 2954SOL     OW 9760   0.885   5.367   1.641
 2954SOL    HW1 9761   0.978   5.389   1.613
 2954SOL    HW2 9762   0.884   5.347   1.739
 2955SOL     OW 9763   1.212   3.633   1.134
 2955SOL    HW1 9764   1.212   3.728   1.104
 2955SOL    HW2 9765   1.305   3.598   1.133
 2956SOL     OW 9766   6.172   6.453   2.823
 2956SOL    HW1 9767   6.192   6.543   2.861
 2956SOL    HW2 9768   6.176   6.384   2.896
 2957SOL     OW 9769   6.651   3.146   1.565
 2957SOL    HW1 9770   6.741   3.105   1.549
 2957SOL    HW2 9771   6.646   3.179   1.659
 2958SOL     OW 9772   2.473   4.468   4.730
 2958SOL    HW1 9773   2.411   4.477   4.808
 2958SOL    HW2 9774   2.558   4.519   4.749
 2959SOL     OW 9775   4.328   4.555   0.825
 2959SOL    HW1 9776   4.254   4.589   0.884
 2959SOL    HW2 9777   4.408   4.536   0.880
 2960SOL     OW 9778   3.471   0.307   6.698
 2960SOL    HW1 9779   3.408   0.379   6.726
 2960SOL    HW2 9780   3.545   0.347   6.644
 2961SOL     OW 9781   5.234   2.657   4.577
 2961SOL    HW1 9782   5.227   2.593   4.653
 2961SOL    HW2 9783   5.331   2.677   4.560
 2962SOL     OW 9784   4.445   1.218   4.119
 2962SOL    HW1 9785   4.458   1.128   4.161
 2962SOL    HW2 9786   4.438   1.287   4.191
 2963SOL     OW 9787   2.357   1.489   5.774
 2963SOL    HW1 9788   2.315   1.520   5.860
 2963SOL    HW2 9789   2.320   1.400   5.749
 2964SOL     OW 9790   0.558   0.349   2.384
 2964SOL    HW1 9791   0.546   0.381   2.478
 2964SOL    HW2 9792   0.513   0.413   2.322
 2965SOL     OW 9793   0.133   1.030   4.907
 2965SOL    HW1 9794   0.070   1.002   4.834
 2965SOL    HW2 9795   0.219   1.062   4.866
 2966SOL     OW 9796   5.490   5.166   4.418
 2966SOL    HW1 9797   5.470   5.254   4.460
 2966SOL    HW2 9798   5.587   5.144   4.431
 2967SOL     OW 9799   6.351   2.200   4.484
 2967SOL    HW1 9800   6.329   2.124   4.422
 2967SOL    HW2 9801   6.270   2.257   4.497
 2968SOL     OW 9802   0.906   3.708   6.458
 2968SOL    HW1 9803   0.991   3.678   6.500
 2968SOL    HW2 9804   0.830   3.655   6.495
 2969SOL     OW 9805   5.938   1.493   4.579
 2969SOL    HW1 9806   5.933   1.395   4.563
 2969SOL    HW2 9807   5.954   1.541   4.493
 2970SOL     OW 9808   1.178   3.861   6.821
 2970SOL    HW1 9809   1.115   3.817   6.885
 2970SOL    HW2 9810   1.241   3.793   6.783
 2971SOL     OW 9811   5.676   3.224   5.729
 2971SOL    HW1 9812   5.617   3.187   5.801
 2971SOL    HW2 9813   5.757   3.167   5.720
 2972SOL     OW 9814   6.764   5.006   6.622
 2972SOL    HW1 9815   6.851   5.040   6.659
 2972SOL    HW2 9816   6.780   4.921   6.572
 2973SOL     OW 9817   5.721   1.018   4.458
 2973SOL    HW1 9818   5.796   0.953   4.452
 2973SOL    HW2 9819   5.649   0.992   4.394
 2974SOL     OW 9820   0.758   3.810   2.588
 2974SOL    HW1 9821   0.718   3.813   2.496
 2974SOL    HW2 9822   0.702   3.751   2.647
 2975SOL     OW 9823   0.555   2.232   5.088
 2975SOL    HW1 9824   0.548   2.217   5.186
 2975SOL    HW2 9825   0.645   2.200   5.056
 2976SOL     OW 9826   4.286   1.503   3.283
 2976SOL    HW1 9827   4.376   1.463   3.265
 2976SOL    HW2 9828   4.230   1.497   3.201
 2977SOL     OW 9829   1.549   6.208   3.822
 2977SOL    HW1 9830   1.481   6.274   3.854
 2977SOL    HW2 9831   1.504   6.129   3.782
 2978SOL     OW 9832   4.183   4.901   6.575
 2978SOL    HW1 9833   4.280   4.881   6.585
 2978SOL    HW2 9834   4.162   4.919   6.478
 2979SOL     OW 9835   4.994   6.566   4.464
 2979SOL    HW1 9836   4.938   6.647   4.483
 2979SOL    HW2 9837   5.078   6.594   4.418
 2980SOL     OW 9838   1.181   6.173   3.842
 2980SOL    HW1 9839   1.157   6.260   3.799
 2980SOL    HW2 9840   1.201   6.187   3.939
 2981SOL     OW 9841   0.799   1.271   5.662
 2981SOL    HW1 9842   0.748   1.289   5.578
 2981SOL    HW2 9843   0.819   1.358   5.707
 2982SOL     OW 9844   5.015   5.797   3.288
 2982SOL    HW1 9845   4.967   5.853   3.221
 2982SOL    HW2 9846   5.076   5.733   3.241
 2983SOL     OW 9847   0.920   1.562   3.900
 2983SOL    HW1 9848   0.993   1.494   3.893
 2983SOL    HW2 9849   0.958   1.649   3.932
 2984SOL     OW 9850   4.806   5.449   1.856
 2984SOL    HW1 9851   4.889   5.429   1.803
 2984SOL    HW2 9852   4.731   5.392   1.822
 2985SOL     OW 9853   0.950   2.936   5.183
 2985SOL    HW1 9854   0.871   2.922   5.123
 2985SOL    HW2 9855   0.957   3.033   5.205
 2986SOL     OW 9856   1.862   3.872   6.071
 2986SOL    HW1 9857   1.947   3.836   6.109
 2986SOL    HW2 9858   1.865   3.867   5.971
 2987SOL     OW 9859   5.303   0.712   3.673
 2987SOL    HW1 9860   5.349   0.783   3.726
 2987SOL    HW2 9861   5.210   0.699   3.706
 2988SOL     OW 9862   0.743   6.786   3.082
 2988SOL    HW1 9863   0.763   6.715   3.149
 2988SOL    HW2 9864   0.760   6.751   2.990
 2989SOL     OW 9865   6.399   6.259   0.528
 2989SOL    HW1 9866   6.397   6.358   0.519
 2989SOL    HW2 9867   6.436   6.234   0.617
 2990SOL     OW 9868   4.595   1.320   3.689
 2990SOL    HW1 9869   4.605   1.251   3.762
 2990SOL    HW2 9870   4.599   1.275   3.600
 2991SOL     OW 9871   6.859   3.763   6.880
 2991SOL    HW1 9872   6.811   3.710   6.950
 2991SOL    HW2 9873   6.898   3.701   6.812
 2992SOL     OW 9874   2.274   4.708   5.872
 2992SOL    HW1 9875   2.350   4.747   5.924
 2992SOL    HW2 9876   2.281   4.608   5.874
 2993SOL     OW 9877   0.936   5.028   1.682
 2993SOL    HW1 9878   0.909   5.057   1.590
 2993SOL    HW2 9879   1.034   5.042   1.694
 2994SOL     OW 9880   4.124   0.433   0.678
 2994SOL    HW1 9881   4.087   0.469   0.764
 2994SOL    HW2 9882   4.210   0.481   0.656
 2995SOL     OW 9883   1.624   3.361   6.563
 2995SOL    HW1 9884   1.645   3.397   6.653
 2995SOL    HW2 9885   1.642   3.431   6.494
 2996SOL     OW 9886   2.292   6.531   3.423
 2996SOL    HW1 9887   2.225   6.465   3.388
 2996SOL    HW2 9888   2.327   6.586   3.348
 2997SOL     OW 9889   5.173   0.327   1.654
 2997SOL    HW1 9890   5.210   0.245   1.698
 2997SOL    HW2 9891   5.134   0.388   1.723
 2998SOL     OW 9892   5.335   6.331   5.019
 2998SOL    HW1 9893   5.403   6.403   5.009
 2998SOL    HW2 9894   5.354   6.278   5.101
 2999SOL     OW 9895   3.320   4.974   3.777
 2999SOL    HW1 9896   3.225   4.977   3.808
 2999SOL    HW2 9897   3.324   4.936   3.685
 3000SOL     OW 9898   1.875   4.000   6.432
 3000SOL    HW1 9899   1.836   4.077   6.483
 3000SOL    HW2 9900   1.805   3.930   6.421
 3001SOL     OW 9901   5.728   5.827   6.846
 3001SOL    HW1 9902   5.777   5.913   6.848
 3001SOL    HW2 9903   5.786   5.754   6.883
 3002SOL     OW 9904   4.144   0.193   6.326
 3002SOL    HW1 9905   4.070   0.130   6.348
 3002SOL    HW2 9906   4.131   0.229   6.233
 3003SOL     OW 9907   2.408   7.015   6.546
 3003SOL    HW1 9908   2.460   0.077   6.544
 3003SOL    HW2 9909   2.433   6.959   6.467
 3004SOL     OW 9910   0.932   5.202   3.944
 3004SOL    HW1 9911   0.910   5.284   3.996
 3004SOL    HW2 9912   0.847   5.157   3.915
 3005SOL     OW 9913   3.034   2.559   0.131
 3005SOL    HW1 9914   2.940   2.591   0.120
 3005SOL    HW2 9915   3.039   2.462   0.107
 3006SOL     OW 9916   5.961   2.299   6.717
 3006SOL    HW1 9917   5.952   2.388   6.672
 3006SOL    HW2 9918   5.970   2.312   6.815
 3007SOL     OW 9919   5.929   4.846   2.151
 3007SOL    HW1 9920   5.962   4.759   2.114
 3007SOL    HW2 9921   5.840   4.832   2.196
 3008SOL     OW 9922   3.313   0.804   6.457
 3008SOL    HW1 9923   3.279   0.818   6.550
 3008SOL    HW2 9924   3.258   0.735   6.411
 3009SOL     OW 9925   0.106   6.675   3.241
 3009SOL    HW1 9926   0.114   6.760   3.292
 3009SOL    HW2 9927   0.193   6.657   3.193
 3010SOL     OW 9928   3.805   6.687   3.442
 3010SOL    HW1 9929   3.744   6.676   3.521
 3010SOL    HW2 9930   3.860   6.605   3.430
 3011SOL     OW 9931   5.451   1.516   0.514
 3011SOL    HW1 9932   5.455   1.591   0.448
 3011SOL    HW2 9933   5.361   1.473   0.511
 3012SOL     OW 9934   0.936   3.572   5.121
 3012SOL    HW1 9935   0.924   3.481   5.082
 3012SOL    HW2 9936   0.913   3.641   5.052
 3013SOL     OW 9937   5.287   5.509   4.749
 3013SOL    HW1 9938   5.204   5.534   4.798
 3013SOL    HW2 9939   5.360   5.488   4.815
 3014SOL     OW 9940   5.333   3.571   4.325
 3014SOL    HW1 9941   5.404   3.640   4.332
 3014SOL    HW2 9942   5.277   3.572   4.408
 3015SOL     OW 9943   2.581   2.435   0.411
 3015SOL    HW1 9944   2.681   2.437   0.416
 3015SOL    HW2 9945   2.552   2.343   0.384
 3016SOL     OW 9946   2.964   5.419   3.822
 3016SOL    HW1 9947   3.059   5.394   3.841
 3016SOL    HW2 9948   2.911   5.414   3.906
 3017SOL     OW 9949   0.915   5.303   1.901
 3017SOL    HW1 9950   0.929   5.206   1.920
 3017SOL    HW2 9951   0.969   5.357   1.966
 3018SOL     OW 9952   1.946   0.060   4.898
 3018SOL    HW1 9953   2.035   0.049   4.942
 3018SOL    HW2 9954   1.875   0.072   4.968
 3019SOL     OW 9955   2.376   6.835   0.214
 3019SOL    HW1 9956   2.377   6.904   0.285
 3019SOL    HW2 9957   2.285   6.794   0.208
 3020SOL     OW 9958   3.663   3.799   1.790
 3020SOL    HW1 9959   3.633   3.776   1.698
 3020SOL    HW2 9960   3.605   3.871   1.827
 3021SOL     OW 9961   3.321   0.858   0.146
 3021SOL    HW1 9962   3.307   0.807   0.231
 3021SOL    HW2 9963   3.399   0.820   0.096
 3022SOL     OW 9964   4.042   5.816   4.029
 3022SOL    HW1 9965   3.960   5.872   4.030
 3022SOL    HW2 9966   4.106   5.851   3.960
 3023SOL     OW 9967   4.747   0.043   2.533
 3023SOL    HW1 9968   4.730   6.972   2.504
 3023SOL    HW2 9969   4.761   0.100   2.452
 3024SOL     OW 9970   3.831   6.979   5.763
 3024SOL    HW1 9971   3.913   6.947   5.811
 3024SOL    HW2 9972   3.757   6.990   5.828
 3025SOL     OW 9973   4.058   2.005   0.445
 3025SOL    HW1 9974   4.004   1.933   0.401
 3025SOL    HW2 9975   4.034   2.012   0.541
 3026SOL     OW 9976   2.343   1.614   0.581
 3026SOL    HW1 9977   2.376   1.616   0.486
 3026SOL    HW2 9978   2.410   1.657   0.641
 3027SOL     OW 9979   4.331   0.408   1.994
 3027SOL    HW1 9980   4.235   0.430   1.976
 3027SOL    HW2 9981   4.370   0.364   1.913
 3028SOL     OW 9982   1.706   3.704   5.746
 3028SOL    HW1 9983   1.796   3.745   5.758
 3028SOL    HW2 9984   1.717   3.606   5.729
 3029SOL     OW 9985   0.453   5.096   4.960
 3029SOL    HW1 9986   0.427   5.031   5.032
 3029SOL    HW2 9987   0.465   5.046   4.874
 3030SOL     OW 9988   1.118   2.500   5.944
 3030SOL    HW1 9989   1.022   2.476   5.958
 3030SOL    HW2 9990   1.124   2.583   5.888
 3031SOL     OW 9991   6.913   3.573   1.010
 3031SOL    HW1 9992   6.853   3.510   1.059
 3031SOL    HW2 9993   7.003   3.573   1.053
 3032SOL     OW 9994   4.495   6.497   1.413
 3032SOL    HW1 9995   4.441   6.570   1.373
 3032SOL    HW2 9996   4.495   6.506   1.513
 3033SOL     OW 9997   0.502   2.664   1.325
 3033SOL    HW1 9998   0.419   2.647   1.378
 3033SOL    HW2 9999   0.581   2.633   1.377
 3034SOL     OW10000   1.813   5.715   3.283
 3034SOL    HW110001   1.872   5.644   3.323
 3034SOL    HW210002   1.807   5.793   3.345
 3035SOL     OW10003   6.874   3.362   0.099
 3035SOL    HW110004   6.923   3.323   0.176
 3035SOL    HW210005   6.793   3.306   0.079
 3036SOL     OW10006   1.574   2.854   6.071
 3036SOL    HW110007   1.603   2.759   6.077
 3036SOL    HW210008   1.604   2.892   5.984
 3037SOL     OW10009   0.310   5.801   4.366
 3037SOL    HW110010   0.307   5.701   4.377
 3037SOL    HW210011   0.404   5.830   4.351
 3038SOL     OW10012   5.752   6.229   6.675
 3038SOL    HW110013   5.814   6.283   6.618
 3038SOL    HW210014   5.805   6.170   6.736
 3039SOL     OW10015   6.795   3.650   1.857
 3039SOL    HW110016   6.711   3.684   1.816
 3039SOL    HW210017   6.812   3.556   1.826
 3040SOL     OW10018   4.672   3.294   6.376
 3040SOL    HW110019   4.767   3.296   6.408
 3040SOL    HW210020   4.664   3.347   6.292
 3041SOL     OW10021   2.108   3.029   5.016
 3041SOL    HW110022   2.206   3.017   5.030
 3041SOL    HW210023   2.058   2.952   5.055
 3042SOL     OW10024   5.304   6.938   1.570
 3042SOL    HW110025   5.274   6.854   1.617
 3042SOL    HW210026   5.403   6.936   1.561
 3043SOL     OW10027   0.894   5.450   1.265
 3043SOL    HW110028   0.983   5.489   1.240
 3043SOL    HW210029   0.907   5.356   1.296
 3044SOL     OW10030   3.235   4.731   6.224
 3044SOL    HW110031   3.216   4.796   6.297
 3044SOL    HW210032   3.155   4.724   6.164
 3045SOL     OW10033   5.012   0.946   3.079
 3045SOL    HW110034   5.033   0.984   2.989
 3045SOL    HW210035   4.913   0.949   3.095
 3046SOL     OW10036   2.668   1.965   6.986
 3046SOL    HW110037   2.700   2.054   6.955
 3046SOL    HW210038   2.743   1.899   6.983
 3047SOL     OW10039   5.469   6.743   2.197
 3047SOL    HW110040   5.561   6.778   2.215
 3047SOL    HW210041   5.427   6.715   2.284
 3048SOL     OW10042   4.149   2.984   1.640
 3048SOL    HW110043   4.076   2.995   1.708
 3048SOL    HW210044   4.118   3.022   1.553
 3049SOL     OW10045   1.208   6.295   1.951
 3049SOL    HW110046   1.154   6.265   1.872
 3049SOL    HW210047   1.159   6.274   2.035
 3050SOL     OW10048   3.574   0.992   2.882
 3050SOL    HW110049   3.555   0.913   2.940
 3050SOL    HW210050   3.605   0.961   2.792
 3051SOL     OW10051   2.290   3.859   6.790
 3051SOL    HW110052   2.288   3.949   6.746
 3051SOL    HW210053   2.284   3.788   6.720
 3052SOL     OW10054   4.391   0.903   2.107
 3052SOL    HW110055   4.405   1.002   2.118
 3052SOL    HW210056   4.421   0.856   2.190
 3053SOL     OW10057   0.001   1.508   6.526
 3053SOL    HW110058   0.060   1.559   6.588
 3053SOL    HW210059   6.975   1.438   6.578
 3054SOL     OW10060   6.815   2.528   1.449
 3054SOL    HW110061   6.857   2.551   1.362
 3054SOL    HW210062   6.739   2.464   1.434
 3055SOL     OW10063   4.836   6.764   4.192
 3055SOL    HW110064   4.893   6.700   4.140
 3055SOL    HW210065   4.894   6.832   4.237
 3056SOL     OW10066   6.821   1.550   5.821
 3056SOL    HW110067   6.810   1.531   5.918
 3056SOL    HW210068   6.918   1.565   5.801
 3057SOL     OW10069   4.079   6.109   3.532
 3057SOL    HW110070   4.018   6.033   3.553
 3057SOL    HW210071   4.160   6.076   3.484
 3058SOL     OW10072   6.867   5.824   1.092
 3058SOL    HW110073   6.808   5.902   1.108
 3058SOL    HW210074   6.939   5.849   1.027
 3059SOL     OW10075   2.336   2.332   4.060
 3059SOL    HW110076   2.336   2.428   4.032
 3059SOL    HW210077   2.419   2.287   4.026
 3060SOL     OW10078   0.841   6.147   0.571
 3060SOL    HW110079   0.821   6.156   0.473
 3060SOL    HW210080   0.757   6.153   0.623
 3061SOL     OW10081   6.021   0.704   5.363
 3061SOL    HW110082   5.980   0.770   5.300
 3061SOL    HW210083   6.106   0.742   5.400
 3062SOL     OW10084   1.170   6.863   6.765
 3062SOL    HW110085   1.144   6.944   6.818
 3062SOL    HW210086   1.260   6.877   6.724
 3063SOL     OW10087   2.843   5.492   1.683
 3063SOL    HW110088   2.764   5.440   1.714
 3063SOL    HW210089   2.823   5.533   1.594
 3064SOL     OW10090   5.376   3.672   3.994
 3064SOL    HW110091   5.337   3.604   4.055
 3064SOL    HW210092   5.433   3.736   4.047
 3065SOL     OW10093   2.108   0.543   6.820
 3065SOL    HW110094   2.208   0.547   6.812
 3065SOL    HW210095   2.069   0.628   6.785
 3066SOL     OW10096   4.808   4.893   0.697
 3066SOL    HW110097   4.796   4.855   0.605
 3066SOL    HW210098   4.838   4.989   0.690
 3067SOL     OW10099   3.885   2.179   4.857
 3067SOL    HW110100   3.893   2.197   4.955
 3067SOL    HW210101   3.796   2.138   4.838
 3068SOL     OW10102   5.407   5.994   0.973
 3068SOL    HW110103   5.339   6.036   1.032
 3068SOL    HW210104   5.376   5.902   0.948
 3069SOL     OW10105   6.582   6.185   1.983
 3069SOL    HW110106   6.681   6.174   1.993
 3069SOL    HW210107   6.553   6.271   2.024
 3070SOL     OW10108   1.505   0.829   2.537
 3070SOL    HW110109   1.464   0.848   2.448
 3070SOL    HW210110   1.486   0.904   2.599
 3071SOL     OW10111   5.739   5.917   3.706
 3071SOL    HW110112   5.767   6.012   3.724
 3071SOL    HW210113   5.780   5.857   3.774
 3072SOL     OW10114   1.279   6.345   0.653
 3072SOL    HW110115   1.360   6.389   0.615
 3072SOL    HW210116   1.201   6.408   0.649
 3073SOL     OW10117   0.387   3.275   5.484
 3073SOL    HW110118   0.308   3.234   5.439
 3073SOL    HW210119   0.399   3.369   5.451
 3074SOL     OW10120   5.307   2.731   0.809
 3074SOL    HW110121   5.386   2.689   0.854
 3074SOL    HW210122   5.223   2.693   0.848
 3075SOL     OW10123   1.783   5.997   1.340
 3075SOL    HW110124   1.870   5.985   1.293
 3075SOL    HW210125   1.797   6.052   1.423
 3076SOL     OW10126   6.734   1.637   4.682
 3076SOL    HW110127   6.659   1.588   4.638
 3076SOL    HW210128   6.790   1.682   4.612
 3077SOL     OW10129   5.124   5.513   2.790
 3077SOL    HW110130   5.126   5.572   2.709
 3077SOL    HW210131   5.061   5.551   2.857
 3078SOL     OW10132   1.003   3.329   1.324
 3078SOL    HW110133   0.980   3.252   1.383
 3078SOL    HW210134   0.938   3.334   1.248
 3079SOL     OW10135   2.574   1.980   4.302
 3079SOL    HW110136   2.517   1.940   4.374
 3079SOL    HW210137   2.525   1.975   4.215
 3080SOL     OW10138   4.927   4.306   3.370
 3080SOL    HW110139   5.011   4.300   3.425
 3080SOL    HW210140   4.848   4.305   3.431
 3081SOL     OW10141   0.256   2.716   6.033
 3081SOL    HW110142   0.169   2.684   6.070
 3081SOL    HW210143   0.298   2.643   5.978
 3082SOL     OW10144   3.500   0.015   3.643
 3082SOL    HW110145   3.570   0.083   3.667
 3082SOL    HW210146   3.518   7.004   3.551
 3083SOL     OW10147   4.343   6.409   3.344
 3083SOL    HW110148   4.404   6.482   3.372
 3083SOL    HW210149   4.298   6.370   3.424
 3084SOL     OW10150   4.870   3.941   4.704
 3084SOL    HW110151   4.883   3.979   4.612
 3084SOL    HW210152   4.774   3.916   4.716
 3085SOL     OW10153   0.657   4.764   2.032
 3085SOL    HW110154   0.652   4.817   1.947
 3085SOL    HW210155   0.752   4.740   2.050
 3086SOL     OW10156   3.999   1.846   2.130
 3086SOL    HW110157   3.959   1.922   2.078
 3086SOL    HW210158   3.928   1.805   2.188
 3087SOL     OW10159   1.108   5.230   4.237
 3087SOL    HW110160   1.018   5.249   4.198
 3087SOL    HW210161   1.136   5.136   4.214
 3088SOL     OW10162   2.293   4.920   5.707
 3088SOL    HW110163   2.322   5.001   5.757
 3088SOL    HW210164   2.286   4.843   5.771
 3089SOL     OW10165   1.169   3.071   0.490
 3089SOL    HW110166   1.082   3.067   0.441
 3089SOL    HW210167   1.152   3.062   0.588
 3090SOL     OW10168   2.024   2.379   1.828
 3090SOL    HW110169   2.055   2.327   1.749
 3090SOL    HW210170   1.949   2.331   1.873
 3091SOL     OW10171   1.620   6.802   0.272
 3091SOL    HW110172   1.710   6.786   0.314
 3091SOL    HW210173   1.591   6.896   0.292
 3092SOL     OW10174   5.073   6.891   0.430
 3092SOL    HW110175   5.160   6.922   0.393
 3092SOL    HW210176   5.040   6.957   0.498
 3093SOL     OW10177   5.517   5.629   5.751
 3093SOL    HW110178   5.608   5.661   5.778
 3093SOL    HW210179   5.452   5.652   5.823
 3094SOL     OW10180   3.041   6.709   4.191
 3094SOL    HW110181   3.056   6.649   4.112
 3094SOL    HW210182   2.953   6.757   4.180
 3095SOL     OW10183   2.729   5.775   4.437
 3095SOL    HW110184   2.643   5.754   4.483
 3095SOL    HW210185   2.796   5.704   4.459
 3096SOL     OW10186   0.952   0.361   4.700
 3096SOL    HW110187   0.949   0.271   4.657
 3096SOL    HW210188   0.859   0.397   4.708
 3097SOL     OW10189   0.431   2.252   1.200
 3097SOL    HW110190   0.348   2.215   1.240
 3097SOL    HW210191   0.507   2.188   1.215
 3098SOL     OW10192   2.411   3.662   1.013
 3098SOL    HW110193   2.503   3.650   1.049
 3098SOL    HW210194   2.349   3.688   1.087
 3099SOL     OW10195   0.265   5.661   4.705
 3099SOL    HW110196   0.211   5.744   4.690
 3099SOL    HW210197   0.208   5.580   4.689
 3100SOL     OW10198   6.430   0.050   4.658
 3100SOL    HW110199   6.452   0.147   4.665
 3100SOL    HW210200   6.512   7.023   4.634
 3101SOL     OW10201   5.410   5.968   5.920
 3101SOL    HW110202   5.442   6.008   5.834
 3101SOL    HW210203   5.489   5.948   5.979
 3102SOL     OW10204   0.369   5.122   3.106
 3102SOL    HW110205   0.342   5.030   3.136
 3102SOL    HW210206   0.468   5.133   3.115
 3103SOL     OW10207   3.271   1.014   1.688
 3103SOL    HW110208   3.248   0.968   1.773
 3103SOL    HW210209   3.340   1.085   1.705
 3104SOL     OW10210   4.822   6.402   5.468
 3104SOL    HW110211   4.901   6.426   5.525
 3104SOL    HW210212   4.855   6.364   5.381
 3105SOL     OW10213   6.005   4.606   2.030
 3105SOL    HW110214   5.961   4.523   2.066
 3105SOL    HW210215   6.041   4.587   1.938
 3106SOL     OW10216   6.171   0.695   2.890
 3106SOL    HW110217   6.113   0.692   2.809
 3106SOL    HW210218   6.115   0.684   2.972
 3107SOL     OW10219   4.268   0.680   3.823
 3107SOL    HW110220   4.189   0.740   3.809
 3107SOL    HW210221   4.330   0.723   3.889
 3108SOL     OW10222   1.236   0.461   4.490
 3108SOL    HW110223   1.252   0.455   4.588
 3108SOL    HW210224   1.310   0.514   4.447
 3109SOL     OW10225   5.735   5.726   2.520
 3109SOL    HW110226   5.815   5.785   2.518
 3109SOL    HW210227   5.677   5.745   2.442
 3110SOL     OW10228   1.454   1.847   3.175
 3110SOL    HW110229   1.444   1.750   3.198
 3110SOL    HW210230   1.524   1.857   3.105
 3111SOL     OW10231   6.615   5.772   3.713
 3111SOL    HW110232   6.565   5.732   3.789
 3111SOL    HW210233   6.566   5.852   3.678
 3112SOL     OW10234   5.272   2.392   6.219
 3112SOL    HW110235   5.306   2.468   6.164
 3112SOL    HW210236   5.178   2.411   6.249
 3113SOL     OW10237   1.765   6.502   4.515
 3113SOL    HW110238   1.832   6.547   4.457
 3113SOL    HW210239   1.679   6.491   4.465
 3114SOL     OW10240   4.547   2.543   6.895
 3114SOL    HW110241   4.458   2.545   6.850
 3114SOL    HW210242   4.620   2.545   6.826
 3115SOL     OW10243   4.703   3.346   6.667
 3115SOL    HW110244   4.768   3.407   6.712
 3115SOL    HW210245   4.663   3.393   6.587
 3116SOL     OW10246   6.714   3.590   0.087
 3116SOL    HW110247   6.732   3.650   0.165
 3116SOL    HW210248   6.752   3.500   0.105
 3117SOL     OW10249   4.545   3.739   5.341
 3117SOL    HW110250   4.446   3.754   5.333
 3117SOL    HW210251   4.573   3.666   5.278
 3118SOL     OW10252   0.313   4.753   0.170
 3118SOL    HW110253   0.251   4.777   0.246
 3118SOL    HW210254   0.368   4.833   0.145
 3119SOL     OW10255   1.757   3.306   5.833
 3119SOL    HW110256   1.756   3.344   5.740
 3119SOL    HW210257   1.852   3.299   5.864
 3120SOL     OW10258   2.780   6.766   4.058
 3120SOL    HW110259   2.847   6.806   3.995
 3120SOL    HW210260   2.701   6.735   4.007
 3121SOL     OW10261   0.358   1.600   2.568
 3121SOL    HW110262   0.264   1.571   2.551
 3121SOL    HW210263   0.366   1.634   2.661
 3122SOL     OW10264   2.770   5.908   5.591
 3122SOL    HW110265   2.797   5.813   5.575
 3122SOL    HW210266   2.834   5.951   5.655
 3123SOL     OW10267   3.161   0.514   4.185
 3123SOL    HW110268   3.130   0.542   4.094
 3123SOL    HW210269   3.206   0.592   4.229
 3124SOL     OW10270   4.149   6.675   4.564
 3124SOL    HW110271   4.165   6.670   4.662
 3124SOL    HW210272   4.202   6.604   4.518
 3125SOL     OW10273   6.339   1.854   5.442
 3125SOL    HW110274   6.394   1.774   5.418
 3125SOL    HW210275   6.323   1.855   5.541
 3126SOL     OW10276   4.979   5.105   6.323
 3126SOL    HW110277   5.024   5.078   6.409
 3126SOL    HW210278   4.897   5.050   6.310
 3127SOL     OW10279   1.159   2.407   3.105
 3127SOL    HW110280   1.129   2.475   3.038
 3127SOL    HW210281   1.239   2.358   3.070
 3128SOL     OW10282   2.009   0.073   6.433
 3128SOL    HW110283   1.946   0.131   6.382
 3128SOL    HW210284   2.041   0.121   6.515
 3129SOL     OW10285   0.948   4.170   6.720
 3129SOL    HW110286   1.034   4.125   6.698
 3129SOL    HW210287   0.947   4.262   6.679
 3130SOL     OW10288   1.953   4.059   1.811
 3130SOL    HW110289   1.899   3.977   1.793
 3130SOL    HW210290   2.039   4.054   1.760
 3131SOL     OW10291   0.498   2.399   1.492
 3131SOL    HW110292   0.533   2.305   1.491
 3131SOL    HW210293   0.408   2.401   1.447
 3132SOL     OW10294   4.825   4.855   5.748
 3132SOL    HW110295   4.794   4.948   5.729
 3132SOL    HW210296   4.794   4.794   5.674
 3133SOL     OW10297   3.388   2.009   3.077
 3133SOL    HW110298   3.485   2.026   3.092
 3133SOL    HW210299   3.350   1.962   3.157
 3134SOL     OW10300   4.563   4.882   1.727
 3134SOL    HW110301   4.575   4.974   1.765
 3134SOL    HW210302   4.649   4.852   1.684
 3135SOL     OW10303   4.793   0.881   4.825
 3135SOL    HW110304   4.709   0.935   4.827
 3135SOL    HW210305   4.793   0.818   4.903
 3136SOL     OW10306   5.318   0.213   6.943
 3136SOL    HW110307   5.378   0.292   6.956
 3136SOL    HW210308   5.223   0.242   6.957
 3137SOL     OW10309   5.802   0.448   3.596
 3137SOL    HW110310   5.863   0.513   3.642
 3137SOL    HW210311   5.857   0.376   3.553
 3138SOL     OW10312   6.699   1.968   3.940
 3138SOL    HW110313   6.626   2.024   3.978
 3138SOL    HW210314   6.781   1.977   3.997
 3139SOL     OW10315   4.865   6.947   0.249
 3139SOL    HW110316   4.846   6.902   0.161
 3139SOL    HW210317   4.944   6.903   0.292
 3140SOL     OW10318   6.012   6.971   6.702
 3140SOL    HW110319   6.068   6.901   6.747
 3140SOL    HW210320   5.925   6.931   6.674
 3141SOL     OW10321   0.599   6.300   6.050
 3141SOL    HW110322   0.585   6.399   6.050
 3141SOL    HW210323   0.613   6.267   6.143
 3142SOL     OW10324   4.613   6.113   1.620
 3142SOL    HW110325   4.619   6.156   1.710
 3142SOL    HW210326   4.619   6.184   1.550
 3143SOL     OW10327   0.539   2.524   6.642
 3143SOL    HW110328   0.601   2.595   6.610
 3143SOL    HW210329   0.579   2.434   6.622
 3144SOL     OW10330   2.983   4.278   1.137
 3144SOL    HW110331   2.997   4.226   1.053
 3144SOL    HW210332   3.022   4.370   1.126
 3145SOL     OW10333   1.622   4.845   2.818
 3145SOL    HW110334   1.636   4.937   2.856
 3145SOL    HW210335   1.641   4.847   2.719
 3146SOL     OW10336   1.448   6.963   3.291
 3146SOL    HW110337   1.376   6.910   3.246
 3146SOL    HW210338   1.428   0.037   3.282
 3147SOL     OW10339   4.243   5.128   6.979
 3147SOL    HW110340   4.266   5.080   0.039
 3147SOL    HW210341   4.186   5.070   6.921
 3148SOL     OW10342   5.448   5.878   4.534
 3148SOL    HW110343   5.397   5.930   4.466
 3148SOL    HW210344   5.534   5.846   4.495
 3149SOL     OW10345   3.536   0.646   4.997
 3149SOL    HW110346   3.517   0.598   5.082
 3149SOL    HW210347   3.631   0.628   4.969
 3150SOL     OW10348   6.402   5.568   3.842
 3150SOL    HW110349   6.375   5.664   3.846
 3150SOL    HW210350   6.388   5.533   3.750
 3151SOL     OW10351   3.765   0.709   6.641
 3151SOL    HW110352   3.681   0.750   6.607
 3151SOL    HW210353   3.747   0.615   6.672
 3152SOL     OW10354   1.426   4.896   1.991
 3152SOL    HW110355   1.522   4.909   1.965
 3152SOL    HW210356   1.401   4.800   1.979
 3153SOL     OW10357   7.005   4.203   1.702
 3153SOL    HW110358   6.952   4.119   1.707
 3153SOL    HW210359   0.056   4.199   1.769
 3154SOL     OW10360   5.991   1.541   0.283
 3154SOL    HW110361   5.892   1.528   0.283
 3154SOL    HW210362   6.021   1.561   0.377
 3155SOL     OW10363   6.991   5.220   1.534
 3155SOL    HW110364   6.932   5.159   1.483
 3155SOL    HW210365   0.036   5.167   1.583
 3156SOL     OW10366   3.832   3.088   3.959
 3156SOL    HW110367   3.744   3.134   3.953
 3156SOL    HW210368   3.857   3.076   4.055
 3157SOL     OW10369   1.612   3.017   4.990
 3157SOL    HW110370   1.669   3.015   5.072
 3157SOL    HW210371   1.661   2.974   4.914
 3158SOL     OW10372   4.604   0.244   1.844
 3158SOL    HW110373   4.677   0.256   1.912
 3158SOL    HW210374   4.622   0.305   1.767
 3159SOL     OW10375   5.487   0.628   0.219
 3159SOL    HW110376   5.440   0.706   0.260
 3159SOL    HW210377   5.530   0.656   0.133
 3160SOL     OW10378   6.489   5.645   5.524
 3160SOL    HW110379   6.564   5.590   5.487
 3160SOL    HW210380   6.470   5.616   5.618
 3161SOL     OW10381   1.386   1.361   3.016
 3161SOL    HW110382   1.289   1.380   3.033
 3161SOL    HW210383   1.407   1.377   2.920
 3162SOL     OW10384   0.787   5.556   0.503
 3162SOL    HW110385   0.725   5.610   0.446
 3162SOL    HW210386   0.742   5.535   0.590
 3163SOL     OW10387   3.312   2.300   0.210
 3163SOL    HW110388   3.393   2.247   0.186
 3163SOL    HW210389   3.319   2.391   0.169
 3164SOL     OW10390   4.459   4.458   1.460
 3164SOL    HW110391   4.378   4.507   1.492
 3164SOL    HW210392   4.502   4.410   1.537
 3165SOL     OW10393   0.725   6.532   1.604
 3165SOL    HW110394   0.773   6.608   1.648
 3165SOL    HW210395   0.677   6.479   1.673
 3166SOL     OW10396   5.072   2.344   6.497
 3166SOL    HW110397   5.167   2.334   6.468
 3166SOL    HW210398   5.069   2.372   6.593
 3167SOL     OW10399   0.266   4.743   1.622
 3167SOL    HW110400   0.361   4.745   1.653
 3167SOL    HW210401   0.207   4.787   1.691
 3168SOL     OW10402   5.355   2.990   0.480
 3168SOL    HW110403   5.387   3.082   0.501
 3168SOL    HW210404   5.255   2.988   0.482
 3169SOL     OW10405   0.670   2.907   5.918
 3169SOL    HW110406   0.723   2.930   5.836
 3169SOL    HW210407   0.654   2.808   5.920
 3170SOL     OW10408   3.918   0.584   0.563
 3170SOL    HW110409   3.983   0.514   0.592
 3170SOL    HW210410   3.936   0.669   0.612
 3171SOL     OW10411   6.880   6.711   1.169
 3171SOL    HW110412   6.971   6.695   1.131
 3171SOL    HW210413   6.848   6.802   1.142
 3172SOL     OW10414   0.685   5.569   5.784
 3172SOL    HW110415   0.734   5.613   5.859
 3172SOL    HW210416   0.600   5.529   5.820
 3173SOL     OW10417   2.781   1.700   1.311
 3173SOL    HW110418   2.752   1.792   1.339
 3173SOL    HW210419   2.878   1.688   1.332
 3174SOL     OW10420   2.396   2.721   6.798
 3174SOL    HW110421   2.418   2.819   6.790
 3174SOL    HW210422   2.466   2.676   6.854
 3175SOL     OW10423   6.782   6.389   0.386
 3175SOL    HW110424   6.735   6.476   0.374
 3175SOL    HW210425   6.754   6.347   0.472
 3176SOL     OW10426   2.155   5.091   4.842
 3176SOL    HW110427   2.109   5.078   4.930
 3176SOL    HW210428   2.253   5.072   4.852
 3177SOL     OW10429   4.891   5.801   5.457
 3177SOL    HW110430   4.971   5.789   5.397
 3177SOL    HW210431   4.808   5.782   5.406
 3178SOL     OW10432   6.690   3.395   1.054
 3178SOL    HW110433   6.643   3.483   1.060
 3178SOL    HW210434   6.684   3.348   1.141
 3179SOL     OW10435   2.023   2.838   1.637
 3179SOL    HW110436   1.928   2.868   1.634
 3179SOL    HW210437   2.084   2.916   1.621
 3180SOL     OW10438   4.453   0.663   6.913
 3180SOL    HW110439   4.359   0.681   6.884
 3180SOL    HW210440   4.473   0.566   6.904
 3181SOL     OW10441   0.682   0.183   2.995
 3181SOL    HW110442   0.582   0.178   2.996
 3181SOL    HW210443   0.718   0.173   3.088
 3182SOL     OW10444   1.057   1.083   5.604
 3182SOL    HW110445   1.038   0.986   5.609
 3182SOL    HW210446   0.971   1.134   5.594
 3183SOL     OW10447   4.681   4.053   1.557
 3183SOL    HW110448   4.758   4.091   1.506
 3183SOL    HW210449   4.651   3.968   1.515
 3184SOL     OW10450   2.673   1.981   2.579
 3184SOL    HW110451   2.639   1.946   2.492
 3184SOL    HW210452   2.643   2.075   2.591
 3185SOL     OW10453   6.062   0.622   6.476
 3185SOL    HW110454   6.000   0.623   6.554
 3185SOL    HW210455   6.113   0.536   6.474
 3186SOL     OW10456   3.266   0.922   2.967
 3186SOL    HW110457   3.274   0.833   2.921
 3186SOL    HW210458   3.266   0.909   3.066
 3187SOL     OW10459   4.246   4.317   6.998
 3187SOL    HW110460   4.245   4.322   0.074
 3187SOL    HW210461   4.300   4.393   6.962
 3188SOL     OW10462   3.634   5.702   3.143
 3188SOL    HW110463   3.647   5.801   3.139
 3188SOL    HW210464   3.719   5.657   3.169
 3189SOL     OW10465   2.348   1.081   2.987
 3189SOL    HW110466   2.318   1.135   3.066
 3189SOL    HW210467   2.446   1.093   2.973
 3190SOL     OW10468   0.750   6.604   1.320
 3190SOL    HW110469   0.689   6.677   1.292
 3190SOL    HW210470   0.743   6.590   1.419
 3191SOL     OW10471   3.628   6.684   0.829
 3191SOL    HW110472   3.627   6.784   0.835
 3191SOL    HW210473   3.682   6.657   0.749
 3192SOL     OW10474   0.663   2.417   1.172
 3192SOL    HW110475   0.680   2.415   1.073
 3192SOL    HW210476   0.564   2.413   1.188
 3193SOL     OW10477   4.416   2.112   6.541
 3193SOL    HW110478   4.502   2.125   6.591
 3193SOL    HW210479   4.347   2.175   6.576
 3194SOL     OW10480   1.383   2.490   6.472
 3194SOL    HW110481   1.358   2.470   6.378
 3194SOL    HW210482   1.317   2.553   6.512
 3195SOL     OW10483   2.085   2.454   2.490
 3195SOL    HW110484   2.051   2.538   2.448
 3195SOL    HW210485   2.053   2.448   2.584
 3196SOL     OW10486   6.182   0.426   5.107
 3196SOL    HW110487   6.247   0.496   5.076
 3196SOL    HW210488   6.201   0.340   5.061
 3197SOL     OW10489   1.643   5.703   3.606
 3197SOL    HW110490   1.690   5.771   3.550
 3197SOL    HW210491   1.551   5.735   3.627
 3198SOL     OW10492   6.356   2.310   6.887
 3198SOL    HW110493   6.335   2.379   6.818
 3198SOL    HW210494   6.283   2.241   6.889
 3199SOL     OW10495   4.813   2.596   2.178
 3199SOL    HW110496   4.905   2.589   2.139
 3199SOL    HW210497   4.772   2.684   2.153
 3200SOL     OW10498   6.821   1.733   1.340
 3200SOL    HW110499   6.915   1.699   1.346
 3200SOL    HW210500   6.797   1.749   1.245
 3201SOL     OW10501   5.199   4.211   4.170
 3201SOL    HW110502   5.119   4.269   4.151
 3201SOL    HW210503   5.186   4.123   4.125
 3202SOL     OW10504   1.564   4.424   1.915
 3202SOL    HW110505   1.538   4.484   1.839
 3202SOL    HW210506   1.597   4.337   1.878
 3203SOL     OW10507   5.819   1.053   1.065
 3203SOL    HW110508   5.823   0.994   0.984
 3203SOL    HW210509   5.899   1.036   1.123
 3204SOL     OW10510   5.706   5.953   1.512
 3204SOL    HW110511   5.670   5.909   1.594
 3204SOL    HW210512   5.725   6.049   1.531
 3205SOL     OW10513   0.140   4.002   6.852
 3205SOL    HW110514   0.231   4.020   6.891
 3205SOL    HW210515   0.078   4.077   6.875
 3206SOL     OW10516   6.972   6.934   5.952
 3206SOL    HW110517   0.015   7.006   5.939
 3206SOL    HW210518   6.884   6.974   5.978
 3207SOL     OW10519   0.406   1.476   6.481
 3207SOL    HW110520   0.465   1.556   6.488
 3207SOL    HW210521   0.429   1.425   6.399
 3208SOL     OW10522   3.880   6.159   5.232
 3208SOL    HW110523   3.980   6.170   5.229
 3208SOL    HW210524   3.842   6.176   5.141
 3209SOL     OW10525   2.759   6.235   3.538
 3209SOL    HW110526   2.843   6.192   3.505
 3209SOL    HW210527   2.747   6.216   3.635
 3210SOL     OW10528   0.564   3.498   2.036
 3210SOL    HW110529   0.608   3.472   1.950
 3210SOL    HW210530   0.522   3.417   2.078
 3211SOL     OW10531   2.319   5.018   0.120
 3211SOL    HW110532   2.378   4.951   0.165
 3211SOL    HW210533   2.368   5.106   0.115
 3212SOL     OW10534   4.190   1.681   6.849
 3212SOL    HW110535   4.094   1.660   6.833
 3212SOL    HW210536   4.246   1.604   6.816
 3213SOL     OW10537   5.752   4.598   2.890
 3213SOL    HW110538   5.848   4.617   2.912
 3213SOL    HW210539   5.736   4.618   2.793
 3214SOL     OW10540   4.524   6.161   0.222
 3214SOL    HW110541   4.446   6.171   0.160
 3214SOL    HW210542   4.503   6.205   0.309
 3215SOL     OW10543   6.095   3.337   0.664
 3215SOL    HW110544   6.132   3.422   0.626
 3215SOL    HW210545   6.118   3.332   0.762
 3216SOL     OW10546   5.811   5.386   2.424
 3216SOL    HW110547   5.727   5.338   2.449
 3216SOL    HW210548   5.861   5.413   2.506
 3217SOL     OW10549   1.130   4.185   3.350
 3217SOL    HW110550   1.112   4.177   3.252
 3217SOL    HW210551   1.143   4.282   3.373
 3218SOL     OW10552   4.508   6.607   3.440
 3218SOL    HW110553   4.492   6.584   3.536
 3218SOL    HW210554   4.593   6.565   3.409
 3219SOL     OW10555   6.848   0.266   3.895
 3219SOL    HW110556   6.772   0.257   3.830
 3219SOL    HW210557   6.920   0.201   3.872
 3220SOL     OW10558   6.563   4.893   5.826
 3220SOL    HW110559   6.570   4.863   5.922
 3220SOL    HW210560   6.581   4.815   5.766
 3221SOL     OW10561   2.795   6.055   2.191
 3221SOL    HW110562   2.831   6.037   2.283
 3221SOL    HW210563   2.752   5.972   2.156
 3222SOL     OW10564   4.699   2.067   3.772
 3222SOL    HW110565   4.770   2.029   3.713
 3222SOL    HW210566   4.721   2.051   3.868
 3223SOL     OW10567   2.198   5.623   6.780
 3223SOL    HW110568   2.172   5.537   6.735
 3223SOL    HW210569   2.226   5.603   6.874
 3224SOL     OW10570   4.654   5.089   6.001
 3224SOL    HW110571   4.608   5.109   6.087
 3224SOL    HW210572   4.653   5.171   5.943
 3225SOL     OW10573   4.367   2.241   5.956
 3225SOL    HW110574   4.358   2.280   6.048
 3225SOL    HW210575   4.393   2.312   5.892
 3226SOL     OW10576   2.204   1.632   4.179
 3226SOL    HW110577   2.131   1.573   4.215
 3226SOL    HW210578   2.174   1.728   4.183
 3227SOL     OW10579   3.385   2.246   6.629
 3227SOL    HW110580   3.354   2.152   6.614
 3227SOL    HW210581   3.356   2.277   6.719
 3228SOL     OW10582   5.367   3.003   4.237
 3228SOL    HW110583   5.436   2.940   4.274
 3228SOL    HW210584   5.372   3.003   4.138
 3229SOL     OW10585   3.284   1.688   5.670
 3229SOL    HW110586   3.227   1.721   5.595
 3229SOL    HW210587   3.376   1.728   5.662
 3230SOL     OW10588   0.417   2.153   3.132
 3230SOL    HW110589   0.418   2.151   3.032
 3230SOL    HW210590   0.503   2.116   3.167
 3231SOL     OW10591   4.581   5.640   1.473
 3231SOL    HW110592   4.521   5.613   1.397
 3231SOL    HW210593   4.534   5.708   1.530
 3232SOL     OW10594   4.560   5.446   4.646
 3232SOL    HW110595   4.536   5.367   4.589
 3232SOL    HW210596   4.600   5.517   4.589
 3233SOL     OW10597   1.018   4.206   0.734
 3233SOL    HW110598   0.924   4.176   0.745
 3233SOL    HW210599   1.035   4.284   0.795
 3234SOL     OW10600   6.916   2.429   0.622
 3234SOL    HW110601   6.892   2.479   0.705
 3234SOL    HW210602   6.969   2.349   0.645
 3235SOL     OW10603   5.934   5.819   2.219
 3235SOL    HW110604   5.970   5.834   2.312
 3235SOL    HW210605   5.904   5.724   2.210
 3236SOL     OW10606   1.627   3.454   1.609
 3236SOL    HW110607   1.595   3.509   1.686
 3236SOL    HW210608   1.561   3.380   1.593
 3237SOL     OW10609   4.853   0.433   3.869
 3237SOL    HW110610   4.904   0.362   3.821
 3237SOL    HW210611   4.758   0.432   3.839
 3238SOL     OW10612   0.494   5.585   6.700
 3238SOL    HW110613   0.508   5.492   6.733
 3238SOL    HW210614   0.552   5.648   6.753
 3239SOL     OW10615   5.695   1.194   0.686
 3239SOL    HW110616   5.746   1.217   0.604
 3239SOL    HW210617   5.613   1.250   0.692
 3240SOL     OW10618   0.404   6.971   5.224
 3240SOL    HW110619   0.338   6.920   5.169
 3240SOL    HW210620   0.407   6.933   5.317
 3241SOL     OW10621   4.852   1.442   4.190
 3241SOL    HW110622   4.920   1.500   4.235
 3241SOL    HW210623   4.898   1.375   4.132
 3242SOL     OW10624   3.668   5.082   1.088
 3242SOL    HW110625   3.736   5.144   1.047
 3242SOL    HW210626   3.653   5.005   1.026
 3243SOL     OW10627   5.578   5.062   0.291
 3243SOL    HW110628   5.545   5.045   0.384
 3243SOL    HW210629   5.632   4.984   0.260
 3244SOL     OW10630   5.039   5.572   6.208
 3244SOL    HW110631   5.092   5.491   6.234
 3244SOL    HW210632   4.991   5.554   6.122
 3245SOL     OW10633   4.292   2.704   6.263
 3245SOL    HW110634   4.259   2.770   6.196
 3245SOL    HW210635   4.361   2.747   6.321
 3246SOL     OW10636   5.755   0.437   3.232
 3246SOL    HW110637   5.677   0.375   3.234
 3246SOL    HW210638   5.725   0.530   3.250
 3247SOL     OW10639   0.134   4.623   2.323
 3247SOL    HW110640   0.142   4.681   2.404
 3247SOL    HW210641   0.056   4.562   2.333
 3248SOL     OW10642   5.953   3.423   1.977
 3248SOL    HW110643   5.877   3.416   1.913
 3248SOL    HW210644   5.995   3.333   1.990
 3249SOL     OW10645   3.914   4.664   5.381
 3249SOL    HW110646   3.883   4.760   5.383
 3249SOL    HW210647   3.954   4.640   5.469
 3250SOL     OW10648   5.507   6.733   3.250
 3250SOL    HW110649   5.489   6.677   3.169
 3250SOL    HW210650   5.436   6.717   3.318
 3251SOL     OW10651   3.748   1.396   2.732
 3251SOL    HW110652   3.764   1.487   2.694
 3251SOL    HW210653   3.819   1.374   2.798
 3252SOL     OW10654   3.610   0.879   2.093
 3252SOL    HW110655   3.687   0.825   2.060
 3252SOL    HW210656   3.548   0.820   2.145
 3253SOL     OW10657   4.996   2.132   2.312
 3253SOL    HW110658   5.079   2.167   2.356
 3253SOL    HW210659   4.923   2.200   2.322
 3254SOL     OW10660   3.612   5.306   3.979
 3254SOL    HW110661   3.619   5.222   3.926
 3254SOL    HW210662   3.555   5.290   4.060
 3255SOL     OW10663   4.385   5.359   0.676
 3255SOL    HW110664   4.459   5.302   0.712
 3255SOL    HW210665   4.408   5.389   0.584
 3256SOL     OW10666   5.659   0.200   6.850
 3256SOL    HW110667   5.571   0.187   6.804
 3256SOL    HW210668   5.678   0.120   6.908
 3257SOL     OW10669   1.596   2.270   0.858
 3257SOL    HW110670   1.586   2.217   0.942
 3257SOL    HW210671   1.643   2.356   0.879
 3258SOL     OW10672   4.742   6.493   1.779
 3258SOL    HW110673   4.792   6.550   1.844
 3258SOL    HW210674   4.771   6.515   1.686
 3259SOL     OW10675   4.087   5.702   4.285
 3259SOL    HW110676   4.067   5.738   4.194
 3259SOL    HW210677   4.174   5.652   4.282
 3260SOL     OW10678   2.201   1.697   0.795
 3260SOL    HW110679   2.202   1.792   0.766
 3260SOL    HW210680   2.248   1.640   0.727
 3261SOL     OW10681   3.922   6.257   0.551
 3261SOL    HW110682   3.864   6.315   0.494
 3261SOL    HW210683   3.871   6.177   0.581
 3262SOL     OW10684   3.981   1.711   3.257
 3262SOL    HW110685   3.975   1.803   3.219
 3262SOL    HW210686   4.009   1.647   3.186
 3263SOL     OW10687   5.060   0.051   3.079
 3263SOL    HW110688   5.009   0.114   3.138
 3263SOL    HW210689   5.005   0.030   2.999
 3264SOL     OW10690   0.567   5.315   6.894
 3264SOL    HW110691   0.637   5.265   6.945
 3264SOL    HW210692   0.578   5.297   6.796
 3265SOL     OW10693   4.205   2.291   6.626
 3265SOL    HW110694   4.144   2.216   6.650
 3265SOL    HW210695   4.191   2.317   6.530
 3266SOL     OW10696   0.280   2.307   0.545
 3266SOL    HW110697   0.182   2.311   0.565
 3266SOL    HW210698   0.330   2.285   0.629
 3267SOL     OW10699   3.440   2.506   1.454
 3267SOL    HW110700   3.428   2.605   1.451
 3267SOL    HW210701   3.407   2.471   1.542
 3268SOL     OW10702   1.252   3.948   0.037
 3268SOL    HW110703   1.276   3.854   0.059
 3268SOL    HW210704   1.223   3.954   6.965
 3269SOL     OW10705   4.512   4.684   1.908
 3269SOL    HW110706   4.519   4.749   1.832
 3269SOL    HW210707   4.520   4.733   1.994
 3270SOL     OW10708   0.595   5.330   3.756
 3270SOL    HW110709   0.581   5.428   3.766
 3270SOL    HW210710   0.538   5.296   3.681
 3271SOL     OW10711   5.266   2.096   2.941
 3271SOL    HW110712   5.220   2.084   2.853
 3271SOL    HW210713   5.282   2.193   2.958
 3272SOL     OW10714   3.656   5.848   0.534
 3272SOL    HW110715   3.581   5.800   0.579
 3272SOL    HW210716   3.625   5.882   0.445
 3273SOL     OW10717   0.881   6.563   1.856
 3273SOL    HW110718   0.947   6.594   1.788
 3273SOL    HW210719   0.833   6.642   1.894
 3274SOL     OW10720   3.897   2.282   6.904
 3274SOL    HW110721   3.805   2.261   6.873
 3274SOL    HW210722   3.961   2.277   6.827
 3275SOL     OW10723   1.680   0.275   0.005
 3275SOL    HW110724   1.736   0.358   0.009
 3275SOL    HW210725   1.618   0.281   6.951
 3276SOL     OW10726   3.692   5.004   6.791
 3276SOL    HW110727   3.774   5.061   6.796
 3276SOL    HW210728   3.627   5.034   6.860
 3277SOL     OW10729   6.096   0.028   6.319
 3277SOL    HW110730   6.000   0.032   6.289
 3277SOL    HW210731   6.140   0.116   6.301
 3278SOL     OW10732   6.871   1.390   5.239
 3278SOL    HW110733   6.869   1.317   5.171
 3278SOL    HW210734   6.924   1.360   5.319
 3279SOL     OW10735   0.147   0.350   0.673
 3279SOL    HW110736   0.058   0.374   0.637
 3279SOL    HW210737   0.198   0.298   0.605
 3280SOL     OW10738   2.729   5.117   6.425
 3280SOL    HW110739   2.763   5.039   6.372
 3280SOL    HW210740   2.782   5.199   6.403
 3281SOL     OW10741   1.541   5.881   1.337
 3281SOL    HW110742   1.539   5.823   1.255
 3281SOL    HW210743   1.623   5.939   1.334
 3282SOL     OW10744   2.938   6.472   4.291
 3282SOL    HW110745   3.004   6.411   4.247
 3282SOL    HW210746   2.962   6.567   4.271
 3283SOL     OW10747   3.168   1.502   3.011
 3283SOL    HW110748   3.212   1.439   3.074
 3283SOL    HW210749   3.109   1.566   3.062
 3284SOL     OW10750   6.760   6.860   0.038
 3284SOL    HW110751   6.813   6.775   0.041
 3284SOL    HW210752   6.709   6.864   6.976
 3285SOL     OW10753   7.016   2.895   3.127
 3285SOL    HW110754   6.971   2.809   3.104
 3285SOL    HW210755   6.961   2.944   3.195
 3286SOL     OW10756   4.146   3.504   3.930
 3286SOL    HW110757   4.243   3.528   3.928
 3286SOL    HW210758   4.135   3.414   3.973
 3287SOL     OW10759   0.993   5.860   0.078
 3287SOL    HW110760   1.065   5.921   0.043
 3287SOL    HW210761   1.019   5.765   0.060
 3288SOL     OW10762   0.326   6.142   0.072
 3288SOL    HW110763   0.371   6.140   7.006
 3288SOL    HW210764   0.244   6.085   0.069
 3289SOL     OW10765   1.104   6.691   5.303
 3289SOL    HW110766   1.054   6.681   5.389
 3289SOL    HW210767   1.098   6.606   5.251
 3290SOL     OW10768   0.548   6.070   2.011
 3290SOL    HW110769   0.460   6.063   1.963
 3290SOL    HW210770   0.535   6.044   2.107
 3291SOL     OW10771   1.724   6.190   6.401
 3291SOL    HW110772   1.720   6.108   6.344
 3291SOL    HW210773   1.639   6.198   6.454
 3292SOL     OW10774   0.577   1.481   6.815
 3292SOL    HW110775   0.593   1.532   6.900
 3292SOL    HW210776   0.506   1.526   6.762
 3293SOL     OW10777   0.001   1.533   3.303
 3293SOL    HW110778   6.976   1.521   3.390
 3293SOL    HW210779   0.062   1.613   3.310
 3294SOL     OW10780   6.723   0.349   6.434
 3294SOL    HW110781   6.742   0.310   6.344
 3294SOL    HW210782   6.787   0.424   6.452
 3295SOL     OW10783   2.694   1.975   0.929
 3295SOL    HW110784   2.773   1.997   0.872
 3295SOL    HW210785   2.703   1.882   0.964
 3296SOL     OW10786   2.438   6.814   1.614
 3296SOL    HW110787   2.438   6.776   1.707
 3296SOL    HW210788   2.532   6.839   1.588
 3297SOL     OW10789   3.036   2.073   5.167
 3297SOL    HW110790   3.021   2.014   5.087
 3297SOL    HW210791   3.062   2.164   5.137
 3298SOL     OW10792   6.261   3.271   2.563
 3298SOL    HW110793   6.231   3.229   2.648
 3298SOL    HW210794   6.361   3.269   2.559
 3299SOL     OW10795   2.031   0.333   3.535
 3299SOL    HW110796   2.087   0.394   3.479
 3299SOL    HW210797   1.935   0.364   3.531
 3300SOL     OW10798   6.909   0.685   6.154
 3300SOL    HW110799   6.932   0.606   6.098
 3300SOL    HW210800   6.989   0.746   6.159
 3301SOL     OW10801   1.423   4.022   3.968
 3301SOL    HW110802   1.491   4.087   3.932
 3301SOL    HW210803   1.334   4.043   3.929
 3302SOL     OW10804   1.306   5.096   4.622
 3302SOL    HW110805   1.221   5.076   4.574
 3302SOL    HW210806   1.329   5.021   4.683
 3303SOL     OW10807   3.739   3.215   2.562
 3303SOL    HW110808   3.816   3.154   2.543
 3303SOL    HW210809   3.740   3.240   2.659
 3304SOL     OW10810   1.085   4.921   3.878
 3304SOL    HW110811   1.092   5.013   3.840
 3304SOL    HW210812   1.108   4.854   3.809
 3305SOL     OW10813   2.189   1.024   2.000
 3305SOL    HW110814   2.133   0.954   2.045
 3305SOL    HW210815   2.272   1.039   2.053
 3306SOL     OW10816   2.167   3.809   2.804
 3306SOL    HW110817   2.245   3.870   2.821
 3306SOL    HW210818   2.106   3.852   2.737
 3307SOL     OW10819   0.148   5.970   0.376
 3307SOL    HW110820   0.202   6.031   0.433
 3307SOL    HW210821   0.197   5.884   0.364
 3308SOL     OW10822   4.603   5.476   0.055
 3308SOL    HW110823   4.521   5.532   0.050
 3308SOL    HW210824   4.653   5.496   0.139
 3309SOL     OW10825   0.776   5.165   2.608
 3309SOL    HW110826   0.867   5.204   2.594
 3309SOL    HW210827   0.716   5.192   2.533
 3310SOL     OW10828   0.395   3.565   2.885
 3310SOL    HW110829   0.337   3.642   2.858
 3310SOL    HW210830   0.483   3.572   2.839
 3311SOL     OW10831   2.706   5.761   0.713
 3311SOL    HW110832   2.677   5.680   0.764
 3311SOL    HW210833   2.671   5.843   0.757
 3312SOL     OW10834   3.288   4.311   6.441
 3312SOL    HW110835   3.245   4.343   6.357
 3312SOL    HW210836   3.277   4.211   6.448
 3313SOL     OW10837   1.351   5.281   3.898
 3313SOL    HW110838   1.323   5.291   3.993
 3313SOL    HW210839   1.272   5.256   3.842
 3314SOL     OW10840   1.810   2.938   4.761
 3314SOL    HW110841   1.853   2.851   4.785
 3314SOL    HW210842   1.862   2.982   4.688
 3315SOL     OW10843   6.758   2.841   4.269
 3315SOL    HW110844   6.778   2.759   4.215
 3315SOL    HW210845   6.844   2.883   4.298
 3316SOL     OW10846   4.076   1.870   6.053
 3316SOL    HW110847   4.114   1.867   6.146
 3316SOL    HW210848   4.116   1.947   6.003
 3317SOL     OW10849   4.608   2.533   1.925
 3317SOL    HW110850   4.622   2.630   1.945
 3317SOL    HW210851   4.662   2.508   1.845
 3318SOL     OW10852   2.444   6.216   6.298
 3318SOL    HW110853   2.532   6.243   6.260
 3318SOL    HW210854   2.392   6.297   6.325
 3319SOL     OW10855   7.009   6.640   3.916
 3319SOL    HW110856   0.043   6.586   3.978
 3319SOL    HW210857   0.035   6.661   3.833
 3320SOL     OW10858   5.690   1.297   5.472
 3320SOL    HW110859   5.677   1.380   5.418
 3320SOL    HW210860   5.632   1.300   5.554
 3321SOL     OW10861   3.576   2.861   2.848
 3321SOL    HW110862   3.603   2.955   2.824
 3321SOL    HW210863   3.497   2.835   2.793
 3322SOL     OW10864   4.754   2.181   1.370
 3322SOL    HW110865   4.803   2.098   1.342
 3322SOL    HW210866   4.766   2.195   1.468
 3323SOL     OW10867   2.518   4.321   6.917
 3323SOL    HW110868   2.474   4.411   6.921
 3323SOL    HW210869   2.457   4.257   6.870
 3324SOL     OW10870   1.551   4.098   0.544
 3324SOL    HW110871   1.605   4.109   0.461
 3324SOL    HW210872   1.471   4.041   0.525
 3325SOL     OW10873   2.523   3.300   0.273
 3325SOL    HW110874   2.452   3.360   0.310
 3325SOL    HW210875   2.609   3.315   0.322
 3326SOL     OW10876   5.525   1.913   2.091
 3326SOL    HW110877   5.439   1.964   2.094
 3326SOL    HW210878   5.517   1.832   2.150
 3327SOL     OW10879   2.332   6.321   1.598
 3327SOL    HW110880   2.298   6.378   1.523
 3327SOL    HW210881   2.432   6.324   1.600
 3328SOL     OW10882   4.249   1.377   1.750
 3328SOL    HW110883   4.231   1.343   1.842
 3328SOL    HW210884   4.303   1.460   1.755
 3329SOL     OW10885   4.120   0.436   5.242
 3329SOL    HW110886   4.186   0.467   5.311
 3329SOL    HW210887   4.028   0.466   5.268
 3330SOL     OW10888   6.048   6.771   2.263
 3330SOL    HW110889   6.073   6.801   2.171
 3330SOL    HW210890   5.959   6.726   2.261
 3331SOL     OW10891   1.539   3.567   3.133
 3331SOL    HW110892   1.619   3.512   3.157
 3331SOL    HW210893   1.512   3.546   3.040
 3332SOL     OW10894   5.333   4.607   0.670
 3332SOL    HW110895   5.280   4.654   0.599
 3332SOL    HW210896   5.330   4.508   0.654
 3333SOL     OW10897   3.337   3.701   1.013
 3333SOL    HW110898   3.254   3.726   0.963
 3333SOL    HW210899   3.322   3.715   1.111
 3334SOL     OW10900   1.589   2.573   2.240
 3334SOL    HW110901   1.562   2.530   2.154
 3334SOL    HW210902   1.681   2.543   2.265
 3335SOL     OW10903   3.523   4.552   6.039
 3335SOL    HW110904   3.522   4.651   6.028
 3335SOL    HW210905   3.531   4.530   6.137
 3336SOL     OW10906   2.257   0.178   4.109
 3336SOL    HW110907   2.195   0.123   4.165
 3336SOL    HW210908   2.332   0.120   4.077
 3337SOL     OW10909   4.148   3.290   2.446
 3337SOL    HW110910   4.171   3.302   2.543
 3337SOL    HW210911   4.160   3.377   2.398
 3338SOL     OW10912   1.079   1.951   1.738
 3338SOL    HW110913   1.073   1.900   1.652
 3338SOL    HW210914   0.987   1.977   1.766
 3339SOL     OW10915   1.779   0.170   5.709
 3339SOL    HW110916   1.715   0.246   5.700
 3339SOL    HW210917   1.780   0.137   5.803
 3340SOL     OW10918   4.829   0.597   4.423
 3340SOL    HW110919   4.887   0.673   4.453
 3340SOL    HW210920   4.833   0.591   4.323
 3341SOL     OW10921   2.344   4.569   2.871
 3341SOL    HW110922   2.411   4.565   2.945
 3341SOL    HW210923   2.391   4.574   2.783
 3342SOL     OW10924   6.195   0.419   3.126
 3342SOL    HW110925   6.129   0.370   3.069
 3342SOL    HW210926   6.256   0.473   3.069
 3343SOL     OW10927   5.132   5.343   6.475
 3343SOL    HW110928   5.042   5.375   6.446
 3343SOL    HW210929   5.203   5.398   6.431
 3344SOL     OW10930   6.246   2.975   2.490
 3344SOL    HW110931   6.273   3.062   2.531
 3344SOL    HW210932   6.290   2.965   2.401
 3345SOL     OW10933   0.691   3.501   0.059
 3345SOL    HW110934   0.728   3.590   0.082
 3345SOL    HW210935   0.751   3.429   0.095
 3346SOL     OW10936   2.122   0.798   0.160
 3346SOL    HW110937   2.150   0.762   0.249
 3346SOL    HW210938   2.203   0.809   0.101
 3347SOL     OW10939   1.162   2.907   6.213
 3347SOL    HW110940   1.198   2.981   6.270
 3347SOL    HW210941   1.089   2.942   6.155
 3348SOL     OW10942   3.886   4.293   6.219
 3348SOL    HW110943   3.955   4.224   6.238
 3348SOL    HW210944   3.857   4.287   6.123
 3349SOL     OW10945   2.173   4.061   3.684
 3349SOL    HW110946   2.115   4.051   3.764
 3349SOL    HW210947   2.234   4.140   3.695
 3350SOL     OW10948   0.892   4.313   5.757
 3350SOL    HW110949   0.958   4.252   5.801
 3350SOL    HW210950   0.919   4.327   5.662
 3351SOL     OW10951   5.542   0.738   1.392
 3351SOL    HW110952   5.549   0.760   1.489
 3351SOL    HW210953   5.446   0.737   1.364
 3352SOL     OW10954   5.312   3.005   0.832
 3352SOL    HW110955   5.407   3.034   0.824
 3352SOL    HW210956   5.306   2.906   0.819
 3353SOL     OW10957   1.882   0.031   1.282
 3353SOL    HW110958   1.866   0.127   1.302
 3353SOL    HW210959   1.836   0.006   1.196
 3354SOL     OW10960   4.163   3.476   5.788
 3354SOL    HW110961   4.169   3.419   5.706
 3354SOL    HW210962   4.134   3.421   5.866
 3355SOL     OW10963   1.867   1.403   5.325
 3355SOL    HW110964   1.959   1.393   5.287
 3355SOL    HW210965   1.800   1.410   5.251
 3356SOL     OW10966   0.852   0.233   6.140
 3356SOL    HW110967   0.800   0.230   6.055
 3356SOL    HW210968   0.910   0.314   6.141
 3357SOL     OW10969   3.011   3.850   1.942
 3357SOL    HW110970   2.950   3.793   1.887
 3357SOL    HW210971   3.027   3.807   2.031
 3358SOL     OW10972   5.566   1.252   3.771
 3358SOL    HW110973   5.522   1.218   3.688
 3358SOL    HW210974   5.586   1.175   3.832
 3359SOL     OW10975   0.552   5.607   4.184
 3359SOL    HW110976   0.575   5.556   4.267
 3359SOL    HW210977   0.630   5.663   4.157
 3360SOL     OW10978   0.705   2.296   6.497
 3360SOL    HW110979   0.801   2.324   6.499
 3360SOL    HW210980   0.700   2.198   6.477
 3361SOL     OW10981   1.000   0.369   4.035
 3361SOL    HW110982   1.004   0.269   4.031
 3361SOL    HW210983   0.966   0.405   3.948
 3362SOL     OW10984   3.862   1.784   3.994
 3362SOL    HW110985   3.930   1.823   4.056
 3362SOL    HW210986   3.872   1.825   3.904
 3363SOL     OW10987   6.984   2.965   1.830
 3363SOL    HW110988   6.999   2.867   1.844
 3363SOL    HW210989   6.990   2.986   1.733
 3364SOL     OW10990   1.003   4.095   2.492
 3364SOL    HW110991   0.936   4.157   2.451
 3364SOL    HW210992   1.002   4.008   2.442
 3365SOL     OW10993   1.906   3.116   4.279
 3365SOL    HW110994   1.927   3.120   4.376
 3365SOL    HW210995   1.881   3.207   4.246
 3366SOL     OW10996   0.082   4.176   4.442
 3366SOL    HW110997   0.093   4.275   4.446
 3366SOL    HW210998   0.167   4.131   4.469
 3367SOL     OW10999   3.642   3.829   4.306
 3367SOL    HW111000   3.716   3.835   4.240
 3367SOL    HW211001   3.666   3.880   4.388
 3368SOL     OW11002   1.303   6.439   6.622
 3368SOL    HW111003   1.242   6.440   6.542
 3368SOL    HW211004   1.361   6.357   6.618
 3369SOL     OW11005   4.423   2.136   1.533
 3369SOL    HW111006   4.356   2.206   1.511
 3369SOL    HW211007   4.425   2.122   1.633
 3370SOL     OW11008   6.272   6.409   1.650
 3370SOL    HW111009   6.188   6.360   1.672
 3370SOL    HW211010   6.351   6.353   1.674
 3371SOL     OW11011   2.049   3.521   2.075
 3371SOL    HW111012   2.047   3.618   2.051
 3371SOL    HW211013   2.127   3.476   2.032
 3372SOL     OW11014   6.677   2.767   1.342
 3372SOL    HW111015   6.594   2.821   1.356
 3372SOL    HW211016   6.696   2.714   1.424
 3373SOL     OW11017   0.641   1.475   1.925
 3373SOL    HW111018   0.579   1.553   1.916
 3373SOL    HW211019   0.714   1.498   1.989
 3374SOL     OW11020   0.682   0.106   4.081
 3374SOL    HW111021   0.778   0.081   4.065
 3374SOL    HW211022   0.630   0.093   3.997
 3375SOL     OW11023   7.013   4.762   0.166
 3375SOL    HW111024   6.959   4.683   0.134
 3375SOL    HW211025   7.007   4.768   0.265
 3376SOL     OW11026   2.508   3.366   5.635
 3376SOL    HW111027   2.595   3.320   5.617
 3376SOL    HW211028   2.449   3.360   5.554
 3377SOL     OW11029   6.473   5.432   4.374
 3377SOL    HW111030   6.467   5.486   4.290
 3377SOL    HW211031   6.568   5.405   4.390
 3378SOL     OW11032   0.700   6.785   6.590
 3378SOL    HW111033   0.771   6.789   6.519
 3378SOL    HW211034   0.735   6.735   6.669
 3379SOL     OW11035   0.948   3.121   4.877
 3379SOL    HW111036   0.932   3.029   4.913
 3379SOL    HW211037   1.042   3.127   4.844
 3380SOL     OW11038   3.815   4.905   5.415
 3380SOL    HW111039   3.721   4.940   5.408
 3380SOL    HW211040   3.876   4.964   5.361
 3381SOL     OW11041   0.737   2.514   1.541
 3381SOL    HW111042   0.781   2.439   1.590
 3381SOL    HW211043   0.645   2.487   1.514
 3382SOL     OW11044   6.869   2.948   0.957
 3382SOL    HW111045   6.870   2.902   0.869
 3382SOL    HW211046   6.790   3.009   0.963
 3383SOL     OW11047   3.499   5.059   0.505
 3383SOL    HW111048   3.480   4.984   0.442
 3383SOL    HW211049   3.422   5.122   0.508
 3384SOL     OW11050   2.593   4.716   0.941
 3384SOL    HW111051   2.568   4.704   1.037
 3384SOL    HW211052   2.511   4.735   0.887
 3385SOL     OW11053   6.974   2.767   3.557
 3385SOL    HW111054   6.998   2.863   3.545
 3385SOL    HW211055   0.034   2.712   3.554
 3386SOL     OW11056   6.592   4.558   0.021
 3386SOL    HW111057   6.530   4.624   7.001
 3386SOL    HW211058   6.619   4.594   0.111
 3387SOL     OW11059   5.162   0.993   3.349
 3387SOL    HW111060   5.079   0.937   3.354
 3387SOL    HW211061   5.136   1.090   3.341
 3388SOL     OW11062   4.910   4.303   1.347
 3388SOL    HW111063   4.895   4.204   1.341
 3388SOL    HW211064   4.838   4.351   1.296
 3389SOL     OW11065   6.052   6.181   0.003
 3389SOL    HW111066   6.126   6.247   0.014
 3389SOL    HW211067   5.983   6.197   0.074
 3390SOL     OW11068   4.125   6.467   5.796
 3390SOL    HW111069   4.143   6.371   5.775
 3390SOL    HW211070   4.045   6.497   5.745
 3391SOL     OW11071   5.715   2.349   3.500
 3391SOL    HW111072   5.674   2.272   3.452
 3391SOL    HW211073   5.645   2.402   3.547
 3392SOL     OW11074   3.811   0.021   5.070
 3392SOL    HW111075   3.898   0.066   5.048
 3392SOL    HW211076   3.736   0.073   5.031
 3393SOL     OW11077   5.410   6.906   0.660
 3393SOL    HW111078   5.468   6.947   0.590
 3393SOL    HW211079   5.428   6.950   0.748
 3394SOL     OW11080   3.636   5.110   1.363
 3394SOL    HW111081   3.685   5.192   1.391
 3394SOL    HW211082   3.652   5.093   1.265
 3395SOL     OW11083   4.370   1.065   3.075
 3395SOL    HW111084   4.454   1.077   3.022
 3395SOL    HW211085   4.291   1.071   3.014
 3396SOL     OW11086   5.271   0.583   3.968
 3396SOL    HW111087   5.365   0.618   3.962
 3396SOL    HW211088   5.255   0.546   4.060
 3397SOL     OW11089   2.335   6.009   6.160
 3397SOL    HW111090   2.359   6.042   6.252
 3397SOL    HW211091   2.331   6.086   6.097
 3398SOL     OW11092   0.743   1.441   5.344
 3398SOL    HW111093   0.677   1.490   5.400
 3398SOL    HW211094   0.711   1.347   5.328
 3399SOL     OW11095   6.975   5.001   3.027
 3399SOL    HW111096   6.893   4.952   2.996
 3399SOL    HW211097   0.024   4.935   3.045
 3400SOL     OW11098   5.752   3.552   6.062
 3400SOL    HW111099   5.758   3.632   6.122
 3400SOL    HW211100   5.778   3.578   5.969
 3401SOL     OW11101   6.828   3.647   6.048
 3401SOL    HW111102   6.797   3.724   6.103
 3401SOL    HW211103   6.871   3.680   5.964
 3402SOL     OW11104   6.568   5.061   1.084
 3402SOL    HW111105   6.533   5.083   0.993
 3402SOL    HW211106   6.627   5.135   1.115
 3403SOL     OW11107   4.890   6.008   6.166
 3403SOL    HW111108   4.882   5.911   6.141
 3403SOL    HW211109   4.957   6.052   6.108
 3404SOL     OW11110   5.295   3.092   5.989
 3404SOL    HW111111   5.348   3.176   6.000
 3404SOL    HW211112   5.198   3.112   6.001
 3405SOL     OW11113   5.748   5.680   5.863
 3405SOL    HW111114   5.805   5.680   5.780
 3405SOL    HW211115   5.757   5.593   5.910
 3406SOL     OW11116   2.053   3.480   2.334
 3406SOL    HW111117   2.093   3.550   2.393
 3406SOL    HW211118   2.070   3.502   2.238
 3407SOL     OW11119   2.671   4.315   1.246
 3407SOL    HW111120   2.730   4.324   1.166
 3407SOL    HW211121   2.723   4.339   1.329
 3408SOL     OW11122   4.328   2.437   3.842
 3408SOL    HW111123   4.304   2.529   3.873
 3408SOL    HW211124   4.395   2.397   3.904
 3409SOL     OW11125   4.127   6.717   0.301
 3409SOL    HW111126   4.108   6.814   0.321
 3409SOL    HW211127   4.162   6.708   0.208
 3410SOL     OW11128   5.525   6.600   3.011
 3410SOL    HW111129   5.548   6.680   2.955
 3410SOL    HW211130   5.600   6.535   3.010
 3411SOL     OW11131   6.994   2.646   0.933
 3411SOL    HW111132   6.946   2.682   0.853
 3411SOL    HW211133   6.939   2.663   1.015
 3412SOL     OW11134   5.205   3.216   1.655
 3412SOL    HW111135   5.129   3.252   1.600
 3412SOL    HW211136   5.229   3.125   1.622
 3413SOL     OW11137   6.129   1.440   6.842
 3413SOL    HW111138   6.112   1.518   6.781
 3413SOL    HW211139   6.158   1.361   6.788
 3414SOL     OW11140   3.813   2.576   6.824
 3414SOL    HW111141   3.784   2.582   6.920
 3414SOL    HW211142   3.762   2.643   6.770
 3415SOL     OW11143   1.968   2.499   4.249
 3415SOL    HW111144   2.022   2.420   4.280
 3415SOL    HW211145   1.906   2.470   4.176
 3416SOL     OW11146   6.075   7.019   0.456
 3416SOL    HW111147   6.158   0.046   0.433
 3416SOL    HW211148   6.096   6.950   0.525
 3417SOL     OW11149   0.334   6.922   2.874
 3417SOL    HW111150   0.319   6.919   2.775
 3417SOL    HW211151   0.303   6.837   2.915
 3418SOL     OW11152   3.886   5.655   3.233
 3418SOL    HW111153   3.893   5.559   3.259
 3418SOL    HW211154   3.973   5.685   3.193
 3419SOL     OW11155   3.816   5.573   5.647
 3419SOL    HW111156   3.728   5.590   5.604
 3419SOL    HW211157   3.819   5.617   5.737
 3420SOL     OW11158   4.999   3.009   4.131
 3420SOL    HW111159   4.920   2.947   4.131
 3420SOL    HW211160   4.977   3.091   4.184
 3421SOL     OW11161   5.424   1.612   3.483
 3421SOL    HW111162   5.466   1.535   3.435
 3421SOL    HW211163   5.358   1.656   3.424
 3422SOL     OW11164   2.262   0.091   6.990
 3422SOL    HW111165   2.320   0.067   6.912
 3422SOL    HW211166   2.220   0.009   0.004
 3423SOL     OW11167   0.698   4.480   5.802
 3423SOL    HW111168   0.781   4.429   5.781
 3423SOL    HW211169   0.696   4.564   5.747
 3424SOL     OW11170   4.120   6.727   1.611
 3424SOL    HW111171   4.189   6.791   1.578
 3424SOL    HW211172   4.095   6.663   1.539
 3425SOL     OW11173   4.818   4.665   1.843
 3425SOL    HW111174   4.829   4.570   1.813
 3425SOL    HW211175   4.748   4.669   1.914
 3426SOL     OW11176   4.960   3.619   0.625
 3426SOL    HW111177   4.884   3.555   0.627
 3426SOL    HW211178   4.993   3.635   0.718
 3427SOL     OW11179   1.383   2.457   1.561
 3427SOL    HW111180   1.437   2.539   1.581
 3427SOL    HW211181   1.286   2.479   1.569
 3428SOL     OW11182   5.052   4.975   5.623
 3428SOL    HW111183   5.140   4.929   5.627
 3428SOL    HW211184   4.981   4.915   5.660
 3429SOL     OW11185   0.521   1.079   1.166
 3429SOL    HW111186   0.535   0.985   1.196
 3429SOL    HW211187   0.601   1.111   1.117
 3430SOL     OW11188   2.102   4.331   5.990
 3430SOL    HW111189   2.105   4.232   5.979
 3430SOL    HW211190   2.175   4.373   5.937
 3431SOL     OW11191   2.068   6.460   2.178
 3431SOL    HW111192   2.150   6.499   2.137
 3431SOL    HW211193   2.088   6.368   2.213
 3432SOL     OW11194   2.455   4.905   6.918
 3432SOL    HW111195   2.505   4.983   6.880
 3432SOL    HW211196   2.390   4.938   6.987
 3433SOL     OW11197   2.306   0.501   6.571
 3433SOL    HW111198   2.234   0.570   6.563
 3433SOL    HW211199   2.304   0.460   6.662
 3434SOL     OW11200   2.802   2.164   1.817
 3434SOL    HW111201   2.781   2.245   1.871
 3434SOL    HW211202   2.826   2.190   1.724
 3435SOL     OW11203   2.253   0.496   0.445
 3435SOL    HW111204   2.294   0.587   0.437
 3435SOL    HW211205   2.162   0.497   0.405
 3436SOL     OW11206   4.278   5.437   6.629
 3436SOL    HW111207   4.266   5.531   6.662
 3436SOL    HW211208   4.349   5.391   6.682
 3437SOL     OW11209   1.747   6.567   5.785
 3437SOL    HW111210   1.650   6.548   5.796
 3437SOL    HW211211   1.759   6.648   5.727
 3438SOL     OW11212   0.432   3.509   1.378
 3438SOL    HW111213   0.463   3.603   1.384
 3438SOL    HW211214   0.492   3.450   1.431
 3439SOL     OW11215   2.470   5.992   2.940
 3439SOL    HW111216   2.547   6.049   2.970
 3439SOL    HW211217   2.482   5.899   2.975
 3440SOL     OW11218   3.713   3.016   4.700
 3440SOL    HW111219   3.648   2.994   4.627
 3440SOL    HW211220   3.714   2.943   4.767
 3441SOL     OW11221   6.887   6.063   6.299
 3441SOL    HW111222   6.918   5.972   6.327
 3441SOL    HW211223   6.837   6.056   6.213
 3442SOL     OW11224   3.457   3.990   1.308
 3442SOL    HW111225   3.423   4.082   1.328
 3442SOL    HW211226   3.383   3.935   1.269
 3443SOL     OW11227   3.315   5.946   2.679
 3443SOL    HW111228   3.217   5.929   2.679
 3443SOL    HW211229   3.333   6.042   2.702
 3444SOL     OW11230   5.007   4.613   1.346
 3444SOL    HW111231   5.024   4.519   1.372
 3444SOL    HW211232   5.057   4.675   1.407
 3445SOL     OW11233   6.666   4.768   4.027
 3445SOL    HW111234   6.615   4.757   4.112
 3445SOL    HW211235   6.617   4.723   3.952
 3446SOL     OW11236   5.875   0.496   1.812
 3446SOL    HW111237   5.975   0.494   1.824
 3446SOL    HW211238   5.850   0.568   1.748
 3447SOL     OW11239   5.442   0.153   0.206
 3447SOL    HW111240   5.420   0.241   0.246
 3447SOL    HW211241   5.420   0.154   0.108
 3448SOL     OW11242   1.664   6.721   5.343
 3448SOL    HW111243   1.750   6.675   5.367
 3448SOL    HW211244   1.644   6.790   5.411
 3449SOL     OW11245   6.042   5.338   5.056
 3449SOL    HW111246   6.062   5.430   5.091
 3449SOL    HW211247   5.944   5.328   5.041
 3450SOL     OW11248   1.380   0.146   6.600
 3450SOL    HW111249   1.462   0.166   6.545
 3450SOL    HW211250   1.392   0.058   6.646
 3451SOL     OW11251   1.464   5.999   0.449
 3451SOL    HW111252   1.453   6.060   0.528
 3451SOL    HW211253   1.489   5.908   0.481
 3452SOL     OW11254   5.787   0.627   5.791
 3452SOL    HW111255   5.771   0.695   5.720
 3452SOL    HW211256   5.713   0.560   5.790
 3453SOL     OW11257   5.173   6.679   6.042
 3453SOL    HW111258   5.215   6.747   5.983
 3453SOL    HW211259   5.235   6.601   6.052
 3454SOL     OW11260   1.736   2.624   2.738
 3454SOL    HW111261   1.679   2.629   2.656
 3454SOL    HW211262   1.772   2.715   2.759
 3455SOL     OW11263   1.604   2.377   4.577
 3455SOL    HW111264   1.569   2.361   4.669
 3455SOL    HW211265   1.696   2.415   4.582
 3456SOL     OW11266   4.269   4.615   2.101
 3456SOL    HW111267   4.342   4.554   2.131
 3456SOL    HW211268   4.238   4.587   2.010
 3457SOL     OW11269   3.939   5.298   4.853
 3457SOL    HW111270   3.853   5.314   4.805
 3457SOL    HW211271   4.015   5.318   4.792
 3458SOL     OW11272   4.439   2.182   2.527
 3458SOL    HW111273   4.447   2.082   2.533
 3458SOL    HW211274   4.342   2.207   2.523
 3459SOL     OW11275   4.532   1.409   3.192
 3459SOL    HW111276   4.603   1.339   3.182
 3459SOL    HW211277   4.570   1.487   3.243
 3460SOL     OW11278   3.508   1.990   5.862
 3460SOL    HW111279   3.497   1.957   5.956
 3460SOL    HW211280   3.575   2.064   5.860
 3461SOL     OW11281   5.413   5.023   6.921
 3461SOL    HW111282   5.367   4.977   6.846
 3461SOL    HW211283   5.352   5.091   6.962
 3462SOL     OW11284   1.912   3.531   6.486
 3462SOL    HW111285   1.863   3.612   6.517
 3462SOL    HW211286   1.998   3.521   6.537
 3463SOL     OW11287   7.010   3.906   0.989
 3463SOL    HW111288   6.939   3.885   1.056
 3463SOL    HW211289   0.031   3.992   1.014
 3464SOL     OW11290   0.213   4.657   6.478
 3464SOL    HW111291   0.252   4.568   6.456
 3464SOL    HW211292   0.274   4.729   6.445
 3465SOL     OW11293   2.466   1.640   1.534
 3465SOL    HW111294   2.482   1.715   1.598
 3465SOL    HW211295   2.384   1.589   1.561
 3466SOL     OW11296   6.752   5.111   6.249
 3466SOL    HW111297   6.842   5.099   6.289
 3466SOL    HW211298   6.753   5.078   6.154
 3467SOL     OW11299   2.500   1.916   6.551
 3467SOL    HW111300   2.557   1.839   6.581
 3467SOL    HW211301   2.449   1.890   6.469
 3468SOL     OW11302   2.670   5.696   3.558
 3468SOL    HW111303   2.710   5.680   3.648
 3468SOL    HW211304   2.602   5.625   3.539
 3469SOL     OW11305   6.849   2.458   3.949
 3469SOL    HW111306   6.754   2.467   3.917
 3469SOL    HW211307   6.856   2.381   4.012
 3470SOL     OW11308   0.646   5.224   1.281
 3470SOL    HW111309   0.553   5.193   1.302
 3470SOL    HW211310   0.675   5.186   1.193
 3471SOL     OW11311   4.332   5.427   5.305
 3471SOL    HW111312   4.302   5.523   5.310
 3471SOL    HW211313   4.252   5.368   5.291
 3472SOL     OW11314   2.205   1.174   4.277
 3472SOL    HW111315   2.221   1.102   4.344
 3472SOL    HW211316   2.125   1.151   4.221
 3473SOL     OW11317   5.479   1.847   5.809
 3473SOL    HW111318   5.418   1.770   5.827
 3473SOL    HW211319   5.568   1.830   5.850
 3474SOL     OW11320   3.156   4.866   2.211
 3474SOL    HW111321   3.072   4.860   2.264
 3474SOL    HW211322   3.216   4.789   2.234
 3475SOL     OW11323   0.964   6.746   3.861
 3475SOL    HW111324   0.944   6.797   3.777
 3475SOL    HW211325   0.935   6.651   3.850
 3476SOL     OW11326   4.267   0.743   5.008
 3476SOL    HW111327   4.303   0.804   5.079
 3476SOL    HW211328   4.306   0.651   5.021
 3477SOL     OW11329   3.816   5.483   0.908
 3477SOL    HW111330   3.765   5.506   0.991
 3477SOL    HW211331   3.909   5.518   0.916
 3478SOL     OW11332   2.675   6.365   5.705
 3478SOL    HW111333   2.738   6.297   5.669
 3478SOL    HW211334   2.720   6.415   5.779
 3479SOL     OW11335   0.750   0.340   2.777
 3479SOL    HW111336   0.718   0.267   2.838
 3479SOL    HW211337   0.673   0.375   2.723
 3480SOL     OW11338   6.935   1.407   4.110
 3480SOL    HW111339   6.851   1.461   4.120
 3480SOL    HW211340   7.014   1.467   4.122
 3481SOL     OW11341   3.294   6.866   6.481
 3481SOL    HW111342   3.289   6.959   6.442
 3481SOL    HW211343   3.209   6.846   6.529
 3482SOL     OW11344   6.048   1.841   1.651
 3482SOL    HW111345   6.022   1.862   1.745
 3482SOL    HW211346   6.148   1.844   1.643
 3483SOL     OW11347   2.657   0.139   1.341
 3483SOL    HW111348   2.597   0.065   1.311
 3483SOL    HW211349   2.633   0.223   1.293
 3484SOL     OW11350   3.106   3.052   3.529
 3484SOL    HW111351   3.056   3.040   3.444
 3484SOL    HW211352   3.177   2.981   3.537
 3485SOL     OW11353   1.891   1.662   4.833
 3485SOL    HW111354   1.854   1.737   4.888
 3485SOL    HW211355   1.821   1.630   4.768
 3486SOL     OW11356   3.808   1.303   1.581
 3486SOL    HW111357   3.775   1.288   1.674
 3486SOL    HW211358   3.884   1.240   1.562
 3487SOL     OW11359   5.765   1.664   6.691
 3487SOL    HW111360   5.691   1.604   6.662
 3487SOL    HW211361   5.735   1.759   6.688
 3488SOL     OW11362   6.826   3.242   4.387
 3488SOL    HW111363   6.898   3.209   4.326
 3488SOL    HW211364   6.758   3.169   4.400
 3489SOL     OW11365   3.161   6.767   0.483
 3489SOL    HW111366   3.232   6.817   0.533
 3489SOL    HW211367   3.151   6.676   0.522
 3490SOL     OW11368   5.189   4.227   0.237
 3490SOL    HW111369   5.097   4.229   0.198
 3490SOL    HW211370   5.182   4.210   0.336
 3491SOL     OW11371   6.974   2.839   5.467
 3491SOL    HW111372   6.934   2.748   5.472
 3491SOL    HW211373   7.019   2.861   5.553
 3492SOL     OW11374   0.631   5.798   6.789
 3492SOL    HW111375   0.685   5.817   6.707
 3492SOL    HW211376   0.674   5.841   6.868
 3493SOL     OW11377   5.958   4.919   0.936
 3493SOL    HW111378   5.976   4.978   1.014
 3493SOL    HW211379   6.030   4.931   0.867
 3494SOL     OW11380   4.190   0.092   1.004
 3494SOL    HW111381   4.135   0.013   0.976
 3494SOL    HW211382   4.267   0.102   0.941
 3495SOL     OW11383   4.098   5.268   2.327
 3495SOL    HW111384   4.063   5.192   2.273
 3495SOL    HW211385   4.176   5.311   2.280
 3496SOL     OW11386   1.634   3.119   1.391
 3496SOL    HW111387   1.714   3.136   1.448
 3496SOL    HW211388   1.553   3.159   1.434
 3497SOL     OW11389   4.695   0.766   3.239
 3497SOL    HW111390   4.742   0.697   3.295
 3497SOL    HW211391   4.597   0.746   3.238
 3498SOL     OW11392   2.796   1.712   1.021
 3498SOL    HW111393   2.891   1.722   0.993
 3498SOL    HW211394   2.789   1.725   1.120
 3499SOL     OW11395   6.913   3.822   4.118
 3499SOL    HW111396   6.821   3.852   4.141
 3499SOL    HW211397   6.927   3.829   4.019
 3500SOL     OW11398   6.725   3.897   6.127
 3500SOL    HW111399   6.765   3.989   6.124
 3500SOL    HW211400   6.654   3.894   6.198
 3501SOL     OW11401   0.961   4.905   5.150
 3501SOL    HW111402   0.956   4.806   5.157
 3501SOL    HW211403   0.974   4.944   5.241
 3502SOL     OW11404   0.433   1.935   1.563
 3502SOL    HW111405   0.490   1.866   1.517
 3502SOL    HW211406   0.358   1.890   1.610
 3503SOL     OW11407   4.614   5.659   5.715
 3503SOL    HW111408   4.711   5.675   5.693
 3503SOL    HW211409   4.558   5.723   5.664
 3504SOL     OW11410   2.936   3.639   1.264
 3504SOL    HW111411   2.961   3.611   1.356
 3504SOL    HW211412   2.922   3.738   1.262
 3505SOL     OW11413   5.120   6.123   5.213
 3505SOL    HW111414   5.217   6.135   5.231
 3505SOL    HW211415   5.075   6.087   5.294
 3506SOL     OW11416   4.322   5.474   4.505
 3506SOL    HW111417   4.401   5.497   4.562
 3506SOL    HW211418   4.241   5.464   4.563
 3507SOL     OW11419   1.201   0.348   6.176
 3507SOL    HW111420   1.154   0.389   6.254
 3507SOL    HW211421   1.300   0.347   6.193
 3508SOL     OW11422   5.280   2.802   0.222
 3508SOL    HW111423   5.353   2.782   0.287
 3508SOL    HW211424   5.299   2.755   0.135
 3509SOL     OW11425   6.045   6.399   6.858
 3509SOL    HW111426   6.106   6.423   6.783
 3509SOL    HW211427   6.032   6.300   6.860
 3510SOL     OW11428   1.781   2.237   1.570
 3510SOL    HW111429   1.708   2.172   1.548
 3510SOL    HW211430   1.756   2.328   1.535
 3511SOL     OW11431   1.550   3.207   6.874
 3511SOL    HW111432   1.571   3.144   6.799
 3511SOL    HW211433   1.635   3.238   6.916
 3512SOL     OW11434   1.360   3.458   0.306
 3512SOL    HW111435   1.434   3.522   0.284
 3512SOL    HW211436   1.290   3.505   0.360
 3513SOL     OW11437   6.463   4.020   0.851
 3513SOL    HW111438   6.467   3.942   0.913
 3513SOL    HW211439   6.501   3.993   0.762
 3514SOL     OW11440   0.553   6.773   1.185
 3514SOL    HW111441   0.489   6.850   1.192
 3514SOL    HW211442   0.632   6.800   1.129
 3515SOL     OW11443   3.044   5.915   2.659
 3515SOL    HW111444   2.974   5.959   2.714
 3515SOL    HW211445   3.007   5.832   2.617
 3516SOL     OW11446   3.598   0.877   0.806
 3516SOL    HW111447   3.514   0.831   0.778
 3516SOL    HW211448   3.653   0.815   0.861
 3517SOL     OW11449   0.615   1.586   0.324
 3517SOL    HW111450   0.606   1.486   0.325
 3517SOL    HW211451   0.710   1.611   0.342
 3518SOL     OW11452   4.891   3.699   6.626
 3518SOL    HW111453   4.814   3.763   6.630
 3518SOL    HW211454   4.907   3.672   6.531
 3519SOL     OW11455   0.814   6.641   6.773
 3519SOL    HW111456   0.770   6.551   6.776
 3519SOL    HW211457   0.906   6.634   6.810
 3520SOL     OW11458   3.846   4.446   1.114
 3520SOL    HW111459   3.856   4.480   1.020
 3520SOL    HW211460   3.853   4.347   1.115
 3521SOL     OW11461   5.431   2.671   1.680
 3521SOL    HW111462   5.437   2.681   1.779
 3521SOL    HW211463   5.384   2.585   1.658
 3522SOL     OW11464   2.597   4.942   1.627
 3522SOL    HW111465   2.547   4.923   1.712
 3522SOL    HW211466   2.676   5.000   1.648
 3523SOL     OW11467   2.990   4.757   5.363
 3523SOL    HW111468   2.963   4.701   5.285
 3523SOL    HW211469   3.048   4.832   5.332
 3524SOL     OW11470   2.636   0.244   1.013
 3524SOL    HW111471   2.560   0.253   1.077
 3524SOL    HW211472   2.717   0.288   1.052
 3525SOL     OW11473   0.214   2.527   1.686
 3525SOL    HW111474   0.253   2.584   1.614
 3525SOL    HW211475   0.132   2.481   1.652
 3526SOL     OW11476   0.659   0.755   2.829
 3526SOL    HW111477   0.751   0.720   2.846
 3526SOL    HW211478   0.647   0.843   2.875
 3527SOL     OW11479   5.396   2.971   6.308
 3527SOL    HW111480   5.383   2.942   6.213
 3527SOL    HW211481   5.309   2.963   6.358
 3528SOL     OW11482   0.659   5.842   3.353
 3528SOL    HW111483   0.585   5.833   3.286
 3528SOL    HW211484   0.630   5.804   3.440
 3529SOL     OW11485   4.698   0.092   5.595
 3529SOL    HW111486   4.698   0.049   5.505
 3529SOL    HW211487   4.629   0.164   5.597
 3530SOL     OW11488   2.731   5.558   2.489
 3530SOL    HW111489   2.664   5.596   2.426
 3530SOL    HW211490   2.685   5.496   2.553
 3531SOL     OW11491   5.345   4.358   0.522
 3531SOL    HW111492   5.253   4.326   0.496
 3531SOL    HW211493   5.386   4.406   0.444
 3532SOL     OW11494   2.375   0.529   6.858
 3532SOL    HW111495   2.416   0.618   6.838
 3532SOL    HW211496   2.429   0.482   6.928
 3533SOL     OW11497   0.839   1.798   3.126
 3533SOL    HW111498   0.819   1.802   3.224
 3533SOL    HW211499   0.813   1.884   3.083
 3534SOL     OW11500   5.667   1.551   5.219
 3534SOL    HW111501   5.681   1.650   5.222
 3534SOL    HW211502   5.738   1.509   5.163
 3535SOL     OW11503   6.442   5.410   6.251
 3535SOL    HW111504   6.456   5.317   6.285
 3535SOL    HW211505   6.486   5.475   6.313
 3536SOL     OW11506   2.066   3.280   2.822
 3536SOL    HW111507   2.130   3.230   2.763
 3536SOL    HW211508   2.109   3.365   2.854
 3537SOL     OW11509   2.360   5.768   0.696
 3537SOL    HW111510   2.422   5.770   0.618
 3537SOL    HW211511   2.344   5.673   0.724
 3538SOL     OW11512   3.099   6.766   3.255
 3538SOL    HW111513   3.174   6.700   3.260
 3538SOL    HW211514   3.119   6.844   3.315
 3539SOL     OW11515   5.455   4.616   6.029
 3539SOL    HW111516   5.504   4.626   6.115
 3539SOL    HW211517   5.361   4.585   6.047
 3540SOL     OW11518   2.140   3.013   0.031
 3540SOL    HW111519   2.232   3.034   0.065
 3540SOL    HW211520   2.147   2.952   6.975
 3541SOL     OW11521   2.671   3.153   0.970
 3541SOL    HW111522   2.767   3.173   0.951
 3541SOL    HW211523   2.659   3.134   1.067
 3542SOL     OW11524   5.643   2.896   0.175
 3542SOL    HW111525   5.683   2.823   0.231
 3542SOL    HW211526   5.681   2.892   0.082
 3543SOL     OW11527   1.769   3.362   3.159
 3543SOL    HW111528   1.862   3.393   3.177
 3543SOL    HW211529   1.768   3.305   3.077
 3544SOL     OW11530   3.283   4.053   6.484
 3544SOL    HW111531   3.204   4.004   6.448
 3544SOL    HW211532   3.297   4.027   6.580
 3545SOL     OW11533   3.446   5.751   0.635
 3545SOL    HW111534   3.376   5.731   0.566
 3545SOL    HW211535   3.414   5.719   0.725
 3546SOL     OW11536   6.555   3.622   3.024
 3546SOL    HW111537   6.619   3.615   2.948
 3546SOL    HW211538   6.558   3.538   3.078
 3547SOL     OW11539   0.241   3.158   5.290
 3547SOL    HW111540   0.168   3.107   5.335
 3547SOL    HW211541   0.202   3.215   5.219
 3548SOL     OW11542   4.767   1.938   6.175
 3548SOL    HW111543   4.842   1.899   6.122
 3548SOL    HW211544   4.679   1.912   6.133
 3549SOL     OW11545   2.048   5.959   6.480
 3549SOL    HW111546   2.086   5.904   6.405
 3549SOL    HW211547   2.015   5.899   6.553
 3550SOL     OW11548   4.972   2.040   4.879
 3550SOL    HW111549   4.916   1.979   4.822
 3550SOL    HW211550   5.044   1.987   4.923
 3551SOL     OW11551   3.817   2.665   5.730
 3551SOL    HW111552   3.807   2.580   5.678
 3551SOL    HW211553   3.728   2.710   5.738
 3552SOL     OW11554   6.663   5.719   1.508
 3552SOL    HW111555   6.603   5.655   1.556
 3552SOL    HW211556   6.758   5.689   1.516
 3553SOL     OW11557   3.786   6.386   6.042
 3553SOL    HW111558   3.884   6.404   6.048
 3553SOL    HW211559   3.735   6.468   6.068
 3554SOL     OW11560   4.125   3.721   1.032
 3554SOL    HW111561   4.146   3.819   1.031
 3554SOL    HW211562   4.209   3.669   1.050
 3555SOL     OW11563   1.619   2.171   4.007
 3555SOL    HW111564   1.579   2.252   3.965
 3555SOL    HW211565   1.643   2.105   3.936
 3556SOL     OW11566   3.940   1.062   5.260
 3556SOL    HW111567   3.897   0.973   5.250
 3556SOL    HW211568   3.962   1.099   5.170
 3557SOL     OW11569   0.223   0.328   2.836
 3557SOL    HW111570   0.278   0.304   2.755
 3557SOL    HW211571   0.126   0.329   2.811
 3558SOL     OW11572   3.057   6.265   0.213
 3558SOL    HW111573   2.996   6.263   0.291
 3558SOL    HW211574   3.007   6.292   0.131
 3559SOL     OW11575   3.661   6.598   4.470
 3559SOL    HW111576   3.696   6.548   4.550
 3559SOL    HW211577   3.562   6.582   4.462
 3560SOL     OW11578   2.036   5.310   4.758
 3560SOL    HW111579   1.996   5.351   4.839
 3560SOL    HW211580   2.076   5.221   4.781
 3561SOL     OW11581   5.363   4.656   4.994
 3561SOL    HW111582   5.413   4.719   4.934
 3561SOL    HW211583   5.343   4.572   4.944
 3562SOL     OW11584   2.440   1.598   4.518
 3562SOL    HW111585   2.521   1.559   4.562
 3562SOL    HW211586   2.358   1.555   4.555
 3563SOL     OW11587   5.890   2.173   5.764
 3563SOL    HW111588   5.827   2.108   5.722
 3563SOL    HW211589   5.984   2.137   5.758
 3564SOL     OW11590   0.406   4.535   2.925
 3564SOL    HW111591   0.307   4.542   2.911
 3564SOL    HW211592   0.426   4.535   3.023
 3565SOL     OW11593   3.312   4.960   3.207
 3565SOL    HW111594   3.350   4.925   3.122
 3565SOL    HW211595   3.249   5.036   3.188
 3566SOL     OW11596   6.506   1.411   5.182
 3566SOL    HW111597   6.567   1.340   5.217
 3566SOL    HW211598   6.503   1.406   5.082
 3567SOL     OW11599   0.704   3.781   6.739
 3567SOL    HW111600   0.716   3.873   6.776
 3567SOL    HW211601   0.606   3.759   6.735
 3568SOL     OW11602   6.868   4.066   5.555
 3568SOL    HW111603   6.863   3.966   5.561
 3568SOL    HW211604   6.951   4.098   5.602
 3569SOL     OW11605   2.675   1.660   5.909
 3569SOL    HW111606   2.692   1.736   5.972
 3569SOL    HW211607   2.670   1.574   5.960
 3570SOL     OW11608   5.564   0.317   4.974
 3570SOL    HW111609   5.572   0.406   4.931
 3570SOL    HW211610   5.632   0.254   4.936
 3571SOL     OW11611   6.630   5.731   6.833
 3571SOL    HW111612   6.709   5.760   6.778
 3571SOL    HW211613   6.593   5.646   6.796
 3572SOL     OW11614   5.660   3.878   3.917
 3572SOL    HW111615   5.653   3.790   3.870
 3572SOL    HW211616   5.614   3.948   3.862
 3573SOL     OW11617   0.841   4.266   4.483
 3573SOL    HW111618   0.800   4.330   4.418
 3573SOL    HW211619   0.938   4.288   4.494
 3574SOL     OW11620   0.569   4.876   0.295
 3574SOL    HW111621   0.477   4.915   0.298
 3574SOL    HW211622   0.567   4.784   0.333
 3575SOL     OW11623   6.296   5.066   3.050
 3575SOL    HW111624   6.390   5.033   3.054
 3575SOL    HW211625   6.271   5.086   2.955
 3576SOL     OW11626   1.559   1.275   5.919
 3576SOL    HW111627   1.658   1.263   5.912
 3576SOL    HW211628   1.529   1.341   5.850
 3577SOL     OW11629   1.182   2.623   6.579
 3577SOL    HW111630   1.096   2.649   6.536
 3577SOL    HW211631   1.169   2.541   6.634
 3578SOL     OW11632   4.028   3.712   6.790
 3578SOL    HW111633   4.010   3.807   6.816
 3578SOL    HW211634   4.108   3.708   6.731
 3579SOL     OW11635   6.835   3.933   4.988
 3579SOL    HW111636   6.782   4.013   4.959
 3579SOL    HW211637   6.877   3.890   4.908
 3580SOL     OW11638   5.488   2.288   1.462
 3580SOL    HW111639   5.523   2.197   1.437
 3580SOL    HW211640   5.557   2.338   1.513
 3581SOL     OW11641   6.463   0.125   3.482
 3581SOL    HW111642   6.415   0.184   3.417
 3581SOL    HW211643   6.449   0.161   3.575
 3582SOL     OW11644   0.948   1.840   5.751
 3582SOL    HW111645   0.965   1.788   5.834
 3582SOL    HW211646   1.019   1.911   5.741
 3583SOL     OW11647   0.920   4.339   0.105
 3583SOL    HW111648   1.005   4.335   0.157
 3583SOL    HW211649   0.889   4.247   0.084
 3584SOL     OW11650   6.214   6.505   6.188
 3584SOL    HW111651   6.301   6.527   6.232
 3584SOL    HW211652   6.223   6.421   6.135
 3585SOL     OW11653   3.805   5.112   5.040
 3585SOL    HW111654   3.846   5.182   4.982
 3585SOL    HW211655   3.830   5.128   5.136
 3586SOL     OW11656   6.046   3.059   5.289
 3586SOL    HW111657   6.005   3.109   5.365
 3586SOL    HW211658   5.977   2.999   5.248
 3587SOL     OW11659   2.931   6.510   1.203
 3587SOL    HW111660   2.949   6.431   1.145
 3587SOL    HW211661   2.938   6.483   1.299
 3588SOL     OW11662   1.236   2.242   5.419
 3588SOL    HW111663   1.149   2.194   5.430
 3588SOL    HW211664   1.247   2.267   5.323
 3589SOL     OW11665   3.308   0.714   4.378
 3589SOL    HW111666   3.209   0.712   4.369
 3589SOL    HW211667   3.339   0.809   4.383
 3590SOL     OW11668   0.632   4.456   6.544
 3590SOL    HW111669   0.731   4.447   6.548
 3590SOL    HW211670   0.599   4.420   6.457
 3591SOL     OW11671   5.597   2.985   6.679
 3591SOL    HW111672   5.576   3.014   6.772
 3591SOL    HW211673   5.689   3.017   6.655
 3592SOL     OW11674   5.271   2.860   3.345
 3592SOL    HW111675   5.228   2.857   3.255
 3592SOL    HW211676   5.322   2.775   3.360
 3593SOL     OW11677   2.685   6.365   4.216
 3593SOL    HW111678   2.653   6.420   4.138
 3593SOL    HW211679   2.783   6.382   4.229
 3594SOL     OW11680   3.472   0.988   3.253
 3594SOL    HW111681   3.510   0.937   3.330
 3594SOL    HW211682   3.417   0.926   3.196
 3595SOL     OW11683   2.574   6.151   4.975
 3595SOL    HW111684   2.541   6.082   4.912
 3595SOL    HW211685   2.563   6.119   5.069
 3596SOL     OW11686   6.135   1.315   2.683
 3596SOL    HW111687   6.098   1.393   2.632
 3596SOL    HW211688   6.234   1.325   2.694
 3597SOL     OW11689   3.227   6.275   4.421
 3597SOL    HW111690   3.222   6.177   4.401
 3597SOL    HW211691   3.258   6.324   4.340
 3598SOL     OW11692   0.842   0.849   5.645
 3598SOL    HW111693   0.825   0.767   5.699
 3598SOL    HW211694   0.789   0.925   5.683
 3599SOL     OW11695   1.143   2.039   5.679
 3599SOL    HW111696   1.209   1.967   5.702
 3599SOL    HW211697   1.159   2.118   5.738
 3600SOL     OW11698   6.986   3.242   0.327
 3600SOL    HW111699   6.894   3.232   0.366
 3600SOL    HW211700   0.002   3.151   0.314
 3601SOL     OW11701   6.941   4.243   0.601
 3601SOL    HW111702   0.013   4.216   0.591
 3601SOL    HW211703   6.886   4.199   0.529
 3602SOL     OW11704   2.265   1.013   0.617
 3602SOL    HW111705   2.315   1.092   0.652
 3602SOL    HW211706   2.170   1.017   0.648
 3603SOL     OW11707   3.821   5.652   4.215
 3603SOL    HW111708   3.820   5.673   4.117
 3603SOL    HW211709   3.850   5.733   4.266
 3604SOL     OW11710   6.826   3.343   2.994
 3604SOL    HW111711   6.863   3.363   2.903
 3604SOL    HW211712   6.902   3.328   3.057
 3605SOL     OW11713   6.370   4.599   5.893
 3605SOL    HW111714   6.381   4.537   5.971
 3605SOL    HW211715   6.450   4.590   5.833
 3606SOL     OW11716   0.241   4.932   6.090
 3606SOL    HW111717   0.324   4.942   6.145
 3606SOL    HW211718   0.188   4.854   6.124
 3607SOL     OW11719   5.238   0.217   0.528
 3607SOL    HW111720   5.316   0.200   0.589
 3607SOL    HW211721   5.272   0.249   0.439
 3608SOL     OW11722   6.616   1.714   1.857
 3608SOL    HW111723   6.657   1.727   1.947
 3608SOL    HW211724   6.516   1.710   1.865
 3609SOL     OW11725   6.380   0.998   4.312
 3609SOL    HW111726   6.453   0.997   4.380
 3609SOL    HW211727   6.303   1.052   4.347
 3610SOL     OW11728   0.871   0.863   5.127
 3610SOL    HW111729   0.931   0.935   5.163
 3610SOL    HW211730   0.851   0.881   5.031
 3611SOL     OW11731   3.897   5.117   5.302
 3611SOL    HW111732   3.855   5.200   5.339
 3611SOL    HW211733   3.996   5.121   5.314
 3612SOL     OW11734   0.512   6.554   5.984
 3612SOL    HW111735   0.413   6.568   5.986
 3612SOL    HW211736   0.547   6.578   5.893
 3613SOL     OW11737   5.102   4.889   0.772
 3613SOL    HW111738   5.016   4.845   0.746
 3613SOL    HW211739   5.136   4.849   0.857
 3614SOL     OW11740   3.769   3.364   4.135
 3614SOL    HW111741   3.676   3.343   4.165
 3614SOL    HW211742   3.766   3.436   4.066
 3615SOL     OW11743   5.929   6.209   5.939
 3615SOL    HW111744   5.852   6.255   5.894
 3615SOL    HW211745   5.939   6.243   6.032
 3616SOL     OW11746   6.365   2.192   6.626
 3616SOL    HW111747   6.266   2.204   6.620
 3616SOL    HW211748   6.396   2.206   6.720
 3617SOL     OW11749   5.759   1.670   6.198
 3617SOL    HW111750   5.671   1.717   6.205
 3617SOL    HW211751   5.760   1.591   6.258
 3618SOL     OW11752   1.484   1.970   5.362
 3618SOL    HW111753   1.484   2.035   5.438
 3618SOL    HW211754   1.539   1.890   5.385
 3619SOL     OW11755   6.546   1.802   3.710
 3619SOL    HW111756   6.645   1.784   3.706
 3619SOL    HW211757   6.530   1.886   3.761
 3620SOL     OW11758   5.914   5.986   5.819
 3620SOL    HW111759   5.945   6.074   5.854
 3620SOL    HW211760   5.814   5.982   5.820
 3621SOL     OW11761   2.882   2.311   6.700
 3621SOL    HW111762   2.877   2.404   6.665
 3621SOL    HW211763   2.869   2.247   6.624
 3622SOL     OW11764   1.932   1.798   3.154
 3622SOL    HW111765   1.929   1.853   3.238
 3622SOL    HW211766   1.888   1.710   3.171
 3623SOL     OW11767   6.044   5.332   3.859
 3623SOL    HW111768   6.067   5.409   3.919
 3623SOL    HW211769   6.038   5.364   3.764
 3624SOL     OW11770   2.244   5.641   2.275
 3624SOL    HW111771   2.164   5.647   2.335
 3624SOL    HW211772   2.215   5.627   2.181
 3625SOL     OW11773   6.214   3.184   6.524
 3625SOL    HW111774   6.212   3.104   6.584
 3625SOL    HW211775   6.127   3.193   6.477
 3626SOL     OW11776   2.244   3.903   5.792
 3626SOL    HW111777   2.326   3.873   5.743
 3626SOL    HW211778   2.197   3.973   5.738
 3627SOL     OW11779   4.051   3.795   3.498
 3627SOL    HW111780   4.087   3.703   3.516
 3627SOL    HW211781   3.978   3.816   3.562
 3628SOL     OW11782   1.916   6.740   1.939
 3628SOL    HW111783   1.891   6.758   2.034
 3628SOL    HW211784   2.015   6.728   1.932
 3629SOL     OW11785   6.337   2.607   4.950
 3629SOL    HW111786   6.260   2.567   5.000
 3629SOL    HW211787   6.404   2.536   4.929
 3630SOL     OW11788   5.848   2.826   3.861
 3630SOL    HW111789   5.945   2.828   3.887
 3630SOL    HW211790   5.825   2.735   3.825
 3631SOL     OW11791   1.823   0.319   3.871
 3631SOL    HW111792   1.863   0.257   3.939
 3631SOL    HW211793   1.746   0.274   3.826
 3632SOL     OW11794   5.522   0.550   0.733
 3632SOL    HW111795   5.578   0.571   0.813
 3632SOL    HW211796   5.427   0.541   0.760
 3633SOL     OW11797   2.967   2.410   6.186
 3633SOL    HW111798   2.927   2.482   6.129
 3633SOL    HW211799   2.951   2.321   6.143
 3634SOL     OW11800   0.638   5.661   5.197
 3634SOL    HW111801   0.668   5.651   5.291
 3634SOL    HW211802   0.715   5.646   5.135
 3635SOL     OW11803   3.157   0.417   5.280
 3635SOL    HW111804   3.253   0.412   5.253
 3635SOL    HW211805   3.150   0.444   5.376
 3636SOL     OW11806   0.916   6.354   5.794
 3636SOL    HW111807   0.847   6.385   5.729
 3636SOL    HW211808   0.923   6.255   5.791
 3637SOL     OW11809   6.283   1.990   1.140
 3637SOL    HW111810   6.230   2.012   1.222
 3637SOL    HW211811   6.261   2.055   1.068
 3638SOL     OW11812   6.700   5.136   4.278
 3638SOL    HW111813   6.684   5.125   4.180
 3638SOL    HW211814   6.795   5.113   4.299
 3639SOL     OW11815   4.173   4.014   0.938
 3639SOL    HW111816   4.195   4.109   0.918
 3639SOL    HW211817   4.251   3.956   0.913
 3640SOL     OW11818   3.433   6.828   6.753
 3640SOL    HW111819   3.470   6.917   6.781
 3640SOL    HW211820   3.436   6.821   6.653
 3641SOL     OW11821   4.504   2.553   4.899
 3641SOL    HW111822   4.558   2.596   4.971
 3641SOL    HW211823   4.421   2.514   4.938
 3642SOL     OW11824   5.208   1.708   5.930
 3642SOL    HW111825   5.201   1.742   6.024
 3642SOL    HW211826   5.125   1.732   5.880
 3643SOL     OW11827   2.610   5.906   4.866
 3643SOL    HW111828   2.582   5.931   4.773
 3643SOL    HW211829   2.595   5.808   4.881
 3644SOL     OW11830   0.175   1.321   1.718
 3644SOL    HW111831   0.176   1.402   1.776
 3644SOL    HW211832   0.110   1.255   1.754
 3645SOL     OW11833   5.340   0.939   3.914
 3645SOL    HW111834   5.269   1.008   3.923
 3645SOL    HW211835   5.360   0.899   4.004
 3646SOL     OW11836   6.978   5.045   6.381
 3646SOL    HW111837   6.995   5.028   6.478
 3646SOL    HW211838   6.993   5.142   6.361
 3647SOL     OW11839   2.129   4.026   0.651
 3647SOL    HW111840   2.123   4.046   0.553
 3647SOL    HW211841   2.222   3.999   0.674
 3648SOL     OW11842   3.476   5.859   2.871
 3648SOL    HW111843   3.468   5.760   2.859
 3648SOL    HW211844   3.405   5.905   2.818
 3649SOL     OW11845   4.398   3.040   1.417
 3649SOL    HW111846   4.450   2.958   1.443
 3649SOL    HW211847   4.396   3.104   1.494
 3650SOL     OW11848   6.822   5.428   0.890
 3650SOL    HW111849   6.834   5.525   0.908
 3650SOL    HW211850   6.850   5.409   0.795
 3651SOL     OW11851   0.299   5.492   2.860
 3651SOL    HW111852   0.330   5.398   2.842
 3651SOL    HW211853   0.250   5.494   2.948
 3652SOL     OW11854   5.280   5.957   3.472
 3652SOL    HW111855   5.330   6.044   3.473
 3652SOL    HW211856   5.183   5.974   3.487
 3653SOL     OW11857   6.728   1.023   3.911
 3653SOL    HW111858   6.689   0.973   3.989
 3653SOL    HW211859   6.804   1.080   3.942
 3654SOL     OW11860   2.055   6.876   6.848
 3654SOL    HW111861   2.038   6.902   6.943
 3654SOL    HW211862   2.051   6.777   6.839
 3655SOL     OW11863   1.190   6.899   3.916
 3655SOL    HW111864   1.120   6.828   3.903
 3655SOL    HW211865   1.169   6.977   3.858
 3656SOL     OW11866   1.473   2.859   1.738
 3656SOL    HW111867   1.407   2.790   1.768
 3656SOL    HW211868   1.442   2.900   1.652
 3657SOL     OW11869   5.018   5.796   5.920
 3657SOL    HW111870   4.982   5.874   5.868
 3657SOL    HW211871   4.943   5.745   5.960
 3658SOL     OW11872   1.122   5.546   3.869
 3658SOL    HW111873   1.208   5.525   3.822
 3658SOL    HW211874   1.140   5.573   3.963
 3659SOL     OW11875   3.219   3.518   5.935
 3659SOL    HW111876   3.260   3.431   5.906
 3659SOL    HW211877   3.288   3.575   5.979
 3660SOL     OW11878   5.157   6.416   2.005
 3660SOL    HW111879   5.141   6.455   2.096
 3660SOL    HW211880   5.144   6.317   2.008
 3661SOL     OW11881   4.650   1.937   6.411
 3661SOL    HW111882   4.616   2.027   6.436
 3661SOL    HW211883   4.714   1.945   6.335
 3662SOL     OW11884   3.736   0.904   3.774
 3662SOL    HW111885   3.670   0.931   3.844
 3662SOL    HW211886   3.719   0.809   3.747
 3663SOL     OW11887   1.482   1.227   0.281
 3663SOL    HW111888   1.385   1.209   0.263
 3663SOL    HW211889   1.490   1.294   0.355
 3664SOL     OW11890   4.847   2.552   1.493
 3664SOL    HW111891   4.881   2.644   1.475
 3664SOL    HW211892   4.868   2.492   1.415
 3665SOL     OW11893   0.510   5.813   5.556
 3665SOL    HW111894   0.457   5.893   5.584
 3665SOL    HW211895   0.454   5.756   5.496
 3666SOL     OW11896   2.045   3.947   3.035
 3666SOL    HW111897   2.078   3.877   2.972
 3666SOL    HW211898   1.980   3.906   3.099
 3667SOL     OW11899   6.611   0.357   0.554
 3667SOL    HW111900   6.563   0.340   0.640
 3667SOL    HW211901   6.593   0.283   0.490
 3668SOL     OW11902   1.459   0.412   1.911
 3668SOL    HW111903   1.362   0.422   1.934
 3668SOL    HW211904   1.468   0.372   1.820
 3669SOL     OW11905   6.397   1.083   4.780
 3669SOL    HW111906   6.359   0.996   4.813
 3669SOL    HW211907   6.322   1.145   4.757
 3670SOL     OW11908   2.224   4.815   0.490
 3670SOL    HW111909   2.253   4.909   0.506
 3670SOL    HW211910   2.124   4.810   0.489
 3671SOL     OW11911   6.194   0.475   3.786
 3671SOL    HW111912   6.124   0.523   3.839
 3671SOL    HW211913   6.179   0.377   3.793
 3672SOL     OW11914   5.534   1.729   1.203
 3672SOL    HW111915   5.533   1.637   1.162
 3672SOL    HW211916   5.564   1.722   1.298
 3673SOL     OW11917   3.436   0.632   5.835
 3673SOL    HW111918   3.488   0.599   5.756
 3673SOL    HW211919   3.390   0.717   5.811
 3674SOL     OW11920   0.459   0.573   5.557
 3674SOL    HW111921   0.500   0.589   5.468
 3674SOL    HW211922   0.373   0.522   5.546
 3675SOL     OW11923   2.070   3.144   5.298
 3675SOL    HW111924   2.127   3.227   5.305
 3675SOL    HW211925   2.080   3.106   5.206
 3676SOL     OW11926   4.429   4.870   4.483
 3676SOL    HW111927   4.346   4.814   4.472
 3676SOL    HW211928   4.428   4.913   4.573
 3677SOL     OW11929   1.143   6.485   2.930
 3677SOL    HW111930   1.144   6.392   2.965
 3677SOL    HW211931   1.204   6.492   2.851
 3678SOL     OW11932   1.067   3.121   3.704
 3678SOL    HW111933   1.062   3.023   3.682
 3678SOL    HW211934   1.078   3.132   3.803
 3679SOL     OW11935   1.219   0.971   3.198
 3679SOL    HW111936   1.245   0.953   3.293
 3679SOL    HW211937   1.119   0.978   3.191
 3680SOL     OW11938   5.757   2.744   3.144
 3680SOL    HW111939   5.690   2.672   3.127
 3680SOL    HW211940   5.845   2.702   3.169
 3681SOL     OW11941   0.325   0.318   5.049
 3681SOL    HW111942   0.353   0.379   4.974
 3681SOL    HW211943   0.397   0.251   5.065
 3682SOL     OW11944   6.414   2.576   6.116
 3682SOL    HW111945   6.370   2.492   6.148
 3682SOL    HW211946   6.456   2.623   6.193
 3683SOL     OW11947   0.334   0.507   4.643
 3683SOL    HW111948   0.399   0.460   4.703
 3683SOL    HW211949   0.242   0.500   4.681
 3684SOL     OW11950   1.997   3.768   0.367
 3684SOL    HW111951   1.909   3.778   0.413
 3684SOL    HW211952   2.064   3.730   0.430
 3685SOL     OW11953   6.424   6.094   6.173
 3685SOL    HW111954   6.385   6.004   6.154
 3685SOL    HW211955   6.426   6.148   6.089
 3686SOL     OW11956   6.261   5.220   3.507
 3686SOL    HW111957   6.241   5.150   3.575
 3686SOL    HW211958   6.280   5.176   3.419
 3687SOL     OW11959   3.161   5.990   5.482
 3687SOL    HW111960   3.241   6.050   5.483
 3687SOL    HW211961   3.142   5.958   5.575
 3688SOL     OW11962   1.643   3.758   6.809
 3688SOL    HW111963   1.559   3.723   6.766
 3688SOL    HW211964   1.663   3.705   6.891
 3689SOL     OW11965   1.376   0.648   6.149
 3689SOL    HW111966   1.378   0.630   6.050
 3689SOL    HW211967   1.361   0.561   6.197
 3690SOL     OW11968   3.883   6.918   6.391
 3690SOL    HW111969   3.833   6.833   6.371
 3690SOL    HW211970   3.964   6.923   6.332
 3691SOL     OW11971   2.169   2.549   0.244
 3691SOL    HW111972   2.165   2.635   0.295
 3691SOL    HW211973   2.092   2.492   0.268
 3692SOL     OW11974   0.933   6.128   4.939
 3692SOL    HW111975   0.979   6.191   5.002
 3692SOL    HW211976   0.901   6.179   4.859
 3693SOL     OW11977   2.089   2.684   2.344
 3693SOL    HW111978   2.105   2.763   2.404
 3693SOL    HW211979   2.175   2.656   2.303
 3694SOL     OW11980   1.056   5.911   2.594
 3694SOL    HW111981   1.015   5.903   2.685
 3694SOL    HW211982   1.068   5.819   2.556
 3695SOL     OW11983   6.873   2.662   2.579
 3695SOL    HW111984   6.952   2.656   2.518
 3695SOL    HW211985   6.811   2.733   2.546
 3696SOL     OW11986   3.897   5.566   5.264
 3696SOL    HW111987   3.839   5.551   5.184
 3696SOL    HW211988   3.864   5.645   5.315
 3697SOL     OW11989   0.328   5.728   3.716
 3697SOL    HW111990   0.320   5.698   3.810
 3697SOL    HW211991   0.255   5.688   3.661
 3698SOL     OW11992   3.238   6.256   4.693
 3698SOL    HW111993   3.200   6.316   4.764
 3698SOL    HW211994   3.231   6.302   4.604
 3699SOL     OW11995   6.631   3.702   2.755
 3699SOL    HW111996   6.578   3.757   2.690
 3699SOL    HW211997   6.625   3.605   2.730
 3700SOL     OW11998   6.804   1.020   4.464
 3700SOL    HW111999   6.829   1.087   4.394
 3700SOL    HW212000   6.768   0.938   4.421
 3701SOL     OW12001   0.739   0.828   3.507
 3701SOL    HW112002   0.708   0.811   3.414
 3701SOL    HW212003   0.827   0.876   3.505
 3702SOL     OW12004   4.358   0.377   2.294
 3702SOL    HW112005   4.379   0.409   2.202
 3702SOL    HW212006   4.321   0.284   2.290
 3703SOL     OW12007   4.664   2.808   6.281
 3703SOL    HW112008   4.638   2.712   6.285
 3703SOL    HW212009   4.652   2.842   6.187
 3704SOL     OW12010   3.053   0.122   1.129
 3704SOL    HW112011   3.092   0.040   1.089
 3704SOL    HW212012   3.013   0.101   1.218
 3705SOL     OW12013   4.955   6.274   3.866
 3705SOL    HW112014   5.022   6.200   3.872
 3705SOL    HW212015   4.945   6.318   3.956
 3706SOL     OW12016   0.701   3.641   4.733
 3706SOL    HW112017   0.690   3.548   4.769
 3706SOL    HW212018   0.612   3.686   4.733
 3707SOL     OW12019   5.749   3.802   5.055
 3707SOL    HW112020   5.708   3.765   4.972
 3707SOL    HW212021   5.817   3.871   5.030
 3708SOL     OW12022   6.241   0.825   6.428
 3708SOL    HW112023   6.276   0.801   6.338
 3708SOL    HW212024   6.182   0.752   6.462
 3709SOL     OW12025   3.654   0.707   0.296
 3709SOL    HW112026   3.566   0.740   0.331
 3709SOL    HW212027   3.725   0.776   0.315
 3710SOL     OW12028   6.414   5.807   0.547
 3710SOL    HW112029   6.455   5.747   0.478
 3710SOL    HW212030   6.421   5.902   0.517
 3711SOL     OW12031   6.885   6.217   2.007
 3711SOL    HW112032   6.913   6.216   1.911
 3711SOL    HW212033   6.944   6.281   2.058
 3712SOL     OW12034   6.693   6.165   6.792
 3712SOL    HW112035   6.734   6.080   6.824
 3712SOL    HW212036   6.740   6.196   6.709
 3713SOL     OW12037   1.232   6.379   4.362
 3713SOL    HW112038   1.231   6.287   4.399
 3713SOL    HW212039   1.191   6.442   4.428
 3714SOL     OW12040   4.461   5.873   5.098
 3714SOL    HW112041   4.544   5.894   5.047
 3714SOL    HW212042   4.465   5.780   5.132
 3715SOL     OW12043   6.142   3.969   4.110
 3715SOL    HW112044   6.188   3.881   4.100
 3715SOL    HW212045   6.044   3.954   4.116
 3716SOL     OW12046   6.475   0.042   5.071
 3716SOL    HW112047   6.414   0.120   5.085
 3716SOL    HW212048   6.551   0.068   5.012
 3717SOL     OW12049   6.090   4.918   6.384
 3717SOL    HW112050   6.020   4.981   6.351
 3717SOL    HW212051   6.180   4.952   6.356
 3718SOL     OW12052   2.349   6.928   5.170
 3718SOL    HW112053   2.421   6.995   5.150
 3718SOL    HW212054   2.351   6.856   5.100
 3719SOL     OW12055   5.041   4.386   0.649
 3719SOL    HW112056   5.077   4.410   0.739
 3719SOL    HW212057   4.950   4.426   0.637
 3720SOL     OW12058   5.564   2.254   6.027
 3720SOL    HW112059   5.497   2.180   6.020
 3720SOL    HW212060   5.527   2.327   6.085
 3721SOL     OW12061   4.891   4.538   0.465
 3721SOL    HW112062   4.983   4.530   0.502
 3721SOL    HW212063   4.850   4.625   0.494
 3722SOL     OW12064   0.127   0.180   2.584
 3722SOL    HW112065   0.052   0.225   2.534
 3722SOL    HW212066   0.090   0.108   2.642
 3723SOL     OW12067   6.484   6.303   1.757
 3723SOL    HW112068   6.510   6.246   1.835
 3723SOL    HW212069   6.565   6.325   1.703
 3724SOL     OW12070   2.498   5.117   6.580
 3724SOL    HW112071   2.515   5.145   6.675
 3724SOL    HW212072   2.585   5.095   6.536
 3725SOL     OW12073   5.144   6.353   0.261
 3725SOL    HW112074   5.171   6.439   0.217
 3725SOL    HW212075   5.227   6.302   0.284
 3726SOL     OW12076   6.391   4.840   0.835
 3726SOL    HW112077   6.297   4.808   0.819
 3726SOL    HW212078   6.389   4.932   0.873
 3727SOL     OW12079   6.883   3.101   5.752
 3727SOL    HW112080   6.844   3.155   5.678
 3727SOL    HW212081   6.819   3.099   5.829
 3728SOL     OW12082   1.903   3.982   7.007
 3728SOL    HW112083   1.977   3.931   0.026
 3728SOL    HW212084   1.916   3.984   6.908
 3729SOL     OW12085   1.506   2.618   3.700
 3729SOL    HW112086   1.476   2.647   3.792
 3729SOL    HW212087   1.552   2.694   3.654
 3730SOL     OW12088   3.067   5.838   6.672
 3730SOL    HW112089   3.162   5.849   6.701
 3730SOL    HW212090   3.036   5.746   6.694
 3731SOL     OW12091   4.733   0.008   0.474
 3731SOL    HW112092   4.792   7.000   0.400
 3731SOL    HW212093   4.722   6.959   0.541
 3732SOL     OW12094   1.720   2.989   0.061
 3732SOL    HW112095   1.620   2.996   0.056
 3732SOL    HW212096   1.755   2.955   6.997
 3733SOL     OW12097   1.488   3.665   1.155
 3733SOL    HW112098   1.503   3.750   1.104
 3733SOL    HW212099   1.568   3.645   1.211
 3734SOL     OW12100   4.140   1.602   2.035
 3734SOL    HW112101   4.084   1.680   2.064
 3734SOL    HW212102   4.138   1.596   1.935
 3735SOL     OW12103   1.527   1.854   3.533
 3735SOL    HW112104   1.579   1.805   3.463
 3735SOL    HW212105   1.485   1.936   3.493
 3736SOL     OW12106   0.157   3.324   0.911
 3736SOL    HW112107   0.141   3.236   0.956
 3736SOL    HW212108   0.231   3.314   0.845
 3737SOL     OW12109   5.533   0.059   3.068
 3737SOL    HW112110   5.614   0.081   3.121
 3737SOL    HW212111   5.455   0.112   3.101
 3738SOL     OW12112   6.669   6.319   3.046
 3738SOL    HW112113   6.576   6.320   3.084
 3738SOL    HW212114   6.682   6.399   2.988
 3739SOL     OW12115   2.040   4.634   1.904
 3739SOL    HW112116   2.102   4.692   1.957
 3739SOL    HW212117   2.092   4.563   1.857
 3740SOL     OW12118   4.908   0.334   0.409
 3740SOL    HW112119   4.908   0.290   0.319
 3740SOL    HW212120   4.815   0.363   0.431
 3741SOL     OW12121   4.636   3.197   1.674
 3741SOL    HW112122   4.544   3.176   1.642
 3741SOL    HW212123   4.652   3.155   1.763
 3742SOL     OW12124   2.659   1.897   5.603
 3742SOL    HW112125   2.578   1.885   5.661
 3742SOL    HW212126   2.642   1.969   5.536
 3743SOL     OW12127   5.422   4.419   1.141
 3743SOL    HW112128   5.324   4.421   1.158
 3743SOL    HW212129   5.439   4.400   1.044
 3744SOL     OW12130   0.574   5.723   2.915
 3744SOL    HW112131   0.509   5.728   2.991
 3744SOL    HW212132   0.531   5.758   2.832
 3745SOL     OW12133   3.418   5.564   2.085
 3745SOL    HW112134   3.423   5.558   2.185
 3745SOL    HW212135   3.432   5.659   2.057
 3746SOL     OW12136   4.321   1.578   2.512
 3746SOL    HW112137   4.415   1.611   2.523
 3746SOL    HW212138   4.284   1.610   2.425
 3747SOL     OW12139   3.432   0.373   5.897
 3747SOL    HW112140   3.374   0.321   5.835
 3747SOL    HW212141   3.438   0.468   5.866
 3748SOL     OW12142   5.057   0.729   1.542
 3748SOL    HW112143   5.146   0.702   1.579
 3748SOL    HW212144   4.992   0.654   1.554
 3749SOL     OW12145   1.381   6.444   3.940
 3749SOL    HW112146   1.462   6.493   3.972
 3749SOL    HW212147   1.374   6.454   3.840
 3750SOL     OW12148   2.388   4.514   0.080
 3750SOL    HW112149   2.471   4.569   0.077
 3750SOL    HW212150   2.391   4.452   0.158
 3751SOL     OW12151   6.395   3.890   2.313
 3751SOL    HW112152   6.313   3.849   2.272
 3751SOL    HW212153   6.412   3.979   2.272
 3752SOL     OW12154   5.114   0.710   5.206
 3752SOL    HW112155   5.115   0.806   5.181
 3752SOL    HW212156   5.139   0.654   5.127
 3753SOL     OW12157   6.230   0.213   4.964
 3753SOL    HW112158   6.160   0.142   4.966
 3753SOL    HW212159   6.250   0.237   4.869
 3754SOL     OW12160   2.264   0.654   1.931
 3754SOL    HW112161   2.171   0.622   1.917
 3754SOL    HW212162   2.270   0.703   2.017
 3755SOL     OW12163   3.536   5.694   5.081
 3755SOL    HW112164   3.617   5.637   5.072
 3755SOL    HW212165   3.457   5.647   5.041
 3756SOL     OW12166   3.222   5.378   6.483
 3756SOL    HW112167   3.128   5.348   6.493
 3756SOL    HW212168   3.264   5.389   6.573
 3757SOL     OW12169   6.457   5.285   1.733
 3757SOL    HW112170   6.547   5.265   1.771
 3757SOL    HW212171   6.423   5.204   1.685
 3758SOL     OW12172   2.054   0.969   4.736
 3758SOL    HW112173   2.148   0.941   4.715
 3758SOL    HW212174   2.027   0.931   4.825
 3759SOL     OW12175   4.062   0.780   5.361
 3759SOL    HW112176   4.136   0.716   5.381
 3759SOL    HW212177   4.097   0.874   5.363
 3760SOL     OW12178   6.971   0.297   3.315
 3760SOL    HW112179   6.950   0.226   3.382
 3760SOL    HW212180   0.046   0.315   3.316
 3761SOL     OW12181   6.805   1.304   4.552
 3761SOL    HW112182   6.768   1.283   4.643
 3761SOL    HW212183   6.752   1.256   4.483
 3762SOL     OW12184   1.578   4.229   2.393
 3762SOL    HW112185   1.489   4.272   2.373
 3762SOL    HW212186   1.596   4.233   2.491
 3763SOL     OW12187   6.210   3.959   0.415
 3763SOL    HW112188   6.162   3.996   0.336
 3763SOL    HW212189   6.301   3.926   0.387
 3764SOL     OW12190   1.630   0.673   2.804
 3764SOL    HW112191   1.638   0.654   2.706
 3764SOL    HW212192   1.533   0.687   2.827
 3765SOL     OW12193   5.923   1.895   1.417
 3765SOL    HW112194   5.984   1.877   1.494
 3765SOL    HW212195   5.968   1.869   1.332
 3766SOL     OW12196   2.123   2.270   4.253
 3766SOL    HW112197   2.166   2.293   4.166
 3766SOL    HW212198   2.128   2.171   4.267
 3767SOL     OW12199   3.543   4.403   6.305
 3767SOL    HW112200   3.616   4.337   6.323
 3767SOL    HW212201   3.454   4.361   6.325
 3768SOL     OW12202   1.211   0.878   4.499
 3768SOL    HW112203   1.216   0.833   4.588
 3768SOL    HW212204   1.261   0.823   4.431
 3769SOL     OW12205   5.874   5.522   5.399
 3769SOL    HW112206   5.873   5.621   5.412
 3769SOL    HW212207   5.785   5.492   5.366
 3770SOL     OW12208   1.262   1.168   6.604
 3770SOL    HW112209   1.328   1.129   6.669
 3770SOL    HW212210   1.283   1.265   6.590
 3771SOL     OW12211   5.839   4.270   6.948
 3771SOL    HW112212   5.820   4.325   6.867
 3771SOL    HW212213   5.893   4.324   7.013
 3772SOL     OW12214   1.314   0.071   0.219
 3772SOL    HW112215   1.339   0.115   0.133
 3772SOL    HW212216   1.396   0.060   0.276
 3773SOL     OW12217   5.676   3.653   5.572
 3773SOL    HW112218   5.695   3.694   5.483
 3773SOL    HW212219   5.633   3.564   5.559
 3774SOL     OW12220   5.936   4.743   1.712
 3774SOL    HW112221   5.995   4.662   1.711
 3774SOL    HW212222   5.862   4.730   1.777
 3775SOL     OW12223   3.990   4.808   3.517
 3775SOL    HW112224   3.890   4.808   3.524
 3775SOL    HW212225   4.029   4.838   3.604
 3776SOL     OW12226   3.697   2.957   6.476
 3776SOL    HW112227   3.776   2.897   6.463
 3776SOL    HW212228   3.615   2.911   6.442
 3777SOL     OW12229   2.557   5.934   3.628
 3777SOL    HW112230   2.609   5.859   3.588
 3777SOL    HW212231   2.549   5.920   3.727
 3778SOL     OW12232   1.815   6.269   3.787
 3778SOL    HW112233   1.715   6.271   3.784
 3778SOL    HW212234   1.846   6.181   3.823
 3779SOL     OW12235   0.094   5.015   0.667
 3779SOL    HW112236   0.153   4.934   0.671
 3779SOL    HW212237   0.074   5.047   0.759
 3780SOL     OW12238   0.856   3.049   3.361
 3780SOL    HW112239   0.799   2.997   3.424
 3780SOL    HW212240   0.944   3.069   3.404
 3781SOL     OW12241   0.555   6.805   4.617
 3781SOL    HW112242   0.508   6.735   4.672
 3781SOL    HW212243   0.563   6.773   4.523
 3782SOL     OW12244   3.674   6.470   2.543
 3782SOL    HW112245   3.698   6.567   2.546
 3782SOL    HW212246   3.672   6.433   2.635
 3783SOL     OW12247   6.108   4.948   5.057
 3783SOL    HW112248   6.019   4.976   5.092
 3783SOL    HW212249   6.101   4.933   4.958
 3784SOL     OW12250   5.436   2.688   2.242
 3784SOL    HW112251   5.474   2.761   2.299
 3784SOL    HW212252   5.468   2.599   2.274
 3785SOL     OW12253   0.640   3.185   5.455
 3785SOL    HW112254   0.683   3.141   5.534
 3785SOL    HW212255   0.549   3.219   5.480
 3786SOL     OW12256   2.204   3.081   2.707
 3786SOL    HW112257   2.230   3.047   2.617
 3786SOL    HW212258   2.230   3.013   2.777
 3787SOL     OW12259   5.234   0.169   2.838
 3787SOL    HW112260   5.320   0.214   2.814
 3787SOL    HW212261   5.230   0.079   2.795
 3788SOL     OW12262   6.059   4.670   5.350
 3788SOL    HW112263   6.081   4.768   5.353
 3788SOL    HW212264   6.029   4.640   5.440
 3789SOL     OW12265   6.883   3.778   2.539
 3789SOL    HW112266   6.846   3.870   2.545
 3789SOL    HW212267   6.844   3.732   2.458
 3790SOL     OW12268   1.306   5.601   6.522
 3790SOL    HW112269   1.363   5.682   6.511
 3790SOL    HW212270   1.211   5.628   6.539
 3791SOL     OW12271   5.222   1.841   0.096
 3791SOL    HW112272   5.176   1.924   0.064
 3791SOL    HW212273   5.210   1.768   0.029
 3792SOL     OW12274   1.125   1.502   4.337
 3792SOL    HW112275   1.033   1.516   4.374
 3792SOL    HW212276   1.191   1.552   4.392
 3793SOL     OW12277   5.810   6.430   1.384
 3793SOL    HW112278   5.886   6.413   1.321
 3793SOL    HW212279   5.820   6.521   1.424
 3794SOL     OW12280   2.221   3.045   1.618
 3794SOL    HW112281   2.262   3.097   1.694
 3794SOL    HW212282   2.211   3.105   1.539
 3795SOL     OW12283   2.943   5.528   1.089
 3795SOL    HW112284   2.977   5.519   1.183
 3795SOL    HW212285   2.957   5.623   1.059
 3796SOL     OW12286   4.134   2.225   1.067
 3796SOL    HW112287   4.208   2.192   1.125
 3796SOL    HW212288   4.127   2.166   0.986
 3797SOL     OW12289   0.835   4.052   3.482
 3797SOL    HW112290   0.904   4.061   3.410
 3797SOL    HW212291   0.832   3.958   3.515
 3798SOL     OW12292   3.315   6.206   2.800
 3798SOL    HW112293   3.242   6.265   2.837
 3798SOL    HW212294   3.399   6.222   2.851
 3799SOL     OW12295   7.000   2.676   3.970
 3799SOL    HW112296   0.042   2.633   4.031
 3799SOL    HW212297   6.923   2.614   3.954
 3800SOL     OW12298   5.228   2.210   3.787
 3800SOL    HW112299   5.178   2.218   3.874
 3800SOL    HW212300   5.313   2.159   3.802
 3801SOL     OW12301   5.330   0.116   1.760
 3801SOL    HW112302   5.293   0.050   1.695
 3801SOL    HW212303   5.350   0.070   1.847
 3802SOL     OW12304   0.017   1.780   2.454
 3802SOL    HW112305   6.961   1.744   2.407
 3802SOL    HW212306   7.020   1.871   2.490
 3803SOL     OW12307   3.893   3.603   3.982
 3803SOL    HW112308   3.984   3.571   3.956
 3803SOL    HW212309   3.901   3.688   4.034
 3804SOL     OW12310   3.432   1.901   3.854
 3804SOL    HW112311   3.358   1.835   3.845
 3804SOL    HW212312   3.421   1.953   3.939
 3805SOL     OW12313   2.079   2.597   1.514
 3805SOL    HW112314   2.043   2.670   1.572
 3805SOL    HW212315   2.136   2.536   1.568
 3806SOL     OW12316   3.808   3.541   6.158
 3806SOL    HW112317   3.858   3.482   6.095
 3806SOL    HW212318   3.820   3.636   6.133
 3807SOL     OW12319   1.800   4.310   4.060
 3807SOL    HW112320   1.890   4.287   4.097
 3807SOL    HW212321   1.758   4.229   4.021
 3808SOL     OW12322   4.692   0.620   6.206
 3808SOL    HW112323   4.781   0.634   6.250
 3808SOL    HW212324   4.686   0.677   6.125
 3809SOL     OW12325   5.876   2.027   2.158
 3809SOL    HW112326   5.922   2.066   2.238
 3809SOL    HW212327   5.855   1.931   2.174
 3810SOL     OW12328   6.810   2.305   3.351
 3810SOL    HW112329   6.731   2.299   3.291
 3810SOL    HW212330   6.789   2.262   3.439
 3811SOL     OW12331   6.957   6.107   4.111
 3811SOL    HW112332   6.965   6.202   4.080
 3811SOL    HW212333   6.971   6.045   4.034
 3812SOL     OW12334   3.389   5.155   6.133
 3812SOL    HW112335   3.369   5.172   6.036
 3812SOL    HW212336   3.390   5.057   6.150
 3813SOL     OW12337   5.810   3.911   0.888
 3813SOL    HW112338   5.904   3.919   0.853
 3813SOL    HW212339   5.751   3.878   0.815
 3814SOL     OW12340   0.037   0.092   3.891
 3814SOL    HW112341   0.094   0.040   3.827
 3814SOL    HW212342   0.086   0.104   3.977
 3815SOL     OW12343   4.245   2.481   1.000
 3815SOL    HW112344   4.223   2.524   1.088
 3815SOL    HW212345   4.211   2.386   1.001
 3816SOL     OW12346   1.023   5.715   5.456
 3816SOL    HW112347   1.058   5.621   5.448
 3816SOL    HW212348   0.924   5.713   5.468
 3817SOL     OW12349   4.930   3.189   1.870
 3817SOL    HW112350   5.004   3.142   1.822
 3817SOL    HW212351   4.847   3.133   1.867
 3818SOL     OW12352   0.018   0.536   0.825
 3818SOL    HW112353   0.058   0.462   0.771
 3818SOL    HW212354   6.951   0.510   0.856
 3819SOL     OW12355   6.359   4.452   2.319
 3819SOL    HW112356   6.332   4.529   2.261
 3819SOL    HW212357   6.330   4.468   2.413
 3820SOL     OW12358   6.121   6.453   3.650
 3820SOL    HW112359   6.167   6.375   3.608
 3820SOL    HW212360   6.054   6.490   3.586
 3821SOL     OW12361   1.106   1.237   1.081
 3821SOL    HW112362   1.071   1.314   1.027
 3821SOL    HW212363   1.030   1.195   1.131
 3822SOL     OW12364   2.320   0.127   6.177
 3822SOL    HW112365   2.303   0.168   6.267
 3822SOL    HW212366   2.239   0.079   6.146
 3823SOL     OW12367   4.448   4.119   6.356
 3823SOL    HW112368   4.524   4.167   6.399
 3823SOL    HW212369   4.367   4.177   6.357
 3824SOL     OW12370   0.280   2.504   1.125
 3824SOL    HW112371   0.187   2.529   1.153
 3824SOL    HW212372   0.310   2.425   1.179
 3825SOL     OW12373   0.778   4.107   0.824
 3825SOL    HW112374   0.710   4.091   0.753
 3825SOL    HW212375   0.745   4.068   0.911
 3826SOL     OW12376   6.819   3.385   1.783
 3826SOL    HW112377   6.736   3.344   1.819
 3826SOL    HW212378   6.898   3.330   1.809
 3827SOL     OW12379   0.369   0.455   1.475
 3827SOL    HW112380   0.431   0.472   1.398
 3827SOL    HW212381   0.321   0.369   1.461
 3828SOL     OW12382   3.795   3.683   4.591
 3828SOL    HW112383   3.847   3.755   4.545
 3828SOL    HW212384   3.858   3.620   4.636
 3829SOL     OW12385   0.564   5.133   2.068
 3829SOL    HW112386   0.542   5.230   2.076
 3829SOL    HW212387   0.633   5.108   2.136
 3830SOL     OW12388   0.612   1.386   5.977
 3830SOL    HW112389   0.656   1.302   6.009
 3830SOL    HW212390   0.537   1.362   5.915
 3831SOL     OW12391   4.518   2.468   2.606
 3831SOL    HW112392   4.454   2.467   2.683
 3831SOL    HW212393   4.506   2.385   2.552
 3832SOL     OW12394   6.722   0.503   2.698
 3832SOL    HW112395   6.668   0.448   2.762
 3832SOL    HW212396   6.679   0.592   2.685
 3833SOL     OW12397   1.199   6.454   6.360
 3833SOL    HW112398   1.281   6.428   6.308
 3833SOL    HW212399   1.168   6.543   6.329
 3834SOL     OW12400   3.635   4.288   1.282
 3834SOL    HW112401   3.669   4.352   1.351
 3834SOL    HW212402   3.537   4.276   1.294
 3835SOL     OW12403   3.770   6.193   4.981
 3835SOL    HW112404   3.733   6.105   4.954
 3835SOL    HW212405   3.695   6.258   4.995
 3836SOL     OW12406   0.006   5.233   6.052
 3836SOL    HW112407   6.988   5.145   6.028
 3836SOL    HW212408   6.979   5.275   6.127
 3837SOL     OW12409   4.867   5.439   5.589
 3837SOL    HW112410   4.943   5.378   5.608
 3837SOL    HW212411   4.872   5.519   5.649
 3838SOL     OW12412   1.235   2.228   3.339
 3838SOL    HW112413   1.233   2.287   3.259
 3838SOL    HW212414   1.163   2.256   3.403
 3839SOL     OW12415   4.814   1.364   2.888
 3839SOL    HW112416   4.779   1.348   2.795
 3839SOL    HW212417   4.914   1.361   2.887
 3840SOL     OW12418   3.437   1.915   6.624
 3840SOL    HW112419   3.478   1.874   6.542
 3840SOL    HW212420   3.338   1.905   6.620
 3841SOL     OW12421   1.173   4.050   4.388
 3841SOL    HW112422   1.081   4.079   4.417
 3841SOL    HW212423   1.200   4.101   4.307
 3842SOL     OW12424   2.561   2.512   3.791
 3842SOL    HW112425   2.640   2.565   3.759
 3842SOL    HW212426   2.549   2.526   3.889
 3843SOL     OW12427   5.394   3.271   1.832
 3843SOL    HW112428   5.316   3.257   1.771
 3843SOL    HW212429   5.407   3.190   1.889
 3844SOL     OW12430   1.366   3.324   6.615
 3844SOL    HW112431   1.297   3.366   6.555
 3844SOL    HW212432   1.456   3.329   6.570
 3845SOL     OW12433   2.425   5.430   6.104
 3845SOL    HW112434   2.489   5.354   6.114
 3845SOL    HW212435   2.361   5.430   6.181
 3846SOL     OW12436   1.008   3.792   3.901
 3846SOL    HW112437   1.041   3.883   3.924
 3846SOL    HW212438   0.996   3.738   3.984
 3847SOL     OW12439   5.165   3.109   4.410
 3847SOL    HW112440   5.218   3.068   4.336
 3847SOL    HW212441   5.090   3.162   4.372
 3848SOL     OW12442   5.271   3.631   2.665
 3848SOL    HW112443   5.233   3.686   2.740
 3848SOL    HW212444   5.321   3.690   2.602
 3849SOL     OW12445   1.313   0.998   5.819
 3849SOL    HW112446   1.312   1.009   5.720
 3849SOL    HW212447   1.284   1.083   5.863
 3850SOL     OW12448   2.953   3.156   1.923
 3850SOL    HW112449   2.871   3.153   1.866
 3850SOL    HW212450   3.021   3.092   1.886
 3851SOL     OW12451   0.013   4.653   3.198
 3851SOL    HW112452   6.971   4.724   3.175
 3851SOL    HW212453   0.080   4.645   3.124
 3852SOL     OW12454   3.293   5.885   3.631
 3852SOL    HW112455   3.359   5.960   3.640
 3852SOL    HW212456   3.239   5.877   3.715
 3853SOL     OW12457   1.071   3.217   3.317
 3853SOL    HW112458   1.142   3.288   3.317
 3853SOL    HW212459   0.998   3.242   3.380
 3854SOL     OW12460   1.024   2.403   2.473
 3854SOL    HW112461   1.081   2.324   2.450
 3854SOL    HW212462   1.002   2.401   2.570
 3855SOL     OW12463   4.636   6.116   6.674
 3855SOL    HW112464   4.664   6.022   6.654
 3855SOL    HW212465   4.641   6.132   6.772
 3856SOL     OW12466   0.817   0.836   6.131
 3856SOL    HW112467   0.775   0.852   6.221
 3856SOL    HW212468   0.767   0.764   6.083
 3857SOL     OW12469   0.449   6.269   6.868
 3857SOL    HW112470   0.494   6.327   6.936
 3857SOL    HW212471   0.394   6.326   6.807
 3858SOL     OW12472   3.323   1.632   6.131
 3858SOL    HW112473   3.228   1.601   6.129
 3858SOL    HW212474   3.380   1.563   6.176
 3859SOL     OW12475   6.203   1.268   2.000
 3859SOL    HW112476   6.225   1.362   1.976
 3859SOL    HW212477   6.109   1.247   1.974
 3860SOL     OW12478   1.904   1.182   4.651
 3860SOL    HW112479   1.870   1.235   4.728
 3860SOL    HW212480   1.964   1.109   4.684
 3861SOL     OW12481   4.311   5.410   4.208
 3861SOL    HW112482   4.299   5.395   4.307
 3861SOL    HW212483   4.324   5.322   4.163
 3862SOL     OW12484   0.464   1.240   4.478
 3862SOL    HW112485   0.399   1.175   4.516
 3862SOL    HW212486   0.445   1.331   4.516
 3863SOL     OW12487   6.175   2.090   6.856
 3863SOL    HW112488   6.245   2.028   6.892
 3863SOL    HW212489   6.085   2.049   6.866
 3864SOL     OW12490   2.240   0.683   5.616
 3864SOL    HW112491   2.239   0.685   5.516
 3864SOL    HW212492   2.184   0.606   5.648
 3865SOL     OW12493   4.222   0.965   1.041
 3865SOL    HW112494   4.154   1.032   1.071
 3865SOL    HW212495   4.228   0.892   1.109
 3866SOL     OW12496   4.380   0.552   0.615
 3866SOL    HW112497   4.474   0.582   0.630
 3866SOL    HW212498   4.329   0.626   0.571
 3867SOL     OW12499   0.877   4.709   3.579
 3867SOL    HW112500   0.797   4.692   3.636
 3867SOL    HW212501   0.921   4.794   3.606
 3868SOL     OW12502   3.366   0.442   0.292
 3868SOL    HW112503   3.431   0.367   0.299
 3868SOL    HW212504   3.278   0.407   0.261
 3869SOL     OW12505   6.151   2.732   4.521
 3869SOL    HW112506   6.208   2.650   4.528
 3869SOL    HW212507   6.055   2.707   4.535
 3870SOL     OW12508   6.907   6.459   0.679
 3870SOL    HW112509   6.841   6.534   0.685
 3870SOL    HW212510   6.980   6.483   0.616
 3871SOL     OW12511   3.767   0.884   3.127
 3871SOL    HW112512   3.689   0.933   3.165
 3871SOL    HW212513   3.734   0.808   3.070
 3872SOL     OW12514   2.897   3.481   4.362
 3872SOL    HW112515   2.839   3.461   4.284
 3872SOL    HW212516   2.915   3.397   4.413
 3873SOL     OW12517   5.848   3.746   1.154
 3873SOL    HW112518   5.847   3.791   1.243
 3873SOL    HW212519   5.841   3.814   1.082
 3874SOL     OW12520   4.302   5.962   0.416
 3874SOL    HW112521   4.247   6.045   0.424
 3874SOL    HW212522   4.337   5.938   0.507
 3875SOL     OW12523   2.118   3.188   2.339
 3875SOL    HW112524   2.152   3.281   2.326
 3875SOL    HW212525   2.021   3.191   2.364
 3876SOL     OW12526   3.774   5.141   0.604
 3876SOL    HW112527   3.697   5.079   0.587
 3876SOL    HW212528   3.739   5.227   0.643
 3877SOL     OW12529   5.692   2.495   1.564
 3877SOL    HW112530   5.769   2.556   1.548
 3877SOL    HW212531   5.613   2.526   1.511
 3878SOL     OW12532   3.961   6.504   4.786
 3878SOL    HW112533   4.014   6.429   4.747
 3878SOL    HW212534   3.998   6.529   4.876
 3879SOL     OW12535   5.996   5.376   0.901
 3879SOL    HW112536   5.964   5.319   0.825
 3879SOL    HW212537   5.957   5.468   0.892
 3880SOL     OW12538   5.137   4.492   4.510
 3880SOL    HW112539   5.154   4.576   4.458
 3880SOL    HW212540   5.173   4.414   4.458
 3881SOL     OW12541   1.020   3.438   1.784
 3881SOL    HW112542   1.053   3.423   1.877
 3881SOL    HW212543   0.920   3.425   1.781
 3882SOL     OW12544   1.280   1.804   5.683
 3882SOL    HW112545   1.273   1.736   5.757
 3882SOL    HW212546   1.221   1.776   5.607
 3883SOL     OW12547   3.888   1.083   2.344
 3883SOL    HW112548   3.942   1.018   2.398
 3883SOL    HW212549   3.813   1.118   2.400
 3884SOL     OW12550   1.036   5.934   2.169
 3884SOL    HW112551   1.045   6.031   2.194
 3884SOL    HW212552   0.971   5.925   2.093
 3885SOL     OW12553   6.004   5.875   2.494
 3885SOL    HW112554   6.013   5.971   2.521
 3885SOL    HW212555   6.064   5.819   2.552
 3886SOL     OW12556   5.199   5.701   5.153
 3886SOL    HW112557   5.191   5.602   5.146
 3886SOL    HW212558   5.290   5.725   5.187
 3887SOL     OW12559   1.098   0.574   6.787
 3887SOL    HW112560   1.006   0.567   6.825
 3887SOL    HW212561   1.106   0.658   6.733
 3888SOL     OW12562   6.977   0.764   5.099
 3888SOL    HW112563   0.003   0.700   5.041
 3888SOL    HW212564   0.014   0.838   5.128
 3889SOL     OW12565   0.101   4.205   0.043
 3889SOL    HW112566   0.045   4.215   6.985
 3889SOL    HW212567   0.198   4.211   0.019
 3890SOL     OW12568   6.547   4.738   3.111
 3890SOL    HW112569   6.639   4.756   3.146
 3890SOL    HW212570   6.496   4.684   3.178
 3891SOL     OW12571   5.420   3.978   4.062
 3891SOL    HW112572   5.425   4.037   4.142
 3891SOL    HW212573   5.510   3.970   4.020
 3892SOL     OW12574   0.049   1.634   1.381
 3892SOL    HW112575   0.059   1.652   1.283
 3892SOL    HW212576   0.071   1.538   1.399
 3893SOL     OW12577   4.256   4.038   6.935
 3893SOL    HW112578   4.181   3.997   6.987
 3893SOL    HW212579   4.260   4.136   6.955
 3894SOL     OW12580   4.534   1.109   0.738
 3894SOL    HW112581   4.554   1.013   0.722
 3894SOL    HW212582   4.501   1.122   0.831
 3895SOL     OW12583   1.649   0.855   5.363
 3895SOL    HW112584   1.735   0.894   5.395
 3895SOL    HW212585   1.666   0.796   5.284
 3896SOL     OW12586   0.392   1.283   5.222
 3896SOL    HW112587   0.317   1.325   5.170
 3896SOL    HW212588   0.395   1.185   5.205
 3897SOL     OW12589   3.413   5.641   2.675
 3897SOL    HW112590   3.347   5.691   2.619
 3897SOL    HW212591   3.365   5.585   2.743
 3898SOL     OW12592   2.339   3.418   5.827
 3898SOL    HW112593   2.355   3.372   5.914
 3898SOL    HW212594   2.392   3.372   5.755
 3899SOL     OW12595   4.302   6.403   5.334
 3899SOL    HW112596   4.261   6.494   5.338
 3899SOL    HW212597   4.390   6.404   5.381
 3900SOL     OW12598   5.136   2.781   3.815
 3900SOL    HW112599   5.185   2.860   3.779
 3900SOL    HW212600   5.059   2.760   3.755
 3901SOL     OW12601   2.582   0.028   5.109
 3901SOL    HW112602   2.649   0.044   5.036
 3901SOL    HW212603   2.624   6.996   5.180
 3902SOL     OW12604   5.763   3.439   1.535
 3902SOL    HW112605   5.668   3.420   1.558
 3902SOL    HW212606   5.817   3.355   1.541
 3903SOL     OW12607   3.653   6.177   6.147
 3903SOL    HW112608   3.632   6.193   6.244
 3903SOL    HW212609   3.705   6.255   6.111
 3904SOL     OW12610   3.072   1.721   5.464
 3904SOL    HW112611   2.999   1.696   5.527
 3904SOL    HW212612   3.061   1.669   5.379
 3905SOL     OW12613   0.490   0.074   6.438
 3905SOL    HW112614   0.472   0.011   6.362
 3905SOL    HW212615   0.412   0.135   6.449
 3906SOL     OW12616   5.448   5.526   6.084
 3906SOL    HW112617   5.482   5.555   6.174
 3906SOL    HW212618   5.405   5.604   6.038
 3907SOL     OW12619   5.995   0.574   3.927
 3907SOL    HW112620   5.953   0.657   3.889
 3907SOL    HW212621   6.029   0.593   4.019
 3908SOL     OW12622   1.247   2.257   0.210
 3908SOL    HW112623   1.281   2.183   0.151
 3908SOL    HW212624   1.298   2.257   0.296
 3909SOL     OW12625   6.713   5.873   5.159
 3909SOL    HW112626   6.759   5.832   5.238
 3909SOL    HW212627   6.769   5.858   5.077
 3910SOL     OW12628   3.352   2.885   2.276
 3910SOL    HW112629   3.400   2.959   2.228
 3910SOL    HW212630   3.389   2.797   2.246
 3911SOL     OW12631   5.019   1.862   6.459
 3911SOL    HW112632   5.108   1.893   6.491
 3911SOL    HW212633   4.947   1.900   6.518
 3912SOL     OW12634   4.230   0.673   5.829
 3912SOL    HW112635   4.158   0.688   5.762
 3912SOL    HW212636   4.302   0.617   5.788
 3913SOL     OW12637   1.799   0.095   6.003
 3913SOL    HW112638   1.876   0.102   6.066
 3913SOL    HW212639   1.771   7.024   5.995
 3914SOL     OW12640   3.824   0.955   1.039
 3914SOL    HW112641   3.801   1.017   1.114
 3914SOL    HW212642   3.870   1.006   0.966
 3915SOL     OW12643   3.832   5.084   2.414
 3915SOL    HW112644   3.797   5.174   2.436
 3915SOL    HW212645   3.895   5.091   2.336
 3916SOL     OW12646   1.856   6.459   3.955
 3916SOL    HW112647   1.846   6.379   3.895
 3916SOL    HW212648   1.766   6.484   3.991
 3917SOL     OW12649   6.567   5.706   0.344
 3917SOL    HW112650   6.542   5.736   0.252
 3917SOL    HW212651   6.657   5.744   0.368
 3918SOL     OW12652   4.997   6.282   1.649
 3918SOL    HW112653   4.954   6.260   1.737
 3918SOL    HW212654   4.997   6.381   1.636
 3919SOL     OW12655   2.300   6.560   6.383
 3919SOL    HW112656   2.268   6.608   6.465
 3919SOL    HW212657   2.228   6.501   6.349
 3920SOL     OW12658   3.409   2.972   0.996
 3920SOL    HW112659   3.377   2.878   0.983
 3920SOL    HW212660   3.496   2.985   0.950
 3921SOL     OW12661   6.871   3.006   1.473
 3921SOL    HW112662   6.943   3.053   1.422
 3921SOL    HW212663   6.891   2.909   1.478
 3922SOL     OW12664   5.769   4.220   1.919
 3922SOL    HW112665   5.692   4.195   1.861
 3922SOL    HW212666   5.750   4.194   2.014
 3923SOL     OW12667   6.793   1.803   6.872
 3923SOL    HW112668   6.883   1.812   6.830
 3923SOL    HW212669   6.724   1.848   6.815
 3924SOL     OW12670   0.520   5.018   3.501
 3924SOL    HW112671   0.461   4.944   3.532
 3924SOL    HW212672   0.602   4.980   3.458
 3925SOL     OW12673   3.244   5.310   1.076
 3925SOL    HW112674   3.265   5.395   1.028
 3925SOL    HW212675   3.179   5.257   1.023
 3926SOL     OW12676   6.677   5.893   2.993
 3926SOL    HW112677   6.610   5.870   3.064
 3926SOL    HW212678   6.769   5.876   3.027
 3927SOL     OW12679   6.382   2.911   3.559
 3927SOL    HW112680   6.454   2.854   3.519
 3927SOL    HW212681   6.417   3.004   3.574
 3928SOL     OW12682   3.371   6.152   5.514
 3928SOL    HW112683   3.305   6.226   5.503
 3928SOL    HW212684   3.406   6.151   5.608
 3929SOL     OW12685   6.977   1.188   5.785
 3929SOL    HW112686   6.997   1.283   5.761
 3929SOL    HW212687   0.035   1.132   5.774
 3930SOL     OW12688   2.338   1.879   3.540
 3930SOL    HW112689   2.431   1.859   3.509
 3930SOL    HW212690   2.312   1.814   3.611
 3931SOL     OW12691   1.794   1.244   1.898
 3931SOL    HW112692   1.750   1.334   1.897
 3931SOL    HW212693   1.892   1.255   1.881
 3932SOL     OW12694   1.548   4.083   2.740
 3932SOL    HW112695   1.457   4.041   2.731
 3932SOL    HW212696   1.582   4.068   2.833
 3933SOL     OW12697   1.967   6.453   0.283
 3933SOL    HW112698   2.011   6.388   0.345
 3933SOL    HW212699   2.012   6.449   0.194
 3934SOL     OW12700   0.091   1.188   0.863
 3934SOL    HW112701   0.069   1.189   0.765
 3934SOL    HW212702   0.186   1.159   0.875
 3935SOL     OW12703   2.799   0.059   6.457
 3935SOL    HW112704   2.850   0.139   6.424
 3935SOL    HW212705   2.717   0.089   6.505
 3936SOL     OW12706   6.947   5.027   5.469
 3936SOL    HW112707   0.021   5.017   5.486
 3936SOL    HW212708   6.908   4.939   5.442
 3937SOL     OW12709   6.602   0.772   2.704
 3937SOL    HW112710   6.623   0.869   2.689
 3937SOL    HW212711   6.504   0.760   2.719
 3938SOL     OW12712   0.403   1.647   4.037
 3938SOL    HW112713   0.468   1.687   4.103
 3938SOL    HW212714   0.448   1.574   3.986
 3939SOL     OW12715   2.371   1.604   2.167
 3939SOL    HW112716   2.434   1.672   2.131
 3939SOL    HW212717   2.282   1.615   2.123
 3940SOL     OW12718   4.320   5.229   2.098
 3940SOL    HW112719   4.270   5.146   2.125
 3940SOL    HW212720   4.417   5.206   2.085
 3941SOL     OW12721   4.804   2.275   6.449
 3941SOL    HW112722   4.780   2.254   6.354
 3941SOL    HW212723   4.903   2.288   6.456
 3942SOL     OW12724   0.195   0.405   6.848
 3942SOL    HW112725   0.157   0.324   6.804
 3942SOL    HW212726   0.185   0.398   6.947
 3943SOL     OW12727   0.118   3.864   2.979
 3943SOL    HW112728   0.202   3.831   2.937
 3943SOL    HW212729   0.040   3.816   2.939
 3944SOL     OW12730   5.265   3.354   5.029
 3944SOL    HW112731   5.252   3.422   4.957
 3944SOL    HW212732   5.291   3.267   4.988
 3945SOL     OW12733   0.884   1.917   1.265
 3945SOL    HW112734   0.855   1.824   1.286
 3945SOL    HW212735   0.961   1.915   1.201
 3946SOL     OW12736   5.725   6.041   6.456
 3946SOL    HW112737   5.774   5.954   6.457
 3946SOL    HW212738   5.701   6.067   6.550
 3947SOL     OW12739   5.969   5.645   0.892
 3947SOL    HW112740   5.899   5.704   0.853
 3947SOL    HW212741   6.059   5.674   0.860
 3948SOL     OW12742   1.025   5.786   1.538
 3948SOL    HW112743   0.948   5.727   1.561
 3948SOL    HW212744   1.111   5.739   1.560
 3949SOL     OW12745   5.494   0.308   2.867
 3949SOL    HW112746   5.463   0.328   2.961
 3949SOL    HW212747   5.593   0.311   2.864
 3950SOL     OW12748   1.792   3.897   1.488
 3950SOL    HW112749   1.845   3.972   1.448
 3950SOL    HW212750   1.828   3.876   1.579
 3951SOL     OW12751   6.282   6.715   0.509
 3951SOL    HW112752   6.193   6.750   0.536
 3951SOL    HW212753   6.286   6.706   0.409
 3952SOL     OW12754   6.226   3.522   2.492
 3952SOL    HW112755   6.221   3.424   2.510
 3952SOL    HW212756   6.295   3.540   2.422
 3953SOL     OW12757   3.974   4.610   1.342
 3953SOL    HW112758   3.998   4.691   1.289
 3953SOL    HW212759   3.953   4.534   1.280
 3954SOL     OW12760   4.721   5.211   4.774
 3954SOL    HW112761   4.709   5.238   4.869
 3954SOL    HW212762   4.696   5.287   4.714
 3955SOL     OW12763   3.104   5.022   6.286
 3955SOL    HW112764   3.012   5.009   6.248
 3955SOL    HW212765   3.135   5.115   6.266
 3956SOL     OW12766   0.048   0.880   3.489
 3956SOL    HW112767   0.017   0.959   3.542
 3956SOL    HW212768   0.147   0.871   3.497
 3957SOL     OW12769   4.488   5.937   3.567
 3957SOL    HW112770   4.441   5.969   3.650
 3957SOL    HW212771   4.558   5.870   3.592
 3958SOL     OW12772   5.764   0.213   5.222
 3958SOL    HW112773   5.825   0.215   5.301
 3958SOL    HW212774   5.788   0.287   5.159
 3959SOL     OW12775   4.113   6.228   1.085
 3959SOL    HW112776   4.122   6.290   1.007
 3959SOL    HW212777   4.064   6.145   1.056
 3960SOL     OW12778   4.535   1.534   6.929
 3960SOL    HW112779   4.524   1.598   7.005
 3960SOL    HW212780   4.553   1.442   6.964
 3961SOL     OW12781   5.061   2.056   2.739
 3961SOL    HW112782   4.991   2.110   2.787
 3961SOL    HW212783   5.031   2.039   2.645
 3962SOL     OW12784   2.638   4.664   0.151
 3962SOL    HW112785   2.672   4.574   0.177
 3962SOL    HW212786   2.683   4.694   0.067
 3963SOL     OW12787   4.488   4.875   3.948
 3963SOL    HW112788   4.573   4.825   3.969
 3963SOL    HW212789   4.501   4.971   3.970
 3964SOL     OW12790   4.006   5.158   3.509
 3964SOL    HW112791   3.966   5.185   3.596
 3964SOL    HW212792   3.992   5.061   3.493
 3965SOL     OW12793   5.046   3.120   6.115
 3965SOL    HW112794   4.946   3.119   6.127
 3965SOL    HW212795   5.076   3.214   6.097
 3966SOL     OW12796   5.134   5.695   0.368
 3966SOL    HW112797   5.167   5.782   0.405
 3966SOL    HW212798   5.077   5.650   0.437
 3967SOL     OW12799   1.737   3.871   2.054
 3967SOL    HW112800   1.726   3.787   2.002
 3967SOL    HW212801   1.750   3.849   2.151
 3968SOL     OW12802   4.978   0.792   1.228
 3968SOL    HW112803   5.028   0.858   1.284
 3968SOL    HW212804   5.017   0.791   1.135
 3969SOL     OW12805   1.483   4.005   2.284
 3969SOL    HW112806   1.514   3.931   2.343
 3969SOL    HW212807   1.514   4.093   2.321
 3970SOL     OW12808   6.078   6.005   3.734
 3970SOL    HW112809   6.125   6.039   3.815
 3970SOL    HW212810   6.130   5.930   3.694
 3971SOL     OW12811   2.431   4.738   2.228
 3971SOL    HW112812   2.387   4.828   2.230
 3971SOL    HW212813   2.416   4.693   2.317
 3972SOL     OW12814   1.011   5.084   0.663
 3972SOL    HW112815   1.001   5.034   0.749
 3972SOL    HW212816   1.106   5.116   0.654
 3973SOL     OW12817   1.885   5.095   6.588
 3973SOL    HW112818   1.944   5.023   6.550
 3973SOL    HW212819   1.796   5.092   6.543
 3974SOL     OW12820   1.917   1.089   4.153
 3974SOL    HW112821   1.874   1.124   4.236
 3974SOL    HW212822   1.871   1.005   4.125
 3975SOL     OW12823   5.761   0.669   5.119
 3975SOL    HW112824   5.815   0.585   5.125
 3975SOL    HW212825   5.804   0.740   5.174
 3976SOL     OW12826   1.696   6.373   1.748
 3976SOL    HW112827   1.746   6.367   1.835
 3976SOL    HW212828   1.599   6.353   1.765
 3977SOL     OW12829   2.541   4.177   5.607
 3977SOL    HW112830   2.495   4.227   5.535
 3977SOL    HW212831   2.635   4.210   5.616
 3978SOL     OW12832   5.668   5.471   5.224
 3978SOL    HW112833   5.684   5.407   5.149
 3978SOL    HW212834   5.621   5.552   5.189
 3979SOL     OW12835   3.223   6.256   0.694
 3979SOL    HW112836   3.297   6.250   0.761
 3979SOL    HW212837   3.235   6.186   0.624
 3980SOL     OW12838   6.999   5.447   0.155
 3980SOL    HW112839   0.065   5.431   0.197
 3980SOL    HW212840   6.931   5.388   0.199
 3981SOL     OW12841   2.032   0.383   0.251
 3981SOL    HW112842   2.042   0.374   0.152
 3981SOL    HW212843   1.940   0.414   0.273
 3982SOL     OW12844   1.971   0.424   4.134
 3982SOL    HW112845   2.025   0.445   4.216
 3982SOL    HW212846   1.886   0.378   4.162
 3983SOL     OW12847   5.456   4.895   4.401
 3983SOL    HW112848   5.442   4.994   4.396
 3983SOL    HW212849   5.512   4.873   4.481
 3984SOL     OW12850   6.624   1.530   2.925
 3984SOL    HW112851   6.619   1.546   3.024
 3984SOL    HW212852   6.627   1.432   2.908
 3985SOL     OW12853   3.244   4.464   6.697
 3985SOL    HW112854   3.251   4.407   6.615
 3985SOL    HW212855   3.245   4.405   6.778
 3986SOL     OW12856   6.309   2.215   3.179
 3986SOL    HW112857   6.272   2.296   3.134
 3986SOL    HW212858   6.364   2.242   3.258
 3987SOL     OW12859   3.215   5.415   3.717
 3987SOL    HW112860   3.248   5.484   3.652
 3987SOL    HW212861   3.160   5.347   3.668
 3988SOL     OW12862   3.975   4.306   6.985
 3988SOL    HW112863   3.931   4.362   6.915
 3988SOL    HW212864   4.074   4.319   6.981
 3989SOL     OW12865   6.834   2.639   6.734
 3989SOL    HW112866   6.799   2.706   6.799
 3989SOL    HW212867   6.822   2.674   6.641
 3990SOL     OW12868   5.173   2.466   2.874
 3990SOL    HW112869   5.241   2.415   2.928
 3990SOL    HW212870   5.082   2.430   2.893
 3991SOL     OW12871   5.698   0.967   2.301
 3991SOL    HW112872   5.655   1.019   2.375
 3991SOL    HW212873   5.785   0.929   2.333
 3992SOL     OW12874   3.929   2.543   0.341
 3992SOL    HW112875   4.006   2.607   0.347
 3992SOL    HW212876   3.847   2.593   0.313
 3993SOL     OW12877   1.407   1.645   2.525
 3993SOL    HW112878   1.408   1.667   2.427
 3993SOL    HW212879   1.456   1.560   2.541
 3994SOL     OW12880   0.885   0.574   5.808
 3994SOL    HW112881   0.805   0.617   5.850
 3994SOL    HW212882   0.949   0.546   5.880
 3995SOL     OW12883   1.971   3.600   5.446
 3995SOL    HW112884   1.932   3.558   5.364
 3995SOL    HW212885   1.948   3.544   5.526
 3996SOL     OW12886   1.109   0.539   4.249
 3996SOL    HW112887   1.112   0.485   4.164
 3996SOL    HW212888   1.102   0.477   4.327
 3997SOL     OW12889   4.916   1.120   4.404
 3997SOL    HW112890   4.994   1.159   4.356
 3997SOL    HW212891   4.850   1.192   4.427
 3998SOL     OW12892   4.286   1.200   4.434
 3998SOL    HW112893   4.299   1.127   4.366
 3998SOL    HW212894   4.333   1.282   4.402
 3999SOL     OW12895   5.892   3.104   4.058
 3999SOL    HW112896   5.900   3.005   4.064
 3999SOL    HW212897   5.824   3.128   3.988
 4000SOL     OW12898   3.348   5.875   3.343
 4000SOL    HW112899   3.314   5.969   3.335
 4000SOL    HW212900   3.338   5.843   3.437
 4001SOL     OW12901   2.581   2.210   3.982
 4001SOL    HW112902   2.598   2.195   3.885
 4001SOL    HW212903   2.521   2.138   4.017
 4002SOL     OW12904   2.959   3.359   0.681
 4002SOL    HW112905   3.042   3.364   0.625
 4002SOL    HW212906   2.956   3.271   0.728
 4003SOL     OW12907   3.051   6.583   3.932
 4003SOL    HW112908   3.108   6.526   3.872
 4003SOL    HW212909   3.038   6.673   3.889
 4004SOL     OW12910   5.040   1.614   4.618
 4004SOL    HW112911   4.970   1.590   4.686
 4004SOL    HW212912   5.048   1.714   4.612
 4005SOL     OW12913   4.631   5.520   0.523
 4005SOL    HW112914   4.570   5.536   0.601
 4005SOL    HW212915   4.643   5.421   0.511
 4006SOL     OW12916   3.956   5.096   3.041
 4006SOL    HW112917   4.037   5.053   3.001
 4006SOL    HW212918   3.908   5.029   3.097
 4007SOL     OW12919   0.499   2.450   0.897
 4007SOL    HW112920   0.474   2.394   0.976
 4007SOL    HW212921   0.488   2.397   0.813
 4008SOL     OW12922   3.190   2.168   3.781
 4008SOL    HW112923   3.271   2.201   3.733
 4008SOL    HW212924   3.155   2.086   3.735
 4009SOL     OW12925   5.296   3.665   1.096
 4009SOL    HW112926   5.362   3.731   1.061
 4009SOL    HW212927   5.335   3.617   1.175
 4010SOL     OW12928   2.809   3.375   1.497
 4010SOL    HW112929   2.740   3.443   1.522
 4010SOL    HW212930   2.899   3.418   1.497
 4011SOL     OW12931   0.589   0.974   2.591
 4011SOL    HW112932   0.670   0.930   2.552
 4011SOL    HW212933   0.610   1.070   2.610
 4012SOL     OW12934   4.803   5.458   1.492
 4012SOL    HW112935   4.737   5.532   1.488
 4012SOL    HW212936   4.881   5.486   1.548
 4013SOL     OW12937   2.308   0.575   5.356
 4013SOL    HW112938   2.372   0.542   5.287
 4013SOL    HW212939   2.214   0.563   5.323
 4014SOL     OW12940   4.761   6.373   2.234
 4014SOL    HW112941   4.678   6.411   2.194
 4014SOL    HW212942   4.833   6.442   2.233
 4015SOL     OW12943   5.166   4.895   6.065
 4015SOL    HW112944   5.159   4.993   6.049
 4015SOL    HW212945   5.192   4.878   6.160
 4016SOL     OW12946   2.492   6.070   6.555
 4016SOL    HW112947   2.499   6.090   6.457
 4016SOL    HW212948   2.397   6.080   6.583
 4017SOL     OW12949   0.235   5.719   0.413
 4017SOL    HW112950   0.188   5.723   0.502
 4017SOL    HW212951   0.290   5.636   0.408
 4018SOL     OW12952   4.658   6.379   2.843
 4018SOL    HW112953   4.686   6.302   2.786
 4018SOL    HW212954   4.726   6.452   2.836
 4019SOL     OW12955   5.774   3.411   2.927
 4019SOL    HW112956   5.800   3.419   2.831
 4019SOL    HW212957   5.844   3.360   2.977
 4020SOL     OW12958   4.813   2.054   5.599
 4020SOL    HW112959   4.850   2.146   5.588
 4020SOL    HW212960   4.843   1.996   5.524
 4021SOL     OW12961   3.773   4.549   6.250
 4021SOL    HW112962   3.840   4.479   6.227
 4021SOL    HW212963   3.684   4.506   6.265
 4022SOL     OW12964   4.810   0.580   0.164
 4022SOL    HW112965   4.907   0.555   0.155
 4022SOL    HW212966   4.801   0.679   0.168
 4023SOL     OW12967   6.044   1.919   4.732
 4023SOL    HW112968   5.958   1.944   4.777
 4023SOL    HW212969   6.052   1.820   4.729
 4024SOL     OW12970   3.733   6.269   3.234
 4024SOL    HW112971   3.823   6.230   3.212
 4024SOL    HW212972   3.663   6.198   3.227
 4025SOL     OW12973   0.576   6.083   4.109
 4025SOL    HW112974   0.516   6.035   4.172
 4025SOL    HW212975   0.638   6.143   4.161
 4026SOL     OW12976   6.051   5.413   4.381
 4026SOL    HW112977   5.967   5.464   4.403
 4026SOL    HW212978   6.074   5.353   4.457
 4027SOL     OW12979   3.694   4.240   1.647
 4027SOL    HW112980   3.785   4.273   1.625
 4027SOL    HW212981   3.641   4.313   1.690
 4028SOL     OW12982   1.202   2.209   4.136
 4028SOL    HW112983   1.121   2.164   4.099
 4028SOL    HW212984   1.256   2.143   4.189
 4029SOL     OW12985   2.384   4.369   6.576
 4029SOL    HW112986   2.417   4.276   6.591
 4029SOL    HW212987   2.460   4.434   6.582
 4030SOL     OW12988   1.190   2.233   5.865
 4030SOL    HW112989   1.174   2.330   5.886
 4030SOL    HW212990   1.288   2.213   5.873
 4031SOL     OW12991   5.047   5.564   3.485
 4031SOL    HW112992   5.078   5.645   3.435
 4031SOL    HW212993   5.101   5.485   3.459
 4032SOL     OW12994   6.352   6.896   3.137
 4032SOL    HW112995   6.285   6.909   3.209
 4032SOL    HW212996   6.425   6.964   3.147
 4033SOL     OW12997   3.691   3.232   3.513
 4033SOL    HW112998   3.704   3.149   3.459
 4033SOL    HW212999   3.617   3.218   3.579
 4034SOL     OW13000   5.800   1.179   5.229
 4034SOL    HW113001   5.824   1.259   5.174
 4034SOL    HW213002   5.772   1.209   5.321
 4035SOL     OW13003   6.725   3.772   0.985
 4035SOL    HW113004   6.727   3.846   0.917
 4035SOL    HW213005   6.786   3.698   0.957
 4036SOL     OW13006   5.817   6.639   2.236
 4036SOL    HW113007   5.783   6.701   2.306
 4036SOL    HW213008   5.810   6.545   2.268
 4037SOL     OW13009   2.016   2.581   6.981
 4037SOL    HW113010   2.032   2.622   0.047
 4037SOL    HW213011   1.925   2.539   6.980
 4038SOL     OW13012   4.696   4.692   2.192
 4038SOL    HW113013   4.697   4.775   2.137
 4038SOL    HW213014   4.703   4.612   2.133
 4039SOL     OW13015   4.790   5.327   0.934
 4039SOL    HW113016   4.810   5.345   1.031
 4039SOL    HW213017   4.693   5.341   0.917
 4040SOL     OW13018   2.882   6.672   0.231
 4040SOL    HW113019   2.906   6.743   0.165
 4040SOL    HW213020   2.961   6.615   0.250
 4041SOL     OW13021   1.709   5.880   2.531
 4041SOL    HW113022   1.676   5.853   2.440
 4041SOL    HW213023   1.758   5.967   2.524
 4042SOL     OW13024   6.534   5.046   2.310
 4042SOL    HW113025   6.508   5.141   2.299
 4042SOL    HW213026   6.615   5.039   2.369
 4043SOL     OW13027   5.436   1.953   3.614
 4043SOL    HW113028   5.397   2.035   3.572
 4043SOL    HW213029   5.389   1.872   3.578
 4044SOL     OW13030   6.243   0.582   4.559
 4044SOL    HW113031   6.173   0.636   4.511
 4044SOL    HW213032   6.287   0.519   4.495
 4045SOL     OW13033   3.032   4.251   5.911
 4045SOL    HW113034   3.048   4.309   5.831
 4045SOL    HW213035   3.093   4.279   5.985
 4046SOL     OW13036   0.671   1.703   2.752
 4046SOL    HW113037   0.687   1.659   2.663
 4046SOL    HW213038   0.727   1.658   2.822
 4047SOL     OW13039   3.074   3.662   0.874
 4047SOL    HW113040   3.154   3.625   0.825
 4047SOL    HW213041   3.018   3.715   0.810
 4048SOL     OW13042   5.559   0.804   1.646
 4048SOL    HW113043   5.643   0.793   1.700
 4048SOL    HW213044   5.508   0.883   1.680
 4049SOL     OW13045   6.520   6.509   6.501
 4049SOL    HW113046   6.506   6.428   6.444
 4049SOL    HW213047   6.602   6.496   6.557
 4050SOL     OW13048   1.730   6.602   6.765
 4050SOL    HW113049   1.759   6.568   6.675
 4050SOL    HW213050   1.702   6.698   6.757
 4051SOL     OW13051   2.899   4.015   0.181
 4051SOL    HW113052   2.909   4.054   0.272
 4051SOL    HW213053   2.839   3.935   0.185
 4052SOL     OW13054   0.884   0.480   1.140
 4052SOL    HW113055   0.980   0.470   1.113
 4052SOL    HW213056   0.830   0.409   1.096
 4053SOL     OW13057   2.917   4.815   3.752
 4053SOL    HW113058   2.931   4.802   3.654
 4053SOL    HW213059   2.977   4.888   3.785
 4054SOL     OW13060   2.664   2.811   0.720
 4054SOL    HW113061   2.578   2.848   0.686
 4054SOL    HW213062   2.732   2.884   0.726
 4055SOL     OW13063   2.273   2.728   5.968
 4055SOL    HW113064   2.369   2.750   5.952
 4055SOL    HW213065   2.222   2.734   5.882
 4056SOL     OW13066   4.177   3.219   6.889
 4056SOL    HW113067   4.125   3.304   6.884
 4056SOL    HW213068   4.275   3.241   6.887
 4057SOL     OW13069   5.326   3.540   0.711
 4057SOL    HW113070   5.313   3.449   0.673
 4057SOL    HW213071   5.237   3.584   0.725
 4058SOL     OW13072   2.310   1.254   4.527
 4058SOL    HW113073   2.407   1.240   4.509
 4058SOL    HW213074   2.257   1.228   4.447
 4059SOL     OW13075   1.844   1.679   3.536
 4059SOL    HW113076   1.850   1.763   3.590
 4059SOL    HW213077   1.921   1.676   3.472
 4060SOL     OW13078   3.709   5.309   4.445
 4060SOL    HW113079   3.763   5.390   4.465
 4060SOL    HW213080   3.678   5.267   4.531
 4061SOL     OW13081   3.331   4.567   1.723
 4061SOL    HW113082   3.378   4.480   1.705
 4061SOL    HW213083   3.395   4.633   1.761
 4062SOL     OW13084   4.400   1.483   2.962
 4062SOL    HW113085   4.389   1.431   2.878
 4062SOL    HW213086   4.447   1.427   3.031
 4063SOL     OW13087   3.965   6.739   6.094
 4063SOL    HW113088   3.873   6.736   6.132
 4063SOL    HW213089   4.013   6.654   6.114
 4064SOL     OW13090   2.025   0.312   2.514
 4064SOL    HW113091   1.938   0.290   2.558
 4064SOL    HW213092   2.010   0.326   2.416
 4065SOL     OW13093   0.318   0.137   1.055
 4065SOL    HW113094   0.417   0.135   1.047
 4065SOL    HW213095   0.289   0.225   1.094
 4066SOL     OW13096   5.410   4.688   1.419
 4066SOL    HW113097   5.502   4.694   1.382
 4066SOL    HW213098   5.396   4.599   1.461
 4067SOL     OW13099   5.016   1.665   3.594
 4067SOL    HW113100   5.084   1.637   3.662
 4067SOL    HW213101   4.977   1.583   3.551
 4068SOL     OW13102   4.666   0.262   5.196
 4068SOL    HW113103   4.590   0.274   5.132
 4068SOL    HW213104   4.660   0.171   5.237
 4069SOL     OW13105   4.769   4.198   1.089
 4069SOL    HW113106   4.824   4.275   1.057
 4069SOL    HW213107   4.691   4.232   1.141
 4070SOL     OW13108   1.827   3.514   2.569
 4070SOL    HW113109   1.897   3.583   2.585
 4070SOL    HW213110   1.840   3.473   2.479
 4071SOL     OW13111   1.434   0.866   5.157
 4071SOL    HW113112   1.468   0.881   5.250
 4071SOL    HW213113   1.470   0.780   5.122
 4072SOL     OW13114   1.942   6.575   4.327
 4072SOL    HW113115   1.970   6.490   4.282
 4072SOL    HW213116   2.023   6.621   4.364
 4073SOL     OW13117   1.906   5.576   6.150
 4073SOL    HW113118   1.852   5.654   6.183
 4073SOL    HW213119   1.971   5.607   6.081
 4074SOL     OW13120   0.131   1.842   1.579
 4074SOL    HW113121   0.035   1.817   1.592
 4074SOL    HW213122   0.154   1.842   1.482
 4075SOL     OW13123   4.290   1.898   2.285
 4075SOL    HW113124   4.332   1.893   2.375
 4075SOL    HW213125   4.361   1.906   2.215
 4076SOL     OW13126   2.192   3.895   5.275
 4076SOL    HW113127   2.223   3.833   5.348
 4076SOL    HW213128   2.272   3.937   5.232
 4077SOL     OW13129   2.761   6.721   0.489
 4077SOL    HW113130   2.802   6.712   0.398
 4077SOL    HW213131   2.683   6.784   0.484
 4078SOL     OW13132   6.340   4.471   1.950
 4078SOL    HW113133   6.353   4.469   2.049
 4078SOL    HW213134   6.336   4.565   1.918
 4079SOL     OW13135   0.956   1.007   3.434
 4079SOL    HW113136   0.957   1.023   3.335
 4079SOL    HW213137   1.047   1.027   3.471
 4080SOL     OW13138   2.924   4.162   0.464
 4080SOL    HW113139   2.909   4.212   0.549
 4080SOL    HW213140   3.008   4.108   0.472
 4081SOL     OW13141   2.513   1.402   5.127
 4081SOL    HW113142   2.424   1.442   5.108
 4081SOL    HW213143   2.575   1.421   5.050
 4082SOL     OW13144   1.055   2.171   6.143
 4082SOL    HW113145   1.149   2.187   6.174
 4082SOL    HW213146   1.049   2.189   6.045
 4083SOL     OW13147   6.250   4.657   3.041
 4083SOL    HW113148   6.342   4.691   3.023
 4083SOL    HW213149   6.256   4.565   3.079
 4084SOL     OW13150   4.886   2.706   3.103
 4084SOL    HW113151   4.860   2.684   3.009
 4084SOL    HW213152   4.918   2.801   3.107
 4085SOL     OW13153   2.263   5.456   1.155
 4085SOL    HW113154   2.360   5.434   1.159
 4085SOL    HW213155   2.233   5.493   1.243
 4086SOL     OW13156   6.956   5.665   0.015
 4086SOL    HW113157   6.886   5.637   6.973
 4086SOL    HW213158   6.970   5.593   0.082
 4087SOL     OW13159   2.905   0.159   2.725
 4087SOL    HW113160   3.000   0.154   2.693
 4087SOL    HW213161   2.849   0.094   2.672
 4088SOL     OW13162   6.667   0.838   5.455
 4088SOL    HW113163   6.684   0.923   5.407
 4088SOL    HW213164   6.584   0.795   5.420
 4089SOL     OW13165   6.887   6.018   4.363
 4089SOL    HW113166   6.926   6.057   4.280
 4089SOL    HW213167   6.943   5.940   4.393
 4090SOL     OW13168   2.152   6.578   4.693
 4090SOL    HW113169   2.065   6.626   4.705
 4090SOL    HW213170   2.227   6.637   4.725
 4091SOL     OW13171   1.042   4.885   0.877
 4091SOL    HW113172   0.944   4.876   0.857
 4091SOL    HW213173   1.094   4.836   0.807
 4092SOL     OW13174   4.730   2.820   4.661
 4092SOL    HW113175   4.752   2.871   4.578
 4092SOL    HW213176   4.663   2.748   4.639
 4093SOL     OW13177   6.213   5.265   2.399
 4093SOL    HW113178   6.132   5.219   2.361
 4093SOL    HW213179   6.280   5.196   2.427
 4094SOL     OW13180   0.473   4.972   6.811
 4094SOL    HW113181   0.509   5.046   6.868
 4094SOL    HW213182   0.512   4.885   6.841
 4095SOL     OW13183   0.297   3.358   6.917
 4095SOL    HW113184   0.341   3.357   6.827
 4095SOL    HW213185   0.200   3.336   6.908
 4096SOL     OW13186   2.158   1.072   6.699
 4096SOL    HW113187   2.199   1.031   6.618
 4096SOL    HW213188   2.065   1.104   6.678
 4097SOL     OW13189   6.931   4.324   5.261
 4097SOL    HW113190   6.858   4.256   5.261
 4097SOL    HW213191   7.000   4.300   5.193
 4098SOL     OW13192   2.026   3.419   1.504
 4098SOL    HW113193   2.055   3.497   1.560
 4098SOL    HW213194   1.986   3.452   1.419
 4099SOL     OW13195   4.422   4.835   6.876
 4099SOL    HW113196   4.340   4.893   6.875
 4099SOL    HW213197   4.489   4.871   6.811
 4100SOL     OW13198   1.235   1.027   3.467
 4100SOL    HW113199   1.252   1.101   3.531
 4100SOL    HW213200   1.313   0.964   3.467
 4101SOL     OW13201   6.734   0.799   6.522
 4101SOL    HW113202   6.654   0.825   6.575
 4101SOL    HW213203   6.750   0.701   6.531
 4102SOL     OW13204   1.803   0.533   0.300
 4102SOL    HW113205   1.800   0.626   0.262
 4102SOL    HW213206   1.725   0.481   0.265
 4103SOL     OW13207   0.320   6.417   2.426
 4103SOL    HW113208   0.221   6.402   2.436
 4103SOL    HW213209   0.354   6.365   2.349
 4104SOL     OW13210   0.382   5.758   3.115
 4104SOL    HW113211   0.394   5.842   3.167
 4104SOL    HW213212   0.287   5.752   3.083
 4105SOL     OW13213   4.658   1.408   1.637
 4105SOL    HW113214   4.583   1.424   1.701
 4105SOL    HW213215   4.669   1.310   1.622
 4106SOL     OW13216   0.132   1.973   3.594
 4106SOL    HW113217   0.207   1.948   3.655
 4106SOL    HW213218   0.050   1.992   3.649
 4107SOL     OW13219   0.293   6.000   6.276
 4107SOL    HW113220   0.341   6.074   6.228
 4107SOL    HW213221   0.344   5.914   6.264
 4108SOL     OW13222   0.341   5.206   4.075
 4108SOL    HW113223   0.264   5.224   4.136
 4108SOL    HW213224   0.404   5.283   4.077
 4109SOL     OW13225   6.090   5.763   3.342
 4109SOL    HW113226   6.082   5.672   3.301
 4109SOL    HW213227   6.056   5.832   3.277
 4110SOL     OW13228   4.609   2.838   6.779
 4110SOL    HW113229   4.543   2.891   6.726
 4110SOL    HW213230   4.602   2.863   6.876
 4111SOL     OW13231   6.870   5.487   6.520
 4111SOL    HW113232   6.819   5.431   6.586
 4111SOL    HW213233   6.964   5.499   6.552
 4112SOL     OW13234   4.633   6.254   4.707
 4112SOL    HW113235   4.587   6.169   4.684
 4112SOL    HW213236   4.590   6.294   4.789
 4113SOL     OW13237   4.426   4.923   4.966
 4113SOL    HW113238   4.490   4.862   4.919
 4113SOL    HW213239   4.405   4.886   5.056
 4114SOL     OW13240   6.463   1.941   3.452
 4114SOL    HW113241   6.496   1.884   3.528
 4114SOL    HW213242   6.366   1.960   3.465
 4115SOL     OW13243   2.759   5.111   3.269
 4115SOL    HW113244   2.812   5.187   3.231
 4115SOL    HW213245   2.744   5.042   3.199
 4116SOL     OW13246   5.586   2.166   3.330
 4116SOL    HW113247   5.630   2.085   3.291
 4116SOL    HW213248   5.495   2.142   3.364
 4117SOL     OW13249   1.386   1.977   2.486
 4117SOL    HW113250   1.406   2.064   2.442
 4117SOL    HW213251   1.341   1.916   2.420
 4118SOL     OW13252   6.326   6.415   6.952
 4118SOL    HW113253   6.281   6.469   6.881
 4118SOL    HW213254   6.369   6.335   6.910
 4119SOL     OW13255   2.723   0.823   3.263
 4119SOL    HW113256   2.822   0.839   3.267
 4119SOL    HW213257   2.684   0.835   3.354
 4120SOL     OW13258   3.130   1.214   6.649
 4120SOL    HW113259   3.212   1.159   6.635
 4120SOL    HW213260   3.074   1.212   6.566
 4121SOL     OW13261   6.822   6.583   2.691
 4121SOL    HW113262   6.838   6.681   2.687
 4121SOL    HW213263   6.824   6.552   2.786
 4122SOL     OW13264   0.118   5.442   4.607
 4122SOL    HW113265   0.036   5.463   4.554
 4122SOL    HW213266   0.097   5.369   4.673
 4123SOL     OW13267   3.950   5.010   4.200
 4123SOL    HW113268   4.037   4.963   4.186
 4123SOL    HW213269   3.967   5.104   4.229
 4124SOL     OW13270   6.685   6.076   1.094
 4124SOL    HW113271   6.641   6.164   1.076
 4124SOL    HW213272   6.757   6.087   1.162
 4125SOL     OW13273   5.012   2.565   2.555
 4125SOL    HW113274   5.041   2.658   2.534
 4125SOL    HW213275   4.918   2.566   2.589
 4126SOL     OW13276   1.334   2.808   2.115
 4126SOL    HW113277   1.321   2.784   2.019
 4126SOL    HW213278   1.255   2.777   2.168
 4127SOL     OW13279   3.874   2.145   4.102
 4127SOL    HW113280   3.909   2.189   4.019
 4127SOL    HW213281   3.912   2.191   4.182
 4128SOL     OW13282   0.676   3.084   1.947
 4128SOL    HW113283   0.610   3.092   1.873
 4128SOL    HW213284   0.635   3.035   2.024
 4129SOL     OW13285   3.535   2.648   0.746
 4129SOL    HW113286   3.451   2.674   0.794
 4129SOL    HW213287   3.564   2.723   0.686
 4130SOL     OW13288   6.491   2.733   1.115
 4130SOL    HW113289   6.540   2.725   1.202
 4130SOL    HW213290   6.397   2.760   1.132
 4131SOL     OW13291   6.104   0.513   2.460
 4131SOL    HW113292   6.115   0.586   2.392
 4131SOL    HW213293   6.027   0.456   2.435
 4132SOL     OW13294   6.362   4.304   4.466
 4132SOL    HW113295   6.317   4.259   4.389
 4132SOL    HW213296   6.455   4.267   4.477
 4133SOL     OW13297   5.420   6.330   1.344
 4133SOL    HW113298   5.444   6.235   1.364
 4133SOL    HW213299   5.320   6.341   1.344
 4134SOL     OW13300   2.375   3.802   1.351
 4134SOL    HW113301   2.328   3.715   1.337
 4134SOL    HW213302   2.474   3.787   1.345
 4135SOL     OW13303   0.619   2.136   2.190
 4135SOL    HW113304   0.696   2.196   2.207
 4135SOL    HW213305   0.536   2.177   2.228
 4136SOL     OW13306   0.527   3.782   1.363
 4136SOL    HW113307   0.513   3.813   1.457
 4136SOL    HW213308   0.615   3.816   1.329
 4137SOL     OW13309   1.911   2.789   0.584
 4137SOL    HW113310   1.815   2.761   0.585
 4137SOL    HW213311   1.937   2.823   0.674
 4138SOL     OW13312   4.161   5.490   0.760
 4138SOL    HW113313   4.083   5.468   0.703
 4138SOL    HW213314   4.243   5.445   0.725
 4139SOL     OW13315   1.419   2.301   3.063
 4139SOL    HW113316   1.495   2.243   3.092
 4139SOL    HW213317   1.396   2.281   2.968
 4140SOL     OW13318   2.904   2.141   3.800
 4140SOL    HW113319   2.831   2.176   3.741
 4140SOL    HW213320   2.984   2.200   3.793
 4141SOL     OW13321   4.497   6.874   6.642
 4141SOL    HW113322   4.409   6.922   6.640
 4141SOL    HW213323   4.566   6.932   6.686
 4142SOL     OW13324   6.381   3.787   1.893
 4142SOL    HW113325   6.290   3.781   1.936
 4142SOL    HW213326   6.432   3.863   1.935
 4143SOL     OW13327   5.815   3.563   0.497
 4143SOL    HW113328   5.873   3.496   0.450
 4143SOL    HW213329   5.864   3.598   0.577
 4144SOL     OW13330   5.174   1.533   0.905
 4144SOL    HW113331   5.131   1.610   0.859
 4144SOL    HW213332   5.273   1.546   0.907
 4145SOL     OW13333   0.844   6.214   0.888
 4145SOL    HW113334   0.791   6.150   0.831
 4145SOL    HW213335   0.822   6.199   0.984
 4146SOL     OW13336   5.995   6.749   3.767
 4146SOL    HW113337   6.082   6.700   3.763
 4146SOL    HW213338   5.993   6.818   3.695
 4147SOL     OW13339   5.597   4.379   5.787
 4147SOL    HW113340   5.651   4.349   5.865
 4147SOL    HW213341   5.613   4.476   5.771
 4148SOL     OW13342   3.139   6.855   5.849
 4148SOL    HW113343   3.096   6.883   5.935
 4148SOL    HW213344   3.216   6.916   5.829
 4149SOL     OW13345   1.518   2.886   1.323
 4149SOL    HW113346   1.527   2.870   1.225
 4149SOL    HW213347   1.557   2.975   1.347
 4150SOL     OW13348   6.446   2.960   5.446
 4150SOL    HW113349   6.436   2.936   5.543
 4150SOL    HW213350   6.535   2.928   5.414
 4151SOL     OW13351   2.295   0.043   4.772
 4151SOL    HW113352   2.282   0.074   4.678
 4151SOL    HW213353   2.276   0.119   4.835
 4152SOL     OW13354   3.752   5.456   2.153
 4152SOL    HW113355   3.715   5.502   2.072
 4152SOL    HW213356   3.822   5.390   2.125
 4153SOL     OW13357   6.228   4.758   1.068
 4153SOL    HW113358   6.141   4.766   1.117
 4153SOL    HW213359   6.277   4.845   1.072
 4154SOL     OW13360   6.929   5.885   3.467
 4154SOL    HW113361   6.898   5.797   3.432
 4154SOL    HW213362   6.884   5.904   3.554
 4155SOL     OW13363   6.546   1.723   1.384
 4155SOL    HW113364   6.645   1.717   1.401
 4155SOL    HW213365   6.530   1.778   1.302
 4156SOL     OW13366   6.725   5.010   5.305
 4156SOL    HW113367   6.785   5.087   5.329
 4156SOL    HW213368   6.631   5.043   5.296
 4157SOL     OW13369   6.485   6.385   2.373
 4157SOL    HW113370   6.561   6.405   2.435
 4157SOL    HW213371   6.398   6.391   2.423
 4158SOL     OW13372   2.026   2.445   1.292
 4158SOL    HW113373   2.072   2.491   1.368
 4158SOL    HW213374   2.069   2.356   1.276
 4159SOL     OW13375   3.003   1.894   2.698
 4159SOL    HW113376   2.927   1.873   2.759
 4159SOL    HW213377   3.010   1.993   2.686
 4160SOL     OW13378   6.312   0.055   6.708
 4160SOL    HW113379   6.237   0.114   6.678
 4160SOL    HW213380   6.280   7.019   6.781
 4161SOL     OW13381   1.994   2.027   1.301
 4161SOL    HW113382   1.929   2.020   1.225
 4161SOL    HW213383   2.050   2.109   1.290
 4162SOL     OW13384   6.408   5.599   0.976
 4162SOL    HW113385   6.399   5.627   1.071
 4162SOL    HW213386   6.447   5.507   0.971
 4163SOL     OW13387   5.759   0.737   2.731
 4163SOL    HW113388   5.755   0.837   2.730
 4163SOL    HW213389   5.694   0.701   2.663
 4164SOL     OW13390   0.311   6.743   5.627
 4164SOL    HW113391   0.397   6.773   5.670
 4164SOL    HW213392   0.239   6.739   5.696
 4165SOL     OW13393   4.282   0.042   6.052
 4165SOL    HW113394   4.363   0.018   6.105
 4165SOL    HW213395   4.279   0.141   6.038
 4166SOL     OW13396   6.581   0.958   1.798
 4166SOL    HW113397   6.617   1.014   1.873
 4166SOL    HW213398   6.506   1.007   1.753
 4167SOL     OW13399   2.348   4.430   5.934
 4167SOL    HW113400   2.345   4.445   6.033
 4167SOL    HW213401   2.420   4.364   5.912
 4168SOL     OW13402   0.129   4.283   0.333
 4168SOL    HW113403   0.129   4.374   0.290
 4168SOL    HW213404   0.102   4.214   0.266
 4169SOL     OW13405   5.933   4.219   5.250
 4169SOL    HW113406   5.835   4.231   5.234
 4169SOL    HW213407   5.984   4.272   5.181
 4170SOL     OW13408   4.832   3.153   4.676
 4170SOL    HW113409   4.837   3.055   4.656
 4170SOL    HW213410   4.866   3.204   4.597
 4171SOL     OW13411   1.206   4.609   1.346
 4171SOL    HW113412   1.234   4.655   1.430
 4171SOL    HW213413   1.213   4.672   1.269
 4172SOL     OW13414   2.581   3.276   0.685
 4172SOL    HW113415   2.641   3.230   0.620
 4172SOL    HW213416   2.590   3.232   0.775
 4173SOL     OW13417   4.622   2.772   5.598
 4173SOL    HW113418   4.666   2.684   5.584
 4173SOL    HW213419   4.526   2.758   5.620
 4174SOL     OW13420   4.841   0.701   2.959
 4174SOL    HW113421   4.895   0.638   2.903
 4174SOL    HW213422   4.889   0.717   3.045
 4175SOL     OW13423   1.491   4.728   5.560
 4175SOL    HW113424   1.429   4.788   5.510
 4175SOL    HW213425   1.509   4.766   5.651
 4176SOL     OW13426   4.653   6.333   0.868
 4176SOL    HW113427   4.612   6.365   0.782
 4176SOL    HW213428   4.611   6.381   0.945
 4177SOL     OW13429   5.663   4.826   4.592
 4177SOL    HW113430   5.593   4.812   4.662
 4177SOL    HW213431   5.753   4.831   4.635
 4178SOL     OW13432   4.480   6.689   2.846
 4178SOL    HW113433   4.508   6.637   2.927
 4178SOL    HW213434   4.442   6.777   2.874
 4179SOL     OW13435   5.524   4.067   3.780
 4179SOL    HW113436   5.465   4.144   3.803
 4179SOL    HW213437   5.512   4.044   3.684
 4180SOL     OW13438   5.414   3.368   0.953
 4180SOL    HW113439   5.435   3.444   0.891
 4180SOL    HW213440   5.315   3.365   0.969
 4181SOL     OW13441   5.235   1.059   6.683
 4181SOL    HW113442   5.265   1.105   6.600
 4181SOL    HW213443   5.139   1.032   6.673
 4182SOL     OW13444   0.217   5.328   3.674
 4182SOL    HW113445   0.308   5.320   3.635
 4182SOL    HW213446   0.180   5.418   3.654
 4183SOL     OW13447   2.591   0.473   0.852
 4183SOL    HW113448   2.614   0.394   0.910
 4183SOL    HW213449   2.629   0.556   0.893
 4184SOL     OW13450   3.745   0.015   2.126
 4184SOL    HW113451   3.834   0.044   2.090
 4184SOL    HW213452   3.677   0.085   2.105
 4185SOL     OW13453   0.780   4.120   2.892
 4185SOL    HW113454   0.694   4.170   2.881
 4185SOL    HW213455   0.856   4.177   2.860
 4186SOL     OW13456   2.246   5.647   6.303
 4186SOL    HW113457   2.337   5.666   6.266
 4186SOL    HW213458   2.223   5.551   6.287
 4187SOL     OW13459   2.768   3.611   0.387
 4187SOL    HW113460   2.712   3.692   0.371
 4187SOL    HW213461   2.777   3.595   0.486
 4188SOL     OW13462   5.275   0.130   5.267
 4188SOL    HW113463   5.198   0.082   5.307
 4188SOL    HW213464   5.263   0.229   5.278
 4189SOL     OW13465   3.749   4.934   3.724
 4189SOL    HW113466   3.812   4.939   3.801
 4189SOL    HW213467   3.724   5.027   3.695
 4190SOL     OW13468   0.391   6.679   0.928
 4190SOL    HW113469   0.463   6.706   0.993
 4190SOL    HW213470   0.334   6.608   0.969
 4191SOL     OW13471   5.299   4.062   6.015
 4191SOL    HW113472   5.275   3.966   6.029
 4191SOL    HW213473   5.350   4.071   5.929
 4192SOL     OW13474   1.621   1.054   1.708
 4192SOL    HW113475   1.550   1.049   1.778
 4192SOL    HW213476   1.688   1.124   1.733
 4193SOL     OW13477   5.354   0.413   0.345
 4193SOL    HW113478   5.437   0.428   0.399
 4193SOL    HW213479   5.329   0.498   0.299
 4194SOL     OW13480   4.862   7.021   4.595
 4194SOL    HW113481   4.850   6.923   4.610
 4194SOL    HW213482   4.897   0.040   4.678
 4195SOL     OW13483   4.202   5.815   1.714
 4195SOL    HW113484   4.157   5.789   1.629
 4195SOL    HW213485   4.182   5.747   1.785
 4196SOL     OW13486   6.961   2.631   3.035
 4196SOL    HW113487   0.030   2.598   3.050
 4196SOL    HW213488   6.932   2.611   2.942
 4197SOL     OW13489   4.040   5.434   5.534
 4197SOL    HW113490   3.953   5.480   5.549
 4197SOL    HW213491   4.108   5.468   5.598
 4198SOL     OW13492   6.814   1.664   2.351
 4198SOL    HW113493   6.739   1.701   2.406
 4198SOL    HW213494   6.802   1.565   2.341
 4199SOL     OW13495   0.888   2.636   5.384
 4199SOL    HW113496   0.867   2.732   5.404
 4199SOL    HW213497   0.913   2.627   5.288
 4200SOL     OW13498   2.956   0.321   5.767
 4200SOL    HW113499   2.871   0.336   5.716
 4200SOL    HW213500   3.018   0.264   5.713
 4201SOL     OW13501   6.265   6.823   2.898
 4201SOL    HW113502   6.328   6.887   2.943
 4201SOL    HW213503   6.186   6.808   2.957
 4202SOL     OW13504   2.997   5.567   6.692
 4202SOL    HW113505   2.931   5.597   6.761
 4202SOL    HW213506   2.982   5.471   6.670
 4203SOL     OW13507   4.900   4.515   0.136
 4203SOL    HW113508   4.915   4.416   0.138
 4203SOL    HW213509   4.885   4.548   0.229
 4204SOL     OW13510   3.984   3.464   5.430
 4204SOL    HW113511   3.972   3.503   5.339
 4204SOL    HW213512   4.071   3.495   5.468
 4205SOL     OW13513   3.790   5.763   4.670
 4205SOL    HW113514   3.745   5.808   4.747
 4205SOL    HW213515   3.776   5.817   4.587
 4206SOL     OW13516   6.609   1.860   4.779
 4206SOL    HW113517   6.654   1.772   4.769
 4206SOL    HW213518   6.510   1.846   4.790
 4207SOL     OW13519   2.300   2.810   1.461
 4207SOL    HW113520   2.283   2.891   1.517
 4207SOL    HW213521   2.213   2.768   1.435
 4208SOL     OW13522   0.454   3.941   6.027
 4208SOL    HW113523   0.541   3.893   6.020
 4208SOL    HW213524   0.415   3.953   5.935
 4209SOL     OW13525   6.843   6.113   2.861
 4209SOL    HW113526   6.816   6.020   2.887
 4209SOL    HW213527   6.832   6.174   2.940
 4210SOL     OW13528   4.078   3.461   2.955
 4210SOL    HW113529   4.062   3.465   3.053
 4210SOL    HW213530   4.112   3.550   2.923
 4211SOL     OW13531   3.542   1.813   5.636
 4211SOL    HW113532   3.564   1.865   5.718
 4211SOL    HW213533   3.553   1.871   5.555
 4212SOL     OW13534   6.831   1.742   3.679
 4212SOL    HW113535   6.882   1.828   3.676
 4212SOL    HW213536   6.870   1.678   3.614
 4213SOL     OW13537   2.730   6.981   3.103
 4213SOL    HW113538   2.666   6.970   3.027
 4213SOL    HW213539   2.782   6.897   3.116
 4214SOL     OW13540   0.334   5.821   4.938
 4214SOL    HW113541   0.336   5.740   4.879
 4214SOL    HW213542   0.383   5.801   5.023
 4215SOL     OW13543   4.642   6.765   5.241
 4215SOL    HW113544   4.596   6.698   5.182
 4215SOL    HW213545   4.723   6.801   5.195
 4216SOL     OW13546   1.351   0.900   1.911
 4216SOL    HW113547   1.370   0.997   1.924
 4216SOL    HW213548   1.356   0.853   1.999
 4217SOL     OW13549   1.199   0.663   2.095
 4217SOL    HW113550   1.218   0.609   2.012
 4217SOL    HW213551   1.100   0.675   2.105
 4218SOL     OW13552   3.683   0.264   1.401
 4218SOL    HW113553   3.705   0.196   1.471
 4218SOL    HW213554   3.722   0.235   1.313
 4219SOL     OW13555   4.703   6.254   4.054
 4219SOL    HW113556   4.705   6.205   3.967
 4219SOL    HW213557   4.781   6.317   4.058
 4220SOL     OW13558   5.984   3.566   2.229
 4220SOL    HW113559   5.897   3.583   2.276
 4220SOL    HW213560   5.965   3.525   2.140
 4221SOL     OW13561   6.122   4.667   6.043
 4221SOL    HW113562   6.216   4.677   6.010
 4221SOL    HW213563   6.062   4.649   5.965
 4222SOL     OW13564   6.559   0.836   3.210
 4222SOL    HW113565   6.541   0.799   3.301
 4222SOL    HW213566   6.657   0.838   3.193
 4223SOL     OW13567   4.272   3.463   0.986
 4223SOL    HW113568   4.280   3.423   0.894
 4223SOL    HW213569   4.356   3.513   1.007
 4224SOL     OW13570   5.468   4.835   4.806
 4224SOL    HW113571   5.450   4.900   4.881
 4224SOL    HW213572   5.403   4.851   4.732
 4225SOL     OW13573   1.603   2.482   5.177
 4225SOL    HW113574   1.544   2.481   5.096
 4225SOL    HW213575   1.548   2.504   5.257
 4226SOL     OW13576   0.960   5.656   3.667
 4226SOL    HW113577   1.016   5.734   3.639
 4226SOL    HW213578   0.994   5.620   3.754
 4227SOL     OW13579   4.833   6.225   1.858
 4227SOL    HW113580   4.894   6.225   1.937
 4227SOL    HW213581   4.753   6.280   1.877
 4228SOL     OW13582   6.955   6.270   5.867
 4228SOL    HW113583   6.923   6.365   5.860
 4228SOL    HW213584   6.992   6.242   5.778
 4229SOL     OW13585   4.360   5.318   5.559
 4229SOL    HW113586   4.408   5.378   5.622
 4229SOL    HW213587   4.364   5.356   5.466
 4230SOL     OW13588   1.650   6.402   3.577
 4230SOL    HW113589   1.678   6.411   3.481
 4230SOL    HW213590   1.730   6.385   3.634
 4231SOL     OW13591   5.113   0.291   5.750
 4231SOL    HW113592   5.074   0.217   5.806
 4231SOL    HW213593   5.068   0.292   5.661
 4232SOL     OW13594   1.542   4.472   3.804
 4232SOL    HW113595   1.638   4.488   3.825
 4232SOL    HW213596   1.486   4.544   3.845
 4233SOL     OW13597   6.992   1.265   4.982
 4233SOL    HW113598   0.017   1.321   4.916
 4233SOL    HW213599   7.023   1.170   4.976
 4234SOL     OW13600   2.491   5.318   5.282
 4234SOL    HW113601   2.476   5.414   5.259
 4234SOL    HW213602   2.406   5.267   5.267
 4235SOL     OW13603   0.043   4.684   5.927
 4235SOL    HW113604   0.124   4.633   5.899
 4235SOL    HW213605   0.030   4.674   6.026
 4236SOL     OW13606   6.359   4.118   1.933
 4236SOL    HW113607   6.395   4.201   1.889
 4236SOL    HW213608   6.277   4.141   1.985
 4237SOL     OW13609   6.851   4.483   3.525
 4237SOL    HW113610   6.800   4.570   3.524
 4237SOL    HW213611   6.911   4.479   3.445
 4238SOL     OW13612   1.507   6.742   2.709
 4238SOL    HW113613   1.505   6.830   2.660
 4238SOL    HW213614   1.597   6.700   2.698
 4239SOL     OW13615   4.514   1.764   3.019
 4239SOL    HW113616   4.481   1.677   2.981
 4239SOL    HW213617   4.438   1.829   3.023
 4240SOL     OW13618   1.799   5.756   0.598
 4240SOL    HW113619   1.896   5.765   0.577
 4240SOL    HW213620   1.780   5.664   0.632
 4241SOL     OW13621   5.440   0.890   0.245
 4241SOL    HW113622   5.482   0.978   0.226
 4241SOL    HW213623   5.479   0.851   0.329
 4242SOL     OW13624   3.161   2.087   4.044
 4242SOL    HW113625   3.078   2.036   4.068
 4242SOL    HW213626   3.152   2.124   3.952
 4243SOL     OW13627   5.503   1.970   2.971
 4243SOL    HW113628   5.411   2.008   2.958
 4243SOL    HW213629   5.571   2.042   2.951
 4244SOL     OW13630   3.911   4.247   1.337
 4244SOL    HW113631   3.920   4.160   1.385
 4244SOL    HW213632   3.814   4.264   1.317
 4245SOL     OW13633   6.558   1.942   6.265
 4245SOL    HW113634   6.485   1.948   6.198
 4245SOL    HW213635   6.524   1.897   6.348
 4246SOL     OW13636   6.474   4.192   3.158
 4246SOL    HW113637   6.421   4.136   3.222
 4246SOL    HW213638   6.552   4.233   3.206
 4247SOL     OW13639   2.011   6.607   3.763
 4247SOL    HW113640   1.959   6.576   3.843
 4247SOL    HW213641   2.089   6.662   3.793
 4248SOL     OW13642   2.970   1.615   4.178
 4248SOL    HW113643   3.034   1.680   4.220
 4248SOL    HW213644   2.900   1.589   4.246
 4249SOL     OW13645   6.452   3.042   5.134
 4249SOL    HW113646   6.400   3.027   5.050
 4249SOL    HW213647   6.550   3.037   5.114
 4250SOL     OW13648   0.385   4.517   3.205
 4250SOL    HW113649   0.417   4.607   3.233
 4250SOL    HW213650   0.327   4.478   3.276
 4251SOL     OW13651   5.177   4.494   0.931
 4251SOL    HW113652   5.195   4.584   0.971
 4251SOL    HW213653   5.264   4.450   0.908
 4252SOL     OW13654   6.104   6.537   5.411
 4252SOL    HW113655   6.082   6.597   5.488
 4252SOL    HW213656   6.191   6.566   5.370
 4253SOL     OW13657   2.859   6.835   1.052
 4253SOL    HW113658   2.813   6.779   1.122
 4253SOL    HW213659   2.792   6.896   1.009
 4254SOL     OW13660   1.252   2.475   2.341
 4254SOL    HW113661   1.194   2.395   2.360
 4254SOL    HW213662   1.348   2.446   2.336
 4255SOL     OW13663   5.583   3.126   3.604
 4255SOL    HW113664   5.611   3.067   3.680
 4255SOL    HW213665   5.663   3.157   3.554
 4256SOL     OW13666   1.439   6.627   0.855
 4256SOL    HW113667   1.453   6.534   0.821
 4256SOL    HW213668   1.355   6.631   0.909
 4257SOL     OW13669   3.561   0.342   4.613
 4257SOL    HW113670   3.518   0.432   4.618
 4257SOL    HW213671   3.498   0.277   4.568
 4258SOL     OW13672   6.026   6.625   1.332
 4258SOL    HW113673   6.101   6.560   1.317
 4258SOL    HW213674   6.030   6.659   1.426
 4259SOL     OW13675   2.783   0.667   6.860
 4259SOL    HW113676   2.816   0.645   6.952
 4259SOL    HW213677   2.783   0.584   6.805
 4260SOL     OW13678   5.072   6.794   5.577
 4260SOL    HW113679   4.976   6.770   5.592
 4260SOL    HW213680   5.077   6.881   5.528
 4261SOL     OW13681   1.839   0.770   1.685
 4261SOL    HW113682   1.753   0.782   1.736
 4261SOL    HW213683   1.818   0.759   1.588
 4262SOL     OW13684   0.638   4.724   6.186
 4262SOL    HW113685   0.642   4.634   6.142
 4262SOL    HW213686   0.728   4.746   6.224
 4263SOL     OW13687   2.894   6.768   3.114
 4263SOL    HW113688   2.819   6.726   3.166
 4263SOL    HW213689   2.979   6.762   3.166
 4264SOL     OW13690   0.040   2.263   2.372
 4264SOL    HW113691   6.982   2.248   2.429
 4264SOL    HW213692   0.095   2.180   2.371
 4265SOL     OW13693   5.474   1.363   0.729
 4265SOL    HW113694   5.455   1.423   0.651
 4265SOL    HW213695   5.389   1.347   0.780
 4266SOL     OW13696   2.021   5.526   0.652
 4266SOL    HW113697   2.046   5.516   0.748
 4266SOL    HW213698   2.068   5.606   0.613
 4267SOL     OW13699   1.558   3.493   5.400
 4267SOL    HW113700   1.608   3.559   5.344
 4267SOL    HW213701   1.510   3.541   5.473
 4268SOL     OW13702   1.443   6.525   5.800
 4268SOL    HW113703   1.435   6.462   5.877
 4268SOL    HW213704   1.351   6.554   5.772
 4269SOL     OW13705   2.227   1.009   1.278
 4269SOL    HW113706   2.280   1.094   1.276
 4269SOL    HW213707   2.199   0.984   1.185
 4270SOL     OW13708   3.195   3.051   4.343
 4270SOL    HW113709   3.156   3.010   4.259
 4270SOL    HW213710   3.126   3.110   4.386
 4271SOL     OW13711   0.683   1.234   6.497
 4271SOL    HW113712   0.713   1.327   6.518
 4271SOL    HW213713   0.614   1.237   6.425
 4272SOL     OW13714   0.962   4.372   4.976
 4272SOL    HW113715   1.026   4.347   4.903
 4272SOL    HW213716   0.977   4.312   5.055
 4273SOL     OW13717   4.954   5.850   4.855
 4273SOL    HW113718   5.026   5.917   4.868
 4273SOL    HW213719   4.926   5.849   4.759
 4274SOL     OW13720   1.701   6.744   2.180
 4274SOL    HW113721   1.787   6.724   2.227
 4274SOL    HW213722   1.674   6.664   2.126
 4275SOL     OW13723   6.595   1.812   5.138
 4275SOL    HW113724   6.689   1.822   5.105
 4275SOL    HW213725   6.554   1.902   5.151
 4276SOL     OW13726   1.425   4.681   3.924
 4276SOL    HW113727   1.444   4.627   4.006
 4276SOL    HW213728   1.430   4.778   3.946
 4277SOL     OW13729   6.200   4.535   4.116
 4277SOL    HW113730   6.262   4.529   4.038
 4277SOL    HW213731   6.141   4.615   4.106
 4278SOL     OW13732   0.053   0.734   4.489
 4278SOL    HW113733   0.006   0.765   4.406
 4278SOL    HW213734   7.018   0.670   4.538
 4279SOL     OW13735   3.350   0.017   5.817
 4279SOL    HW113736   3.414   6.993   5.757
 4279SOL    HW213737   3.345   0.113   5.791
 4280SOL     OW13738   5.148   0.983   5.117
 4280SOL    HW113739   5.069   1.039   5.141
 4280SOL    HW213740   5.158   0.981   5.017
 4281SOL     OW13741   2.138   5.011   4.573
 4281SOL    HW113742   2.171   5.007   4.667
 4281SOL    HW213743   2.047   5.052   4.572
 4282SOL     OW13744   3.297   2.586   0.521
 4282SOL    HW113745   3.356   2.507   0.507
 4282SOL    HW213746   3.210   2.572   0.474
 4283SOL     OW13747   1.978   1.058   3.551
 4283SOL    HW113748   1.889   1.075   3.508
 4283SOL    HW213749   1.965   1.022   3.643
 4284SOL     OW13750   4.898   5.952   1.768
 4284SOL    HW113751   4.846   5.885   1.820
 4284SOL    HW213752   4.872   6.044   1.797
 4285SOL     OW13753   0.679   0.395   5.655
 4285SOL    HW113754   0.604   0.421   5.595
 4285SOL    HW213755   0.732   0.476   5.681
 4286SOL     OW13756   5.067   5.779   6.706
 4286SOL    HW113757   5.030   5.773   6.613
 4286SOL    HW213758   4.996   5.757   6.772
 4287SOL     OW13759   5.685   1.079   6.325
 4287SOL    HW113760   5.638   0.993   6.311
 4287SOL    HW213761   5.679   1.106   6.421
 4288SOL     OW13762   1.087   5.851   3.319
 4288SOL    HW113763   1.134   5.830   3.404
 4288SOL    HW213764   1.024   5.777   3.296
 4289SOL     OW13765   6.193   3.333   0.925
 4289SOL    HW113766   6.146   3.275   0.992
 4289SOL    HW213767   6.267   3.383   0.970
 4290SOL     OW13768   3.119   6.457   2.440
 4290SOL    HW113769   3.185   6.515   2.393
 4290SOL    HW213770   3.092   6.381   2.381
 4291SOL     OW13771   4.459   3.641   1.636
 4291SOL    HW113772   4.395   3.711   1.668
 4291SOL    HW213773   4.410   3.575   1.579
 4292SOL     OW13774   6.679   4.558   5.995
 4292SOL    HW113775   6.646   4.648   6.021
 4292SOL    HW213776   6.739   4.522   6.066
 4293SOL     OW13777   0.206   3.009   0.561
 4293SOL    HW113778   0.215   3.056   0.648
 4293SOL    HW213779   0.296   2.975   0.532
 4294SOL     OW13780   3.435   2.793   0.016
 4294SOL    HW113781   3.444   2.868   0.081
 4294SOL    HW213782   3.462   2.824   6.948
 4295SOL     OW13783   3.761   6.186   4.644
 4295SOL    HW113784   3.842   6.157   4.695
 4295SOL    HW213785   3.679   6.150   4.688
 4296SOL     OW13786   3.783   1.234   0.269
 4296SOL    HW113787   3.683   1.242   0.279
 4296SOL    HW213788   3.804   1.175   0.192
 4297SOL     OW13789   5.484   0.659   6.067
 4297SOL    HW113790   5.547   0.589   6.033
 4297SOL    HW213791   5.399   0.616   6.097
 4298SOL     OW13792   2.914   5.313   6.314
 4298SOL    HW113793   2.970   5.311   6.396
 4298SOL    HW213794   2.971   5.334   6.234
 4299SOL     OW13795   0.501   3.071   0.216
 4299SOL    HW113796   0.454   3.160   0.215
 4299SOL    HW213797   0.519   3.045   0.311
 4300SOL     OW13798   3.792   1.061   0.059
 4300SOL    HW113799   3.798   0.969   0.022
 4300SOL    HW213800   3.711   1.106   0.023
 4301SOL     OW13801   2.949   1.313   0.724
 4301SOL    HW113802   2.958   1.270   0.634
 4301SOL    HW213803   2.936   1.411   0.713
 4302SOL     OW13804   0.965   6.544   5.533
 4302SOL    HW113805   0.923   6.605   5.600
 4302SOL    HW213806   0.896   6.514   5.467
 4303SOL     OW13807   6.097   4.796   4.094
 4303SOL    HW113808   6.035   4.864   4.134
 4303SOL    HW213809   6.191   4.817   4.120
 4304SOL     OW13810   3.211   3.630   4.243
 4304SOL    HW113811   3.156   3.601   4.165
 4304SOL    HW213812   3.152   3.677   4.309
 4305SOL     OW13813   5.908   1.146   4.194
 4305SOL    HW113814   5.877   1.052   4.204
 4305SOL    HW213815   5.828   1.206   4.190
 4306SOL     OW13816   6.519   3.804   6.719
 4306SOL    HW113817   6.460   3.740   6.768
 4306SOL    HW213818   6.544   3.879   6.779
 4307SOL     OW13819   5.192   3.891   6.374
 4307SOL    HW113820   5.210   3.805   6.422
 4307SOL    HW213821   5.162   3.872   6.281
 4308SOL     OW13822   5.575   5.535   6.346
 4308SOL    HW113823   5.670   5.520   6.320
 4308SOL    HW213824   5.571   5.582   6.434
 4309SOL     OW13825   1.250   1.008   0.496
 4309SOL    HW113826   1.267   1.068   0.574
 4309SOL    HW213827   1.157   0.971   0.503
 4310SOL     OW13828   2.295   2.461   3.057
 4310SOL    HW113829   2.215   2.511   3.090
 4310SOL    HW213830   2.299   2.470   2.957
 4311SOL     OW13831   1.533   5.829   3.278
 4311SOL    HW113832   1.630   5.853   3.280
 4311SOL    HW213833   1.523   5.730   3.264
 4312SOL     OW13834   1.424   5.279   0.945
 4312SOL    HW113835   1.438   5.329   0.859
 4312SOL    HW213836   1.495   5.209   0.955
 4313SOL     OW13837   5.136   1.409   1.613
 4313SOL    HW113838   5.052   1.455   1.643
 4313SOL    HW213839   5.215   1.465   1.638
 4314SOL     OW13840   5.915   1.808   4.093
 4314SOL    HW113841   5.857   1.739   4.052
 4314SOL    HW213842   5.869   1.897   4.091
 4315SOL     OW13843   2.787   0.488   1.933
 4315SOL    HW113844   2.706   0.544   1.951
 4315SOL    HW213845   2.863   0.519   1.990
 4316SOL     OW13846   5.225   0.119   1.049
 4316SOL    HW113847   5.270   0.069   1.122
 4316SOL    HW213848   5.205   0.212   1.080
 4317SOL     OW13849   3.987   1.216   4.674
 4317SOL    HW113850   4.028   1.296   4.629
 4317SOL    HW213851   4.057   1.146   4.685
 4318SOL     OW13852   1.366   2.954   3.507
 4318SOL    HW113853   1.283   2.916   3.547
 4318SOL    HW213854   1.434   2.968   3.579
 4319SOL     OW13855   2.119   3.084   0.376
 4319SOL    HW113856   2.025   3.108   0.353
 4319SOL    HW213857   2.130   2.985   0.374
 4320SOL     OW13858   0.277   6.182   1.901
 4320SOL    HW113859   0.314   6.204   1.810
 4320SOL    HW213860   0.259   6.084   1.906
 4321SOL     OW13861   6.798   0.156   4.138
 4321SOL    HW113862   6.804   0.063   4.104
 4321SOL    HW213863   6.820   0.220   4.065
 4322SOL     OW13864   5.902   1.997   6.305
 4322SOL    HW113865   5.987   1.943   6.306
 4322SOL    HW213866   5.884   2.031   6.397
 4323SOL     OW13867   4.925   4.024   1.412
 4323SOL    HW113868   4.919   3.928   1.441
 4323SOL    HW213869   5.010   4.037   1.362
 4324SOL     OW13870   6.083   4.014   6.189
 4324SOL    HW113871   6.099   3.915   6.198
 4324SOL    HW213872   6.026   4.045   6.264
 4325SOL     OW13873   1.965   0.565   0.515
 4325SOL    HW113874   1.960   0.481   0.569
 4325SOL    HW213875   1.904   0.558   0.436
 4326SOL     OW13876   5.573   2.934   4.830
 4326SOL    HW113877   5.669   2.961   4.835
 4326SOL    HW213878   5.553   2.897   4.740
 4327SOL     OW13879   5.937   5.128   2.302
 4327SOL    HW113880   5.875   5.069   2.354
 4327SOL    HW213881   5.908   5.223   2.311
 4328SOL     OW13882   4.360   3.846   5.861
 4328SOL    HW113883   4.374   3.881   5.769
 4328SOL    HW213884   4.370   3.747   5.861
 4329SOL     OW13885   3.948   1.655   6.574
 4329SOL    HW113886   3.898   1.709   6.506
 4329SOL    HW213887   3.898   1.657   6.661
 4330SOL     OW13888   2.793   0.394   4.968
 4330SOL    HW113889   2.881   0.425   4.932
 4330SOL    HW213890   2.785   0.420   5.065
 4331SOL     OW13891   4.541   3.144   0.835
 4331SOL    HW113892   4.571   3.050   0.847
 4331SOL    HW213893   4.540   3.190   0.924
 4332SOL     OW13894   5.179   4.789   2.041
 4332SOL    HW113895   5.202   4.709   1.985
 4332SOL    HW213896   5.159   4.760   2.135
 4333SOL     OW13897   4.569   0.723   5.673
 4333SOL    HW113898   4.536   0.775   5.752
 4333SOL    HW213899   4.613   0.785   5.609
 4334SOL     OW13900   1.901   2.065   2.559
 4334SOL    HW113901   1.805   2.091   2.566
 4334SOL    HW213902   1.942   2.109   2.479
 4335SOL     OW13903   3.060   3.862   3.346
 4335SOL    HW113904   3.132   3.931   3.343
 4335SOL    HW213905   2.980   3.900   3.392
 4336SOL     OW13906   1.271   6.816   5.739
 4336SOL    HW113907   1.201   6.746   5.726
 4336SOL    HW213908   1.344   6.805   5.671
 4337SOL     OW13909   1.260   4.458   0.442
 4337SOL    HW113910   1.317   4.408   0.508
 4337SOL    HW213911   1.284   4.555   0.445
 4338SOL     OW13912   5.178   5.700   4.115
 4338SOL    HW113913   5.106   5.760   4.081
 4338SOL    HW213914   5.263   5.752   4.124
 4339SOL     OW13915   6.368   4.010   4.949
 4339SOL    HW113916   6.371   4.108   4.927
 4339SOL    HW213917   6.367   3.957   4.864
 4340SOL     OW13918   5.879   4.480   2.446
 4340SOL    HW113919   5.903   4.388   2.477
 4340SOL    HW213920   5.962   4.534   2.435
 4341SOL     OW13921   0.834   5.582   2.217
 4341SOL    HW113922   0.808   5.636   2.137
 4341SOL    HW213923   0.761   5.517   2.240
 4342SOL     OW13924   6.882   3.890   3.841
 4342SOL    HW113925   6.923   3.970   3.797
 4342SOL    HW213926   6.860   3.822   3.772
 4343SOL     OW13927   2.512   6.322   5.967
 4343SOL    HW113928   2.568   6.401   5.992
 4343SOL    HW213929   2.567   6.239   5.969
 4344SOL     OW13930   1.855   5.198   3.080
 4344SOL    HW113931   1.828   5.290   3.053
 4344SOL    HW213932   1.832   5.182   3.176
 4345SOL     OW13933   1.919   2.992   5.451
 4345SOL    HW113934   1.977   3.048   5.392
 4345SOL    HW213935   1.967   2.974   5.537
 4346SOL     OW13936   1.874   3.003   1.940
 4346SOL    HW113937   1.953   3.036   1.992
 4346SOL    HW213938   1.889   3.019   1.843
 4347SOL     OW13939   5.863   7.015   2.671
 4347SOL    HW113940   5.872   0.018   2.575
 4347SOL    HW213941   5.787   0.041   2.712
 4348SOL     OW13942   0.203   3.546   2.418
 4348SOL    HW113943   0.234   3.452   2.436
 4348SOL    HW213944   0.109   3.544   2.387
 4349SOL     OW13945   6.552   1.997   2.460
 4349SOL    HW113946   6.582   1.902   2.467
 4349SOL    HW213947   6.509   2.024   2.547
 4350SOL     OW13948   5.117   2.285   4.035
 4350SOL    HW113949   5.084   2.224   4.107
 4350SOL    HW213950   5.116   2.380   4.068
 4351SOL     OW13951   1.777   6.463   1.263
 4351SOL    HW113952   1.749   6.455   1.168
 4351SOL    HW213953   1.786   6.560   1.288
 4352SOL     OW13954   1.169   2.193   2.361
 4352SOL    HW113955   1.109   2.126   2.404
 4352SOL    HW213956   1.261   2.186   2.400
 4353SOL     OW13957   3.496   4.428   0.329
 4353SOL    HW113958   3.526   4.483   0.407
 4353SOL    HW213959   3.569   4.365   0.302
 4354SOL     OW13960   2.457   6.559   5.262
 4354SOL    HW113961   2.531   6.618   5.293
 4354SOL    HW213962   2.372   6.612   5.258
 4355SOL     OW13963   3.322   0.829   2.291
 4355SOL    HW113964   3.362   0.912   2.331
 4355SOL    HW213965   3.287   0.849   2.200
 4356SOL     OW13966   4.558   4.290   1.652
 4356SOL    HW113967   4.479   4.256   1.704
 4356SOL    HW213968   4.601   4.214   1.602
 4357SOL     OW13969   5.888   0.603   6.775
 4357SOL    HW113970   5.846   0.514   6.756
 4357SOL    HW213971   5.817   0.673   6.778
 4358SOL     OW13972   6.822   5.789   0.425
 4358SOL    HW113973   6.842   5.886   0.438
 4358SOL    HW213974   6.903   5.744   0.387
 4359SOL     OW13975   1.433   2.115   5.578
 4359SOL    HW113976   1.374   2.178   5.528
 4359SOL    HW213977   1.407   2.114   5.675
 4360SOL     OW13978   1.497   2.716   2.946
 4360SOL    HW113979   1.478   2.758   3.035
 4360SOL    HW213980   1.515   2.788   2.879
 4361SOL     OW13981   2.907   2.942   1.664
 4361SOL    HW113982   2.867   3.033   1.676
 4361SOL    HW213983   2.998   2.940   1.704
 4362SOL     OW13984   6.157   3.805   3.687
 4362SOL    HW113985   6.121   3.896   3.707
 4362SOL    HW213986   6.114   3.770   3.604
 4363SOL     OW13987   5.767   2.714   6.897
 4363SOL    HW113988   5.807   2.805   6.897
 4363SOL    HW213989   5.696   2.709   6.827
 4364SOL     OW13990   3.264   3.711   5.187
 4364SOL    HW113991   3.333   3.639   5.198
 4364SOL    HW213992   3.196   3.703   5.259
 4365SOL     OW13993   2.172   2.593   1.908
 4365SOL    HW113994   2.135   2.501   1.890
 4365SOL    HW213995   2.257   2.605   1.858
 4366SOL     OW13996   5.874   6.238   0.531
 4366SOL    HW113997   5.952   6.201   0.480
 4366SOL    HW213998   5.793   6.184   0.513
 4367SOL     OW13999   2.058   5.025   5.097
 4367SOL    HW114000   2.052   5.097   5.166
 4367SOL    HW214001   2.153   5.002   5.081
 4368SOL     OW14002   3.950   5.230   1.417
 4368SOL    HW114003   3.965   5.177   1.334
 4368SOL    HW214004   4.038   5.263   1.452
 4369SOL     OW14005   3.908   5.416   3.325
 4369SOL    HW114006   3.919   5.317   3.333
 4369SOL    HW214007   3.845   5.448   3.395
 4370SOL     OW14008   4.651   4.793   2.994
 4370SOL    HW114009   4.729   4.750   2.949
 4370SOL    HW214010   4.567   4.768   2.946
 4371SOL     OW14011   6.797   1.019   1.143
 4371SOL    HW114012   6.796   0.956   1.065
 4371SOL    HW214013   6.883   1.069   1.143
 4372SOL     OW14014   4.362   1.134   3.384
 4372SOL    HW114015   4.267   1.141   3.413
 4372SOL    HW214016   4.367   1.132   3.284
 4373SOL     OW14017   0.232   2.291   6.401
 4373SOL    HW114018   0.320   2.339   6.400
 4373SOL    HW214019   0.203   2.278   6.496
 4374SOL     OW14020   0.920   1.673   1.830
 4374SOL    HW114021   0.837   1.726   1.813
 4374SOL    HW214022   0.976   1.671   1.747
 4375SOL     OW14023   3.380   0.330   4.120
 4375SOL    HW114024   3.319   0.391   4.171
 4375SOL    HW214025   3.475   0.348   4.146
 4376SOL     OW14026   6.511   6.637   3.331
 4376SOL    HW114027   6.431   6.638   3.271
 4376SOL    HW214028   6.557   6.725   3.326
 4377SOL     OW14029   5.811   4.024   0.055
 4377SOL    HW114030   5.811   4.116   0.015
 4377SOL    HW214031   5.720   3.984   0.047
 4378SOL     OW14032   1.834   1.540   2.515
 4378SOL    HW114033   1.839   1.628   2.561
 4378SOL    HW214034   1.923   1.516   2.477
 4379SOL     OW14035   2.132   1.141   2.835
 4379SOL    HW114036   2.174   1.114   2.922
 4379SOL    HW214037   2.059   1.076   2.812
 4380SOL     OW14038   1.726   0.169   2.274
 4380SOL    HW114039   1.819   0.134   2.285
 4380SOL    HW214040   1.720   0.226   2.192
 4381SOL     OW14041   0.539   6.192   5.236
 4381SOL    HW114042   0.582   6.245   5.162
 4381SOL    HW214043   0.453   6.153   5.203
 4382SOL     OW14044   0.648   3.468   5.645
 4382SOL    HW114045   0.617   3.498   5.735
 4382SOL    HW214046   0.569   3.459   5.584
 4383SOL     OW14047   0.210   3.680   6.353
 4383SOL    HW114048   0.188   3.744   6.280
 4383SOL    HW214049   0.285   3.716   6.408
 4384SOL     OW14050   5.962   0.557   4.241
 4384SOL    HW114051   6.037   0.624   4.241
 4384SOL    HW214052   5.999   0.465   4.254
 4385SOL     OW14053   4.679   2.648   5.092
 4385SOL    HW114054   4.754   2.592   5.057
 4385SOL    HW214055   4.692   2.743   5.064
 4386SOL     OW14056   1.713   3.711   5.259
 4386SOL    HW114057   1.715   3.623   5.210
 4386SOL    HW214058   1.649   3.773   5.214
 4387SOL     OW14059   6.673   1.917   1.709
 4387SOL    HW114060   6.623   1.841   1.749
 4387SOL    HW214061   6.622   1.953   1.631
 4388SOL     OW14062   3.798   2.028   6.137
 4388SOL    HW114063   3.873   2.094   6.127
 4388SOL    HW214064   3.806   1.957   6.067
 4389SOL     OW14065   6.856   3.944   0.737
 4389SOL    HW114066   6.926   3.912   0.801
 4389SOL    HW214067   6.897   3.954   0.647
 4390SOL     OW14068   4.386   6.920   1.709
 4390SOL    HW114069   4.385   6.972   1.794
 4390SOL    HW214070   4.471   6.866   1.704
 4391SOL     OW14071   3.047   4.899   0.361
 4391SOL    HW114072   3.069   4.988   0.321
 4391SOL    HW214073   3.111   4.880   0.435
 4392SOL     OW14074   1.205   2.379   5.188
 4392SOL    HW114075   1.108   2.392   5.167
 4392SOL    HW214076   1.253   2.466   5.177
 4393SOL     OW14077   6.403   0.583   1.654
 4393SOL    HW114078   6.309   0.588   1.688
 4393SOL    HW214079   6.467   0.601   1.729
 4394SOL     OW14080   0.135   5.968   2.347
 4394SOL    HW114081   0.071   5.988   2.273
 4394SOL    HW214082   0.092   5.988   2.435
 4395SOL     OW14083   1.995   0.627   1.891
 4395SOL    HW114084   1.950   0.637   1.802
 4395SOL    HW214085   1.940   0.671   1.961
 4396SOL     OW14086   1.634   1.515   3.907
 4396SOL    HW114087   1.662   1.595   3.854
 4396SOL    HW214088   1.706   1.446   3.903
 4397SOL     OW14089   1.867   2.640   4.764
 4397SOL    HW114090   1.859   2.579   4.685
 4397SOL    HW214091   1.956   2.627   4.808
 4398SOL     OW14092   1.756   3.265   6.268
 4398SOL    HW114093   1.656   3.266   6.276
 4398SOL    HW214094   1.796   3.300   6.353
 4399SOL     OW14095   3.334   6.258   2.493
 4399SOL    HW114096   3.287   6.300   2.570
 4399SOL    HW214097   3.417   6.213   2.526
 4400SOL     OW14098   2.014   6.959   3.800
 4400SOL    HW114099   2.048   6.958   3.706
 4400SOL    HW214100   1.950   6.883   3.813
 4401SOL     OW14101   3.554   6.922   5.293
 4401SOL    HW114102   3.632   6.947   5.351
 4401SOL    HW214103   3.490   6.999   5.288
 4402SOL     OW14104   1.099   6.871   2.735
 4402SOL    HW114105   1.030   6.944   2.735
 4402SOL    HW214106   1.150   6.874   2.649
 4403SOL     OW14107   1.241   6.855   0.331
 4403SOL    HW114108   1.289   6.938   0.305
 4403SOL    HW214109   1.229   6.853   0.431
 4404SOL     OW14110   0.840   6.476   5.290
 4404SOL    HW114111   0.904   6.458   5.216
 4404SOL    HW214112   0.785   6.557   5.268
 4405SOL     OW14113   1.627   4.862   2.535
 4405SOL    HW114114   1.597   4.767   2.529
 4405SOL    HW214115   1.593   4.913   2.456
 4406SOL     OW14116   6.769   2.814   0.477
 4406SOL    HW114117   6.711   2.896   0.482
 4406SOL    HW214118   6.730   2.750   0.410
 4407SOL     OW14119   0.186   5.065   1.620
 4407SOL    HW114120   0.202   5.052   1.718
 4407SOL    HW214121   0.262   5.024   1.568
 4408SOL     OW14122   2.025   6.616   6.836
 4408SOL    HW114123   2.049   6.552   6.909
 4408SOL    HW214124   1.928   6.605   6.812
 4409SOL     OW14125   4.150   1.474   1.505
 4409SOL    HW114126   4.182   1.451   1.597
 4409SOL    HW214127   4.051   1.481   1.506
 4410SOL     OW14128   0.239   5.785   0.014
 4410SOL    HW114129   0.265   5.765   0.108
 4410SOL    HW214130   0.168   5.856   0.014
 4411SOL     OW14131   3.459   4.599   5.407
 4411SOL    HW114132   3.479   4.686   5.452
 4411SOL    HW214133   3.526   4.582   5.336
 4412SOL     OW14134   4.524   6.344   4.236
 4412SOL    HW114135   4.575   6.291   4.169
 4412SOL    HW214136   4.500   6.434   4.198
 4413SOL     OW14137   5.494   5.575   3.525
 4413SOL    HW114138   5.456   5.507   3.462
 4413SOL    HW214139   5.496   5.539   3.618
 4414SOL     OW14140   3.766   5.995   1.123
 4414SOL    HW114141   3.766   5.895   1.123
 4414SOL    HW214142   3.818   6.029   1.045
 4415SOL     OW14143   4.076   3.028   0.340
 4415SOL    HW114144   4.054   3.080   0.258
 4415SOL    HW214145   4.054   3.083   0.421
 4416SOL     OW14146   4.470   1.548   3.614
 4416SOL    HW114147   4.531   1.470   3.605
 4416SOL    HW214148   4.375   1.516   3.618
 4417SOL     OW14149   5.591   3.610   3.843
 4417SOL    HW114150   5.509   3.629   3.898
 4417SOL    HW214151   5.584   3.518   3.804
 4418SOL     OW14152   6.337   2.178   2.881
 4418SOL    HW114153   6.306   2.189   2.976
 4418SOL    HW214154   6.332   2.266   2.834
 4419SOL     OW14155   6.402   0.067   5.746
 4419SOL    HW114156   6.320   0.030   5.789
 4419SOL    HW214157   6.471   7.019   5.739
 4420SOL     OW14158   3.880   1.559   1.489
 4420SOL    HW114159   3.839   1.482   1.538
 4420SOL    HW214160   3.897   1.634   1.552
 4421SOL     OW14161   2.454   1.935   5.164
 4421SOL    HW114162   2.501   1.900   5.082
 4421SOL    HW214163   2.454   1.864   5.234
 4422SOL     OW14164   1.378   4.491   6.865
 4422SOL    HW114165   1.286   4.478   6.901
 4422SOL    HW214166   1.378   4.470   6.767
 4423SOL     OW14167   0.205   4.343   6.016
 4423SOL    HW114168   0.247   4.395   6.090
 4423SOL    HW214169   0.190   4.403   5.937
 4424SOL     OW14170   5.333   6.512   4.652
 4424SOL    HW114171   5.389   6.430   4.665
 4424SOL    HW214172   5.237   6.486   4.650
 4425SOL     OW14173   1.725   5.264   0.863
 4425SOL    HW114174   1.661   5.322   0.814
 4425SOL    HW214175   1.783   5.320   0.922
 4426SOL     OW14176   0.655   1.571   3.945
 4426SOL    HW114177   0.755   1.572   3.938
 4426SOL    HW214178   0.620   1.665   3.943
 4427SOL     OW14179   4.678   6.126   2.724
 4427SOL    HW114180   4.613   6.051   2.712
 4427SOL    HW214181   4.689   6.174   2.637
 4428SOL     OW14182   4.308   0.507   4.132
 4428SOL    HW114183   4.274   0.517   4.226
 4428SOL    HW214184   4.345   0.594   4.101
 4429SOL     OW14185   2.866   6.439   2.538
 4429SOL    HW114186   2.825   6.529   2.551
 4429SOL    HW214187   2.946   6.447   2.478
 4430SOL     OW14188   4.840   4.584   4.910
 4430SOL    HW114189   4.786   4.646   4.854
 4430SOL    HW214190   4.822   4.489   4.883
 4431SOL     OW14191   2.972   0.916   3.248
 4431SOL    HW114192   2.964   0.869   3.160
 4431SOL    HW214193   2.954   1.014   3.235
 4432SOL     OW14194   2.312   3.685   6.532
 4432SOL    HW114195   2.297   3.746   6.454
 4432SOL    HW214196   2.410   3.670   6.544
 4433SOL     OW14197   0.042   2.764   4.304
 4433SOL    HW114198   0.050   2.680   4.359
 4433SOL    HW214199   0.113   2.765   4.234
 4434SOL     OW14200   5.226   1.772   3.350
 4434SOL    HW114201   5.151   1.763   3.416
 4434SOL    HW214202   5.196   1.830   3.274
 4435SOL     OW14203   4.367   3.735   1.322
 4435SOL    HW114204   4.287   3.795   1.325
 4435SOL    HW214205   4.338   3.641   1.334
 4436SOL     OW14206   4.015   1.095   1.198
 4436SOL    HW114207   4.094   1.134   1.244
 4436SOL    HW214208   3.943   1.076   1.265
 4437SOL     OW14209   0.843   3.135   2.745
 4437SOL    HW114210   0.802   3.120   2.655
 4437SOL    HW214211   0.789   3.088   2.814
 4438SOL     OW14212   4.719   6.709   5.965
 4438SOL    HW114213   4.766   6.691   5.879
 4438SOL    HW214214   4.786   6.736   6.034
 4439SOL     OW14215   0.544   4.951   2.483
 4439SOL    HW114216   0.559   4.881   2.413
 4439SOL    HW214217   0.525   4.908   2.571
 4440SOL     OW14218   2.708   5.377   0.724
 4440SOL    HW114219   2.801   5.367   0.758
 4440SOL    HW214220   2.652   5.424   0.792
 4441SOL     OW14221   0.040   1.126   1.130
 4441SOL    HW114222   0.071   1.133   1.036
 4441SOL    HW214223   0.003   1.214   1.161
 4442SOL     OW14224   1.719   5.649   4.870
 4442SOL    HW114225   1.666   5.564   4.866
 4442SOL    HW214226   1.757   5.661   4.962
 4443SOL     OW14227   0.897   4.007   5.834
 4443SOL    HW114228   0.978   4.066   5.843
 4443SOL    HW214229   0.823   4.044   5.890
 4444SOL     OW14230   4.453   3.248   0.138
 4444SOL    HW114231   4.521   3.295   0.193
 4444SOL    HW214232   4.494   3.219   0.051
 4445SOL     OW14233   1.490   6.239   7.004
 4445SOL    HW114234   1.497   6.164   0.046
 4445SOL    HW214235   1.456   6.321   0.026
 4446SOL     OW14236   5.942   1.872   0.289
 4446SOL    HW114237   5.912   1.830   0.375
 4446SOL    HW214238   5.871   1.860   0.220
 4447SOL     OW14239   6.188   4.086   4.675
 4447SOL    HW114240   6.192   4.083   4.575
 4447SOL    HW214241   6.224   4.001   4.712
 4448SOL     OW14242   3.022   6.337   0.853
 4448SOL    HW114243   3.049   6.431   0.875
 4448SOL    HW214244   3.071   6.306   0.772
 4449SOL     OW14245   5.040   0.863   5.648
 4449SOL    HW114246   5.095   0.834   5.569
 4449SOL    HW214247   5.015   0.959   5.637
 4450SOL     OW14248   3.048   1.847   0.075
 4450SOL    HW114249   3.044   1.867   7.001
 4450SOL    HW214250   3.144   1.851   0.106
 4451SOL     OW14251   4.873   4.989   4.918
 4451SOL    HW114252   4.819   5.037   4.850
 4451SOL    HW214253   4.816   4.966   4.997
 4452SOL     OW14254   6.374   5.176   4.460
 4452SOL    HW114255   6.361   5.114   4.383
 4452SOL    HW214256   6.400   5.266   4.427
 4453SOL     OW14257   0.916   2.643   1.972
 4453SOL    HW114258   0.956   2.699   2.045
 4453SOL    HW214259   0.948   2.677   1.884
 4454SOL     OW14260   1.179   1.576   0.057
 4454SOL    HW114261   1.278   1.567   0.062
 4454SOL    HW214262   1.146   1.619   0.142
 4455SOL     OW14263   5.452   6.066   5.667
 4455SOL    HW114264   5.371   6.020   5.631
 4455SOL    HW214265   5.534   6.026   5.624
 4456SOL     OW14266   2.162   5.747   2.981
 4456SOL    HW114267   2.250   5.727   2.939
 4456SOL    HW214268   2.105   5.798   2.916
 4457SOL     OW14269   2.561   1.735   3.876
 4457SOL    HW114270   2.619   1.742   3.957
 4457SOL    HW214271   2.616   1.757   3.795
 4458SOL     OW14272   2.827   3.726   1.785
 4458SOL    HW114273   2.741   3.775   1.772
 4458SOL    HW214274   2.812   3.628   1.771
 4459SOL     OW14275   3.588   1.817   4.193
 4459SOL    HW114276   3.649   1.817   4.114
 4459SOL    HW214277   3.564   1.911   4.217
 4460SOL     OW14278   1.351   2.862   6.541
 4460SOL    HW114279   1.389   2.906   6.459
 4460SOL    HW214280   1.323   2.769   6.518
 4461SOL     OW14281   1.879   0.769   0.685
 4461SOL    HW114282   1.861   0.708   0.763
 4461SOL    HW214283   1.916   0.717   0.609
 4462SOL     OW14284   5.630   4.373   1.668
 4462SOL    HW114285   5.646   4.336   1.576
 4462SOL    HW214286   5.704   4.436   1.691
 4463SOL     OW14287   4.825   1.049   1.296
 4463SOL    HW114288   4.879   0.967   1.276
 4463SOL    HW214289   4.878   1.131   1.274
 4464SOL     OW14290   0.101   6.528   0.510
 4464SOL    HW114291   0.060   6.600   0.455
 4464SOL    HW214292   0.136   6.456   0.450
 4465SOL     OW14293   2.347   5.295   0.045
 4465SOL    HW114294   2.356   5.384   0.002
 4465SOL    HW214295   2.252   5.281   0.074
 4466SOL     OW14296   1.125   1.711   2.647
 4466SOL    HW114297   1.223   1.727   2.648
 4466SOL    HW214298   1.100   1.649   2.722
 4467SOL     OW14299   2.520   5.267   3.546
 4467SOL    HW114300   2.449   5.202   3.572
 4467SOL    HW214301   2.511   5.289   3.449
 4468SOL     OW14302   1.504   4.508   1.203
 4468SOL    HW114303   1.412   4.478   1.179
 4468SOL    HW214304   1.563   4.504   1.123
 4469SOL     OW14305   3.466   0.851   1.354
 4469SOL    HW114306   3.523   0.793   1.297
 4469SOL    HW214307   3.431   0.927   1.299
 4470SOL     OW14308   0.751   1.672   2.265
 4470SOL    HW114309   0.785   1.593   2.213
 4470SOL    HW214310   0.661   1.650   2.302
 4471SOL     OW14311   1.736   2.587   6.808
 4471SOL    HW114312   1.638   2.577   6.792
 4471SOL    HW214313   1.758   2.554   6.900
 4472SOL     OW14314   0.888   1.781   0.959
 4472SOL    HW114315   0.879   1.817   0.866
 4472SOL    HW214316   0.804   1.797   1.009
 4473SOL     OW14317   5.390   2.618   4.057
 4473SOL    HW114318   5.481   2.660   4.053
 4473SOL    HW214319   5.323   2.687   4.085
 4474SOL     OW14320   3.147   6.587   2.127
 4474SOL    HW114321   3.107   6.663   2.076
 4474SOL    HW214322   3.178   6.517   2.063
 4475SOL     OW14323   1.335   3.754   1.628
 4475SOL    HW114324   1.270   3.778   1.701
 4475SOL    HW214325   1.317   3.811   1.548
 4476SOL     OW14326   6.186   0.733   4.112
 4476SOL    HW114327   6.246   0.727   4.192
 4476SOL    HW214328   6.238   0.713   4.029
 4477SOL     OW14329   1.810   0.441   5.338
 4477SOL    HW114330   1.751   0.363   5.314
 4477SOL    HW214331   1.806   0.457   5.436
 4478SOL     OW14332   2.159   0.174   2.044
 4478SOL    HW114333   2.109   0.088   2.045
 4478SOL    HW214334   2.096   0.250   2.026
 4479SOL     OW14335   1.295   1.898   1.158
 4479SOL    HW114336   1.281   1.996   1.144
 4479SOL    HW214337   1.276   1.875   1.254
 4480SOL     OW14338   0.607   4.821   5.100
 4480SOL    HW114339   0.605   4.816   5.000
 4480SOL    HW214340   0.530   4.877   5.132
 4481SOL     OW14341   2.325   5.112   5.066
 4481SOL    HW114342   2.376   5.062   5.136
 4481SOL    HW214343   2.387   5.170   5.014
 4482SOL     OW14344   2.235   2.758   5.556
 4482SOL    HW114345   2.320   2.746   5.608
 4482SOL    HW214346   2.256   2.786   5.463
 4483SOL     OW14347   0.319   2.442   1.902
 4483SOL    HW114348   0.271   2.478   1.822
 4483SOL    HW214349   0.375   2.364   1.876
 4484SOL     OW14350   2.459   2.540   0.215
 4484SOL    HW114351   2.505   2.496   0.293
 4484SOL    HW214352   2.360   2.540   0.230
 4485SOL     OW14353   4.857   2.483   4.972
 4485SOL    HW114354   4.813   2.412   4.917
 4485SOL    HW214355   4.945   2.508   4.931
 4486SOL     OW14356   6.276   5.247   5.136
 4486SOL    HW114357   6.327   5.305   5.073
 4486SOL    HW214358   6.178   5.254   5.116
 4487SOL     OW14359   2.791   3.192   0.517
 4487SOL    HW114360   2.836   3.254   0.581
 4487SOL    HW214361   2.787   3.235   0.426
 4488SOL     OW14362   0.882   3.747   4.911
 4488SOL    HW114363   0.963   3.724   4.856
 4488SOL    HW214364   0.800   3.733   4.856
 4489SOL     OW14365   4.692   5.262   5.040
 4489SOL    HW114366   4.713   5.277   5.136
 4489SOL    HW214367   4.613   5.202   5.032
 4490SOL     OW14368   5.351   1.535   1.725
 4490SOL    HW114369   5.371   1.499   1.816
 4490SOL    HW214370   5.332   1.633   1.731
 4491SOL     OW14371   0.525   3.476   3.352
 4491SOL    HW114372   0.592   3.404   3.334
 4491SOL    HW214373   0.548   3.523   3.437
 4492SOL     OW14374   6.108   3.266   1.686
 4492SOL    HW114375   6.123   3.226   1.776
 4492SOL    HW214376   6.175   3.339   1.671
 4493SOL     OW14377   4.915   6.307   5.147
 4493SOL    HW114378   5.004   6.262   5.152
 4493SOL    HW214379   4.843   6.238   5.139
 4494SOL     OW14380   1.214   0.853   6.054
 4494SOL    HW114381   1.253   0.763   6.071
 4494SOL    HW214382   1.260   0.895   5.975
 4495SOL     OW14383   4.600   0.028   3.097
 4495SOL    HW114384   4.608   6.969   3.152
 4495SOL    HW214385   4.522   0.081   3.129
 4496SOL     OW14386   5.337   6.100   0.657
 4496SOL    HW114387   5.331   6.196   0.631
 4496SOL    HW214388   5.380   6.092   0.747
 4497SOL     OW14389   4.195   2.388   6.358
 4497SOL    HW114390   4.198   2.488   6.348
 4497SOL    HW214391   4.276   2.349   6.315
 4498SOL     OW14392   6.791   4.757   6.487
 4498SOL    HW114393   6.702   4.713   6.483
 4498SOL    HW214394   6.861   4.689   6.510
 4499SOL     OW14395   6.546   2.567   3.606
 4499SOL    HW114396   6.475   2.606   3.665
 4499SOL    HW214397   6.597   2.641   3.562
 4500SOL     OW14398   3.985   3.993   6.653
 4500SOL    HW114399   4.075   3.985   6.610
 4500SOL    HW214400   3.916   3.949   6.596
 4501SOL     OW14401   6.462   2.968   2.947
 4501SOL    HW114402   6.557   2.996   2.962
 4501SOL    HW214403   6.458   2.870   2.927
 4502SOL     OW14404   1.452   3.733   0.044
 4502SOL    HW114405   1.459   3.634   0.028
 4502SOL    HW214406   1.542   3.768   0.069
 4503SOL     OW14407   3.257   6.926   2.152
 4503SOL    HW114408   3.299   7.014   2.129
 4503SOL    HW214409   3.221   6.929   2.245
 4504SOL     OW14410   6.132   2.016   4.489
 4504SOL    HW114411   6.121   1.956   4.568
 4504SOL    HW214412   6.100   2.108   4.513
 4505SOL     OW14413   6.527   4.609   1.664
 4505SOL    HW114414   6.490   4.593   1.573
 4505SOL    HW214415   6.626   4.626   1.657
 4506SOL     OW14416   5.127   2.579   3.213
 4506SOL    HW114417   5.041   2.619   3.180
 4506SOL    HW214418   5.118   2.480   3.216
 4507SOL     OW14419   0.204   3.241   3.494
 4507SOL    HW114420   0.287   3.231   3.550
 4507SOL    HW214421   0.225   3.297   3.413
 4508SOL     OW14422   1.367   4.975   0.180
 4508SOL    HW114423   1.272   4.991   0.204
 4508SOL    HW214424   1.414   4.931   0.258
 4509SOL     OW14425   4.690   1.815   3.225
 4509SOL    HW114426   4.778   1.768   3.212
 4509SOL    HW214427   4.630   1.795   3.148
 4510SOL     OW14428   4.540   0.938   4.702
 4510SOL    HW114429   4.478   0.999   4.750
 4510SOL    HW214430   4.498   0.907   4.616
 4511SOL     OW14431   6.085   3.602   0.283
 4511SOL    HW114432   6.051   3.508   0.290
 4511SOL    HW214433   6.018   3.665   0.322
 4512SOL     OW14434   3.531   1.787   6.421
 4512SOL    HW114435   3.592   1.709   6.411
 4512SOL    HW214436   3.520   1.833   6.333
 4513SOL     OW14437   1.080   5.966   6.214
 4513SOL    HW114438   1.117   6.053   6.245
 4513SOL    HW214439   1.001   5.982   6.155
 4514SOL     OW14440   3.828   2.678   6.397
 4514SOL    HW114441   3.808   2.586   6.366
 4514SOL    HW214442   3.777   2.744   6.341
 4515SOL     OW14443   5.428   2.007   5.252
 4515SOL    HW114444   5.438   2.000   5.352
 4515SOL    HW214445   5.422   1.915   5.213
 4516SOL     OW14446   2.529   0.216   5.465
 4516SOL    HW114447   2.517   0.246   5.371
 4516SOL    HW214448   2.469   0.269   5.525
 4517SOL     OW14449   4.711   6.863   6.327
 4517SOL    HW114450   4.639   6.800   6.357
 4517SOL    HW214451   4.674   6.955   6.319
 4518SOL     OW14452   0.702   6.814   1.759
 4518SOL    HW114453   0.760   6.870   1.818
 4518SOL    HW214454   0.609   6.809   1.798
 4519SOL     OW14455   4.976   6.683   7.018
 4519SOL    HW114456   4.977   6.613   6.947
 4519SOL    HW214457   4.881   6.712   0.011
 4520SOL     OW14458   4.188   5.510   5.761
 4520SOL    HW114459   4.197   5.581   5.831
 4520SOL    HW214460   4.278   5.471   5.742
 4521SOL     OW14461   4.864   2.154   4.406
 4521SOL    HW114462   4.891   2.181   4.498
 4521SOL    HW214463   4.781   2.202   4.379
 4522SOL     OW14464   5.647   4.293   2.366
 4522SOL    HW114465   5.572   4.248   2.415
 4522SOL    HW214466   5.725   4.305   2.427
 4523SOL     OW14467   1.678   4.040   6.819
 4523SOL    HW114468   1.672   3.941   6.807
 4523SOL    HW214469   1.734   4.060   6.900
 4524SOL     OW14470   6.131   3.296   2.269
 4524SOL    HW114471   6.100   3.388   2.293
 4524SOL    HW214472   6.202   3.267   2.333
 4525SOL     OW14473   3.233   2.075   6.034
 4525SOL    HW114474   3.261   2.096   6.127
 4525SOL    HW214475   3.260   1.981   6.011
 4526SOL     OW14476   0.020   0.575   6.682
 4526SOL    HW114477   0.059   0.520   6.755
 4526SOL    HW214478   0.081   0.652   6.663
 4527SOL     OW14479   6.518   6.699   2.879
 4527SOL    HW114480   6.557   6.735   2.794
 4527SOL    HW214481   6.428   6.740   2.895
 4528SOL     OW14482   4.342   0.772   6.552
 4528SOL    HW114483   4.328   0.720   6.637
 4528SOL    HW214484   4.384   0.713   6.484
 4529SOL     OW14485   2.724   1.394   5.979
 4529SOL    HW114486   2.782   1.381   5.899
 4529SOL    HW214487   2.644   1.335   5.971
 4530SOL     OW14488   2.197   5.775   3.478
 4530SOL    HW114489   2.201   5.847   3.409
 4530SOL    HW214490   2.126   5.708   3.454
 4531SOL     OW14491   1.222   3.505   6.442
 4531SOL    HW114492   1.254   3.583   6.388
 4531SOL    HW214493   1.151   3.456   6.391
 4532SOL     OW14494   5.772   0.374   2.804
 4532SOL    HW114495   5.759   0.386   2.705
 4532SOL    HW214496   5.868   0.393   2.827
 4533SOL     OW14497   1.852   1.385   2.774
 4533SOL    HW114498   1.857   1.406   2.676
 4533SOL    HW214499   1.818   1.292   2.787
 4534SOL     OW14500   4.571   2.232   5.336
 4534SOL    HW114501   4.604   2.190   5.251
 4534SOL    HW214502   4.641   2.293   5.373
 4535SOL     OW14503   3.824   1.023   1.421
 4535SOL    HW114504   3.862   1.049   1.510
 4535SOL    HW214505   3.857   0.932   1.396
 4536SOL     OW14506   3.289   1.529   4.783
 4536SOL    HW114507   3.213   1.542   4.720
 4536SOL    HW214508   3.255   1.526   4.877
 4537SOL     OW14509   4.125   3.475   2.250
 4537SOL    HW114510   4.047   3.483   2.187
 4537SOL    HW214511   4.209   3.460   2.198
 4538SOL     OW14512   2.537   0.936   2.537
 4538SOL    HW114513   2.630   0.899   2.529
 4538SOL    HW214514   2.539   1.018   2.595
 4539SOL     OW14515   2.395   5.706   4.177
 4539SOL    HW114516   2.320   5.727   4.239
 4539SOL    HW214517   2.360   5.692   4.085
 4540SOL     OW14518   2.352   1.269   0.709
 4540SOL    HW114519   2.420   1.291   0.639
 4540SOL    HW214520   2.355   1.336   0.782
 4541SOL     OW14521   5.269   1.188   6.952
 4541SOL    HW114522   5.345   1.223   6.897
 4541SOL    HW214523   5.281   1.091   6.968
 4542SOL     OW14524   6.763   1.474   1.817
 4542SOL    HW114525   6.771   1.470   1.717
 4542SOL    HW214526   6.751   1.569   1.846
 4543SOL     OW14527   4.936   1.959   0.820
 4543SOL    HW114528   5.029   1.939   0.790
 4543SOL    HW214529   4.923   2.058   0.824
 4544SOL     OW14530   4.032   5.012   0.568
 4544SOL    HW114531   4.102   5.082   0.574
 4544SOL    HW214532   3.941   5.055   0.568
 4545SOL     OW14533   0.466   3.533   5.405
 4545SOL    HW114534   0.427   3.623   5.385
 4545SOL    HW214535   0.564   3.534   5.388
 4546SOL     OW14536   2.756   0.143   4.936
 4546SOL    HW114537   2.786   0.238   4.932
 4546SOL    HW214538   2.689   0.126   4.864
 4547SOL     OW14539   6.163   1.124   0.200
 4547SOL    HW114540   6.212   1.203   0.237
 4547SOL    HW214541   6.223   1.075   0.136
 4548SOL     OW14542   2.723   2.389   3.273
 4548SOL    HW114543   2.641   2.439   3.244
 4548SOL    HW214544   2.744   2.319   3.205
 4549SOL     OW14545   5.037   3.826   2.407
 4549SOL    HW114546   5.127   3.784   2.400
 4549SOL    HW214547   4.977   3.789   2.337
 4550SOL     OW14548   1.223   4.076   3.619
 4550SOL    HW114549   1.197   4.132   3.540
 4550SOL    HW214550   1.322   4.061   3.619
 4551SOL     OW14551   0.784   4.045   5.212
 4551SOL    HW114552   0.871   4.001   5.193
 4551SOL    HW214553   0.710   3.979   5.204
 4552SOL     OW14554   5.610   2.430   1.166
 4552SOL    HW114555   5.636   2.337   1.140
 4552SOL    HW214556   5.692   2.483   1.188
 4553SOL     OW14557   5.399   4.665   6.541
 4553SOL    HW114558   5.484   4.626   6.576
 4553SOL    HW214559   5.321   4.615   6.577
 4554SOL     OW14560   0.254   0.348   1.889
 4554SOL    HW114561   0.260   0.278   1.818
 4554SOL    HW214562   0.170   0.336   1.941
 4555SOL     OW14563   1.773   1.307   6.562
 4555SOL    HW114564   1.684   1.261   6.552
 4555SOL    HW214565   1.767   1.399   6.522
 4556SOL     OW14566   6.039   3.247   5.092
 4556SOL    HW114567   6.035   3.346   5.102
 4556SOL    HW214568   6.039   3.204   5.183
 4557SOL     OW14569   6.089   4.953   4.420
 4557SOL    HW114570   6.110   4.949   4.518
 4557SOL    HW214571   6.013   4.892   4.400
 4558SOL     OW14572   6.888   3.519   4.916
 4558SOL    HW114573   6.837   3.521   5.002
 4558SOL    HW214574   6.825   3.500   4.841
 4559SOL     OW14575   6.952   3.404   2.755
 4559SOL    HW114576   6.897   3.440   2.679
 4559SOL    HW214577   0.021   3.384   2.723
 4560SOL     OW14578   6.350   4.516   2.598
 4560SOL    HW114579   6.251   4.530   2.589
 4560SOL    HW214580   6.394   4.603   2.620
 4561SOL     OW14581   3.569   1.350   3.710
 4561SOL    HW114582   3.473   1.371   3.731
 4561SOL    HW214583   3.622   1.434   3.704
 4562SOL     OW14584   1.547   0.320   0.235
 4562SOL    HW114585   1.580   0.299   0.143
 4562SOL    HW214586   1.515   0.414   0.238
 4563SOL     OW14587   6.529   3.438   0.800
 4563SOL    HW114588   6.504   3.511   0.863
 4563SOL    HW214589   6.626   3.418   0.809
 4564SOL     OW14590   0.323   5.104   2.291
 4564SOL    HW114591   0.274   5.040   2.350
 4564SOL    HW214592   0.390   5.055   2.236
 4565SOL     OW14593   1.472   1.314   4.566
 4565SOL    HW114594   1.489   1.220   4.537
 4565SOL    HW214595   1.375   1.327   4.585
 4566SOL     OW14596   0.415   3.197   1.137
 4566SOL    HW114597   0.492   3.141   1.168
 4566SOL    HW214598   0.393   3.175   1.042
 4567SOL     OW14599   6.875   1.003   6.651
 4567SOL    HW114600   6.847   0.989   6.746
 4567SOL    HW214601   6.833   0.932   6.594
 4568SOL     OW14602   1.151   4.168   5.166
 4568SOL    HW114603   1.106   4.168   5.256
 4568SOL    HW214604   1.113   4.094   5.111
 4569SOL     OW14605   3.042   0.470   3.043
 4569SOL    HW114606   2.946   0.485   3.064
 4569SOL    HW214607   3.055   0.473   2.944
 4570SOL     OW14608   6.071   6.471   1.985
 4570SOL    HW114609   6.167   6.499   1.993
 4570SOL    HW214610   6.056   6.426   1.897
 4571SOL     OW14611   4.367   2.993   6.631
 4571SOL    HW114612   4.356   2.899   6.598
 4571SOL    HW214613   4.279   3.040   6.628
 4572SOL     OW14614   2.027   1.289   6.423
 4572SOL    HW114615   2.053   1.386   6.423
 4572SOL    HW214616   1.951   1.276   6.486
 4573SOL     OW14617   0.616   0.053   0.391
 4573SOL    HW114618   0.595   7.020   0.311
 4573SOL    HW214619   0.609   0.150   0.366
 4574SOL     OW14620   5.485   4.427   6.906
 4574SOL    HW114621   5.536   4.442   6.821
 4574SOL    HW214622   5.546   4.392   6.976
 4575SOL     OW14623   5.873   0.464   4.812
 4575SOL    HW114624   5.877   0.468   4.712
 4575SOL    HW214625   5.858   0.370   4.842
 4576SOL     OW14626   2.589   4.651   5.449
 4576SOL    HW114627   2.601   4.576   5.384
 4576SOL    HW214628   2.657   4.643   5.522
 4577SOL     OW14629   2.071   2.626   3.117
 4577SOL    HW114630   2.128   2.707   3.116
 4577SOL    HW214631   1.988   2.643   3.171
 4578SOL     OW14632   0.982   1.287   4.274
 4578SOL    HW114633   1.060   1.349   4.276
 4578SOL    HW214634   0.905   1.327   4.324
 4579SOL     OW14635   4.198   1.271   2.024
 4579SOL    HW114636   4.267   1.234   2.085
 4579SOL    HW214637   4.125   1.314   2.078
 4580SOL     OW14638   5.473   3.871   0.956
 4580SOL    HW114639   5.536   3.916   1.019
 4580SOL    HW214640   5.409   3.939   0.919
 4581SOL     OW14641   2.575   6.068   2.514
 4581SOL    HW114642   2.670   6.097   2.504
 4581SOL    HW214643   2.523   6.094   2.433
 4582SOL     OW14644   4.874   1.220   3.349
 4582SOL    HW114645   4.803   1.229   3.279
 4582SOL    HW214646   4.852   1.142   3.408
 4583SOL     OW14647   2.833   1.100   6.615
 4583SOL    HW114648   2.850   1.168   6.687
 4583SOL    HW214649   2.858   1.138   6.526
 4584SOL     OW14650   1.762   6.174   5.422
 4584SOL    HW114651   1.847   6.121   5.425
 4584SOL    HW214652   1.748   6.218   5.511
 4585SOL     OW14653   1.781   4.352   3.419
 4585SOL    HW114654   1.686   4.344   3.451
 4585SOL    HW214655   1.782   4.403   3.333
 4586SOL     OW14656   4.934   4.024   6.997
 4586SOL    HW114657   4.848   3.983   0.004
 4586SOL    HW214658   5.006   3.954   6.996
 4587SOL     OW14659   3.801   3.584   4.288
 4587SOL    HW114660   3.809   3.500   4.234
 4587SOL    HW214661   3.890   3.628   4.295
 4588SOL     OW14662   3.272   2.948   5.997
 4588SOL    HW114663   3.250   2.851   5.998
 4588SOL    HW214664   3.270   2.984   6.091
 4589SOL     OW14665   5.215   6.749   1.841
 4589SOL    HW114666   5.267   6.664   1.839
 4589SOL    HW214667   5.219   6.789   1.933
 4590SOL     OW14668   3.833   5.635   1.702
 4590SOL    HW114669   3.808   5.685   1.619
 4590SOL    HW214670   3.878   5.698   1.766
 4591SOL     OW14671   1.649   0.599   5.136
 4591SOL    HW114672   1.701   0.559   5.211
 4591SOL    HW214673   1.626   0.527   5.069
 4592SOL     OW14674   3.357   1.385   3.451
 4592SOL    HW114675   3.335   1.443   3.530
 4592SOL    HW214676   3.456   1.380   3.441
 4593SOL     OW14677   6.052   6.034   2.089
 4593SOL    HW114678   5.997   5.955   2.117
 4593SOL    HW214679   6.149   6.011   2.098
 4594SOL     OW14680   3.464   0.444   3.241
 4594SOL    HW114681   3.416   0.384   3.178
 4594SOL    HW214682   3.471   0.400   3.331
 4595SOL     OW14683   4.801   2.975   5.558
 4595SOL    HW114684   4.730   2.909   5.583
 4595SOL    HW214685   4.760   3.050   5.506
 4596SOL     OW14686   6.468   0.348   2.698
 4596SOL    HW114687   6.475   0.419   2.628
 4596SOL    HW214688   6.421   0.385   2.779
 4597SOL     OW14689   2.721   5.482   6.393
 4597SOL    HW114690   2.785   5.425   6.341
 4597SOL    HW214691   2.685   5.429   6.470
 4598SOL     OW14692   1.760   5.610   1.374
 4598SOL    HW114693   1.682   5.649   1.325
 4598SOL    HW214694   1.737   5.601   1.471
 4599SOL     OW14695   1.501   4.555   1.673
 4599SOL    HW114696   1.548   4.640   1.649
 4599SOL    HW214697   1.493   4.498   1.591
 4600SOL     OW14698   0.529   0.146   5.066
 4600SOL    HW114699   0.475   0.082   5.119
 4600SOL    HW214700   0.625   0.139   5.094
 4601SOL     OW14701   0.924   1.777   5.242
 4601SOL    HW114702   0.875   1.780   5.329
 4601SOL    HW214703   0.939   1.681   5.216
 4602SOL     OW14704   2.993   6.853   6.398
 4602SOL    HW114705   2.910   6.869   6.343
 4602SOL    HW214706   2.997   6.757   6.425
 4603SOL     OW14707   3.171   5.953   0.779
 4603SOL    HW114708   3.250   6.008   0.805
 4603SOL    HW214709   3.154   5.964   0.681
 4604SOL     OW14710   4.950   6.964   6.254
 4604SOL    HW114711   4.978   0.023   6.302
 4604SOL    HW214712   4.861   6.933   6.288
 4605SOL     OW14713   2.514   0.020   1.978
 4605SOL    HW114714   2.525   6.974   1.907
 4605SOL    HW214715   2.459   0.095   1.942
 4606SOL     OW14716   6.338   0.007   2.527
 4606SOL    HW114717   6.284   6.951   2.556
 4606SOL    HW214718   6.422   6.999   2.483
 4607SOL     OW14719   2.140   3.563   2.895
 4607SOL    HW114720   2.040   3.574   2.893
 4607SOL    HW214721   2.183   3.652   2.882
 4608SOL     OW14722   0.077   3.837   3.254
 4608SOL    HW114723   0.083   3.857   3.156
 4608SOL    HW214724   0.070   3.738   3.268
 4609SOL     OW14725   4.792   5.192   6.959
 4609SOL    HW114726   4.801   5.209   0.033
 4609SOL    HW214727   4.879   5.157   6.923
 4610SOL     OW14728   4.572   1.881   6.940
 4610SOL    HW114729   4.495   1.918   6.887
 4610SOL    HW214730   4.619   1.812   6.885
 4611SOL     OW14731   0.671   0.681   5.919
 4611SOL    HW114732   0.623   0.596   5.898
 4611SOL    HW214733   0.609   0.744   5.966
 4612SOL     OW14734   2.925   6.942   1.771
 4612SOL    HW114735   2.898   0.014   1.782
 4612SOL    HW214736   3.008   6.925   1.823
 4613SOL     OW14737   1.277   5.667   3.018
 4613SOL    HW114738   1.356   5.704   3.067
 4613SOL    HW214739   1.284   5.690   2.921
 4614SOL     OW14740   6.091   3.263   3.889
 4614SOL    HW114741   6.076   3.332   3.819
 4614SOL    HW214742   6.074   3.172   3.851
 4615SOL     OW14743   1.116   0.441   1.026
 4615SOL    HW114744   1.169   0.493   0.958
 4615SOL    HW214745   1.178   0.386   1.082
 4616SOL     OW14746   5.943   2.354   4.039
 4616SOL    HW114747   5.859   2.407   4.029
 4616SOL    HW214748   6.009   2.382   3.970
 4617SOL     OW14749   1.890   2.116   1.943
 4617SOL    HW114750   1.794   2.121   1.916
 4617SOL    HW214751   1.902   2.161   2.031
 4618SOL     OW14752   2.140   3.213   5.916
 4618SOL    HW114753   2.201   3.202   5.837
 4618SOL    HW214754   2.123   3.310   5.933
 4619SOL     OW14755   3.406   6.616   4.034
 4619SOL    HW114756   3.392   6.684   4.106
 4619SOL    HW214757   3.391   6.659   3.945
 4620SOL     OW14758   0.721   4.491   1.236
 4620SOL    HW114759   0.665   4.515   1.316
 4620SOL    HW214760   0.696   4.400   1.204
 4621SOL     OW14761   5.252   1.092   2.803
 4621SOL    HW114762   5.219   1.093   2.709
 4621SOL    HW214763   5.261   0.997   2.835
 4622SOL     OW14764   3.970   4.809   1.149
 4622SOL    HW114765   3.872   4.805   1.132
 4622SOL    HW214766   3.997   4.901   1.175
 4623SOL     OW14767   3.554   5.001   0.764
 4623SOL    HW114768   3.529   5.082   0.818
 4623SOL    HW214769   3.526   5.014   0.669
 4624SOL     OW14770   3.253   1.143   3.370
 4624SOL    HW114771   3.301   1.230   3.375
 4624SOL    HW214772   3.316   1.072   3.339
 4625SOL     OW14773   2.099   5.183   1.867
 4625SOL    HW114774   2.027   5.154   1.929
 4625SOL    HW214775   2.170   5.113   1.863
 4626SOL     OW14776   3.946   4.711   1.601
 4626SOL    HW114777   4.025   4.754   1.645
 4626SOL    HW214778   3.977   4.652   1.527
 4627SOL     OW14779   0.721   5.907   5.036
 4627SOL    HW114780   0.649   5.898   5.104
 4627SOL    HW214781   0.761   5.999   5.041
 4628SOL     OW14782   4.639   4.749   4.734
 4628SOL    HW114783   4.569   4.678   4.733
 4628SOL    HW214784   4.657   4.779   4.641
 4629SOL     OW14785   2.423   4.816   6.092
 4629SOL    HW114786   2.478   4.740   6.126
 4629SOL    HW214787   2.466   4.903   6.120
 4630SOL     OW14788   2.297   4.798   2.582
 4630SOL    HW114789   2.248   4.866   2.528
 4630SOL    HW214790   2.330   4.839   2.667
 4631SOL     OW14791   0.700   6.502   3.663
 4631SOL    HW114792   0.754   6.471   3.584
 4631SOL    HW214793   0.757   6.501   3.745
 4632SOL     OW14794   2.192   4.929   3.339
 4632SOL    HW114795   2.197   4.929   3.239
 4632SOL    HW214796   2.098   4.948   3.367
 4633SOL     OW14797   5.399   1.105   4.666
 4633SOL    HW114798   5.309   1.149   4.670
 4633SOL    HW214799   5.429   1.082   4.759
 4634SOL     OW14800   2.543   3.920   5.393
 4634SOL    HW114801   2.563   4.010   5.432
 4634SOL    HW214802   2.501   3.931   5.303
 4635SOL     OW14803   4.296   4.509   1.827
 4635SOL    HW114804   4.315   4.411   1.828
 4635SOL    HW214805   4.377   4.559   1.858
 4636SOL     OW14806   1.962   4.916   0.484
 4636SOL    HW114807   1.883   4.961   0.527
 4636SOL    HW214808   1.941   4.896   0.388
 4637SOL     OW14809   0.781   6.727   0.509
 4637SOL    HW114810   0.830   6.641   0.491
 4637SOL    HW214811   0.687   6.719   0.476
 4638SOL     OW14812   3.531   5.963   6.387
 4638SOL    HW114813   3.478   5.881   6.410
 4638SOL    HW214814   3.610   5.938   6.332
 4639SOL     OW14815   2.691   2.552   6.340
 4639SOL    HW114816   2.695   2.545   6.241
 4639SOL    HW214817   2.624   2.488   6.376
 4640SOL     OW14818   6.015   2.880   4.200
 4640SOL    HW114819   5.965   2.808   4.249
 4640SOL    HW214820   5.982   2.970   4.228
 4641SOL     OW14821   2.200   0.587   3.960
 4641SOL    HW114822   2.163   0.635   3.880
 4641SOL    HW214823   2.289   0.625   3.984
 4642SOL     OW14824   1.385   0.110   2.881
 4642SOL    HW114825   1.450   0.055   2.933
 4642SOL    HW214826   1.393   0.089   2.783
 4643SOL     OW14827   6.620   2.465   0.882
 4643SOL    HW114828   6.591   2.551   0.925
 4643SOL    HW214829   6.559   2.445   0.805
 4644SOL     OW14830   0.358   0.929   5.588
 4644SOL    HW114831   0.317   0.838   5.598
 4644SOL    HW214832   0.365   0.951   5.490
 4645SOL     OW14833   1.520   1.051   4.445
 4645SOL    HW114834   1.522   0.961   4.489
 4645SOL    HW214835   1.426   1.071   4.416
 4646SOL     OW14836   2.363   4.762   4.198
 4646SOL    HW114837   2.302   4.684   4.183
 4646SOL    HW214838   2.454   4.729   4.223
 4647SOL     OW14839   1.282   0.372   3.033
 4647SOL    HW114840   1.355   0.333   2.978
 4647SOL    HW214841   1.194   0.352   2.990
 4648SOL     OW14842   2.512   0.872   4.317
 4648SOL    HW114843   2.432   0.884   4.376
 4648SOL    HW214844   2.537   0.775   4.313
 4649SOL     OW14845   5.921   0.639   1.098
 4649SOL    HW114846   5.961   0.653   1.007
 4649SOL    HW214847   5.845   0.704   1.110
 4650SOL     OW14848   4.370   5.560   1.769
 4650SOL    HW114849   4.400   5.642   1.720
 4650SOL    HW214850   4.277   5.574   1.804
 4651SOL     OW14851   5.887   3.754   6.488
 4651SOL    HW114852   5.803   3.747   6.541
 4651SOL    HW214853   5.963   3.777   6.549
 4652SOL     OW14854   6.107   6.523   5.085
 4652SOL    HW114855   6.190   6.578   5.072
 4652SOL    HW214856   6.126   6.450   5.151
 4653SOL     OW14857   5.103   5.784   0.725
 4653SOL    HW114858   5.095   5.692   0.687
 4653SOL    HW214859   5.150   5.843   0.659
 4654SOL     OW14860   0.694   6.402   5.625
 4654SOL    HW114861   0.596   6.388   5.637
 4654SOL    HW214862   0.722   6.369   5.535
 4655SOL     OW14863   4.836   4.023   2.081
 4655SOL    HW114864   4.776   4.041   2.002
 4655SOL    HW214865   4.831   3.925   2.104
 4656SOL     OW14866   0.864   0.464   1.507
 4656SOL    HW114867   0.858   0.378   1.557
 4656SOL    HW214868   0.940   0.460   1.443
 4657SOL     OW14869   4.853   5.755   2.174
 4657SOL    HW114870   4.792   5.730   2.099
 4657SOL    HW214871   4.805   5.745   2.261
 4658SOL     OW14872   2.682   2.592   5.773
 4658SOL    HW114873   2.757   2.592   5.706
 4658SOL    HW214874   2.613   2.526   5.745
 4659SOL     OW14875   2.840   4.515   0.426
 4659SOL    HW114876   2.918   4.517   0.489
 4659SOL    HW214877   2.755   4.528   0.477
 4660SOL     OW14878   1.222   6.257   4.097
 4660SOL    HW114879   1.276   6.323   4.046
 4660SOL    HW214880   1.182   6.301   4.178
 4661SOL     OW14881   2.104   4.136   5.655
 4661SOL    HW114882   2.130   4.151   5.560
 4661SOL    HW214883   2.056   4.217   5.690
 4662SOL     OW14884   3.090   0.105   5.632
 4662SOL    HW114885   3.097   0.109   5.532
 4662SOL    HW214886   3.044   0.020   5.659
 4663SOL     OW14887   0.533   0.333   0.375
 4663SOL    HW114888   0.533   0.335   0.275
 4663SOL    HW214889   0.585   0.411   0.409
 4664SOL     OW14890   0.301   0.523   0.513
 4664SOL    HW114891   0.322   0.430   0.482
 4664SOL    HW214892   0.257   0.519   0.603
 4665SOL     OW14893   2.554   6.955   5.698
 4665SOL    HW114894   2.578   6.875   5.753
 4665SOL    HW214895   2.578   6.938   5.602
 4666SOL     OW14896   2.373   2.191   6.618
 4666SOL    HW114897   2.417   2.102   6.609
 4666SOL    HW214898   2.304   2.202   6.546
 4667SOL     OW14899   6.794   4.137   2.006
 4667SOL    HW114900   6.720   4.162   2.068
 4667SOL    HW214901   6.792   4.198   1.926
 4668SOL     OW14902   4.747   1.392   4.981
 4668SOL    HW114903   4.662   1.409   4.932
 4668SOL    HW214904   4.735   1.411   5.078
 4669SOL     OW14905   5.541   0.360   6.498
 4669SOL    HW114906   5.496   0.293   6.556
 4669SOL    HW214907   5.472   0.421   6.458
 4670SOL     OW14908   1.049   2.846   6.839
 4670SOL    HW114909   1.074   2.940   6.820
 4670SOL    HW214910   0.977   2.817   6.775
 4671SOL     OW14911   1.039   3.155   0.033
 4671SOL    HW114912   1.121   3.204   0.003
 4671SOL    HW214913   1.065   3.069   0.077
 4672SOL     OW14914   3.784   4.766   6.057
 4672SOL    HW114915   3.713   4.721   6.003
 4672SOL    HW214916   3.817   4.703   6.127
 4673SOL     OW14917   5.319   6.930   0.321
 4673SOL    HW114918   5.359   7.019   0.299
 4673SOL    HW214919   5.384   6.876   0.374
 4674SOL     OW14920   5.416   1.700   0.893
 4674SOL    HW114921   5.424   1.795   0.925
 4674SOL    HW214922   5.447   1.639   0.966
 4675SOL     OW14923   3.446   0.538   6.879
 4675SOL    HW114924   3.368   0.546   6.816
 4675SOL    HW214925   3.450   0.619   6.937
 4676SOL     OW14926   0.305   0.045   4.911
 4676SOL    HW114927   0.302   0.141   4.885
 4676SOL    HW214928   0.400   0.013   4.912
 4677SOL     OW14929   2.848   0.245   6.924
 4677SOL    HW114930   2.861   0.331   6.874
 4677SOL    HW214931   2.886   0.254   7.016
 4678SOL     OW14932   1.981   5.104   2.126
 4678SOL    HW114933   2.048   5.167   2.165
 4678SOL    HW214934   1.986   5.016   2.172
 4679SOL     OW14935   3.749   1.350   6.672
 4679SOL    HW114936   3.839   1.390   6.653
 4679SOL    HW214937   3.728   1.358   6.769
 4680SOL     OW14938   2.437   6.216   1.935
 4680SOL    HW114939   2.479   6.275   1.866
 4680SOL    HW214940   2.338   6.229   1.935
 4681SOL     OW14941   6.148   5.991   4.810
 4681SOL    HW114942   6.050   5.971   4.812
 4681SOL    HW214943   6.178   6.019   4.901
 4682SOL     OW14944   4.694   5.192   6.596
 4682SOL    HW114945   4.791   5.219   6.598
 4682SOL    HW214946   4.677   5.126   6.669
 4683SOL     OW14947   4.970   4.340   2.213
 4683SOL    HW114948   4.947   4.259   2.267
 4683SOL    HW214949   5.002   4.413   2.273
 4684SOL     OW14950   0.045   2.329   4.161
 4684SOL    HW114951   0.100   2.258   4.207
 4684SOL    HW214952   0.107   2.396   4.121
 4685SOL     OW14953   0.182   5.153   4.350
 4685SOL    HW114954   0.187   5.095   4.431
 4685SOL    HW214955   0.172   5.096   4.269
 4686SOL     OW14956   5.191   5.946   0.494
 4686SOL    HW114957   5.223   6.010   0.564
 4686SOL    HW214958   5.125   5.992   0.434
 4687SOL     OW14959   6.373   4.804   5.500
 4687SOL    HW114960   6.335   4.720   5.538
 4687SOL    HW214961   6.470   4.810   5.524
 4688SOL     OW14962   0.074   2.427   6.242
 4688SOL    HW114963   0.019   2.491   6.296
 4688SOL    HW214964   0.143   2.385   6.301
 4689SOL     OW14965   5.365   0.488   6.334
 4689SOL    HW114966   5.297   0.500   6.262
 4689SOL    HW214967   5.457   0.502   6.296
 4690SOL     OW14968   0.925   1.420   6.940
 4690SOL    HW114969   1.007   1.457   6.984
 4690SOL    HW214970   0.951   1.346   6.878
 4691SOL     OW14971   2.995   3.773   2.265
 4691SOL    HW114972   3.015   3.675   2.265
 4691SOL    HW214973   2.897   3.787   2.280
 4692SOL     OW14974   6.861   5.250   2.358
 4692SOL    HW114975   6.950   5.205   2.365
 4692SOL    HW214976   6.871   5.347   2.382
 4693SOL     OW14977   0.745   1.047   4.225
 4693SOL    HW114978   0.826   1.083   4.179
 4693SOL    HW214979   0.752   0.947   4.231
 4694SOL     OW14980   2.816   0.576   0.128
 4694SOL    HW114981   2.797   0.504   0.194
 4694SOL    HW214982   2.909   0.565   0.092
 4695SOL     OW14983   3.444   3.373   2.017
 4695SOL    HW114984   3.415   3.356   1.923
 4695SOL    HW214985   3.501   3.455   2.021
 4696SOL     OW14986   1.138   4.781   6.305
 4696SOL    HW114987   1.131   4.732   6.392
 4696SOL    HW214988   1.209   4.739   6.248
 4697SOL     OW14989   1.643   3.293   0.903
 4697SOL    HW114990   1.584   3.365   0.939
 4697SOL    HW214991   1.643   3.215   0.965
 4698SOL     OW14992   4.889   5.128   2.983
 4698SOL    HW114993   4.953   5.058   3.015
 4698SOL    HW214994   4.883   5.201   3.051
 4699SOL     OW14995   1.115   0.222   2.418
 4699SOL    HW114996   1.042   0.180   2.472
 4699SOL    HW214997   1.152   0.154   2.355
 4700SOL     OW14998   5.597   1.401   1.691
 4700SOL    HW114999   5.517   1.459   1.706
 4700SOL    HW215000   5.677   1.443   1.734
 4701SOL     OW15001   1.093   1.666   0.299
 4701SOL    HW115002   1.121   1.762   0.300
 4701SOL    HW215003   0.994   1.661   0.294
 4702SOL     OW15004   4.897   4.543   6.357
 4702SOL    HW115005   4.918   4.541   6.455
 4702SOL    HW215006   4.950   4.473   6.310
 4703SOL     OW15007   0.492   2.413   2.463
 4703SOL    HW115008   0.566   2.356   2.498
 4703SOL    HW215009   0.530   2.498   2.427
 4704SOL     OW15010   6.959   6.457   0.961
 4704SOL    HW115011   6.861   6.475   0.961
 4704SOL    HW215012   6.997   6.480   0.872
 4705SOL     OW15013   3.417   3.553   2.680
 4705SOL    HW115014   3.347   3.624   2.685
 4705SOL    HW215015   3.499   3.583   2.728
 4706SOL     OW15016   4.156   6.731   6.623
 4706SOL    HW115017   4.171   6.691   6.532
 4706SOL    HW215018   4.100   6.669   6.677
 4707SOL     OW15019   2.091   6.102   0.760
 4707SOL    HW115020   2.059   6.010   0.738
 4707SOL    HW215021   2.186   6.112   0.731
 4708SOL     OW15022   1.996   2.921   0.809
 4708SOL    HW115023   1.919   2.983   0.796
 4708SOL    HW215024   2.024   2.923   0.905
 4709SOL     OW15025   4.036   5.368   5.119
 4709SOL    HW115026   3.980   5.435   5.167
 4709SOL    HW215027   4.001   5.355   5.026
 4710SOL     OW15028   4.061   1.442   5.875
 4710SOL    HW115029   4.103   1.451   5.966
 4710SOL    HW215030   3.990   1.372   5.878
 4711SOL     OW15031   4.548   0.745   2.825
 4711SOL    HW115032   4.638   0.732   2.867
 4711SOL    HW215033   4.486   0.672   2.857
 4712SOL     OW15034   2.570   4.858   0.577
 4712SOL    HW115035   2.631   4.916   0.523
 4712SOL    HW215036   2.565   4.892   0.671
 4713SOL     OW15037   2.698   4.013   1.099
 4713SOL    HW115038   2.601   3.992   1.099
 4713SOL    HW215039   2.717   4.085   1.032
 4714SOL     OW15040   2.460   2.018   0.158
 4714SOL    HW115041   2.492   1.955   0.228
 4714SOL    HW215042   2.524   2.017   0.081
 4715SOL     OW15043   6.577   3.721   1.714
 4715SOL    HW115044   6.497   3.732   1.771
 4715SOL    HW215045   6.565   3.774   1.629
 4716SOL     OW15046   3.640   5.386   6.216
 4716SOL    HW115047   3.650   5.485   6.224
 4716SOL    HW215048   3.570   5.353   6.280
 4717SOL     OW15049   1.318   5.960   3.173
 4717SOL    HW115050   1.401   5.910   3.199
 4717SOL    HW215051   1.239   5.921   3.222
 4718SOL     OW15052   5.588   1.518   6.565
 4718SOL    HW115053   5.595   1.462   6.482
 4718SOL    HW215054   5.504   1.495   6.614
 4719SOL     OW15055   5.125   3.115   2.704
 4719SOL    HW115056   5.042   3.134   2.755
 4719SOL    HW215057   5.125   3.169   2.620
 4720SOL     OW15058   3.207   6.349   5.463
 4720SOL    HW115059   3.206   6.444   5.493
 4720SOL    HW215060   3.182   6.343   5.367
 4721SOL     OW15061   6.407   2.299   1.892
 4721SOL    HW115062   6.485   2.240   1.912
 4721SOL    HW215063   6.391   2.301   1.793
 4722SOL     OW15064   1.361   5.850   6.900
 4722SOL    HW115065   1.358   5.775   6.835
 4722SOL    HW215066   1.350   5.815   6.993
 4723SOL     OW15067   1.765   5.122   5.337
 4723SOL    HW115068   1.726   5.073   5.414
 4723SOL    HW215069   1.862   5.139   5.353
 4724SOL     OW15070   4.674   6.373   2.506
 4724SOL    HW115071   4.635   6.457   2.542
 4724SOL    HW215072   4.716   6.390   2.417
 4725SOL     OW15073   5.306   6.376   2.994
 4725SOL    HW115074   5.318   6.347   3.089
 4725SOL    HW215075   5.395   6.393   2.953
 4726SOL     OW15076   1.769   3.419   6.786
 4726SOL    HW115077   1.799   3.343   6.729
 4726SOL    HW215078   1.849   3.470   6.819
 4727SOL     OW15079   6.912   6.432   6.825
 4727SOL    HW115080   6.985   6.372   6.792
 4727SOL    HW215081   6.854   6.460   6.749
 4728SOL     OW15082   4.843   1.919   1.295
 4728SOL    HW115083   4.842   1.887   1.390
 4728SOL    HW215084   4.759   1.890   1.250
 4729SOL     OW15085   2.456   1.130   2.699
 4729SOL    HW115086   2.459   1.206   2.634
 4729SOL    HW215087   2.367   1.130   2.746
 4730SOL     OW15088   2.041   6.096   5.423
 4730SOL    HW115089   2.084   6.006   5.415
 4730SOL    HW215090   2.078   6.157   5.354
 4731SOL     OW15091   5.278   0.072   6.251
 4731SOL    HW115092   5.245   0.027   6.335
 4731SOL    HW215093   5.216   0.147   6.227
 4732SOL     OW15094   6.667   3.038   6.500
 4732SOL    HW115095   6.733   3.015   6.572
 4732SOL    HW215096   6.711   3.097   6.433
 4733SOL     OW15097   0.728   3.636   3.223
 4733SOL    HW115098   0.675   3.565   3.269
 4733SOL    HW215099   0.825   3.623   3.243
 4734SOL     OW15100   5.177   3.586   6.761
 4734SOL    HW115101   5.201   3.499   6.716
 4734SOL    HW215102   5.192   3.577   6.859
 4735SOL     OW15103   0.685   5.088   3.847
 4735SOL    HW115104   0.658   5.167   3.791
 4735SOL    HW215105   0.603   5.033   3.867
 4736SOL     OW15106   0.387   1.717   6.777
 4736SOL    HW115107   0.399   1.774   6.859
 4736SOL    HW215108   0.448   1.749   6.705
 4737SOL     OW15109   1.562   5.360   2.361
 4737SOL    HW115110   1.615   5.295   2.305
 4737SOL    HW215111   1.492   5.403   2.305
 4738SOL     OW15112   0.338   5.909   2.807
 4738SOL    HW115113   0.358   5.966   2.727
 4738SOL    HW215114   0.239   5.896   2.814
 4739SOL     OW15115   4.010   0.029   2.518
 4739SOL    HW115116   3.933   0.076   2.562
 4739SOL    HW215117   4.069   7.013   2.588
 4740SOL     OW15118   6.852   1.385   2.247
 4740SOL    HW115119   6.901   1.394   2.160
 4740SOL    HW215120   6.863   1.292   2.282
 4741SOL     OW15121   3.404   2.407   1.713
 4741SOL    HW115122   3.489   2.391   1.765
 4741SOL    HW215123   3.382   2.325   1.660
 4742SOL     OW15124   1.947   6.844   6.483
 4742SOL    HW115125   1.953   6.941   6.459
 4742SOL    HW215126   1.928   6.790   6.401
 4743SOL     OW15127   2.061   3.681   2.571
 4743SOL    HW115128   2.081   3.770   2.530
 4743SOL    HW215129   2.130   3.660   2.640
 4744SOL     OW15130   2.067   5.205   0.549
 4744SOL    HW115131   2.026   5.115   0.568
 4744SOL    HW215132   2.096   5.247   0.635
 4745SOL     OW15133   3.258   3.963   0.272
 4745SOL    HW115134   3.212   3.920   0.350
 4745SOL    HW215135   3.269   4.061   0.290
 4746SOL     OW15136   4.193   6.175   3.927
 4746SOL    HW115137   4.098   6.177   3.897
 4746SOL    HW215138   4.197   6.151   4.024
 4747SOL     OW15139   1.213   3.372   0.652
 4747SOL    HW115140   1.281   3.439   0.679
 4747SOL    HW215141   1.160   3.407   0.575
 4748SOL     OW15142   1.326   6.837   1.712
 4748SOL    HW115143   1.328   6.933   1.740
 4748SOL    HW215144   1.405   6.818   1.653
 4749SOL     OW15145   2.059   6.756   5.966
 4749SOL    HW115146   2.079   6.775   5.870
 4749SOL    HW215147   2.102   6.669   5.992
 4750SOL     OW15148   6.376   4.036   5.364
 4750SOL    HW115149   6.449   4.066   5.303
 4750SOL    HW215150   6.344   4.113   5.418
 4751SOL     OW15151   4.699   2.577   3.279
 4751SOL    HW115152   4.776   2.606   3.223
 4751SOL    HW215153   4.649   2.657   3.311
 4752SOL     OW15154   4.538   0.744   0.410
 4752SOL    HW115155   4.543   0.645   0.393
 4752SOL    HW215156   4.518   0.791   0.324
 4753SOL     OW15157   1.085   0.030   4.331
 4753SOL    HW115158   1.022   7.006   4.270
 4753SOL    HW215159   1.178   7.024   4.313
 4754SOL     OW15160   4.844   3.880   5.169
 4754SOL    HW115161   4.815   3.787   5.145
 4754SOL    HW215162   4.771   3.926   5.220
 4755SOL     OW15163   2.455   0.308   1.191
 4755SOL    HW115164   2.404   0.292   1.275
 4755SOL    HW215165   2.399   0.359   1.126
 4756SOL     OW15166   0.044   4.106   6.023
 4756SOL    HW115167   0.108   4.029   6.028
 4756SOL    HW215168   0.093   4.191   6.038
 4757SOL     OW15169   1.587   2.683   1.492
 4757SOL    HW115170   1.605   2.728   1.579
 4757SOL    HW215171   1.555   2.750   1.425
 4758SOL     OW15172   1.516   6.662   3.003
 4758SOL    HW115173   1.586   6.722   3.041
 4758SOL    HW215174   1.494   6.690   2.909
 4759SOL     OW15175   0.554   6.023   0.195
 4759SOL    HW115176   0.495   5.949   0.228
 4759SOL    HW215177   0.507   6.076   0.125
 4760SOL     OW15178   0.829   0.316   0.311
 4760SOL    HW115179   0.867   0.245   0.252
 4760SOL    HW215180   0.853   0.297   0.406
 4761SOL     OW15181   1.050   0.626   0.351
 4761SOL    HW115182   1.074   0.530   0.365
 4761SOL    HW215183   1.076   0.654   0.259
 4762SOL     OW15184   1.612   5.771   2.318
 4762SOL    HW115185   1.618   5.839   2.245
 4762SOL    HW215186   1.539   5.706   2.299
 4763SOL     OW15187   4.796   6.788   2.426
 4763SOL    HW115188   4.726   6.733   2.471
 4763SOL    HW215189   4.761   6.820   2.338
 4764SOL     OW15190   4.540   3.398   5.390
 4764SOL    HW115191   4.592   3.449   5.322
 4764SOL    HW215192   4.452   3.370   5.351
 4765SOL     OW15193   3.751   0.967   6.362
 4765SOL    HW115194   3.689   1.040   6.391
 4765SOL    HW215195   3.706   0.878   6.376
 4766SOL     OW15196   6.319   6.110   4.618
 4766SOL    HW115197   6.275   6.047   4.683
 4766SOL    HW215198   6.366   6.057   4.547
 4767SOL     OW15199   2.436   5.565   5.165
 4767SOL    HW115200   2.471   5.604   5.080
 4767SOL    HW215201   2.479   5.612   5.243
 4768SOL     OW15202   4.588   3.442   6.132
 4768SOL    HW115203   4.505   3.469   6.180
 4768SOL    HW215204   4.565   3.382   6.056
 4769SOL     OW15205   3.580   6.047   0.349
 4769SOL    HW115206   3.609   6.080   0.439
 4769SOL    HW215207   3.574   6.124   0.285
 4770SOL     OW15208   6.980   2.420   4.642
 4770SOL    HW115209   7.014   2.484   4.573
 4770SOL    HW215210   6.923   2.469   4.708
 4771SOL     OW15211   2.368   6.344   5.102
 4771SOL    HW115212   2.402   6.421   5.156
 4771SOL    HW215213   2.443   6.304   5.049
 4772SOL     OW15214   2.956   5.363   0.840
 4772SOL    HW115215   2.998   5.278   0.873
 4772SOL    HW215216   2.937   5.422   0.918
 4773SOL     OW15217   1.377   5.983   4.748
 4773SOL    HW115218   1.341   5.967   4.656
 4773SOL    HW215219   1.300   5.997   4.811
 4774SOL     OW15220   1.675   4.057   0.781
 4774SOL    HW115221   1.629   4.067   0.693
 4774SOL    HW215222   1.744   4.130   0.791
 4775SOL     OW15223   4.613   6.829   4.787
 4775SOL    HW115224   4.543   6.835   4.716
 4775SOL    HW215225   4.662   6.743   4.778
 4776SOL     OW15226   1.300   1.113   5.070
 4776SOL    HW115227   1.307   1.024   5.115
 4776SOL    HW215228   1.310   1.102   4.971
 4777SOL     OW15229   1.661   5.697   0.985
 4777SOL    HW115230   1.742   5.744   0.950
 4777SOL    HW215231   1.579   5.746   0.955
 4778SOL     OW15232   0.970   2.604   4.638
 4778SOL    HW115233   1.034   2.681   4.634
 4778SOL    HW215234   0.883   2.631   4.598
 4779SOL     OW15235   5.964   6.280   4.146
 4779SOL    HW115236   5.972   6.369   4.102
 4779SOL    HW215237   6.055   6.238   4.153
 4780SOL     OW15238   5.799   2.558   5.669
 4780SOL    HW115239   5.810   2.574   5.767
 4780SOL    HW215240   5.707   2.585   5.640
 4781SOL     OW15241   2.381   5.709   2.792
 4781SOL    HW115242   2.437   5.651   2.852
 4781SOL    HW215243   2.441   5.764   2.734
 4782SOL     OW15244   6.126   5.902   6.066
 4782SOL    HW115245   6.046   5.944   6.024
 4782SOL    HW215246   6.098   5.828   6.127
 4783SOL     OW15247   6.042   3.900   6.987
 4783SOL    HW115248   6.111   3.951   0.014
 4783SOL    HW215249   5.951   3.935   7.008
 4784SOL     OW15250   6.196   1.659   5.950
 4784SOL    HW115251   6.129   1.633   5.880
 4784SOL    HW215252   6.157   1.643   6.041
 4785SOL     OW15253   0.183   6.701   2.923
 4785SOL    HW115254   0.121   6.694   2.845
 4785SOL    HW215255   0.259   6.636   2.911
 4786SOL     OW15256   2.735   0.348   0.268
 4786SOL    HW115257   2.784   0.281   0.213
 4786SOL    HW215258   2.664   0.302   0.322
 4787SOL     OW15259   3.905   2.010   4.543
 4787SOL    HW115260   3.902   1.949   4.463
 4787SOL    HW215261   3.823   1.996   4.598
 4788SOL     OW15262   6.117   5.867   0.540
 4788SOL    HW115263   6.054   5.919   0.598
 4788SOL    HW215264   6.183   5.818   0.598
 4789SOL     OW15265   4.945   1.553   1.938
 4789SOL    HW115266   4.851   1.524   1.959
 4789SOL    HW215267   4.971   1.514   1.849
 4790SOL     OW15268   5.298   1.706   5.516
 4790SOL    HW115269   5.199   1.712   5.524
 4790SOL    HW215270   5.322   1.654   5.434
 4791SOL     OW15271   0.540   2.808   1.078
 4791SOL    HW115272   0.536   2.742   1.153
 4791SOL    HW215273   0.465   2.791   1.015
 4792SOL     OW15274   1.883   4.459   4.346
 4792SOL    HW115275   1.983   4.457   4.354
 4792SOL    HW215276   1.844   4.510   4.422
 4793SOL     OW15277   1.139   3.631   5.850
 4793SOL    HW115278   1.096   3.590   5.930
 4793SOL    HW215279   1.118   3.576   5.769
 4794SOL     OW15280   4.663   0.113   4.173
 4794SOL    HW115281   4.587   0.159   4.128
 4794SOL    HW215282   4.720   0.067   4.105
 4795SOL     OW15283   0.013   1.635   4.622
 4795SOL    HW115284   0.006   1.712   4.560
 4795SOL    HW215285   6.946   1.604   4.649
 4796SOL     OW15286   3.692   0.732   6.100
 4796SOL    HW115287   3.631   0.811   6.109
 4796SOL    HW215288   3.703   0.709   6.004
 4797SOL     OW15289   0.315   5.502   4.410
 4797SOL    HW115290   0.246   5.477   4.342
 4797SOL    HW215291   0.281   5.481   4.501
 4798SOL     OW15292   5.705   4.873   5.972
 4798SOL    HW115293   5.645   4.948   5.999
 4798SOL    HW215294   5.756   4.841   6.052
 4799SOL     OW15295   4.022   1.474   0.386
 4799SOL    HW115296   3.984   1.529   0.312
 4799SOL    HW215297   4.090   1.411   0.349
 4800SOL     OW15298   2.160   4.698   6.689
 4800SOL    HW115299   2.252   4.681   6.727
 4800SOL    HW215300   2.116   4.610   6.670
 4801SOL     OW15301   4.080   2.774   0.635
 4801SOL    HW115302   4.040   2.865   0.623
 4801SOL    HW215303   4.118   2.742   0.548
 4802SOL     OW15304   6.980   6.612   2.027
 4802SOL    HW115305   6.918   6.607   1.948
 4802SOL    HW215306   6.973   6.528   2.080
 4803SOL     OW15307   5.669   4.923   0.990
 4803SOL    HW115308   5.768   4.926   0.972
 4803SOL    HW215309   5.622   4.987   0.930
 4804SOL     OW15310   5.690   1.270   0.958
 4804SOL    HW115311   5.691   1.229   0.867
 4804SOL    HW215312   5.714   1.200   1.027
 4805SOL     OW15313   6.651   1.116   2.033
 4805SOL    HW115314   6.560   1.128   2.071
 4805SOL    HW215315   6.696   1.206   2.025
 4806SOL     OW15316   1.288   3.967   3.049
 4806SOL    HW115317   1.319   3.937   3.139
 4806SOL    HW215318   1.196   4.005   3.056
 4807SOL     OW15319   1.897   3.211   6.663
 4807SOL    HW115320   1.929   3.187   6.755
 4807SOL    HW215321   1.816   3.157   6.641
 4808SOL     OW15322   3.686   5.370   0.682
 4808SOL    HW115323   3.728   5.425   0.754
 4808SOL    HW215324   3.593   5.345   0.709
 4809SOL     OW15325   3.594   4.483   1.683
 4809SOL    HW115326   3.634   4.514   1.597
 4809SOL    HW215327   3.578   4.562   1.742
 4810SOL     OW15328   1.350   4.241   4.213
 4810SOL    HW115329   1.361   4.200   4.123
 4810SOL    HW215330   1.424   4.306   4.229
 4811SOL     OW15331   3.633   3.937   4.663
 4811SOL    HW115332   3.661   3.937   4.759
 4811SOL    HW215333   3.690   3.872   4.612
 4812SOL     OW15334   0.580   6.906   2.087
 4812SOL    HW115335   0.672   6.870   2.102
 4812SOL    HW215336   0.562   6.979   2.153
 4813SOL     OW15337   5.649   2.029   6.189
 4813SOL    HW115338   5.664   2.087   6.109
 4813SOL    HW215339   5.737   1.997   6.224
 4814SOL     OW15340   6.958   3.563   2.334
 4814SOL    HW115341   6.881   3.536   2.393
 4814SOL    HW215342   6.923   3.606   2.251
 4815SOL     OW15343   5.016   4.819   2.691
 4815SOL    HW115344   4.949   4.854   2.625
 4815SOL    HW215345   4.968   4.777   2.768
 4816SOL     OW15346   2.181   6.741   1.444
 4816SOL    HW115347   2.262   6.748   1.502
 4816SOL    HW215348   2.153   6.645   1.438
 4817SOL     OW15349   3.693   1.390   1.802
 4817SOL    HW115350   3.730   1.392   1.895
 4817SOL    HW215351   3.652   1.478   1.780
 4818SOL     OW15352   1.614   0.740   4.245
 4818SOL    HW115353   1.676   0.719   4.169
 4818SOL    HW215354   1.534   0.680   4.239
 4819SOL     OW15355   3.184   1.984   1.490
 4819SOL    HW115356   3.196   1.899   1.439
 4819SOL    HW215357   3.266   2.003   1.544
 4820SOL     OW15358   6.412   3.131   1.196
 4820SOL    HW115359   6.354   3.182   1.259
 4820SOL    HW215360   6.502   3.117   1.237
 4821SOL     OW15361   6.456   5.542   1.643
 4821SOL    HW115362   6.450   5.446   1.668
 4821SOL    HW215363   6.431   5.599   1.722
 4822SOL     OW15364   1.803   3.334   3.698
 4822SOL    HW115365   1.706   3.339   3.673
 4822SOL    HW215366   1.823   3.245   3.737
 4823SOL     OW15367   0.117   0.233   3.601
 4823SOL    HW115368   0.117   0.236   3.701
 4823SOL    HW215369   0.211   0.223   3.568
 4824SOL     OW15370   5.484   1.877   4.139
 4824SOL    HW115371   5.445   1.816   4.070
 4824SOL    HW215372   5.494   1.828   4.225
 4825SOL     OW15373   2.117   2.736   4.339
 4825SOL    HW115374   2.104   2.637   4.335
 4825SOL    HW215375   2.150   2.761   4.430
 4826SOL     OW15376   0.160   6.930   1.150
 4826SOL    HW115377   0.171   6.836   1.116
 4826SOL    HW215378   0.229   6.989   1.108
 4827SOL     OW15379   5.419   1.013   2.095
 4827SOL    HW115380   5.491   0.954   2.057
 4827SOL    HW215381   5.330   0.981   2.063
 4828SOL     OW15382   6.159   3.800   1.621
 4828SOL    HW115383   6.070   3.758   1.638
 4828SOL    HW215384   6.159   3.893   1.658
 4829SOL     OW15385   3.541   6.856   6.089
 4829SOL    HW115386   3.560   6.947   6.052
 4829SOL    HW215387   3.444   6.849   6.113
 4830SOL     OW15388   5.230   5.445   3.944
 4830SOL    HW115389   5.157   5.465   3.879
 4830SOL    HW215390   5.229   5.514   4.017
 4831SOL     OW15391   6.647   5.136   5.898
 4831SOL    HW115392   6.743   5.126   5.925
 4831SOL    HW215393   6.620   5.057   5.843
 4832SOL     OW15394   3.250   2.493   6.550
 4832SOL    HW115395   3.268   2.444   6.635
 4832SOL    HW215396   3.326   2.479   6.486
 4833SOL     OW15397   4.702   2.109   2.928
 4833SOL    HW115398   4.623   2.130   2.986
 4833SOL    HW215399   4.742   2.021   2.956
 4834SOL     OW15400   3.816   0.170   0.427
 4834SOL    HW115401   3.868   0.225   0.362
 4834SOL    HW215402   3.777   0.090   0.380
 4835SOL     OW15403   1.840   7.009   6.753
 4835SOL    HW115404   1.811   6.999   6.848
 4835SOL    HW215405   1.914   6.943   6.734
 4836SOL     OW15406   4.335   2.366   3.564
 4836SOL    HW115407   4.262   2.302   3.540
 4836SOL    HW215408   4.322   2.398   3.658
 4837SOL     OW15409   3.909   3.012   1.797
 4837SOL    HW115410   3.907   2.913   1.804
 4837SOL    HW215411   3.817   3.047   1.785
 4838SOL     OW15412   2.611   5.007   2.319
 4838SOL    HW115413   2.680   5.046   2.258
 4838SOL    HW215414   2.642   4.917   2.350
 4839SOL     OW15415   0.533   3.557   5.878
 4839SOL    HW115416   0.570   3.641   5.918
 4839SOL    HW215417   0.463   3.519   5.938
 4840SOL     OW15418   6.972   0.449   6.015
 4840SOL    HW115419   0.009   0.409   6.083
 4840SOL    HW215420   6.928   0.376   5.963
 4841SOL     OW15421   3.211   5.508   1.941
 4841SOL    HW115422   3.278   5.526   2.012
 4841SOL    HW215423   3.219   5.412   1.912
 4842SOL     OW15424   3.364   4.943   1.958
 4842SOL    HW115425   3.275   4.982   1.979
 4842SOL    HW215426   3.399   4.893   2.038
 4843SOL     OW15427   6.224   4.272   0.321
 4843SOL    HW115428   6.166   4.258   0.402
 4843SOL    HW215429   6.258   4.366   0.321
 4844SOL     OW15430   0.186   3.708   6.742
 4844SOL    HW115431   0.108   3.667   6.695
 4844SOL    HW215432   0.171   3.807   6.750
 4845SOL     OW15433   6.858   5.442   4.446
 4845SOL    HW115434   6.878   5.529   4.492
 4845SOL    HW215435   6.800   5.385   4.504
 4846SOL     OW15436   6.540   3.389   1.436
 4846SOL    HW115437   6.580   3.305   1.473
 4846SOL    HW215438   6.607   3.463   1.442
 4847SOL     OW15439   3.275   1.802   5.915
 4847SOL    HW115440   3.293   1.726   5.978
 4847SOL    HW215441   3.288   1.771   5.821
 4848SOL     OW15442   1.834   0.847   4.631
 4848SOL    HW115443   1.904   0.917   4.646
 4848SOL    HW215444   1.817   0.798   4.716
 4849SOL     OW15445   1.211   0.431   0.051
 4849SOL    HW115446   1.158   0.514   0.035
 4849SOL    HW215447   1.195   0.399   0.144
 4850SOL     OW15448   4.107   0.537   1.830
 4850SOL    HW115449   4.134   0.610   1.892
 4850SOL    HW215450   4.110   0.570   1.736
 4851SOL     OW15451   3.755   5.784   5.354
 4851SOL    HW115452   3.682   5.826   5.300
 4851SOL    HW215453   3.729   5.783   5.451
 4852SOL     OW15454   0.934   7.021   6.297
 4852SOL    HW115455   1.016   0.032   6.343
 4852SOL    HW215456   0.913   0.056   6.219
 4853SOL     OW15457   3.416   1.091   2.378
 4853SOL    HW115458   3.496   1.086   2.319
 4853SOL    HW215459   3.375   1.183   2.371
 4854SOL     OW15460   4.945   6.075   2.831
 4854SOL    HW115461   4.858   6.104   2.791
 4854SOL    HW215462   4.978   5.994   2.784
 4855SOL     OW15463   5.887   2.719   2.301
 4855SOL    HW115464   5.849   2.643   2.247
 4855SOL    HW215465   5.929   2.683   2.384
 4856SOL     OW15466   1.733   3.922   2.613
 4856SOL    HW115467   1.688   3.870   2.541
 4856SOL    HW215468   1.669   3.988   2.651
 4857SOL     OW15469   1.812   2.348   5.346
 4857SOL    HW115470   1.752   2.362   5.424
 4857SOL    HW215471   1.848   2.437   5.315
 4858SOL     OW15472   1.798   1.090   4.423
 4858SOL    HW115473   1.826   1.126   4.512
 4858SOL    HW215474   1.700   1.070   4.424
 4859SOL     OW15475   0.784   0.522   4.127
 4859SOL    HW115476   0.865   0.466   4.144
 4859SOL    HW215477   0.778   0.543   4.030
 4860SOL     OW15478   3.551   4.937   2.564
 4860SOL    HW115479   3.638   4.896   2.539
 4860SOL    HW215480   3.567   5.011   2.631
 4861SOL     OW15481   4.746   5.511   0.275
 4861SOL    HW115482   4.809   5.589   0.275
 4861SOL    HW215483   4.684   5.518   0.354
 4862SOL     OW15484   2.216   4.869   3.610
 4862SOL    HW115485   2.169   4.886   3.523
 4862SOL    HW215486   2.150   4.833   3.677
 4863SOL     OW15487   5.471   4.868   0.758
 4863SOL    HW115488   5.480   4.922   0.675
 4863SOL    HW215489   5.401   4.797   0.746
 4864SOL     OW15490   3.052   1.202   4.121
 4864SOL    HW115491   3.104   1.286   4.139
 4864SOL    HW215492   3.070   1.172   4.027
 4865SOL     OW15493   1.716   0.778   5.658
 4865SOL    HW115494   1.667   0.819   5.581
 4865SOL    HW215495   1.704   0.835   5.739
 4866SOL     OW15496   6.122   3.651   0.899
 4866SOL    HW115497   6.106   3.627   0.994
 4866SOL    HW215498   6.097   3.574   0.840
 4867SOL     OW15499   4.521   5.880   2.741
 4867SOL    HW115500   4.528   5.888   2.642
 4867SOL    HW215501   4.467   5.799   2.764
 4868SOL     OW15502   6.725   4.620   2.532
 4868SOL    HW115503   6.731   4.535   2.583
 4868SOL    HW215504   6.646   4.673   2.563
 4869SOL     OW15505   1.772   1.490   0.919
 4869SOL    HW115506   1.820   1.570   0.956
 4869SOL    HW215507   1.833   1.440   0.858
 4870SOL     OW15508   0.552   6.306   0.957
 4870SOL    HW115509   0.608   6.248   1.016
 4870SOL    HW215510   0.592   6.398   0.954
 4871SOL     OW15511   0.646   0.636   3.713
 4871SOL    HW115512   0.685   0.693   3.641
 4871SOL    HW215513   0.596   0.560   3.672
 4872SOL     OW15514   6.218   0.511   3.514
 4872SOL    HW115515   6.310   0.497   3.477
 4872SOL    HW215516   6.219   0.489   3.612
 4873SOL     OW15517   6.430   5.939   4.414
 4873SOL    HW115518   6.521   5.958   4.378
 4873SOL    HW215519   6.406   5.843   4.396
 4874SOL     OW15520   4.951   3.078   2.454
 4874SOL    HW115521   4.905   3.096   2.367
 4874SOL    HW215522   4.891   3.025   2.514
 4875SOL     OW15523   5.785   1.118   0.358
 4875SOL    HW115524   5.851   1.159   0.295
 4875SOL    HW215525   5.833   1.062   0.425
 4876SOL     OW15526   7.006   1.089   3.641
 4876SOL    HW115527   0.022   1.179   3.622
 4876SOL    HW215528   0.036   1.044   3.713
 4877SOL     OW15529   0.516   1.959   5.278
 4877SOL    HW115530   0.418   1.949   5.263
 4877SOL    HW215531   0.538   2.056   5.288
 4878SOL     OW15532   6.425   1.165   2.173
 4878SOL    HW115533   6.394   1.247   2.222
 4878SOL    HW215534   6.378   1.160   2.085
 4879SOL     OW15535   4.475   2.090   1.810
 4879SOL    HW115536   4.519   2.005   1.840
 4879SOL    HW215537   4.485   2.159   1.882
 4880SOL     OW15538   6.187   3.684   0.027
 4880SOL    HW115539   6.169   3.652   0.120
 4880SOL    HW215540   6.144   3.773   0.014
 4881SOL     OW15541   1.573   1.060   0.090
 4881SOL    HW115542   1.647   1.106   0.042
 4881SOL    HW215543   1.533   1.123   0.157
 4882SOL     OW15544   4.256   1.437   5.666
 4882SOL    HW115545   4.177   1.436   5.726
 4882SOL    HW215546   4.339   1.422   5.720
 4883SOL     OW15547   4.648   4.122   0.497
 4883SOL    HW115548   4.666   4.215   0.465
 4883SOL    HW215549   4.613   4.126   0.591
 4884SOL     OW15550   3.070   5.315   1.659
 4884SOL    HW115551   3.022   5.230   1.640
 4884SOL    HW215552   3.005   5.387   1.684
 4885SOL     OW15553   2.121   4.648   1.236
 4885SOL    HW115554   2.031   4.622   1.270
 4885SOL    HW215555   2.165   4.710   1.301
 4886SOL     OW15556   3.031   6.481   1.458
 4886SOL    HW115557   3.022   6.513   1.553
 4886SOL    HW215558   3.106   6.415   1.453
 4887SOL     OW15559   0.089   6.506   1.748
 4887SOL    HW115560   0.101   6.499   1.649
 4887SOL    HW215561   7.020   6.479   1.773
 4888SOL     OW15562   3.040   0.266   3.307
 4888SOL    HW115563   2.951   0.296   3.340
 4888SOL    HW215564   3.042   0.268   3.207
 4889SOL     OW15565   6.568   2.358   5.158
 4889SOL    HW115566   6.492   2.376   5.221
 4889SOL    HW215567   6.652   2.399   5.195
 4890SOL     OW15568   6.806   1.668   5.263
 4890SOL    HW115569   6.829   1.572   5.278
 4890SOL    HW215570   6.718   1.674   5.215
 4891SOL     OW15571   2.359   5.621   0.338
 4891SOL    HW115572   2.378   5.692   0.269
 4891SOL    HW215573   2.429   5.625   0.409
 4892SOL     OW15574   4.689   5.721   2.406
 4892SOL    HW115575   4.604   5.767   2.431
 4892SOL    HW215576   4.762   5.749   2.469
 4893SOL     OW15577   6.248   3.394   1.973
 4893SOL    HW115578   6.193   3.468   2.013
 4893SOL    HW215579   6.189   3.315   1.956
 4894SOL     OW15580   3.522   0.754   3.029
 4894SOL    HW115581   3.446   0.725   2.970
 4894SOL    HW215582   3.524   0.695   3.110
 4895SOL     OW15583   0.629   4.754   3.727
 4895SOL    HW115584   0.617   4.851   3.751
 4895SOL    HW215585   0.583   4.697   3.794
 4896SOL     OW15586   2.629   4.556   2.476
 4896SOL    HW115587   2.677   4.469   2.483
 4896SOL    HW215588   2.690   4.625   2.436
 4897SOL     OW15589   1.934   5.768   5.199
 4897SOL    HW115590   1.917   5.846   5.140
 4897SOL    HW215591   2.033   5.751   5.203
 4898SOL     OW15592   3.836   1.426   4.963
 4898SOL    HW115593   3.796   1.488   5.031
 4898SOL    HW215594   3.772   1.414   4.888
 4899SOL     OW15595   6.012   4.704   2.893
 4899SOL    HW115596   6.098   4.662   2.921
 4899SOL    HW215597   5.974   4.756   2.970
 4900SOL     OW15598   3.486   5.922   5.386
 4900SOL    HW115599   3.435   5.880   5.311
 4900SOL    HW215600   3.427   5.987   5.434
 4901SOL     OW15601   2.241   1.560   5.507
 4901SOL    HW115602   2.152   1.605   5.516
 4901SOL    HW215603   2.279   1.540   5.597
 4902SOL     OW15604   0.961   1.349   4.671
 4902SOL    HW115605   0.965   1.413   4.748
 4902SOL    HW215606   0.880   1.291   4.681
 4903SOL     OW15607   4.814   5.732   0.429
 4903SOL    HW115608   4.745   5.749   0.359
 4903SOL    HW215609   4.770   5.732   0.519
 4904SOL     OW15610   2.069   0.469   5.243
 4904SOL    HW115611   2.116   0.382   5.257
 4904SOL    HW215612   1.971   0.456   5.254
 4905SOL     OW15613   2.695   0.857   3.788
 4905SOL    HW115614   2.629   0.781   3.790
 4905SOL    HW215615   2.779   0.830   3.834
 4906SOL     OW15616   4.700   2.193   6.209
 4906SOL    HW115617   4.705   2.220   6.113
 4906SOL    HW215618   4.717   2.095   6.218
 4907SOL     OW15619   4.922   0.409   1.497
 4907SOL    HW115620   5.005   0.386   1.547
 4907SOL    HW215621   4.921   0.362   1.409
 4908SOL     OW15622   5.239   6.587   0.101
 4908SOL    HW115623   5.285   6.661   0.150
 4908SOL    HW215624   5.147   6.617   0.074
 4909SOL     OW15625   6.901   5.387   3.203
 4909SOL    HW115626   6.952   5.411   3.120
 4909SOL    HW215627   6.964   5.348   3.270
 4910SOL     OW15628   5.353   0.276   4.258
 4910SOL    HW115629   5.288   0.350   4.239
 4910SOL    HW215630   5.306   0.188   4.254
 4911SOL     OW15631   1.657   3.799   2.960
 4911SOL    HW115632   1.706   3.884   2.940
 4911SOL    HW215633   1.649   3.788   3.059
 4912SOL     OW15634   5.733   1.759   5.895
 4912SOL    HW115635   5.822   1.780   5.855
 4912SOL    HW215636   5.744   1.747   5.994
 4913SOL     OW15637   4.488   3.594   5.614
 4913SOL    HW115638   4.456   3.657   5.544
 4913SOL    HW215639   4.488   3.501   5.578
 4914SOL     OW15640   4.260   6.671   5.257
 4914SOL    HW115641   4.242   6.712   5.168
 4914SOL    HW215642   4.217   6.726   5.329
 4915SOL     OW15643   2.852   6.290   4.934
 4915SOL    HW115644   2.898   6.202   4.943
 4915SOL    HW215645   2.755   6.274   4.913
 4916SOL     OW15646   0.564   0.992   3.642
 4916SOL    HW115647   0.618   0.920   3.600
 4916SOL    HW215648   0.623   1.054   3.693
 4917SOL     OW15649   3.490   5.419   1.274
 4917SOL    HW115650   3.413   5.357   1.285
 4917SOL    HW215651   3.459   5.514   1.285
 4918SOL     OW15652   5.848   6.524   1.736
 4918SOL    HW115653   5.838   6.576   1.820
 4918SOL    HW215654   5.839   6.585   1.657
 4919SOL     OW15655   3.281   3.013   2.498
 4919SOL    HW115656   3.361   3.072   2.506
 4919SOL    HW215657   3.278   2.973   2.407
 4920SOL     OW15658   5.469   6.841   4.559
 4920SOL    HW115659   5.427   6.852   4.649
 4920SOL    HW215660   5.513   6.751   4.553
 4921SOL     OW15661   1.312   5.373   6.955
 4921SOL    HW115662   1.328   5.283   6.915
 4921SOL    HW215663   1.318   5.444   6.885
 4922SOL     OW15664   3.151   2.088   4.333
 4922SOL    HW115665   3.159   2.102   4.234
 4922SOL    HW215666   3.061   2.119   4.364
 4923SOL     OW15667   2.677   1.247   2.314
 4923SOL    HW115668   2.697   1.230   2.218
 4923SOL    HW215669   2.744   1.200   2.371
 4924SOL     OW15670   3.098   1.549   4.561
 4924SOL    HW115671   3.154   1.594   4.492
 4924SOL    HW215672   3.012   1.600   4.573
 4925SOL     OW15673   5.102   0.659   2.318
 4925SOL    HW115674   5.060   0.620   2.400
 4925SOL    HW215675   5.198   0.681   2.337
 4926SOL     OW15676   5.522   1.535   1.943
 4926SOL    HW115677   5.613   1.500   1.922
 4926SOL    HW215678   5.526   1.589   2.027
 4927SOL     OW15679   2.778   3.254   5.680
 4927SOL    HW115680   2.737   3.202   5.755
 4927SOL    HW215681   2.865   3.293   5.711
 4928SOL     OW15682   1.376   0.429   6.535
 4928SOL    HW115683   1.361   0.366   6.611
 4928SOL    HW215684   1.296   0.488   6.523
 4929SOL     OW15685   6.298   0.354   4.168
 4929SOL    HW115686   6.379   0.295   4.166
 4929SOL    HW215687   6.223   0.306   4.214
 4930SOL     OW15688   5.714   0.109   2.850
 4930SOL    HW115689   5.675   0.104   2.942
 4930SOL    HW215690   5.737   0.204   2.828
 4931SOL     OW15691   6.479   6.514   1.468
 4931SOL    HW115692   6.499   6.426   1.424
 4931SOL    HW215693   6.408   6.501   1.538
 4932SOL     OW15694   4.075   3.459   3.262
 4932SOL    HW115695   4.094   3.550   3.225
 4932SOL    HW215696   4.094   3.458   3.360
 4933SOL     OW15697   2.285   6.665   2.179
 4933SOL    HW115698   2.266   6.646   2.275
 4933SOL    HW215699   2.356   6.603   2.146
 4934SOL     OW15700   3.519   6.013   3.121
 4934SOL    HW115701   3.438   6.010   3.180
 4934SOL    HW215702   3.498   5.970   3.033
 4935SOL     OW15703   1.955   1.938   5.987
 4935SOL    HW115704   1.986   1.992   6.066
 4935SOL    HW215705   1.934   2.000   5.911
 4936SOL     OW15706   2.829   4.877   1.106
 4936SOL    HW115707   2.787   4.811   1.044
 4936SOL    HW215708   2.849   4.962   1.056
 4937SOL     OW15709   5.258   2.813   5.572
 4937SOL    HW115710   5.228   2.896   5.618
 4937SOL    HW215711   5.186   2.744   5.578
 4938SOL     OW15712   2.705   5.604   5.889
 4938SOL    HW115713   2.743   5.591   5.797
 4938SOL    HW215714   2.648   5.687   5.889
 4939SOL     OW15715   5.236   2.362   5.067
 4939SOL    HW115716   5.325   2.375   5.110
 4939SOL    HW215717   5.183   2.295   5.120
 4940SOL     OW15718   1.291   1.095   4.803
 4940SOL    HW115719   1.279   1.186   4.764
 4940SOL    HW215720   1.362   1.046   4.753
 4941SOL     OW15721   3.913   2.390   6.429
 4941SOL    HW115722   4.010   2.416   6.427
 4941SOL    HW215723   3.886   2.359   6.338
 4942SOL     OW15724   4.885   3.463   5.575
 4942SOL    HW115725   4.883   3.413   5.488
 4942SOL    HW215726   4.847   3.406   5.647
 4943SOL     OW15727   3.678   2.924   0.922
 4943SOL    HW115728   3.729   2.983   0.985
 4943SOL    HW215729   3.739   2.851   0.888
 4944SOL     OW15730   2.008   3.969   2.632
 4944SOL    HW115731   2.026   4.061   2.596
 4944SOL    HW215732   1.910   3.951   2.630
 4945SOL     OW15733   1.153   0.952   3.773
 4945SOL    HW115734   1.117   0.866   3.810
 4945SOL    HW215735   1.194   1.005   3.847
 4946SOL     OW15736   0.950   3.026   1.848
 4946SOL    HW115737   1.000   3.048   1.931
 4946SOL    HW215738   0.859   2.993   1.871
 4947SOL     OW15739   1.357   6.869   1.019
 4947SOL    HW115740   1.413   6.788   1.000
 4947SOL    HW215741   1.380   6.942   0.955
 4948SOL     OW15742   2.902   0.586   2.366
 4948SOL    HW115743   2.826   0.636   2.407
 4948SOL    HW215744   2.967   0.561   2.438
 4949SOL     OW15745   4.853   0.710   5.313
 4949SOL    HW115746   4.942   0.736   5.276
 4949SOL    HW215747   4.829   0.617   5.283
 4950SOL     OW15748   2.989   5.605   3.564
 4950SOL    HW115749   2.972   5.545   3.485
 4950SOL    HW215750   2.954   5.563   3.647
 4951SOL     OW15751   5.736   1.210   4.844
 4951SOL    HW115752   5.709   1.223   4.749
 4951SOL    HW215753   5.718   1.115   4.871
 4952SOL     OW15754   0.448   0.910   4.777
 4952SOL    HW115755   0.463   0.870   4.687
 4952SOL    HW215756   0.400   0.998   4.767
 4953SOL     OW15757   2.254   5.837   1.904
 4953SOL    HW115758   2.320   5.886   1.961
 4953SOL    HW215759   2.253   5.740   1.931
 4954SOL     OW15760   4.335   4.264   6.690
 4954SOL    HW115761   4.376   4.350   6.657
 4954SOL    HW215762   4.276   4.283   6.768
 4955SOL     OW15763   1.431   6.087   6.777
 4955SOL    HW115764   1.441   6.155   6.850
 4955SOL    HW215765   1.400   6.000   6.816
 4956SOL     OW15766   3.128   6.884   5.009
 4956SOL    HW115767   3.116   6.840   4.920
 4956SOL    HW215768   3.218   6.927   5.013
 4957SOL     OW15769   0.021   0.973   3.242
 4957SOL    HW115770   0.086   1.041   3.276
 4957SOL    HW215771   7.014   0.916   3.318
 4958SOL     OW15772   0.169   6.266   6.014
 4958SOL    HW115773   0.197   6.178   5.977
 4958SOL    HW215774   0.077   6.288   5.982
 4959SOL     OW15775   6.890   1.367   6.835
 4959SOL    HW115776   6.949   1.311   6.777
 4959SOL    HW215777   6.940   1.392   6.918
 4960SOL     OW15778   3.244   6.459   3.774
 4960SOL    HW115779   3.246   6.367   3.814
 4960SOL    HW215780   3.294   6.459   3.688
 4961SOL     OW15781   5.370   1.128   5.279
 4961SOL    HW115782   5.284   1.078   5.266
 4961SOL    HW215783   5.369   1.174   5.368
 4962SOL     OW15784   5.578   3.108   1.478
 4962SOL    HW115785   5.568   3.196   1.433
 4962SOL    HW215786   5.563   3.034   1.412
 4963SOL     OW15787   6.078   5.745   1.233
 4963SOL    HW115788   6.007   5.686   1.193
 4963SOL    HW215789   6.034   5.817   1.287
 4964SOL     OW15790   3.669   6.545   3.211
 4964SOL    HW115791   3.703   6.587   3.295
 4964SOL    HW215792   3.686   6.446   3.214
 4965SOL     OW15793   0.490   0.018   4.446
 4965SOL    HW115794   0.525   0.090   4.506
 4965SOL    HW215795   0.506   6.953   4.489
 4966SOL     OW15796   2.203   6.517   4.437
 4966SOL    HW115797   2.253   6.431   4.435
 4966SOL    HW215798   2.184   6.543   4.532
 4967SOL     OW15799   4.090   3.089   6.673
 4967SOL    HW115800   4.084   3.159   6.602
 4967SOL    HW215801   4.122   3.132   6.758
 4968SOL     OW15802   5.577   2.811   3.509
 4968SOL    HW115803   5.498   2.815   3.448
 4968SOL    HW215804   5.655   2.857   3.466
 4969SOL     OW15805   1.795   1.086   2.500
 4969SOL    HW115806   1.772   1.010   2.560
 4969SOL    HW215807   1.742   1.079   2.415
 4970SOL     OW15808   1.501   2.540   4.915
 4970SOL    HW115809   1.553   2.625   4.907
 4970SOL    HW215810   1.413   2.559   4.958
 4971SOL     OW15811   6.356   5.824   3.851
 4971SOL    HW115812   6.424   5.828   3.924
 4971SOL    HW215813   6.374   5.897   3.785
 4972SOL     OW15814   2.099   3.347   1.046
 4972SOL    HW115815   2.025   3.282   1.067
 4972SOL    HW215816   2.098   3.368   0.948
 4973SOL     OW15817   6.941   6.995   1.901
 4973SOL    HW115818   6.980   0.063   1.914
 4973SOL    HW215819   6.939   6.973   1.803
 4974SOL     OW15820   6.633   4.630   0.565
 4974SOL    HW115821   6.656   4.676   0.651
 4974SOL    HW215822   6.707   4.568   0.540
 4975SOL     OW15823   6.206   5.708   0.778
 4975SOL    HW115824   6.252   5.621   0.795
 4975SOL    HW215825   6.258   5.782   0.820
 4976SOL     OW15826   2.819   0.194   4.381
 4976SOL    HW115827   2.810   0.282   4.336
 4976SOL    HW215828   2.890   0.140   4.335
 4977SOL     OW15829   4.974   3.946   0.760
 4977SOL    HW115830   4.886   3.991   0.777
 4977SOL    HW215831   5.031   3.952   0.842
 4978SOL     OW15832   7.007   3.554   5.330
 4978SOL    HW115833   6.922   3.568   5.278
 4978SOL    HW215834   0.059   3.540   5.268
 4979SOL     OW15835   6.945   2.174   4.981
 4979SOL    HW115836   6.968   2.143   5.073
 4979SOL    HW215837   6.984   2.265   4.966
 4980SOL     OW15838   4.623   6.838   3.321
 4980SOL    HW115839   4.671   6.751   3.332
 4980SOL    HW215840   4.580   6.864   3.407
 4981SOL     OW15841   4.926   6.008   5.747
 4981SOL    HW115842   4.872   5.991   5.665
 4981SOL    HW215843   4.886   6.084   5.798
 4982SOL     OW15844   2.400   1.205   6.762
 4982SOL    HW115845   2.322   1.148   6.733
 4982SOL    HW215846   2.391   1.225   6.860
 4983SOL     OW15847   4.899   3.362   4.509
 4983SOL    HW115848   4.883   3.449   4.461
 4983SOL    HW215849   4.868   3.371   4.603
 4984SOL     OW15850   5.586   3.232   4.210
 4984SOL    HW115851   5.629   3.179   4.283
 4984SOL    HW215852   5.506   3.183   4.176
 4985SOL     OW15853   6.758   6.427   3.784
 4985SOL    HW115854   6.723   6.350   3.730
 4985SOL    HW215855   6.691   6.452   3.853
 4986SOL     OW15856   6.646   4.602   2.877
 4986SOL    HW115857   6.598   4.632   2.960
 4986SOL    HW215858   6.600   4.523   2.839
 4987SOL     OW15859   0.728   2.125   1.172
 4987SOL    HW115860   0.695   2.164   1.258
 4987SOL    HW215861   0.800   2.058   1.192
 4988SOL     OW15862   6.977   1.428   3.802
 4988SOL    HW115863   7.007   1.338   3.772
 4988SOL    HW215864   6.966   1.429   3.902
 4989SOL     OW15865   5.974   1.109   1.954
 4989SOL    HW115866   5.908   1.136   2.024
 4989SOL    HW215867   5.927   1.092   1.868
 4990SOL     OW15868   1.378   2.173   6.254
 4990SOL    HW115869   1.425   2.104   6.198
 4990SOL    HW215870   1.313   2.128   6.314
 4991SOL     OW15871   0.804   3.196   3.970
 4991SOL    HW115872   0.771   3.102   3.966
 4991SOL    HW215873   0.904   3.196   3.971
 4992SOL     OW15874   4.155   0.996   4.016
 4992SOL    HW115875   4.127   1.058   4.089
 4992SOL    HW215876   4.222   1.041   3.957
 4993SOL     OW15877   2.518   4.494   4.019
 4993SOL    HW115878   2.576   4.537   4.088
 4993SOL    HW215879   2.518   4.551   3.937
 4994SOL     OW15880   1.479   0.205   2.380
 4994SOL    HW115881   1.407   0.180   2.315
 4994SOL    HW215882   1.568   0.177   2.344
 4995SOL     OW15883   0.017   3.394   5.558
 4995SOL    HW115884   6.949   3.355   5.571
 4995SOL    HW215885   0.021   3.438   5.468
 4996SOL     OW15886   0.965   0.428   2.322
 4996SOL    HW115887   0.970   0.504   2.387
 4996SOL    HW215888   1.050   0.374   2.327
 4997SOL     OW15889   6.821   2.216   2.639
 4997SOL    HW115890   6.793   2.132   2.687
 4997SOL    HW215891   6.843   2.286   2.706
 4998SOL     OW15892   1.897   4.192   4.949
 4998SOL    HW115893   1.841   4.252   4.893
 4998SOL    HW215894   1.952   4.246   5.013
 4999SOL     OW15895   4.841   5.770   1.389
 4999SOL    HW115896   4.750   5.731   1.402
 4999SOL    HW215897   4.845   5.861   1.431
 5000SOL     OW15898   1.138   0.390   3.713
 5000SOL    HW115899   1.179   0.448   3.643
 5000SOL    HW215900   1.050   0.428   3.741
 5001SOL     OW15901   1.638   3.980   6.141
 5001SOL    HW115902   1.574   3.911   6.109
 5001SOL    HW215903   1.731   3.945   6.134
 5002SOL     OW15904   1.304   2.873   2.559
 5002SOL    HW115905   1.271   2.965   2.582
 5002SOL    HW215906   1.292   2.813   2.638
 5003SOL     OW15907   1.033   6.601   3.366
 5003SOL    HW115908   0.995   6.680   3.317
 5003SOL    HW215909   1.094   6.633   3.438
 5004SOL     OW15910   2.589   5.894   5.839
 5004SOL    HW115911   2.494   5.877   5.866
 5004SOL    HW215912   2.593   5.911   5.740
 5005SOL     OW15913   3.900   2.109   0.677
 5005SOL    HW115914   3.972   2.112   0.747
 5005SOL    HW215915   3.910   2.188   0.616
 5006SOL     OW15916   5.623   6.889   6.315
 5006SOL    HW115917   5.553   6.900   6.244
 5006SOL    HW215918   5.712   6.918   6.279
 5007SOL     OW15919   2.691   0.481   6.148
 5007SOL    HW115920   2.630   0.405   6.128
 5007SOL    HW215921   2.785   0.457   6.122
 5008SOL     OW15922   6.353   0.688   3.898
 5008SOL    HW115923   6.332   0.604   3.848
 5008SOL    HW215924   6.438   0.676   3.949
 5009SOL     OW15925   1.382   5.787   1.553
 5009SOL    HW115926   1.414   5.847   1.626
 5009SOL    HW215927   1.418   5.820   1.465
 5010SOL     OW15928   3.517   3.804   3.845
 5010SOL    HW115929   3.518   3.894   3.800
 5010SOL    HW215930   3.456   3.807   3.924
 5011SOL     OW15931   2.174   3.229   1.844
 5011SOL    HW115932   2.154   3.166   1.919
 5011SOL    HW215933   2.218   3.311   1.880
 5012SOL     OW15934   5.865   2.799   6.224
 5012SOL    HW115935   5.786   2.851   6.192
 5012SOL    HW215936   5.919   2.856   6.286
 5013SOL     OW15937   4.964   0.756   6.860
 5013SOL    HW115938   5.055   0.719   6.877
 5013SOL    HW215939   4.950   0.837   6.916
 5014SOL     OW15940   6.411   5.484   0.447
 5014SOL    HW115941   6.472   5.557   0.418
 5014SOL    HW215942   6.316   5.511   0.430
 5015SOL     OW15943   3.952   1.869   3.735
 5015SOL    HW115944   3.970   1.796   3.669
 5015SOL    HW215945   4.017   1.943   3.721
 5016SOL     OW15946   2.099   0.953   2.523
 5016SOL    HW115947   2.026   1.020   2.531
 5016SOL    HW215948   2.150   0.968   2.439
 5017SOL     OW15949   2.502   2.439   0.795
 5017SOL    HW115950   2.592   2.482   0.798
 5017SOL    HW215951   2.454   2.470   0.713
 5018SOL     OW15952   0.755   4.648   1.512
 5018SOL    HW115953   0.772   4.561   1.466
 5018SOL    HW215954   0.657   4.658   1.529
 5019SOL     OW15955   2.325   4.552   0.478
 5019SOL    HW115956   2.286   4.643   0.471
 5019SOL    HW215957   2.425   4.558   0.480
 5020SOL     OW15958   5.568   6.621   5.084
 5020SOL    HW115959   5.532   6.579   5.167
 5020SOL    HW215960   5.625   6.700   5.107
 5021SOL     OW15961   0.885   3.731   6.173
 5021SOL    HW115962   0.925   3.653   6.125
 5021SOL    HW215963   0.884   3.713   6.271
 5022SOL     OW15964   1.674   0.165   0.618
 5022SOL    HW115965   1.774   0.161   0.614
 5022SOL    HW215966   1.645   0.242   0.674
 5023SOL     OW15967   6.340   3.053   0.651
 5023SOL    HW115968   6.360   3.141   0.694
 5023SOL    HW215969   6.253   3.018   0.685
 5024SOL     OW15970   0.269   4.295   2.461
 5024SOL    HW115971   0.313   4.271   2.375
 5024SOL    HW215972   0.322   4.366   2.507
 5025SOL     OW15973   4.703   2.014   2.197
 5025SOL    HW115974   4.709   2.035   2.099
 5025SOL    HW215975   4.695   2.099   2.249
 5026SOL     OW15976   6.208   6.185   5.967
 5026SOL    HW115977   6.116   6.227   5.963
 5026SOL    HW215978   6.207   6.111   6.034
 5027SOL     OW15979   1.107   6.761   2.967
 5027SOL    HW115980   1.135   6.667   2.951
 5027SOL    HW215981   1.116   6.814   2.882
 5028SOL     OW15982   0.273   5.879   1.914
 5028SOL    HW115983   0.291   5.803   1.977
 5028SOL    HW215984   0.198   5.855   1.853
 5029SOL     OW15985   6.754   3.033   2.941
 5029SOL    HW115986   6.794   3.071   2.858
 5029SOL    HW215987   6.823   3.035   3.014
 5030SOL     OW15988   0.371   0.561   0.173
 5030SOL    HW115989   0.435   0.492   0.139
 5030SOL    HW215990   0.422   0.634   0.219
 5031SOL     OW15991   6.251   1.345   4.612
 5031SOL    HW115992   6.283   1.435   4.643
 5031SOL    HW215993   6.197   1.303   4.684
 5032SOL     OW15994   0.900   4.525   0.802
 5032SOL    HW115995   0.988   4.486   0.776
 5032SOL    HW215996   0.865   4.582   0.727
 5033SOL     OW15997   2.225   5.246   5.774
 5033SOL    HW115998   2.194   5.217   5.865
 5033SOL    HW215999   2.282   5.327   5.783
 5034SOL     OW16000   6.833   3.513   1.517
 5034SOL    HW116001   6.838   3.443   1.588
 5034SOL    HW216002   6.926   3.547   1.497
 5035SOL     OW16003   5.668   4.665   1.092
 5035SOL    HW116004   5.646   4.733   1.021
 5035SOL    HW216005   5.617   4.581   1.074
 5036SOL     OW16006   0.573   5.812   6.300
 5036SOL    HW116007   0.599   5.882   6.367
 5036SOL    HW216008   0.628   5.729   6.316
 5037SOL     OW16009   4.667   2.308   3.404
 5037SOL    HW116010   4.636   2.392   3.358
 5037SOL    HW216011   4.693   2.329   3.498
 5038SOL     OW16012   2.007   5.951   5.695
 5038SOL    HW116013   1.997   5.975   5.599
 5038SOL    HW216014   1.916   5.940   5.736
 5039SOL     OW16015   1.690   3.474   5.103
 5039SOL    HW116016   1.668   3.386   5.062
 5039SOL    HW216017   1.716   3.539   5.032
 5040SOL     OW16018   2.559   3.622   6.662
 5040SOL    HW116019   2.615   3.577   6.593
 5040SOL    HW216020   2.524   3.553   6.726
 5041SOL     OW16021   0.805   3.814   1.313
 5041SOL    HW116022   0.824   3.729   1.264
 5041SOL    HW216023   0.860   3.818   1.396
 5042SOL     OW16024   6.887   2.947   6.642
 5042SOL    HW116025   6.961   3.011   6.659
 5042SOL    HW216026   6.863   2.899   6.727
 5043SOL     OW16027   3.457   1.436   5.256
 5043SOL    HW116028   3.534   1.497   5.276
 5043SOL    HW216029   3.393   1.481   5.194
 5044SOL     OW16030   6.179   6.212   3.550
 5044SOL    HW116031   6.165   6.169   3.460
 5044SOL    HW216032   6.153   6.147   3.622
 5045SOL     OW16033   4.779   3.530   0.359
 5045SOL    HW116034   4.802   3.627   0.370
 5045SOL    HW216035   4.707   3.521   0.290
 5046SOL     OW16036   3.574   2.907   4.988
 5046SOL    HW116037   3.541   3.001   4.998
 5046SOL    HW216038   3.648   2.890   5.053
 5047SOL     OW16039   6.029   1.566   2.561
 5047SOL    HW116040   5.939   1.563   2.605
 5047SOL    HW216041   6.085   1.637   2.603
 5048SOL     OW16042   6.592   2.119   1.922
 5048SOL    HW116043   6.650   2.056   1.870
 5048SOL    HW216044   6.556   2.072   2.003
 5049SOL     OW16045   6.461   1.043   2.970
 5049SOL    HW116046   6.396   1.105   3.014
 5049SOL    HW216047   6.499   0.980   3.038
 5050SOL     OW16048   0.395   1.645   1.923
 5050SOL    HW116049   0.408   1.723   1.984
 5050SOL    HW216050   0.300   1.615   1.926
 5051SOL     OW16051   3.546   3.737   0.687
 5051SOL    HW116052   3.475   3.708   0.623
 5051SOL    HW216053   3.548   3.675   0.766
 5052SOL     OW16054   3.173   4.620   0.365
 5052SOL    HW116055   3.087   4.634   0.316
 5052SOL    HW216056   3.249   4.624   0.300
 5053SOL     OW16057   2.042   3.785   2.030
 5053SOL    HW116058   2.095   3.865   2.056
 5053SOL    HW216059   1.944   3.806   2.040
 5054SOL     OW16060   3.695   6.109   5.418
 5054SOL    HW116061   3.771   6.093   5.356
 5054SOL    HW216062   3.614   6.060   5.385
 5055SOL     OW16063   0.378   1.714   4.863
 5055SOL    HW116064   0.309   1.688   4.931
 5055SOL    HW216065   0.468   1.686   4.895
 5056SOL     OW16066   6.980   4.169   6.455
 5056SOL    HW116067   0.034   4.166   6.518
 5056SOL    HW216068   6.979   4.085   6.400
 5057SOL     OW16069   1.006   5.205   3.463
 5057SOL    HW116070   0.966   5.294   3.481
 5057SOL    HW216071   0.991   5.181   3.367
 5058SOL     OW16072   3.621   3.816   6.387
 5058SOL    HW116073   3.631   3.839   6.484
 5058SOL    HW216074   3.539   3.759   6.375
 5059SOL     OW16075   4.746   2.877   4.938
 5059SOL    HW116076   4.745   2.884   4.838
 5059SOL    HW216077   4.841   2.877   4.970
 5060SOL     OW16078   6.706   3.386   4.739
 5060SOL    HW116079   6.712   3.287   4.725
 5060SOL    HW216080   6.659   3.428   4.661
 5061SOL     OW16081   2.910   3.406   4.061
 5061SOL    HW116082   2.873   3.341   3.994
 5061SOL    HW216083   2.911   3.498   4.020
 5062SOL     OW16084   4.880   1.901   2.984
 5062SOL    HW116085   4.862   1.805   3.002
 5062SOL    HW216086   4.979   1.917   2.986
 5063SOL     OW16087   0.994   6.728   1.672
 5063SOL    HW116088   1.059   6.778   1.729
 5063SOL    HW216089   0.962   6.787   1.597
 5064SOL     OW16090   4.509   5.173   0.810
 5064SOL    HW116091   4.532   5.095   0.752
 5064SOL    HW216092   4.509   5.144   0.906
 5065SOL     OW16093   1.697   0.606   3.104
 5065SOL    HW116094   1.758   0.531   3.128
 5065SOL    HW216095   1.679   0.603   3.005
 5066SOL     OW16096   2.392   4.005   1.819
 5066SOL    HW116097   2.312   3.982   1.765
 5066SOL    HW216098   2.366   4.017   1.915
 5067SOL     OW16099   4.173   2.225   2.024
 5067SOL    HW116100   4.216   2.248   2.111
 5067SOL    HW216101   4.230   2.259   1.949
 5068SOL     OW16102   3.075   5.770   0.247
 5068SOL    HW116103   3.080   5.819   0.160
 5068SOL    HW216104   3.027   5.825   0.315
 5069SOL     OW16105   2.274   3.122   5.626
 5069SOL    HW116106   2.206   3.056   5.593
 5069SOL    HW216107   2.328   3.155   5.548
 5070SOL     OW16108   6.032   4.041   3.794
 5070SOL    HW116109   5.943   4.055   3.750
 5070SOL    HW216110   6.024   4.064   3.891
 5071SOL     OW16111   3.562   1.766   3.466
 5071SOL    HW116112   3.638   1.739   3.407
 5071SOL    HW216113   3.596   1.782   3.559
 5072SOL     OW16114   2.157   0.955   1.018
 5072SOL    HW116115   2.116   1.045   1.004
 5072SOL    HW216116   2.253   0.958   0.991
 5073SOL     OW16117   2.177   6.239   1.948
 5073SOL    HW116118   2.158   6.157   1.893
 5073SOL    HW216119   2.158   6.321   1.894
 5074SOL     OW16120   3.560   1.628   1.775
 5074SOL    HW116121   3.551   1.651   1.678
 5074SOL    HW216122   3.469   1.625   1.817
 5075SOL     OW16123   1.505   2.513   0.055
 5075SOL    HW116124   1.427   2.487   0.111
 5075SOL    HW216125   1.579   2.547   0.115
 5076SOL     OW16126   5.533   0.395   0.008
 5076SOL    HW116127   5.580   0.371   6.946
 5076SOL    HW216128   5.595   0.448   0.066
 5077SOL     OW16129   1.608   3.551   6.372
 5077SOL    HW116130   1.524   3.522   6.327
 5077SOL    HW216131   1.679   3.568   6.304
 5078SOL     OW16132   0.511   1.186   4.211
 5078SOL    HW116133   0.594   1.131   4.220
 5078SOL    HW216134   0.474   1.205   4.302
 5079SOL     OW16135   2.221   2.072   5.798
 5079SOL    HW116136   2.175   2.151   5.837
 5079SOL    HW216137   2.159   1.994   5.796
 5080SOL     OW16138   6.106   5.570   5.779
 5080SOL    HW116139   6.027   5.512   5.762
 5080SOL    HW216140   6.089   5.662   5.743
 5081SOL     OW16141   2.507   4.982   5.202
 5081SOL    HW116142   2.583   5.039   5.170
 5081SOL    HW216143   2.539   4.925   5.277
 5082SOL     OW16144   4.711   6.778   0.047
 5082SOL    HW116145   4.649   6.753   6.996
 5082SOL    HW216146   4.668   6.756   0.134
 5083SOL     OW16147   3.289   0.360   1.596
 5083SOL    HW116148   3.284   0.310   1.682
 5083SOL    HW216149   3.207   0.343   1.542
 5084SOL     OW16150   0.872   5.205   4.745
 5084SOL    HW116151   0.972   5.207   4.754
 5084SOL    HW216152   0.832   5.177   4.833
 5085SOL     OW16153   1.083   2.810   5.724
 5085SOL    HW116154   0.994   2.830   5.765
 5085SOL    HW216155   1.086   2.714   5.695
 5086SOL     OW16156   0.708   4.237   1.871
 5086SOL    HW116157   0.773   4.162   1.881
 5086SOL    HW216158   0.739   4.316   1.923
 5087SOL     OW16159   6.759   5.341   2.114
 5087SOL    HW116160   6.814   5.424   2.109
 5087SOL    HW216161   6.807   5.272   2.168
 5088SOL     OW16162   4.569   6.537   3.051
 5088SOL    HW116163   4.609   6.524   3.142
 5088SOL    HW216164   4.590   6.458   2.994
 5089SOL     OW16165   5.867   4.067   4.056
 5089SOL    HW116166   5.832   4.108   4.140
 5089SOL    HW216167   5.806   3.993   4.027
 5090SOL     OW16168   2.019   1.074   3.139
 5090SOL    HW116169   2.105   1.088   3.187
 5090SOL    HW216170   1.947   1.054   3.206
 5091SOL     OW16171   6.806   0.489   0.957
 5091SOL    HW116172   6.709   0.471   0.970
 5091SOL    HW216173   6.860   0.430   1.017
 5092SOL     OW16174   4.130   3.237   4.089
 5092SOL    HW116175   4.120   3.161   4.024
 5092SOL    HW216176   4.091   3.211   4.178
 5093SOL     OW16177   2.697   1.563   1.837
 5093SOL    HW116178   2.794   1.584   1.826
 5093SOL    HW216179   2.644   1.613   1.767
 5094SOL     OW16180   2.224   5.957   7.001
 5094SOL    HW116181   2.264   5.926   6.915
 5094SOL    HW216182   2.125   5.962   6.992
 5095SOL     OW16183   0.318   1.247   3.008
 5095SOL    HW116184   0.247   1.201   3.061
 5095SOL    HW216185   0.315   1.214   2.914
 5096SOL     OW16186   5.573   4.451   6.365
 5096SOL    HW116187   5.562   4.550   6.353
 5096SOL    HW216188   5.526   4.403   6.290
 5097SOL     OW16189   6.654   0.533   6.965
 5097SOL    HW116190   6.664   0.507   6.868
 5097SOL    HW216191   6.585   0.474   7.007
 5098SOL     OW16192   3.639   2.359   1.361
 5098SOL    HW116193   3.592   2.435   1.405
 5098SOL    HW216194   3.685   2.391   1.278
 5099SOL     OW16195   0.167   6.515   1.469
 5099SOL    HW116196   0.166   6.428   1.420
 5099SOL    HW216197   0.256   6.559   1.457
 5100SOL     OW16198   3.380   5.248   3.409
 5100SOL    HW116199   3.424   5.333   3.379
 5100SOL    HW216200   3.383   5.242   3.509
 5101SOL     OW16201   3.842   0.657   4.354
 5101SOL    HW116202   3.837   0.563   4.387
 5101SOL    HW216203   3.849   0.719   4.433
 5102SOL     OW16204   5.209   5.560   4.462
 5102SOL    HW116205   5.295   5.563   4.411
 5102SOL    HW216206   5.227   5.536   4.557
 5103SOL     OW16207   0.788   1.438   4.394
 5103SOL    HW116208   0.805   1.485   4.480
 5103SOL    HW216209   0.692   1.448   4.369
 5104SOL     OW16210   3.383   5.937   1.824
 5104SOL    HW116211   3.291   5.947   1.861
 5104SOL    HW216212   3.437   6.018   1.847
 5105SOL     OW16213   3.413   3.305   6.579
 5105SOL    HW116214   3.332   3.334   6.630
 5105SOL    HW216215   3.393   3.305   6.481
 5106SOL     OW16216   4.012   1.611   1.274
 5106SOL    HW116217   3.978   1.584   1.365
 5106SOL    HW216218   4.058   1.699   1.281
 5107SOL     OW16219   4.704   2.484   1.147
 5107SOL    HW116220   4.783   2.462   1.204
 5107SOL    HW216221   4.645   2.404   1.139
 5108SOL     OW16222   4.218   4.064   5.456
 5108SOL    HW116223   4.180   4.117   5.380
 5108SOL    HW216224   4.253   4.127   5.526
 5109SOL     OW16225   1.093   2.691   0.853
 5109SOL    HW116226   1.144   2.665   0.935
 5109SOL    HW216227   1.021   2.623   0.836
 5110SOL     OW16228   0.198   0.465   6.394
 5110SOL    HW116229   0.262   0.473   6.470
 5110SOL    HW216230   0.220   0.534   6.325
 5111SOL     OW16231   1.328   6.880   4.246
 5111SOL    HW116232   1.394   6.951   4.271
 5111SOL    HW216233   1.338   6.858   4.149
 5112SOL     OW16234   0.355   0.144   3.048
 5112SOL    HW116235   0.292   0.203   2.997
 5112SOL    HW216236   0.372   0.061   2.995
 5113SOL     OW16237   1.108   6.029   1.208
 5113SOL    HW116238   1.056   5.945   1.226
 5113SOL    HW216239   1.200   6.020   1.247
 5114SOL     OW16240   3.855   6.783   0.127
 5114SOL    HW116241   3.833   6.793   0.030
 5114SOL    HW216242   3.834   6.690   0.156
 5115SOL     OW16243   1.921   4.073   2.099
 5115SOL    HW116244   1.933   4.074   2.000
 5115SOL    HW216245   1.850   4.007   2.123
 5116SOL     OW16246   2.143   6.435   0.030
 5116SOL    HW116247   2.193   6.402   0.110
 5116SOL    HW216248   2.206   6.449   6.978
 5117SOL     OW16249   1.071   3.591   4.087
 5117SOL    HW116250   1.140   3.664   4.077
 5117SOL    HW216251   1.116   3.502   4.081
 5118SOL     OW16252   5.766   6.731   0.195
 5118SOL    HW116253   5.728   6.655   0.142
 5118SOL    HW216254   5.765   6.814   0.139
 5119SOL     OW16255   4.571   1.595   1.444
 5119SOL    HW116256   4.574   1.522   1.512
 5119SOL    HW216257   4.502   1.573   1.375
 5120SOL     OW16258   4.483   6.567   5.098
 5120SOL    HW116259   4.474   6.658   5.059
 5120SOL    HW216260   4.408   6.550   5.161
 5121SOL     OW16261   3.400   3.465   0.295
 5121SOL    HW116262   3.335   3.390   0.311
 5121SOL    HW216263   3.391   3.497   0.201
 5122SOL     OW16264   3.949   6.127   3.097
 5122SOL    HW116265   4.022   6.073   3.055
 5122SOL    HW216266   3.990   6.199   3.153
 5123SOL     OW16267   5.510   2.542   3.586
 5123SOL    HW116268   5.446   2.566   3.659
 5123SOL    HW216269   5.478   2.582   3.500
 5124SOL     OW16270   1.939   6.641   3.474
 5124SOL    HW116271   1.992   6.597   3.546
 5124SOL    HW216272   1.879   6.574   3.430
 5125SOL     OW16273   0.482   2.084   2.874
 5125SOL    HW116274   0.479   2.168   2.821
 5125SOL    HW216275   0.577   2.062   2.897
 5126SOL     OW16276   1.012   6.441   6.960
 5126SOL    HW116277   1.063   6.384   0.001
 5126SOL    HW216278   1.075   6.506   6.917
 5127SOL     OW16279   0.874   5.618   6.834
 5127SOL    HW116280   0.943   5.628   6.906
 5127SOL    HW216281   0.819   5.701   6.829
 5128SOL     OW16282   6.494   6.464   0.840
 5128SOL    HW116283   6.492   6.366   0.818
 5128SOL    HW216284   6.469   6.516   0.759
 5129SOL     OW16285   5.179   6.497   2.367
 5129SOL    HW116286   5.139   6.452   2.446
 5129SOL    HW216287   5.255   6.555   2.396
 5130SOL     OW16288   0.045   5.217   2.559
 5130SOL    HW116289   0.017   5.196   2.653
 5130SOL    HW216290   0.028   5.314   2.541
 5131SOL     OW16291   1.876   3.438   4.376
 5131SOL    HW116292   1.967   3.435   4.419
 5131SOL    HW216293   1.843   3.533   4.375
 5132SOL     OW16294   4.300   2.501   6.078
 5132SOL    HW116295   4.348   2.535   5.997
 5132SOL    HW216296   4.328   2.555   6.158
 5133SOL     OW16297   2.990   4.863   0.684
 5133SOL    HW116298   3.080   4.880   0.644
 5133SOL    HW216299   2.918   4.896   0.622
 5134SOL     OW16300   0.026   2.705   1.875
 5134SOL    HW116301   0.057   2.643   1.948
 5134SOL    HW216302   0.085   2.693   1.795
 5135SOL     OW16303   6.424   2.318   5.405
 5135SOL    HW116304   6.508   2.282   5.446
 5135SOL    HW216305   6.350   2.253   5.416
 5136SOL     OW16306   4.959   0.107   5.999
 5136SOL    HW116307   4.948   0.045   6.076
 5136SOL    HW216308   4.937   0.059   5.914
 5137SOL     OW16309   5.908   3.153   6.170
 5137SOL    HW116310   5.987   3.187   6.118
 5137SOL    HW216311   5.866   3.230   6.219
 5138SOL     OW16312   3.222   2.687   6.003
 5138SOL    HW116313   3.288   2.614   6.022
 5138SOL    HW216314   3.146   2.680   6.067
 5139SOL     OW16315   1.513   6.999   3.575
 5139SOL    HW116316   1.498   6.946   3.492
 5139SOL    HW216317   1.549   0.065   3.551
 5140SOL     OW16318   3.140   1.598   0.269
 5140SOL    HW116319   3.142   1.591   0.369
 5140SOL    HW216320   3.093   1.683   0.242
 5141SOL     OW16321   6.588   3.453   0.447
 5141SOL    HW116322   6.504   3.441   0.502
 5141SOL    HW216323   6.574   3.525   0.380
 5142SOL     OW16324   6.026   1.508   3.851
 5142SOL    HW116325   6.117   1.516   3.809
 5142SOL    HW216326   5.990   1.599   3.871
 5143SOL     OW16327   0.591   4.052   3.627
 5143SOL    HW116328   0.667   4.039   3.563
 5143SOL    HW216329   0.535   4.130   3.598
 5144SOL     OW16330   0.907   6.184   6.281
 5144SOL    HW116331   0.818   6.228   6.282
 5144SOL    HW216332   0.952   6.196   6.369
 5145SOL     OW16333   2.064   5.645   5.940
 5145SOL    HW116334   2.122   5.565   5.957
 5145SOL    HW216335   2.065   5.668   5.843
 5146SOL     OW16336   4.427   3.592   5.888
 5146SOL    HW116337   4.453   3.591   5.791
 5146SOL    HW216338   4.477   3.665   5.935
 5147SOL     OW16339   0.222   4.334   2.010
 5147SOL    HW116340   0.258   4.391   1.937
 5147SOL    HW216341   0.269   4.356   2.096
 5148SOL     OW16342   0.561   6.569   0.704
 5148SOL    HW116343   0.491   6.619   0.756
 5148SOL    HW216344   0.648   6.575   0.753
 5149SOL     OW16345   5.887   6.137   4.439
 5149SOL    HW116346   5.864   6.220   4.388
 5149SOL    HW216347   5.978   6.147   4.479
 5150SOL     OW16348   2.302   4.647   3.323
 5150SOL    HW116349   2.224   4.641   3.261
 5150SOL    HW216350   2.344   4.737   3.316
 5151SOL     OW16351   5.193   1.418   0.506
 5151SOL    HW116352   5.113   1.467   0.541
 5151SOL    HW216353   5.162   1.333   0.462
 5152SOL     OW16354   2.114   4.905   6.204
 5152SOL    HW116355   2.072   4.816   6.218
 5152SOL    HW216356   2.205   4.894   6.164
 5153SOL     OW16357   2.021   0.859   6.247
 5153SOL    HW116358   1.986   0.832   6.157
 5153SOL    HW216359   1.948   0.851   6.315
 5154SOL     OW16360   1.898   2.515   6.613
 5154SOL    HW116361   1.899   2.595   6.552
 5154SOL    HW216362   1.868   2.543   6.704
 5155SOL     OW16363   3.525   6.411   2.288
 5155SOL    HW116364   3.575   6.334   2.249
 5155SOL    HW216365   3.553   6.425   2.383
 5156SOL     OW16366   6.777   3.244   5.534
 5156SOL    HW116367   6.742   3.170   5.477
 5156SOL    HW216368   6.714   3.322   5.528
 5157SOL     OW16369   4.635   2.675   3.912
 5157SOL    HW116370   4.603   2.666   3.817
 5157SOL    HW216371   4.726   2.634   3.921
 5158SOL     OW16372   3.237   1.562   1.438
 5158SOL    HW116373   3.153   1.509   1.439
 5158SOL    HW216374   3.251   1.600   1.346
 5159SOL     OW16375   0.611   3.359   4.813
 5159SOL    HW116376   0.515   3.370   4.787
 5159SOL    HW216377   0.637   3.263   4.803
 5160SOL     OW16378   0.632   3.715   3.826
 5160SOL    HW116379   0.657   3.689   3.919
 5160SOL    HW216380   0.594   3.807   3.826
 5161SOL     OW16381   1.379   3.663   4.922
 5161SOL    HW116382   1.431   3.606   4.858
 5161SOL    HW216383   1.289   3.683   4.883
 5162SOL     OW16384   0.831   5.240   4.249
 5162SOL    HW116385   0.800   5.165   4.307
 5162SOL    HW216386   0.761   5.259   4.179
 5163SOL     OW16387   4.032   5.080   1.192
 5163SOL    HW116388   4.023   5.117   1.100
 5163SOL    HW216389   4.129   5.076   1.217
 5164SOL     OW16390   6.343   2.311   6.235
 5164SOL    HW116391   6.411   2.265   6.293
 5164SOL    HW216392   6.251   2.290   6.268
 5165SOL     OW16393   5.965   3.977   5.003
 5165SOL    HW116394   5.903   4.052   5.026
 5165SOL    HW216395   6.040   3.974   5.070
 5166SOL     OW16396   1.192   5.106   1.714
 5166SOL    HW116397   1.201   5.143   1.806
 5166SOL    HW216398   1.278   5.060   1.688
 5167SOL     OW16399   6.367   0.445   5.486
 5167SOL    HW116400   6.368   0.446   5.586
 5167SOL    HW216401   6.354   0.537   5.452
 5168SOL     OW16402   4.955   2.703   3.618
 5168SOL    HW116403   4.946   2.623   3.559
 5168SOL    HW216404   4.970   2.785   3.562
 5169SOL     OW16405   3.141   2.751   5.744
 5169SOL    HW116406   3.146   2.721   5.839
 5169SOL    HW216407   3.168   2.676   5.683
 5170SOL     OW16408   0.056   4.195   5.730
 5170SOL    HW116409   0.109   4.128   5.782
 5170SOL    HW216410   0.093   4.287   5.745
 5171SOL     OW16411   2.533   5.126   4.708
 5171SOL    HW116412   2.542   5.207   4.766
 5171SOL    HW216413   2.535   5.154   4.612
 5172SOL     OW16414   0.507   2.886   2.106
 5172SOL    HW116415   0.503   2.786   2.103
 5172SOL    HW216416   0.420   2.924   2.077
 5173SOL     OW16417   5.905   4.480   6.382
 5173SOL    HW116418   5.905   4.570   6.424
 5173SOL    HW216419   5.814   4.439   6.389
 5174SOL     OW16420   2.039   4.795   4.451
 5174SOL    HW116421   2.094   4.858   4.505
 5174SOL    HW216422   2.089   4.709   4.438
 5175SOL     OW16423   2.208   4.111   6.671
 5175SOL    HW116424   2.165   4.185   6.722
 5175SOL    HW216425   2.305   4.107   6.693
 5176SOL     OW16426   4.200   3.349   1.234
 5176SOL    HW116427   4.108   3.383   1.214
 5176SOL    HW216428   4.258   3.360   1.153
 5177SOL     OW16429   4.901   6.992   5.766
 5177SOL    HW116430   4.916   6.893   5.759
 5177SOL    HW216431   4.818   7.017   5.715
 5178SOL     OW16432   2.391   2.426   1.348
 5178SOL    HW116433   2.445   2.343   1.362
 5178SOL    HW216434   2.414   2.493   1.419
 5179SOL     OW16435   4.162   5.933   5.263
 5179SOL    HW116436   4.143   6.032   5.265
 5179SOL    HW216437   4.259   5.918   5.243
 5180SOL     OW16438   2.891   2.806   6.309
 5180SOL    HW116439   2.805   2.756   6.325
 5180SOL    HW216440   2.951   2.751   6.251
 5181SOL     OW16441   5.078   1.313   2.899
 5181SOL    HW116442   5.114   1.406   2.892
 5181SOL    HW216443   5.134   1.251   2.844
 5182SOL     OW16444   4.850   5.391   1.208
 5182SOL    HW116445   4.939   5.432   1.187
 5182SOL    HW216446   4.824   5.412   1.302
 5183SOL     OW16447   4.447   0.050   2.231
 5183SOL    HW116448   4.482   0.074   2.322
 5183SOL    HW216449   4.347   0.045   2.234
 5184SOL     OW16450   0.827   1.681   3.661
 5184SOL    HW116451   0.816   1.780   3.662
 5184SOL    HW216452   0.858   1.650   3.751
 5185SOL     OW16453   4.809   6.898   2.951
 5185SOL    HW116454   4.749   6.945   3.016
 5185SOL    HW216455   4.834   6.961   2.877
 5186SOL     OW16456   6.170   3.566   0.545
 5186SOL    HW116457   6.261   3.587   0.581
 5186SOL    HW216458   6.126   3.649   0.513
 5187SOL     OW16459   6.408   1.024   3.636
 5187SOL    HW116460   6.506   1.010   3.653
 5187SOL    HW216461   6.372   0.949   3.582
 5188SOL     OW16462   0.592   5.034   0.623
 5188SOL    HW116463   0.661   5.065   0.557
 5188SOL    HW216464   0.508   5.008   0.575
 5189SOL     OW16465   4.548   5.449   0.922
 5189SOL    HW116466   4.560   5.524   0.856
 5189SOL    HW216467   4.464   5.399   0.900
 5190SOL     OW16468   0.776   2.391   4.430
 5190SOL    HW116469   0.707   2.326   4.398
 5190SOL    HW216470   0.847   2.343   4.481
 5191SOL     OW16471   4.033   0.553   1.513
 5191SOL    HW116472   3.971   0.515   1.445
 5191SOL    HW216473   4.011   0.649   1.528
 5192SOL     OW16474   4.231   5.746   2.353
 5192SOL    HW116475   4.267   5.686   2.282
 5192SOL    HW216476   4.173   5.693   2.415
 5193SOL     OW16477   4.767   4.679   3.972
 5193SOL    HW116478   4.847   4.629   4.005
 5193SOL    HW216479   4.785   4.777   3.974
 5194SOL     OW16480   4.600   6.948   5.997
 5194SOL    HW116481   4.606   6.968   6.095
 5194SOL    HW216482   4.643   6.860   5.978
 5195SOL     OW16483   6.482   6.311   4.652
 5195SOL    HW116484   6.403   6.251   4.649
 5195SOL    HW216485   6.564   6.260   4.627
 5196SOL     OW16486   0.897   3.705   0.842
 5196SOL    HW116487   0.942   3.633   0.789
 5196SOL    HW216488   0.802   3.715   0.811
 5197SOL     OW16489   1.887   6.145   4.325
 5197SOL    HW116490   1.916   6.219   4.263
 5197SOL    HW216491   1.891   6.178   4.419
 5198SOL     OW16492   3.220   0.273   4.590
 5198SOL    HW116493   3.176   0.285   4.501
 5198SOL    HW216494   3.200   0.351   4.648
 5199SOL     OW16495   2.282   6.213   1.039
 5199SOL    HW116496   2.184   6.230   1.054
 5199SOL    HW216497   2.298   6.192   0.943
 5200SOL     OW16498   0.800   2.134   5.015
 5200SOL    HW116499   0.830   2.149   4.921
 5200SOL    HW216500   0.871   2.084   5.065
 5201SOL     OW16501   5.406   5.863   4.178
 5201SOL    HW116502   5.358   5.931   4.232
 5201SOL    HW216503   5.461   5.910   4.108
 5202SOL     OW16504   5.483   3.772   6.402
 5202SOL    HW116505   5.405   3.756   6.463
 5202SOL    HW216506   5.473   3.861   6.358
 5203SOL     OW16507   1.597   0.568   6.509
 5203SOL    HW116508   1.521   0.519   6.551
 5203SOL    HW216509   1.563   0.646   6.458
 5204SOL     OW16510   3.107   6.783   6.672
 5204SOL    HW116511   3.013   6.800   6.701
 5204SOL    HW216512   3.130   6.687   6.688
 5205SOL     OW16513   0.180   5.567   6.913
 5205SOL    HW116514   0.247   5.628   6.956
 5205SOL    HW216515   0.089   5.590   6.945
 5206SOL     OW16516   0.410   5.334   5.709
 5206SOL    HW116517   0.495   5.357   5.755
 5206SOL    HW216518   0.431   5.287   5.623
 5207SOL     OW16519   0.222   0.313   3.860
 5207SOL    HW116520   0.289   0.322   3.787
 5207SOL    HW216521   0.268   0.301   3.948
 5208SOL     OW16522   4.811   2.383   0.241
 5208SOL    HW116523   4.881   2.445   0.204
 5208SOL    HW216524   4.768   2.426   0.321
 5209SOL     OW16525   5.127   0.370   2.182
 5209SOL    HW116526   5.142   0.386   2.280
 5209SOL    HW216527   5.171   0.443   2.129
 5210SOL     OW16528   5.320   4.078   0.870
 5210SOL    HW116529   5.374   4.126   0.801
 5210SOL    HW216530   5.233   4.127   0.884
 5211SOL     OW16531   5.349   1.691   4.556
 5211SOL    HW116532   5.353   1.592   4.569
 5211SOL    HW216533   5.260   1.725   4.585
 5212SOL     OW16534   1.184   2.352   0.571
 5212SOL    HW116535   1.199   2.406   0.488
 5212SOL    HW216536   1.268   2.352   0.626
 5213SOL     OW16537   4.118   3.853   1.836
 5213SOL    HW116538   4.037   3.912   1.831
 5213SOL    HW216539   4.200   3.906   1.819
 5214SOL     OW16540   4.759   4.243   5.872
 5214SOL    HW116541   4.825   4.169   5.856
 5214SOL    HW216542   4.807   4.330   5.871
 5215SOL     OW16543   0.064   4.041   4.192
 5215SOL    HW116544   7.011   3.976   4.189
 5215SOL    HW216545   0.069   4.082   4.283
 5216SOL     OW16546   4.845   5.714   1.106
 5216SOL    HW116547   4.911   5.765   1.051
 5216SOL    HW216548   4.838   5.755   1.197
 5217SOL     OW16549   3.870   5.537   4.472
 5217SOL    HW116550   3.865   5.584   4.384
 5217SOL    HW216551   3.885   5.605   4.545
 5218SOL     OW16552   0.265   1.487   0.769
 5218SOL    HW116553   0.180   1.535   0.748
 5218SOL    HW216554   0.257   1.441   0.857
 5219SOL     OW16555   3.434   1.306   4.815
 5219SOL    HW116556   3.385   1.393   4.805
 5219SOL    HW216557   3.500   1.296   4.740
 5220SOL     OW16558   1.532   5.074   3.078
 5220SOL    HW116559   1.611   5.064   3.018
 5220SOL    HW216560   1.467   5.000   3.059
 5221SOL     OW16561   0.356   0.593   1.850
 5221SOL    HW116562   0.430   0.564   1.789
 5221SOL    HW216563   0.307   0.513   1.884
 5222SOL     OW16564   3.983   5.691   2.599
 5222SOL    HW116565   3.955   5.667   2.506
 5222SOL    HW216566   3.963   5.787   2.616
 5223SOL     OW16567   0.037   2.573   1.265
 5223SOL    HW116568   0.001   2.485   1.234
 5223SOL    HW216569   7.007   2.647   1.225
 5224SOL     OW16570   0.623   2.132   4.336
 5224SOL    HW116571   0.603   2.051   4.391
 5224SOL    HW216572   0.538   2.169   4.299
 5225SOL     OW16573   0.006   1.370   4.415
 5225SOL    HW116574   6.994   1.334   4.329
 5225SOL    HW216575   6.957   1.373   4.483
 5226SOL     OW16576   0.113   5.976   3.313
 5226SOL    HW116577   0.110   6.076   3.315
 5226SOL    HW216578   0.034   5.939   3.362
 5227SOL     OW16579   0.309   3.600   6.042
 5227SOL    HW116580   0.222   3.551   6.029
 5227SOL    HW216581   0.300   3.693   6.008
 5228SOL     OW16582   0.797   2.443   6.823
 5228SOL    HW116583   0.790   2.512   6.894
 5228SOL    HW216584   0.802   2.352   6.865
 5229SOL     OW16585   3.296   6.276   6.233
 5229SOL    HW116586   3.205   6.240   6.255
 5229SOL    HW216587   3.332   6.229   6.152
 5230SOL     OW16588   6.527   0.092   2.780
 5230SOL    HW116589   6.529   0.174   2.724
 5230SOL    HW216590   6.461   0.104   2.855
 5231SOL     OW16591   4.906   1.953   3.617
 5231SOL    HW116592   4.944   1.871   3.577
 5231SOL    HW216593   4.884   2.019   3.545
 5232SOL     OW16594   1.438   4.267   6.046
 5232SOL    HW116595   1.399   4.277   6.137
 5232SOL    HW216596   1.528   4.312   6.043
 5233SOL     OW16597   3.233   1.081   2.005
 5233SOL    HW116598   3.241   0.982   2.009
 5233SOL    HW216599   3.169   1.113   2.074
 5234SOL     OW16600   3.238   3.435   6.737
 5234SOL    HW116601   3.280   3.525   6.729
 5234SOL    HW216602   3.165   3.438   6.805
 5235SOL     OW16603   2.249   2.053   0.486
 5235SOL    HW116604   2.165   2.100   0.459
 5235SOL    HW216605   2.232   1.955   0.497
 5236SOL     OW16606   3.078   4.946   1.794
 5236SOL    HW116607   2.997   4.891   1.814
 5236SOL    HW216608   3.160   4.896   1.821
 5237SOL     OW16609   2.320   1.354   4.767
 5237SOL    HW116610   2.331   1.309   4.678
 5237SOL    HW216611   2.411   1.374   4.805
 5238SOL     OW16612   0.955   4.756   1.622
 5238SOL    HW116613   0.870   4.719   1.582
 5238SOL    HW216614   0.946   4.854   1.635
 5239SOL     OW16615   3.341   3.409   1.026
 5239SOL    HW116616   3.335   3.370   0.934
 5239SOL    HW216617   3.332   3.508   1.021
 5240SOL     OW16618   2.878   2.609   5.562
 5240SOL    HW116619   2.881   2.706   5.540
 5240SOL    HW216620   2.906   2.556   5.482
 5241SOL     OW16621   1.002   5.734   2.394
 5241SOL    HW116622   0.953   5.658   2.352
 5241SOL    HW216623   1.020   5.804   2.324
 5242SOL     OW16624   4.983   0.490   1.785
 5242SOL    HW116625   4.886   0.470   1.800
 5242SOL    HW216626   5.025   0.519   1.871
 5243SOL     OW16627   2.083   5.985   1.752
 5243SOL    HW116628   2.004   5.931   1.723
 5243SOL    HW216629   2.143   5.929   1.809
 5244SOL     OW16630   5.156   3.332   0.163
 5244SOL    HW116631   5.116   3.380   0.241
 5244SOL    HW216632   5.144   3.233   0.174
 5245SOL     OW16633   4.212   4.011   0.623
 5245SOL    HW116634   4.248   4.036   0.713
 5245SOL    HW216635   4.120   3.974   0.633
 5246SOL     OW16636   5.996   2.406   2.141
 5246SOL    HW116637   5.907   2.442   2.116
 5246SOL    HW216638   6.055   2.403   2.060
 5247SOL     OW16639   3.786   1.123   5.576
 5247SOL    HW116640   3.735   1.209   5.572
 5247SOL    HW216641   3.881   1.139   5.547
 5248SOL     OW16642   0.261   1.933   2.874
 5248SOL    HW116643   0.290   1.837   2.868
 5248SOL    HW216644   0.342   1.992   2.869
 5249SOL     OW16645   1.848   5.489   6.560
 5249SOL    HW116646   1.799   5.420   6.613
 5249SOL    HW216647   1.820   5.580   6.589
 5250SOL     OW16648   1.525   6.068   0.197
 5250SOL    HW116649   1.508   6.035   0.290
 5250SOL    HW216650   1.624   6.074   0.181
 5251SOL     OW16651   0.758   4.850   0.818
 5251SOL    HW116652   0.745   4.932   0.762
 5251SOL    HW216653   0.727   4.769   0.767
 5252SOL     OW16654   2.849   6.614   2.185
 5252SOL    HW116655   2.940   6.576   2.195
 5252SOL    HW216656   2.839   6.694   2.245
 5253SOL     OW16657   6.624   4.281   4.705
 5253SOL    HW116658   6.652   4.255   4.612
 5253SOL    HW216659   6.621   4.381   4.712
 5254SOL     OW16660   5.634   0.400   3.781
 5254SOL    HW116661   5.676   0.439   3.698
 5254SOL    HW216662   5.706   0.362   3.839
 5255SOL     OW16663   5.594   2.193   4.709
 5255SOL    HW116664   5.544   2.275   4.682
 5255SOL    HW216665   5.659   2.216   4.782
 5256SOL     OW16666   5.115   1.840   4.070
 5256SOL    HW116667   5.027   1.816   4.030
 5256SOL    HW216668   5.188   1.810   4.009
 5257SOL     OW16669   4.707   6.732   1.020
 5257SOL    HW116670   4.740   6.825   1.008
 5257SOL    HW216671   4.784   6.668   1.018
 5258SOL     OW16672   5.160   1.889   3.094
 5258SOL    HW116673   5.206   1.949   3.030
 5258SOL    HW216674   5.200   1.797   3.089
 5259SOL     OW16675   4.967   5.247   2.679
 5259SOL    HW116676   5.016   5.325   2.719
 5259SOL    HW216677   5.020   5.164   2.692
 5260SOL     OW16678   3.506   5.661   0.317
 5260SOL    HW116679   3.563   5.595   0.366
 5260SOL    HW216680   3.413   5.657   0.354
 5261SOL     OW16681   0.640   4.227   0.199
 5261SOL    HW116682   0.688   4.313   0.213
 5261SOL    HW216683   0.700   4.161   0.154
 5262SOL     OW16684   2.476   0.512   3.254
 5262SOL    HW116685   2.488   0.602   3.213
 5262SOL    HW216686   2.480   0.520   3.354
 5263SOL     OW16687   1.973   1.272   2.513
 5263SOL    HW116688   1.991   1.310   2.422
 5263SOL    HW216689   1.898   1.206   2.507
 5264SOL     OW16690   6.925   2.115   1.990
 5264SOL    HW116691   6.876   2.103   2.076
 5264SOL    HW216692   6.986   2.037   1.976
 5265SOL     OW16693   6.224   3.004   4.519
 5265SOL    HW116694   6.318   3.013   4.486
 5265SOL    HW216695   6.194   2.910   4.511
 5266SOL     OW16696   2.884   6.286   1.066
 5266SOL    HW116697   2.917   6.287   0.971
 5266SOL    HW216698   2.789   6.317   1.068
 5267SOL     OW16699   4.644   2.304   4.489
 5267SOL    HW116700   4.698   2.362   4.549
 5267SOL    HW216701   4.550   2.338   4.485
 5268SOL     OW16702   4.954   0.450   6.723
 5268SOL    HW116703   5.020   0.466   6.649
 5268SOL    HW216704   4.868   0.496   6.701
 5269SOL     OW16705   1.174   6.478   2.313
 5269SOL    HW116706   1.201   6.381   2.306
 5269SOL    HW216707   1.212   6.516   2.397
 5270SOL     OW16708   5.503   1.923   1.679
 5270SOL    HW116709   5.589   1.927   1.731
 5270SOL    HW216710   5.438   1.865   1.726
 5271SOL     OW16711   5.989   4.729   5.625
 5271SOL    HW116712   6.012   4.826   5.621
 5271SOL    HW216713   6.071   4.676   5.645
 5272SOL     OW16714   3.312   5.651   1.179
 5272SOL    HW116715   3.250   5.669   1.103
 5272SOL    HW216716   3.334   5.736   1.226
 5273SOL     OW16717   0.679   3.367   2.381
 5273SOL    HW116718   0.749   3.438   2.393
 5273SOL    HW216719   0.589   3.409   2.375
 5274SOL     OW16720   5.269   6.546   2.678
 5274SOL    HW116721   5.278   6.625   2.739
 5274SOL    HW216722   5.189   6.493   2.705
 5275SOL     OW16723   3.691   1.092   0.657
 5275SOL    HW116724   3.643   1.014   0.697
 5275SOL    HW216725   3.734   1.145   0.729
 5276SOL     OW16726   2.180   0.529   1.395
 5276SOL    HW116727   2.253   0.487   1.342
 5276SOL    HW216728   2.220   0.585   1.468
 5277SOL     OW16729   2.935   1.024   2.782
 5277SOL    HW116730   2.856   1.067   2.828
 5277SOL    HW216731   2.964   1.081   2.705
 5278SOL     OW16732   4.950   5.322   3.854
 5278SOL    HW116733   4.975   5.292   3.946
 5278SOL    HW216734   4.949   5.244   3.792
 5279SOL     OW16735   2.408   5.977   1.115
 5279SOL    HW116736   2.497   6.006   1.149
 5279SOL    HW216737   2.347   6.056   1.109
 5280SOL     OW16738   2.969   6.097   4.636
 5280SOL    HW116739   3.059   6.062   4.660
 5280SOL    HW216740   2.977   6.191   4.604
 5281SOL     OW16741   6.392   2.151   2.311
 5281SOL    HW116742   6.447   2.113   2.385
 5281SOL    HW216743   6.397   2.251   2.314
 5282SOL     OW16744   2.491   1.517   3.668
 5282SOL    HW116745   2.563   1.559   3.614
 5282SOL    HW216746   2.483   1.564   3.756
 5283SOL     OW16747   4.972   6.626   1.900
 5283SOL    HW116748   5.027   6.695   1.853
 5283SOL    HW216749   5.029   6.547   1.921
 5284SOL     OW16750   5.318   4.242   3.059
 5284SOL    HW116751   5.289   4.276   2.970
 5284SOL    HW216752   5.374   4.160   3.046
 5285SOL     OW16753   3.075   4.851   4.154
 5285SOL    HW116754   3.162   4.863   4.202
 5285SOL    HW216755   3.087   4.868   4.057
 5286SOL     OW16756   2.394   3.960   1.143
 5286SOL    HW116757   2.386   3.897   1.219
 5286SOL    HW216758   2.304   3.979   1.105
 5287SOL     OW16759   2.729   1.104   0.795
 5287SOL    HW116760   2.797   1.175   0.776
 5287SOL    HW216761   2.690   1.071   0.709
 5288SOL     OW16762   4.332   0.241   1.482
 5288SOL    HW116763   4.325   0.340   1.470
 5288SOL    HW216764   4.264   0.196   1.424
 5289SOL     OW16765   1.203   5.097   0.356
 5289SOL    HW116766   1.237   5.180   0.312
 5289SOL    HW216767   1.232   5.095   0.451
 5290SOL     OW16768   3.264   5.838   6.868
 5290SOL    HW116769   3.295   5.744   6.879
 5290SOL    HW216770   3.222   5.870   6.954
 5291SOL     OW16771   2.465   5.659   5.427
 5291SOL    HW116772   2.470   5.750   5.469
 5291SOL    HW216773   2.523   5.596   5.479
 5292SOL     OW16774   5.765   3.261   0.035
 5292SOL    HW116775   5.718   3.289   0.119
 5292SOL    HW216776   5.847   3.317   0.022
 5293SOL     OW16777   0.691   0.929   4.894
 5293SOL    HW116778   0.760   0.986   4.849
 5293SOL    HW216779   0.612   0.917   4.834
 5294SOL     OW16780   5.874   3.077   6.606
 5294SOL    HW116781   5.849   3.171   6.585
 5294SOL    HW216782   5.928   3.074   6.689
 5295SOL     OW16783   5.529   1.313   3.157
 5295SOL    HW116784   5.469   1.293   3.079
 5295SOL    HW216785   5.527   1.412   3.175
 5296SOL     OW16786   1.677   4.805   0.086
 5296SOL    HW116787   1.676   4.708   0.064
 5296SOL    HW216788   1.677   4.858   0.001
 5297SOL     OW16789   2.459   2.022   0.763
 5297SOL    HW116790   2.495   2.045   0.672
 5297SOL    HW216791   2.511   2.073   0.832
 5298SOL     OW16792   6.518   5.301   2.229
 5298SOL    HW116793   6.608   5.310   2.188
 5298SOL    HW216794   6.505   5.373   2.298
 5299SOL     OW16795   2.821   0.739   1.598
 5299SOL    HW116796   2.869   0.672   1.542
 5299SOL    HW216797   2.817   0.826   1.550
 5300SOL     OW16798   0.244   5.357   3.176
 5300SOL    HW116799   0.333   5.401   3.188
 5300SOL    HW216800   0.256   5.258   3.169
 5301SOL     OW16801   4.246   1.643   0.107
 5301SOL    HW116802   4.212   1.674   0.018
 5301SOL    HW216803   4.313   1.709   0.141
 5302SOL     OW16804   6.634   4.169   2.492
 5302SOL    HW116805   6.717   4.123   2.524
 5302SOL    HW216806   6.657   4.228   2.414
 5303SOL     OW16807   6.509   4.838   3.509
 5303SOL    HW116808   6.471   4.806   3.596
 5303SOL    HW216809   6.455   4.915   3.475
 5304SOL     OW16810   5.316   2.144   6.101
 5304SOL    HW116811   5.295   2.236   6.134
 5304SOL    HW216812   5.319   2.081   6.178
 5305SOL     OW16813   1.655   0.743   3.852
 5305SOL    HW116814   1.697   0.832   3.869
 5305SOL    HW216815   1.565   0.756   3.810
 5306SOL     OW16816   2.494   5.881   5.559
 5306SOL    HW116817   2.454   5.960   5.513
 5306SOL    HW216818   2.594   5.887   5.555
 5307SOL     OW16819   4.304   6.421   6.159
 5307SOL    HW116820   4.332   6.421   6.255
 5307SOL    HW216821   4.374   6.465   6.103
 5308SOL     OW16822   0.385   0.590   4.111
 5308SOL    HW116823   0.291   0.595   4.079
 5308SOL    HW216824   0.443   0.650   4.055
 5309SOL     OW16825   3.709   3.969   3.487
 5309SOL    HW116826   3.631   3.907   3.492
 5309SOL    HW216827   3.712   4.012   3.397
 5310SOL     OW16828   5.065   2.795   1.470
 5310SOL    HW116829   5.069   2.766   1.566
 5310SOL    HW216830   5.126   2.874   1.457
 5311SOL     OW16831   1.629   5.547   6.915
 5311SOL    HW116832   1.665   5.454   6.923
 5311SOL    HW216833   1.649   5.598   6.998
 5312SOL     OW16834   0.885   4.750   2.381
 5312SOL    HW116835   0.843   4.806   2.309
 5312SOL    HW216836   0.883   4.800   2.468
 5313SOL     OW16837   0.907   6.294   6.768
 5313SOL    HW116838   0.818   6.316   6.728
 5313SOL    HW216839   0.930   6.362   6.837
 5314SOL     OW16840   4.496   5.222   0.154
 5314SOL    HW116841   4.541   5.295   0.103
 5314SOL    HW216842   4.533   5.134   0.126
 5315SOL     OW16843   5.039   4.161   1.792
 5315SOL    HW116844   4.941   4.144   1.804
 5315SOL    HW216845   5.051   4.244   1.737
 5316SOL     OW16846   6.746   5.238   4.563
 5316SOL    HW116847   6.831   5.202   4.525
 5316SOL    HW216848   6.668   5.187   4.526
 5317SOL     OW16849   5.685   1.104   3.168
 5317SOL    HW116850   5.651   1.196   3.147
 5317SOL    HW216851   5.753   1.077   3.099
 5318SOL     OW16852   6.956   2.995   4.846
 5318SOL    HW116853   0.011   3.013   4.904
 5318SOL    HW216854   6.921   2.903   4.864
 5319SOL     OW16855   5.512   6.896   6.771
 5319SOL    HW116856   5.570   6.940   6.840
 5319SOL    HW216857   5.518   6.797   6.781
 5320SOL     OW16858   6.455   3.836   6.336
 5320SOL    HW116859   6.400   3.893   6.275
 5320SOL    HW216860   6.451   3.741   6.305
 5321SOL     OW16861   1.880   4.977   4.316
 5321SOL    HW116862   1.950   4.923   4.362
 5321SOL    HW216863   1.887   5.072   4.345
 5322SOL     OW16864   3.960   6.589   6.769
 5322SOL    HW116865   3.913   6.502   6.756
 5322SOL    HW216866   4.025   6.580   6.844
 5323SOL     OW16867   4.344   2.143   0.723
 5323SOL    HW116868   4.305   2.207   0.657
 5323SOL    HW216869   4.434   2.177   0.752
 5324SOL     OW16870   3.865   2.472   1.651
 5324SOL    HW116871   3.786   2.525   1.680
 5324SOL    HW216872   3.872   2.389   1.705
 5325SOL     OW16873   4.976   6.545   2.205
 5325SOL    HW116874   4.942   6.636   2.183
 5325SOL    HW216875   5.054   6.553   2.267
 5326SOL     OW16876   6.957   5.667   1.563
 5326SOL    HW116877   6.914   5.589   1.610
 5326SOL    HW216878   6.957   5.650   1.464
 5327SOL     OW16879   0.092   7.004   4.717
 5327SOL    HW116880   0.135   0.016   4.634
 5327SOL    HW216881   0.154   7.015   4.794
 5328SOL     OW16882   4.116   3.726   6.501
 5328SOL    HW116883   4.072   3.799   6.448
 5328SOL    HW216884   4.051   3.690   6.567
 5329SOL     OW16885   0.573   4.611   0.406
 5329SOL    HW116886   0.653   4.555   0.381
 5329SOL    HW216887   0.526   4.568   0.484
 5330SOL     OW16888   3.815   3.627   0.609
 5330SOL    HW116889   3.863   3.668   0.686
 5330SOL    HW216890   3.717   3.647   0.616
 5331SOL     OW16891   4.652   2.104   0.635
 5331SOL    HW116892   4.624   2.117   0.730
 5331SOL    HW216893   4.696   2.015   0.624
 5332SOL     OW16894   6.392   5.102   0.555
 5332SOL    HW116895   6.388   5.169   0.628
 5332SOL    HW216896   6.433   5.017   0.589
 5333SOL     OW16897   2.137   1.379   3.331
 5333SOL    HW116898   2.079   1.434   3.272
 5333SOL    HW216899   2.127   1.409   3.426
 5334SOL     OW16900   4.722   4.731   3.613
 5334SOL    HW116901   4.712   4.769   3.521
 5334SOL    HW216902   4.688   4.637   3.615
 5335SOL     OW16903   0.012   4.220   2.194
 5335SOL    HW116904   6.952   4.203   2.142
 5335SOL    HW216905   0.075   4.276   2.141
 5336SOL     OW16906   1.852   1.951   3.911
 5336SOL    HW116907   1.781   1.889   3.876
 5336SOL    HW216908   1.873   1.928   4.006
 5337SOL     OW16909   5.896   4.148   1.352
 5337SOL    HW116910   5.881   4.127   1.255
 5337SOL    HW216911   5.960   4.225   1.360
 5338SOL     OW16912   6.055   3.059   6.812
 5338SOL    HW116913   6.073   3.131   6.879
 5338SOL    HW216914   6.141   3.028   6.772
 5339SOL     OW16915   6.060   2.220   2.304
 5339SOL    HW116916   6.035   2.303   2.254
 5339SOL    HW216917   6.159   2.208   2.302
 5340SOL     OW16918   5.658   2.953   2.091
 5340SOL    HW116919   5.697   2.948   2.183
 5340SOL    HW216920   5.697   2.881   2.034
 5341SOL     OW16921   4.991   4.720   3.707
 5341SOL    HW116922   5.025   4.641   3.656
 5341SOL    HW216923   4.891   4.716   3.713
 5342SOL     OW16924   5.744   6.954   5.808
 5342SOL    HW116925   5.675   6.950   5.735
 5342SOL    HW216926   5.728   6.880   5.872
 5343SOL     OW16927   3.653   3.759   5.604
 5343SOL    HW116928   3.589   3.787   5.532
 5343SOL    HW216929   3.705   3.839   5.634
 5344SOL     OW16930   0.714   1.549   0.023
 5344SOL    HW116931   0.794   1.512   6.999
 5344SOL    HW216932   0.722   1.529   0.121
 5345SOL     OW16933   4.676   1.707   6.724
 5345SOL    HW116934   4.645   1.671   6.636
 5345SOL    HW216935   4.651   1.643   6.797
 5346SOL     OW16936   3.066   5.004   3.894
 5346SOL    HW116937   3.095   5.074   3.959
 5346SOL    HW216938   2.973   5.025   3.862
 5347SOL     OW16939   6.395   2.334   3.763
 5347SOL    HW116940   6.295   2.336   3.752
 5347SOL    HW216941   6.437   2.318   3.674
 5348SOL     OW16942   5.528   1.828   4.401
 5348SOL    HW116943   5.585   1.894   4.452
 5348SOL    HW216944   5.474   1.774   4.466
 5349SOL     OW16945   0.712   2.461   1.877
 5349SOL    HW116946   0.774   2.520   1.930
 5349SOL    HW216947   0.759   2.428   1.795
 5350SOL     OW16948   1.773   6.796   5.664
 5350SOL    HW116949   1.700   6.832   5.607
 5350SOL    HW216950   1.758   6.824   5.759
 5351SOL     OW16951   0.379   5.426   1.470
 5351SOL    HW116952   0.337   5.347   1.426
 5351SOL    HW216953   0.471   5.402   1.501
 5352SOL     OW16954   1.849   4.034   3.614
 5352SOL    HW116955   1.877   4.052   3.520
 5352SOL    HW216956   1.840   3.936   3.629
 5353SOL     OW16957   4.452   5.333   3.577
 5353SOL    HW116958   4.371   5.354   3.522
 5353SOL    HW216959   4.522   5.291   3.520
 5354SOL     OW16960   3.449   5.281   0.791
 5354SOL    HW116961   3.384   5.302   0.719
 5354SOL    HW216962   3.404   5.285   0.880
 5355SOL     OW16963   5.523   5.336   5.413
 5355SOL    HW116964   5.423   5.334   5.414
 5355SOL    HW216965   5.554   5.391   5.335
 5356SOL     OW16966   0.330   4.331   1.604
 5356SOL    HW116967   0.248   4.304   1.554
 5356SOL    HW216968   0.398   4.258   1.599
 5357SOL     OW16969   4.398   5.139   1.727
 5357SOL    HW116970   4.392   5.092   1.639
 5357SOL    HW216971   4.310   5.134   1.774
 5358SOL     OW16972   4.486   1.796   0.147
 5358SOL    HW116973   4.528   1.825   0.061
 5358SOL    HW216974   4.466   1.877   0.203
 5359SOL     OW16975   1.676   1.390   0.190
 5359SOL    HW116976   1.606   1.325   0.220
 5359SOL    HW216977   1.751   1.340   0.147
 5360SOL     OW16978   5.847   4.991   4.165
 5360SOL    HW116979   5.928   5.050   4.171
 5360SOL    HW216980   5.770   5.037   4.209
 5361SOL     OW16981   3.658   6.276   2.752
 5361SOL    HW116982   3.672   6.241   2.844
 5361SOL    HW216983   3.628   6.202   2.692
 5362SOL     OW16984   5.216   6.806   2.103
 5362SOL    HW116985   5.161   6.842   2.179
 5362SOL    HW216986   5.294   6.755   2.140
 5363SOL     OW16987   5.892   5.967   4.862
 5363SOL    HW116988   5.888   5.912   4.945
 5363SOL    HW216989   5.844   6.053   4.876
 5364SOL     OW16990   4.979   0.585   2.543
 5364SOL    HW116991   4.991   0.536   2.629
 5364SOL    HW216992   4.971   0.683   2.561
 5365SOL     OW16993   3.101   3.016   3.796
 5365SOL    HW116994   3.045   3.096   3.817
 5365SOL    HW216995   3.135   3.023   3.703
 5366SOL     OW16996   6.654   0.139   1.550
 5366SOL    HW116997   6.611   0.116   1.637
 5366SOL    HW216998   6.618   0.227   1.518
 5367SOL     OW16999   6.725   6.683   0.706
 5367SOL    HW117000   6.628   6.685   0.728
 5367SOL    HW217001   6.747   6.757   0.643
 5368SOL     OW17002   6.765   5.835   2.531
 5368SOL    HW117003   6.761   5.889   2.448
 5368SOL    HW217004   6.718   5.884   2.605
 5369SOL     OW17005   2.623   5.022   1.915
 5369SOL    HW117006   2.686   4.953   1.879
 5369SOL    HW217007   2.676   5.095   1.958
 5370SOL     OW17008   3.927   3.850   1.558
 5370SOL    HW117009   3.878   3.931   1.526
 5370SOL    HW217010   3.888   3.819   1.645
 5371SOL     OW17011   0.093   5.248   5.186
 5371SOL    HW117012   0.036   5.265   5.267
 5371SOL    HW217013   0.105   5.149   5.175
 5372SOL     OW17014   1.497   0.371   2.588
 5372SOL    HW117015   1.403   0.396   2.610
 5372SOL    HW217016   1.497   0.306   2.512
 5373SOL     OW17017   4.245   6.894   5.523
 5373SOL    HW117018   4.269   6.939   5.438
 5373SOL    HW217019   4.293   6.937   5.599
 5374SOL     OW17020   2.513   5.441   1.271
 5374SOL    HW117021   2.558   5.513   1.220
 5374SOL    HW217022   2.574   5.363   1.281
 5375SOL     OW17023   0.614   6.356   5.023
 5375SOL    HW117024   0.654   6.344   4.932
 5375SOL    HW217025   0.636   6.447   5.058
 5376SOL     OW17026   0.885   1.837   0.462
 5376SOL    HW117027   0.819   1.881   0.522
 5376SOL    HW217028   0.928   1.760   0.511
 5377SOL     OW17029   2.032   0.880   2.910
 5377SOL    HW117030   2.090   0.798   2.901
 5377SOL    HW217031   2.035   0.911   3.005
 5378SOL     OW17032   5.699   0.766   1.179
 5378SOL    HW117033   5.635   0.748   1.255
 5378SOL    HW217034   5.660   0.835   1.118
 5379SOL     OW17035   1.193   3.058   5.798
 5379SOL    HW117036   1.261   3.046   5.870
 5379SOL    HW217037   1.177   2.970   5.752
 5380SOL     OW17038   4.285   6.872   1.468
 5380SOL    HW117039   4.322   6.913   1.385
 5380SOL    HW217040   4.346   6.891   1.545
 5381SOL     OW17041   5.190   6.623   3.042
 5381SOL    HW117042   5.090   6.620   3.046
 5381SOL    HW217043   5.225   6.534   3.012
 5382SOL     OW17044   4.137   1.617   3.016
 5382SOL    HW117045   4.072   1.660   2.953
 5382SOL    HW217046   4.221   1.593   2.966
 5383SOL     OW17047   1.337   3.101   4.100
 5383SOL    HW117048   1.344   3.005   4.071
 5383SOL    HW217049   1.260   3.111   4.163
 5384SOL     OW17050   4.452   5.780   5.526
 5384SOL    HW117051   4.354   5.763   5.530
 5384SOL    HW217052   4.489   5.745   5.440
 5385SOL     OW17053   6.213   2.544   5.731
 5385SOL    HW117054   6.184   2.549   5.827
 5385SOL    HW217055   6.307   2.577   5.724
 5386SOL     OW17056   6.331   3.165   3.957
 5386SOL    HW117057   6.235   3.172   3.929
 5386SOL    HW217058   6.390   3.183   3.878
 5387SOL     OW17059   2.481   0.468   2.194
 5387SOL    HW117060   2.474   0.501   2.100
 5387SOL    HW217061   2.431   0.383   2.204
 5388SOL     OW17062   0.833   6.393   2.755
 5388SOL    HW117063   0.926   6.380   2.721
 5388SOL    HW217064   0.769   6.351   2.690
 5389SOL     OW17065   4.306   1.678   4.553
 5389SOL    HW117066   4.373   1.620   4.598
 5389SOL    HW217067   4.216   1.665   4.597
 5390SOL     OW17068   6.480   3.404   3.595
 5390SOL    HW117069   6.503   3.446   3.683
 5390SOL    HW217070   6.417   3.464   3.545
 5391SOL     OW17071   2.215   1.931   0.103
 5391SOL    HW117072   2.153   2.008   0.089
 5391SOL    HW217073   2.305   1.966   0.132
 5392SOL     OW17074   4.438   2.061   3.728
 5392SOL    HW117075   4.442   1.989   3.658
 5392SOL    HW217076   4.529   2.101   3.740
 5393SOL     OW17077   4.039   0.780   5.667
 5393SOL    HW117078   4.057   0.775   5.569
 5393SOL    HW217079   4.044   0.875   5.698
 5394SOL     OW17080   1.943   0.100   0.609
 5394SOL    HW117081   2.001   0.179   0.629
 5394SOL    HW217082   1.970   0.024   0.668
 5395SOL     OW17083   4.809   2.183   1.616
 5395SOL    HW117084   4.907   2.163   1.612
 5395SOL    HW217085   4.780   2.188   1.711
 5396SOL     OW17086   5.914   5.591   2.660
 5396SOL    HW117087   5.850   5.652   2.613
 5396SOL    HW217088   6.004   5.636   2.665
 5397SOL     OW17089   6.022   1.346   2.956
 5397SOL    HW117090   6.077   1.325   2.875
 5397SOL    HW217091   5.985   1.261   2.994
 5398SOL     OW17092   4.540   2.298   3.987
 5398SOL    HW117093   4.507   2.207   4.011
 5398SOL    HW217094   4.631   2.312   4.024
 5399SOL     OW17095   1.892   0.130   5.452
 5399SOL    HW117096   1.869   0.147   5.548
 5399SOL    HW217097   1.984   0.091   5.447
 5400SOL     OW17098   3.430   3.014   1.281
 5400SOL    HW117099   3.376   3.097   1.292
 5400SOL    HW217100   3.449   2.998   1.184
 5401SOL     OW17101   5.328   4.379   2.739
 5401SOL    HW117102   5.307   4.476   2.727
 5401SOL    HW217103   5.244   4.330   2.763
 5402SOL     OW17104   2.144   0.088   0.972
 5402SOL    HW117105   2.049   0.121   0.971
 5402SOL    HW217106   2.192   0.126   1.050
 5403SOL     OW17107   5.045   3.281   6.931
 5403SOL    HW117108   5.098   3.201   6.903
 5403SOL    HW217109   5.067   3.304   0.002
 5404SOL     OW17110   7.018   0.733   1.333
 5404SOL    HW117111   6.964   0.811   1.303
 5404SOL    HW217112   0.089   0.746   1.305
 5405SOL     OW17113   5.160   5.591   0.119
 5405SOL    HW117114   5.067   5.559   0.099
 5405SOL    HW217115   5.158   5.646   0.203
 5406SOL     OW17116   2.434   0.735   4.709
 5406SOL    HW117117   2.441   0.833   4.730
 5406SOL    HW217118   2.526   0.695   4.704
 5407SOL     OW17119   2.463   0.587   1.423
 5407SOL    HW117120   2.437   0.669   1.474
 5407SOL    HW217121   2.519   0.612   1.345
 5408SOL     OW17122   2.831   2.326   4.347
 5408SOL    HW117123   2.920   2.371   4.346
 5408SOL    HW217124   2.842   2.229   4.329
 5409SOL     OW17125   0.232   2.676   1.446
 5409SOL    HW117126   0.248   2.775   1.449
 5409SOL    HW217127   0.163   2.655   1.377
 5410SOL     OW17128   0.860   2.040   1.504
 5410SOL    HW117129   0.934   2.106   1.517
 5410SOL    HW217130   0.886   1.975   1.431
 5411SOL     OW17131   4.878   5.525   6.619
 5411SOL    HW117132   4.865   5.453   6.551
 5411SOL    HW217133   4.823   5.504   6.700
 5412SOL     OW17134   1.013   1.835   6.469
 5412SOL    HW117135   1.075   1.913   6.468
 5412SOL    HW217136   0.950   1.841   6.392
 5413SOL     OW17137   6.512   6.967   5.328
 5413SOL    HW117138   6.507   6.976   5.229
 5413SOL    HW217139   6.535   0.031   5.369
 5414SOL     OW17140   6.917   4.650   5.711
 5414SOL    HW117141   6.887   4.555   5.721
 5414SOL    HW217142   6.953   4.683   5.798
 5415SOL     OW17143   3.240   0.198   0.477
 5415SOL    HW117144   3.262   0.212   0.573
 5415SOL    HW217145   3.150   0.236   0.457
 5416SOL     OW17146   2.752   4.945   5.649
 5416SOL    HW117147   2.664   4.967   5.607
 5416SOL    HW217148   2.794   5.029   5.684
 5417SOL     OW17149   4.774   5.515   3.397
 5417SOL    HW117150   4.859   5.563   3.378
 5417SOL    HW217151   4.725   5.563   3.470
 5418SOL     OW17152   6.062   4.354   4.329
 5418SOL    HW117153   6.040   4.383   4.423
 5418SOL    HW217154   6.094   4.434   4.277
 5419SOL     OW17155   4.051   0.181   6.645
 5419SOL    HW117156   4.016   0.128   6.722
 5419SOL    HW217157   4.002   0.268   6.639
 5420SOL     OW17158   1.451   1.659   1.193
 5420SOL    HW117159   1.415   1.596   1.124
 5420SOL    HW217160   1.410   1.749   1.181
 5421SOL     OW17161   3.434   5.293   2.043
 5421SOL    HW117162   3.436   5.392   2.058
 5421SOL    HW217163   3.372   5.272   1.968
 5422SOL     OW17164   2.071   5.829   3.949
 5422SOL    HW117165   2.027   5.741   3.969
 5422SOL    HW217166   2.114   5.865   4.033
 5423SOL     OW17167   6.529   6.409   2.097
 5423SOL    HW117168   6.512   6.389   2.194
 5423SOL    HW217169   6.485   6.496   2.073
 5424SOL     OW17170   4.885   4.122   5.031
 5424SOL    HW117171   4.978   4.159   5.032
 5424SOL    HW217172   4.887   4.028   5.063
 5425SOL     OW17173   0.467   3.573   6.255
 5425SOL    HW117174   0.452   3.653   6.313
 5425SOL    HW217175   0.415   3.583   6.171
 5426SOL     OW17176   5.278   5.025   1.996
 5426SOL    HW117177   5.253   5.071   1.911
 5426SOL    HW217178   5.213   4.951   2.014
 5427SOL     OW17179   4.880   2.824   0.078
 5427SOL    HW117180   4.836   2.907   0.042
 5427SOL    HW217181   4.866   2.818   0.176
 5428SOL     OW17182   6.490   5.382   3.027
 5428SOL    HW117183   6.490   5.287   2.997
 5428SOL    HW217184   6.418   5.397   3.094
 5429SOL     OW17185   2.612   0.553   4.071
 5429SOL    HW117186   2.560   0.621   4.019
 5429SOL    HW217187   2.579   0.462   4.049
 5430SOL     OW17188   2.551   3.932   6.258
 5430SOL    HW117189   2.467   3.881   6.278
 5430SOL    HW217190   2.563   3.939   6.159
 5431SOL     OW17191   3.071   4.994   6.573
 5431SOL    HW117192   3.099   4.981   6.477
 5431SOL    HW217193   3.150   4.978   6.632
 5432SOL     OW17194   5.662   5.799   1.301
 5432SOL    HW117195   5.678   5.865   1.374
 5432SOL    HW217196   5.680   5.706   1.335
 5433SOL     OW17197   1.183   0.301   0.742
 5433SOL    HW117198   1.148   0.381   0.692
 5433SOL    HW217199   1.163   0.218   0.691
 5434SOL     OW17200   4.790   1.470   5.516
 5434SOL    HW117201   4.774   1.381   5.474
 5434SOL    HW217202   4.826   1.458   5.608
 5435SOL     OW17203   6.227   4.181   0.572
 5435SOL    HW117204   6.142   4.185   0.624
 5435SOL    HW217205   6.229   4.098   0.517
 5436SOL     OW17206   1.486   5.385   2.630
 5436SOL    HW117207   1.581   5.360   2.646
 5436SOL    HW217208   1.469   5.390   2.531
 5437SOL     OW17209   3.933   5.518   6.925
 5437SOL    HW117210   3.960   5.466   6.844
 5437SOL    HW217211   3.970   5.474   7.007
 5438SOL     OW17212   4.790   4.007   2.660
 5438SOL    HW117213   4.813   3.957   2.743
 5438SOL    HW217214   4.838   3.967   2.582
 5439SOL     OW17215   0.963   4.167   1.043
 5439SOL    HW117216   0.908   4.138   1.121
 5439SOL    HW217217   0.904   4.186   0.965
 5440SOL     OW17218   5.641   6.217   3.311
 5440SOL    HW117219   5.656   6.140   3.249
 5440SOL    HW217220   5.597   6.185   3.394
 5441SOL     OW17221   4.816   2.795   4.136
 5441SOL    HW117222   4.745   2.808   4.066
 5441SOL    HW217223   4.787   2.722   4.198
 5442SOL     OW17224   5.186   6.981   4.552
 5442SOL    HW117225   5.124   6.912   4.590
 5442SOL    HW217226   5.187   0.037   4.613
 5443SOL     OW17227   4.563   6.344   4.960
 5443SOL    HW117228   4.641   6.296   5.001
 5443SOL    HW217229   4.538   6.422   5.018
 5444SOL     OW17230   0.260   0.784   3.853
 5444SOL    HW117231   0.349   0.775   3.898
 5444SOL    HW217232   0.200   0.709   3.882
 5445SOL     OW17233   5.293   5.325   5.804
 5445SOL    HW117234   5.313   5.392   5.876
 5445SOL    HW217235   5.220   5.360   5.746
 5446SOL     OW17236   0.215   4.744   5.507
 5446SOL    HW117237   0.127   4.748   5.461
 5446SOL    HW217238   0.208   4.791   5.595
 5447SOL     OW17239   1.418   1.907   0.487
 5447SOL    HW117240   1.501   1.961   0.501
 5447SOL    HW217241   1.401   1.851   0.567
 5448SOL     OW17242   4.202   5.788   3.825
 5448SOL    HW117243   4.155   5.797   3.737
 5448SOL    HW217244   4.272   5.717   3.818
 5449SOL     OW17245   3.035   1.512   2.126
 5449SOL    HW117246   3.090   1.571   2.185
 5449SOL    HW217247   2.942   1.506   2.162
 5450SOL     OW17248   4.092   6.048   1.770
 5450SOL    HW117249   4.150   6.121   1.735
 5450SOL    HW217250   4.145   5.962   1.771
 5451SOL     OW17251   1.402   0.262   3.251
 5451SOL    HW117252   1.348   0.295   3.174
 5451SOL    HW217253   1.499   0.277   3.232
 5452SOL     OW17254   1.707   4.752   2.142
 5452SOL    HW117255   1.761   4.702   2.074
 5452SOL    HW217256   1.652   4.688   2.195
 5453SOL     OW17257   6.065   3.946   3.357
 5453SOL    HW117258   5.997   3.986   3.296
 5453SOL    HW217259   6.036   3.854   3.383
 5454SOL     OW17260   6.288   5.415   3.208
 5454SOL    HW117261   6.268   5.319   3.224
 5454SOL    HW217262   6.204   5.469   3.210
 5455SOL     OW17263   6.491   1.914   2.159
 5455SOL    HW117264   6.440   1.999   2.174
 5455SOL    HW217265   6.585   1.926   2.188
 5456SOL     OW17266   4.697   0.949   6.465
 5456SOL    HW117267   4.747   0.869   6.497
 5456SOL    HW217268   4.758   1.028   6.461
 5457SOL     OW17269   6.199   2.652   0.676
 5457SOL    HW117270   6.209   2.699   0.588
 5457SOL    HW217271   6.103   2.654   0.703
 5458SOL     OW17272   6.182   4.304   1.116
 5458SOL    HW117273   6.187   4.228   1.052
 5458SOL    HW217274   6.232   4.383   1.079
 5459SOL     OW17275   1.565   4.801   5.815
 5459SOL    HW117276   1.480   4.790   5.867
 5459SOL    HW217277   1.623   4.868   5.860
 5460SOL     OW17278   1.725   0.957   0.539
 5460SOL    HW117279   1.648   0.908   0.498
 5460SOL    HW217280   1.799   0.893   0.560
 5461SOL     OW17281   0.173   1.462   6.138
 5461SOL    HW117282   0.076   1.437   6.139
 5461SOL    HW217283   0.189   1.536   6.204
 5462SOL     OW17284   5.247   5.945   6.471
 5462SOL    HW117285   5.324   5.938   6.535
 5462SOL    HW217286   5.237   5.860   6.421
 5463SOL     OW17287   0.263   2.499   6.591
 5463SOL    HW117288   0.195   2.572   6.583
 5463SOL    HW217289   0.346   2.535   6.633
 5464SOL     OW17290   6.209   6.314   5.276
 5464SOL    HW117291   6.291   6.256   5.282
 5464SOL    HW217292   6.153   6.301   5.357
 5465SOL     OW17293   6.409   6.347   3.559
 5465SOL    HW117294   6.404   6.444   3.585
 5465SOL    HW217295   6.319   6.305   3.573
 5466SOL     OW17296   5.809   2.540   5.293
 5466SOL    HW117297   5.836   2.444   5.284
 5466SOL    HW217298   5.880   2.591   5.340
 5467SOL     OW17299   5.977   3.689   3.474
 5467SOL    HW117300   5.969   3.634   3.391
 5467SOL    HW217301   5.911   3.656   3.543
 5468SOL     OW17302   6.743   1.955   2.721
 5468SOL    HW117303   6.818   1.923   2.779
 5468SOL    HW217304   6.656   1.924   2.758
 5469SOL     OW17305   1.978   0.796   5.740
 5469SOL    HW117306   1.894   0.776   5.690
 5469SOL    HW217307   2.056   0.755   5.693
 5470SOL     OW17308   4.283   5.396   5.015
 5470SOL    HW117309   4.193   5.386   5.057
 5470SOL    HW217310   4.340   5.318   5.039
 5471SOL     OW17311   4.907   6.791   2.108
 5471SOL    HW117312   4.817   6.836   2.102
 5471SOL    HW217313   4.918   6.730   2.030
 5472SOL     OW17314   3.151   1.858   6.257
 5472SOL    HW117315   3.185   1.952   6.260
 5472SOL    HW217316   3.228   1.794   6.267
 5473SOL     OW17317   1.603   4.898   1.265
 5473SOL    HW117318   1.588   4.805   1.298
 5473SOL    HW217319   1.520   4.952   1.276
 5474SOL     OW17320   0.683   5.677   3.835
 5474SOL    HW117321   0.782   5.688   3.832
 5474SOL    HW217322   0.659   5.610   3.905
 5475SOL     OW17323   1.281   1.993   0.125
 5475SOL    HW117324   1.367   1.941   0.124
 5475SOL    HW217325   1.224   1.962   0.201
 5476SOL     OW17326   2.387   6.133   5.458
 5476SOL    HW117327   2.314   6.183   5.412
 5476SOL    HW217328   2.395   6.164   5.552
 5477SOL     OW17329   2.067   4.780   3.822
 5477SOL    HW117330   1.969   4.790   3.838
 5477SOL    HW217331   2.103   4.709   3.882
 5478SOL     OW17332   5.515   4.962   6.324
 5478SOL    HW117333   5.480   5.044   6.369
 5478SOL    HW217334   5.440   4.898   6.309
 5479SOL     OW17335   4.494   1.604   4.956
 5479SOL    HW117336   4.397   1.622   4.942
 5479SOL    HW217337   4.527   1.658   5.034
 5480SOL     OW17338   6.269   4.473   4.902
 5480SOL    HW117339   6.288   4.483   4.999
 5480SOL    HW217340   6.312   4.389   4.868
 5481SOL     OW17341   3.672   1.265   6.146
 5481SOL    HW117342   3.686   1.235   6.240
 5481SOL    HW217343   3.624   1.193   6.095
 5482SOL     OW17344   3.532   3.763   2.144
 5482SOL    HW117345   3.444   3.723   2.171
 5482SOL    HW217346   3.578   3.701   2.081
 5483SOL     OW17347   6.309   3.276   5.630
 5483SOL    HW117348   6.349   3.208   5.692
 5483SOL    HW217349   6.223   3.310   5.668
 5484SOL     OW17350   6.894   6.934   4.030
 5484SOL    HW117351   6.824   6.875   3.989
 5484SOL    HW217352   6.940   6.986   3.959
 5485SOL     OW17353   3.305   0.029   4.707
 5485SOL    HW117354   3.223   7.002   4.731
 5485SOL    HW217355   3.280   0.119   4.669
 5486SOL     OW17356   1.521   0.236   3.514
 5486SOL    HW117357   1.555   0.331   3.517
 5486SOL    HW217358   1.460   0.225   3.436
 5487SOL     OW17359   6.220   4.057   0.137
 5487SOL    HW117360   6.307   4.009   0.149
 5487SOL    HW217361   6.225   4.147   0.180
 5488SOL     OW17362   4.435   2.267   0.274
 5488SOL    HW117363   4.338   2.247   0.257
 5488SOL    HW217364   4.481   2.285   0.187
 5489SOL     OW17365   1.342   4.429   2.083
 5489SOL    HW117366   1.435   4.409   2.053
 5489SOL    HW217367   1.333   4.526   2.104
 5490SOL     OW17368   3.529   0.087   0.525
 5490SOL    HW117369   3.454   0.121   0.469
 5490SOL    HW217370   3.547   0.151   0.600
 5491SOL     OW17371   1.642   4.487   6.667
 5491SOL    HW117372   1.551   4.451   6.643
 5491SOL    HW217373   1.679   4.537   6.588
 5492SOL     OW17374   0.955   1.235   6.133
 5492SOL    HW117375   1.013   1.212   6.055
 5492SOL    HW217376   0.939   1.334   6.135
 5493SOL     OW17377   3.714   3.061   5.549
 5493SOL    HW117378   3.693   3.073   5.452
 5493SOL    HW217379   3.784   2.990   5.560
 5494SOL     OW17380   6.613   3.037   0.600
 5494SOL    HW117381   6.647   3.056   0.692
 5494SOL    HW217382   6.514   3.027   0.601
 5495SOL     OW17383   3.407   3.343   1.294
 5495SOL    HW117384   3.378   3.390   1.211
 5495SOL    HW217385   3.482   3.394   1.337
 5496SOL     OW17386   3.718   5.992   1.837
 5496SOL    HW117387   3.664   5.947   1.908
 5496SOL    HW217388   3.751   5.923   1.771
 5497SOL     OW17389   0.510   1.760   3.095
 5497SOL    HW117390   0.585   1.802   3.044
 5497SOL    HW217391   0.548   1.707   3.172
 5498SOL     OW17392   4.417   1.441   6.701
 5498SOL    HW117393   4.434   1.466   6.796
 5498SOL    HW217394   4.419   1.523   6.643
 5499SOL     OW17395   0.139   0.495   3.220
 5499SOL    HW117396   0.070   0.561   3.190
 5499SOL    HW217397   0.214   0.493   3.154
 5500SOL     OW17398   1.870   5.760   0.117
 5500SOL    HW117399   1.828   5.810   0.041
 5500SOL    HW217400   1.830   5.791   0.203
 5501SOL     OW17401   2.996   0.217   1.901
 5501SOL    HW117402   2.947   0.160   1.967
 5501SOL    HW217403   2.933   0.285   1.863
 5502SOL     OW17404   6.237   4.123   5.706
 5502SOL    HW117405   6.288   4.047   5.748
 5502SOL    HW217406   6.210   4.097   5.613
 5503SOL     OW17407   0.941   5.179   3.174
 5503SOL    HW117408   0.843   5.162   3.167
 5503SOL    HW217409   0.971   5.238   3.099
 5504SOL     OW17410   2.826   1.049   4.743
 5504SOL    HW117411   2.784   1.133   4.775
 5504SOL    HW217412   2.777   1.015   4.663
 5505SOL     OW17413   1.849   5.953   5.023
 5505SOL    HW117414   1.797   5.918   4.945
 5505SOL    HW217415   1.872   6.049   5.008
 5506SOL     OW17416   6.897   0.541   4.594
 5506SOL    HW117417   6.858   0.462   4.547
 5506SOL    HW217418   6.825   0.607   4.614
 5507SOL     OW17419   2.670   6.453   2.987
 5507SOL    HW117420   2.591   6.497   2.943
 5507SOL    HW217421   2.680   6.489   3.080
 5508SOL     OW17422   2.436   0.797   6.768
 5508SOL    HW117423   2.509   0.864   6.758
 5508SOL    HW217424   2.374   0.803   6.689
 5509SOL     OW17425   6.781   6.078   0.458
 5509SOL    HW117426   6.748   6.133   0.534
 5509SOL    HW217427   6.752   6.119   0.372
 5510SOL     OW17428   4.503   6.691   6.876
 5510SOL    HW117429   4.418   6.667   6.924
 5510SOL    HW217430   4.481   6.715   6.781
 5511SOL     OW17431   1.203   0.634   3.159
 5511SOL    HW117432   1.275   0.571   3.131
 5511SOL    HW217433   1.243   0.720   3.190
 5512SOL     OW17434   6.504   2.207   0.523
 5512SOL    HW117435   6.458   2.275   0.580
 5512SOL    HW217436   6.559   2.253   0.453
 5513SOL     OW17437   4.801   4.248   4.807
 5513SOL    HW117438   4.720   4.304   4.826
 5513SOL    HW217439   4.823   4.194   4.888
 5514SOL     OW17440   5.532   5.134   2.954
 5514SOL    HW117441   5.478   5.065   2.907
 5514SOL    HW217442   5.629   5.111   2.946
 5515SOL     OW17443   6.011   3.385   1.287
 5515SOL    HW117444   6.071   3.311   1.319
 5515SOL    HW217445   5.998   3.451   1.361
 5516SOL     OW17446   1.670   2.668   0.255
 5516SOL    HW117447   1.596   2.730   0.280
 5516SOL    HW217448   1.748   2.720   0.219
 5517SOL     OW17449   3.221   2.106   2.219
 5517SOL    HW117450   3.136   2.138   2.176
 5517SOL    HW217451   3.200   2.063   2.307
 5518SOL     OW17452   6.232   5.639   6.397
 5518SOL    HW117453   6.305   5.678   6.454
 5518SOL    HW217454   6.271   5.569   6.338
 5519SOL     OW17455   5.422   3.778   3.104
 5519SOL    HW117456   5.465   3.714   3.039
 5519SOL    HW217457   5.338   3.737   3.139
 5520SOL     OW17458   1.029   4.136   3.121
 5520SOL    HW117459   1.046   4.154   3.024
 5520SOL    HW217460   0.939   4.169   3.146
 5521SOL     OW17461   4.548   5.981   1.999
 5521SOL    HW117462   4.585   5.901   1.951
 5521SOL    HW217463   4.467   5.954   2.051
 5522SOL     OW17464   2.120   3.932   1.446
 5522SOL    HW117465   2.195   3.878   1.408
 5522SOL    HW217466   2.053   3.952   1.374
 5523SOL     OW17467   3.190   0.041   3.038
 5523SOL    HW117468   3.123   6.993   3.061
 5523SOL    HW217469   3.141   0.124   3.012
 5524SOL     OW17470   0.298   6.099   4.802
 5524SOL    HW117471   0.361   6.097   4.724
 5524SOL    HW217472   0.334   6.041   4.875
 5525SOL     OW17473   0.348   4.507   0.260
 5525SOL    HW117474   0.415   4.528   0.331
 5525SOL    HW217475   0.335   4.586   0.201
 5526SOL     OW17476   5.996   3.512   4.372
 5526SOL    HW117477   6.019   3.452   4.296
 5526SOL    HW217478   5.940   3.463   4.438
 5527SOL     OW17479   0.464   3.053   2.348
 5527SOL    HW117480   0.437   2.972   2.296
 5527SOL    HW217481   0.520   3.025   2.426
 5528SOL     OW17482   0.901   1.953   6.091
 5528SOL    HW117483   0.977   2.012   6.117
 5528SOL    HW217484   0.858   1.916   6.173
 5529SOL     OW17485   2.142   0.227   4.390
 5529SOL    HW117486   2.136   0.322   4.360
 5529SOL    HW217487   2.050   0.189   4.398
 5530SOL     OW17488   0.073   1.922   2.015
 5530SOL    HW117489   0.132   2.003   2.011
 5530SOL    HW217490   0.112   1.856   2.079
 5531SOL     OW17491   4.178   3.503   4.477
 5531SOL    HW117492   4.116   3.426   4.462
 5531SOL    HW217493   4.235   3.486   4.557
 5532SOL     OW17494   1.982   1.013   0.778
 5532SOL    HW117495   1.918   1.083   0.811
 5532SOL    HW217496   1.931   0.933   0.747
 5533SOL     OW17497   2.819   0.908   2.381
 5533SOL    HW117498   2.792   0.893   2.286
 5533SOL    HW217499   2.819   0.821   2.430
 5534SOL     OW17500   1.228   3.098   6.644
 5534SOL    HW117501   1.273   3.020   6.599
 5534SOL    HW217502   1.285   3.179   6.634
 5535SOL     OW17503   0.173   3.378   2.689
 5535SOL    HW117504   0.194   3.476   2.695
 5535SOL    HW217505   0.253   3.325   2.717
 5536SOL     OW17506   2.198   0.999   3.992
 5536SOL    HW117507   2.279   1.035   4.038
 5536SOL    HW217508   2.152   0.934   4.052
 5537SOL     OW17509   3.266   0.956   4.702
 5537SOL    HW117510   3.213   0.880   4.738
 5537SOL    HW217511   3.253   1.036   4.760
 5538SOL     OW17512   4.082   0.148   5.046
 5538SOL    HW117513   4.074   0.248   5.044
 5538SOL    HW217514   4.152   0.122   5.113
 5539SOL     OW17515   0.571   2.096   0.947
 5539SOL    HW117516   0.611   2.109   1.038
 5539SOL    HW217517   0.621   2.023   0.900
 5540SOL     OW17518   5.272   2.926   1.744
 5540SOL    HW117519   5.191   2.867   1.742
 5540SOL    HW217520   5.271   2.983   1.825
 5541SOL     OW17521   5.107   3.227   5.745
 5541SOL    HW117522   5.181   3.277   5.790
 5541SOL    HW217523   5.024   3.234   5.800
 5542SOL     OW17524   6.064   5.814   5.676
 5542SOL    HW117525   6.011   5.881   5.727
 5542SOL    HW217526   6.085   5.850   5.585
 5543SOL     OW17527   1.908   5.363   6.328
 5543SOL    HW117528   1.895   5.407   6.417
 5543SOL    HW217529   1.897   5.432   6.256
 5544SOL     OW17530   5.559   5.594   5.493
 5544SOL    HW117531   5.579   5.497   5.476
 5544SOL    HW217532   5.540   5.608   5.590
 5545SOL     OW17533   4.854   0.781   2.299
 5545SOL    HW117534   4.943   0.741   2.275
 5545SOL    HW217535   4.828   0.847   2.228
 5546SOL     OW17536   0.711   6.222   4.300
 5546SOL    HW117537   0.655   6.293   4.343
 5546SOL    HW217538   0.735   6.153   4.369
 5547SOL     OW17539   3.903   1.156   4.929
 5547SOL    HW117540   3.943   1.172   4.839
 5547SOL    HW217541   3.873   1.244   4.968
 5548SOL     OW17542   6.511   3.814   5.519
 5548SOL    HW117543   6.553   3.894   5.562
 5548SOL    HW217544   6.501   3.830   5.421
 5549SOL     OW17545   3.989   3.991   1.153
 5549SOL    HW117546   4.049   3.985   1.073
 5549SOL    HW217547   3.917   4.058   1.136
 5550SOL     OW17548   2.443   4.444   2.143
 5550SOL    HW117549   2.383   4.467   2.220
 5550SOL    HW217550   2.492   4.526   2.114
 5551SOL     OW17551   1.759   6.146   2.612
 5551SOL    HW117552   1.681   6.129   2.672
 5551SOL    HW217553   1.839   6.172   2.667
 5552SOL     OW17554   5.769   0.901   6.900
 5552SOL    HW117555   5.835   0.945   6.960
 5552SOL    HW217556   5.780   0.935   6.806
 5553SOL     OW17557   4.045   6.450   6.065
 5553SOL    HW117558   4.069   6.479   5.972
 5553SOL    HW217559   4.129   6.431   6.116
 5554SOL     OW17560   4.777   2.881   1.269
 5554SOL    HW117561   4.713   2.890   1.346
 5554SOL    HW217562   4.854   2.943   1.282
 5555SOL     OW17563   1.487   3.374   2.284
 5555SOL    HW117564   1.444   3.290   2.248
 5555SOL    HW217565   1.568   3.396   2.229
 5556SOL     OW17566   6.323   1.600   3.754
 5556SOL    HW117567   6.417   1.600   3.720
 5556SOL    HW217568   6.323   1.588   3.853
 5557SOL     OW17569   3.945   5.806   1.921
 5557SOL    HW117570   3.889   5.825   2.002
 5557SOL    HW217571   3.968   5.892   1.876
 5558SOL     OW17572   2.983   3.393   6.457
 5558SOL    HW117573   2.988   3.343   6.370
 5558SOL    HW217574   3.031   3.480   6.448
 5559SOL     OW17575   1.999   0.391   2.252
 5559SOL    HW117576   1.998   0.399   2.153
 5559SOL    HW217577   1.958   0.473   2.292
 5560SOL     OW17578   6.978   5.332   1.259
 5560SOL    HW117579   0.026   5.392   1.222
 5560SOL    HW217580   6.996   5.316   1.356
 5561SOL     OW17581   2.258   0.893   4.411
 5561SOL    HW117582   2.230   0.829   4.482
 5561SOL    HW217583   2.222   0.863   4.323
 5562SOL     OW17584   4.243   2.899   6.932
 5562SOL    HW117585   4.335   2.936   6.922
 5562SOL    HW217586   4.186   2.927   6.855
 5563SOL     OW17587   3.022   5.111   2.757
 5563SOL    HW117588   2.990   5.137   2.848
 5563SOL    HW217589   3.055   5.016   2.758
 5564SOL     OW17590   4.867   0.232   0.167
 5564SOL    HW117591   4.946   0.271   0.119
 5564SOL    HW217592   4.874   0.132   0.165
 5565SOL     OW17593   3.665   2.356   6.197
 5565SOL    HW117594   3.686   2.377   6.102
 5565SOL    HW217595   3.624   2.265   6.203
 5566SOL     OW17596   1.884   4.549   0.172
 5566SOL    HW117597   1.803   4.546   0.113
 5566SOL    HW217598   1.901   4.643   0.200
 5567SOL     OW17599   0.108   3.917   1.456
 5567SOL    HW117600   0.016   3.936   1.422
 5567SOL    HW217601   0.148   3.842   1.403
 5568SOL     OW17602   5.305   1.550   3.721
 5568SOL    HW117603   5.315   1.453   3.745
 5568SOL    HW217604   5.351   1.568   3.633
 5569SOL     OW17605   1.981   1.867   1.968
 5569SOL    HW117606   1.948   1.960   1.949
 5569SOL    HW217607   2.081   1.866   1.964
 5570SOL     OW17608   5.675   3.724   4.156
 5570SOL    HW117609   5.638   3.758   4.069
 5570SOL    HW217610   5.769   3.756   4.168
 5571SOL     OW17611   6.140   5.852   1.603
 5571SOL    HW117612   6.229   5.894   1.590
 5571SOL    HW217613   6.082   5.872   1.523
 5572SOL     OW17614   1.411   4.114   5.018
 5572SOL    HW117615   1.429   4.176   4.942
 5572SOL    HW217616   1.327   4.141   5.064
 5573SOL     OW17617   1.787   5.816   5.412
 5573SOL    HW117618   1.848   5.772   5.346
 5573SOL    HW217619   1.734   5.888   5.367
 5574SOL     OW17620   0.262   2.173   1.774
 5574SOL    HW117621   0.274   2.224   1.689
 5574SOL    HW217622   0.262   2.075   1.753
 5575SOL     OW17623   6.762   1.166   0.842
 5575SOL    HW117624   6.726   1.211   0.923
 5575SOL    HW217625   6.825   1.093   0.871
 5576SOL     OW17626   1.029   4.454   2.086
 5576SOL    HW117627   1.088   4.390   2.135
 5576SOL    HW217628   1.046   4.446   1.987
 5577SOL     OW17629   2.852   2.634   6.917
 5577SOL    HW117630   2.853   2.729   6.887
 5577SOL    HW217631   2.769   2.616   6.968
 5578SOL     OW17632   3.516   4.014   2.009
 5578SOL    HW117633   3.607   4.041   1.978
 5578SOL    HW217634   3.523   3.932   2.065
 5579SOL     OW17635   0.102   3.384   0.515
 5579SOL    HW117636   0.042   3.435   0.576
 5579SOL    HW217637   0.047   3.334   0.448
 5580SOL     OW17638   4.655   2.443   5.576
 5580SOL    HW117639   4.749   2.412   5.591
 5580SOL    HW217640   4.601   2.429   5.660
 5581SOL     OW17641   1.902   0.044   1.954
 5581SOL    HW117642   1.893   0.093   2.040
 5581SOL    HW217643   1.823   0.061   1.896
 5582SOL     OW17644   3.684   3.859   6.639
 5582SOL    HW117645   3.730   3.935   6.685
 5582SOL    HW217646   3.650   3.794   6.708
 5583SOL     OW17647   4.914   0.953   2.811
 5583SOL    HW117648   4.915   0.894   2.730
 5583SOL    HW217649   4.854   0.914   2.880
 5584SOL     OW17650   0.087   4.355   4.712
 5584SOL    HW117651   0.017   4.365   4.783
 5584SOL    HW217652   0.124   4.262   4.715
 5585SOL     OW17653   5.830   5.320   3.100
 5585SOL    HW117654   5.751   5.349   3.153
 5585SOL    HW217655   5.805   5.244   3.040
 5586SOL     OW17656   0.223   3.361   6.219
 5586SOL    HW117657   0.229   3.344   6.121
 5586SOL    HW217658   0.243   3.457   6.237
 5587SOL     OW17659   4.339   6.636   0.606
 5587SOL    HW117660   4.355   6.715   0.547
 5587SOL    HW217661   4.285   6.568   0.556
 5588SOL     OW17662   2.108   5.306   2.968
 5588SOL    HW117663   2.065   5.219   2.991
 5588SOL    HW217664   2.093   5.327   2.872
 5589SOL     OW17665   6.308   3.636   5.560
 5589SOL    HW117666   6.282   3.587   5.477
 5589SOL    HW217667   6.377   3.705   5.539
 5590SOL     OW17668   0.157   6.192   3.780
 5590SOL    HW117669   0.196   6.225   3.694
 5590SOL    HW217670   0.197   6.103   3.804
 5591SOL     OW17671   5.732   2.109   1.390
 5591SOL    HW117672   5.819   2.060   1.398
 5591SOL    HW217673   5.658   2.051   1.423
 5592SOL     OW17674   1.912   5.594   2.867
 5592SOL    HW117675   1.960   5.542   2.797
 5592SOL    HW217676   1.854   5.533   2.921
 5593SOL     OW17677   0.526   2.921   0.728
 5593SOL    HW117678   0.523   2.913   0.629
 5593SOL    HW217679   0.482   2.842   0.769
 5594SOL     OW17680   5.222   0.781   5.818
 5594SOL    HW117681   5.150   0.809   5.754
 5594SOL    HW217682   5.239   0.683   5.809
 5595SOL     OW17683   0.528   1.533   4.656
 5595SOL    HW117684   0.433   1.530   4.687
 5595SOL    HW217685   0.532   1.514   4.558
 5596SOL     OW17686   4.704   0.572   2.461
 5596SOL    HW117687   4.765   0.644   2.428
 5596SOL    HW217688   4.757   0.504   2.511
 5597SOL     OW17689   4.848   2.956   4.445
 5597SOL    HW117690   4.787   2.951   4.367
 5597SOL    HW217691   4.940   2.928   4.417
 5598SOL     OW17692   5.006   3.838   4.243
 5598SOL    HW117693   5.053   3.832   4.155
 5598SOL    HW217694   5.069   3.876   4.311
 5599SOL     OW17695   0.839   2.200   3.353
 5599SOL    HW117696   0.913   2.151   3.399
 5599SOL    HW217697   0.783   2.247   3.421
 5600SOL     OW17698   1.421   1.160   1.960
 5600SOL    HW117699   1.377   1.245   1.931
 5600SOL    HW217700   1.510   1.180   2.000
 5601SOL     OW17701   1.905   0.753   6.020
 5601SOL    HW117702   1.840   0.677   6.017
 5601SOL    HW217703   1.945   0.765   5.929
 5602SOL     OW17704   6.271   1.548   1.245
 5602SOL    HW117705   6.307   1.454   1.246
 5602SOL    HW217706   6.172   1.545   1.236
 5603SOL     OW17707   5.865   2.364   6.394
 5603SOL    HW117708   5.882   2.280   6.446
 5603SOL    HW217709   5.792   2.416   6.439
 5604SOL     OW17710   6.279   2.050   5.042
 5604SOL    HW117711   6.373   2.078   5.061
 5604SOL    HW217712   6.243   2.104   4.966
 5605SOL     OW17713   0.003   1.799   5.141
 5605SOL    HW117714   6.953   1.851   5.100
 5605SOL    HW217715   6.990   1.735   5.208
 5606SOL     OW17716   5.037   6.620   0.457
 5606SOL    HW117717   5.032   6.719   0.443
 5606SOL    HW217718   5.120   6.584   0.414
 5607SOL     OW17719   5.624   1.309   2.718
 5607SOL    HW117720   5.666   1.342   2.634
 5607SOL    HW217721   5.682   1.330   2.796
 5608SOL     OW17722   5.247   0.026   4.031
 5608SOL    HW117723   5.270   0.017   4.129
 5608SOL    HW217724   5.329   0.007   3.977
 5609SOL     OW17725   3.395   6.377   0.934
 5609SOL    HW117726   3.342   6.453   0.897
 5609SOL    HW217727   3.428   6.402   1.026
 5610SOL     OW17728   3.762   6.072   0.669
 5610SOL    HW117729   3.709   5.993   0.638
 5610SOL    HW217730   3.700   6.149   0.687
 5611SOL     OW17731   0.757   5.964   2.940
 5611SOL    HW117732   0.666   6.004   2.955
 5611SOL    HW217733   0.749   5.864   2.939
 5612SOL     OW17734   3.736   2.342   6.636
 5612SOL    HW117735   3.745   2.403   6.715
 5612SOL    HW217736   3.808   2.362   6.570
 5613SOL     OW17737   5.797   3.978   3.504
 5613SOL    HW117738   5.888   3.942   3.487
 5613SOL    HW217739   5.803   4.060   3.561
 5614SOL     OW17740   4.318   1.929   4.418
 5614SOL    HW117741   4.392   1.908   4.354
 5614SOL    HW217742   4.299   1.848   4.474
 5615SOL     OW17743   0.450   1.894   4.409
 5615SOL    HW117744   0.424   1.856   4.498
 5615SOL    HW217745   0.368   1.902   4.351
 5616SOL     OW17746   2.459   1.998   4.891
 5616SOL    HW117747   2.417   2.071   4.944
 5616SOL    HW217748   2.476   2.029   4.798
 5617SOL     OW17749   2.833   6.825   5.806
 5617SOL    HW117750   2.861   6.781   5.892
 5617SOL    HW217751   2.793   6.914   5.826
 5618SOL     OW17752   0.084   4.701   3.776
 5618SOL    HW117753   0.153   4.750   3.830
 5618SOL    HW217754   7.021   4.750   3.782
 5619SOL     OW17755   2.869   3.536   5.760
 5619SOL    HW117756   2.930   3.459   5.778
 5619SOL    HW217757   2.888   3.609   5.826
 5620SOL     OW17758   4.369   3.870   0.807
 5620SOL    HW117759   4.459   3.875   0.765
 5620SOL    HW217760   4.314   3.801   0.760
 5621SOL     OW17761   2.304   1.640   0.020
 5621SOL    HW117762   2.282   1.733   0.049
 5621SOL    HW217763   2.252   1.575   0.075
 5622SOL     OW17764   5.045   0.224   6.341
 5622SOL    HW117765   5.046   0.322   6.324
 5622SOL    HW217766   5.069   0.206   6.437
 5623SOL     OW17767   2.844   5.652   4.664
 5623SOL    HW117768   2.828   5.673   4.761
 5623SOL    HW217769   2.804   5.563   4.643
 5624SOL     OW17770   1.080   4.479   3.824
 5624SOL    HW117771   1.065   4.395   3.773
 5624SOL    HW217772   1.124   4.458   3.912
 5625SOL     OW17773   6.318   1.848   4.836
 5625SOL    HW117774   6.232   1.897   4.853
 5625SOL    HW217775   6.341   1.792   4.915
 5626SOL     OW17776   2.939   5.912   4.146
 5626SOL    HW117777   2.883   5.829   4.136
 5626SOL    HW217778   2.915   5.958   4.231
 5627SOL     OW17779   0.977   5.758   6.344
 5627SOL    HW117780   1.014   5.843   6.307
 5627SOL    HW217781   0.972   5.689   6.272
 5628SOL     OW17782   1.121   2.598   0.416
 5628SOL    HW117783   1.033   2.565   0.450
 5628SOL    HW217784   1.113   2.618   0.318
 5629SOL     OW17785   3.699   4.051   2.770
 5629SOL    HW117786   3.660   3.972   2.817
 5629SOL    HW217787   3.631   4.123   2.764
 5630SOL     OW17788   2.111   4.047   0.393
 5630SOL    HW117789   2.078   3.953   0.384
 5630SOL    HW217790   2.084   4.100   0.313
 5631SOL     OW17791   4.500   1.716   0.709
 5631SOL    HW117792   4.587   1.760   0.686
 5631SOL    HW217793   4.430   1.745   0.644
 5632SOL     OW17794   3.117   2.634   6.264
 5632SOL    HW117795   3.217   2.631   6.268
 5632SOL    HW217796   3.082   2.544   6.238
 5633SOL     OW17797   6.229   3.486   3.985
 5633SOL    HW117798   6.284   3.466   4.066
 5633SOL    HW217799   6.159   3.416   3.973
 5634SOL     OW17800   2.494   5.193   4.450
 5634SOL    HW117801   2.578   5.204   4.396
 5634SOL    HW217802   2.438   5.121   4.409
 5635SOL     OW17803   2.223   4.201   5.414
 5635SOL    HW117804   2.321   4.220   5.409
 5635SOL    HW217805   2.201   4.120   5.360
 5636SOL     OW17806   4.125   6.325   4.377
 5636SOL    HW117807   4.156   6.267   4.301
 5636SOL    HW217808   4.037   6.292   4.410
 5637SOL     OW17809   4.881   6.723   3.364
 5637SOL    HW117810   4.896   6.685   3.455
 5637SOL    HW217811   4.942   6.801   3.350
 5638SOL     OW17812   6.281   3.848   1.354
 5638SOL    HW117813   6.294   3.941   1.388
 5638SOL    HW217814   6.259   3.788   1.431
 5639SOL     OW17815   0.823   1.307   1.390
 5639SOL    HW117816   0.793   1.366   1.465
 5639SOL    HW217817   0.756   1.309   1.316
 5640SOL     OW17818   2.880   0.316   3.864
 5640SOL    HW117819   2.962   0.373   3.864
 5640SOL    HW217820   2.827   0.334   3.781
 5641SOL     OW17821   1.173   5.450   5.489
 5641SOL    HW117822   1.162   5.370   5.430
 5641SOL    HW217823   1.105   5.448   5.562
 5642SOL     OW17824   1.565   6.882   5.540
 5642SOL    HW117825   1.495   6.829   5.490
 5642SOL    HW217826   1.541   6.979   5.537
 5643SOL     OW17827   4.618   1.811   5.125
 5643SOL    HW117828   4.607   1.855   5.036
 5643SOL    HW217829   4.557   1.855   5.191
 5644SOL     OW17830   3.095   0.433   4.992
 5644SOL    HW117831   3.166   0.387   4.940
 5644SOL    HW217832   3.102   0.407   5.088
 5645SOL     OW17833   6.402   4.262   3.855
 5645SOL    HW117834   6.343   4.212   3.919
 5645SOL    HW217835   6.350   4.283   3.772
 5646SOL     OW17836   1.581   5.542   3.285
 5646SOL    HW117837   1.670   5.582   3.308
 5646SOL    HW217838   1.594   5.461   3.228
 5647SOL     OW17839   5.124   6.281   1.374
 5647SOL    HW117840   5.085   6.244   1.289
 5647SOL    HW217841   5.151   6.206   1.434
 5648SOL     OW17842   2.069   5.394   2.679
 5648SOL    HW117843   2.019   5.360   2.600
 5648SOL    HW217844   2.147   5.449   2.648
 5649SOL     OW17845   0.889   6.912   4.062
 5649SOL    HW117846   0.925   6.848   3.993
 5649SOL    HW217847   0.798   6.883   4.090
 5650SOL     OW17848   1.245   4.812   1.527
 5650SOL    HW117849   1.172   4.781   1.588
 5650SOL    HW217850   1.310   4.868   1.578
 5651SOL     OW17851   2.201   1.370   0.468
 5651SOL    HW117852   2.225   1.459   0.508
 5651SOL    HW217853   2.277   1.306   0.481
 5652SOL     OW17854   6.199   5.991   1.086
 5652SOL    HW117855   6.171   5.901   1.119
 5652SOL    HW217856   6.210   5.988   0.987
 5653SOL     OW17857   6.775   6.684   6.374
 5653SOL    HW117858   6.720   6.764   6.350
 5653SOL    HW217859   6.727   6.600   6.348
 5654SOL     OW17860   0.745   6.035   4.475
 5654SOL    HW117861   0.713   6.031   4.570
 5654SOL    HW217862   0.817   5.966   4.462
 5655SOL     OW17863   0.286   2.993   3.706
 5655SOL    HW117864   0.331   3.082   3.700
 5655SOL    HW217865   0.193   3.004   3.741
 5656SOL     OW17866   6.766   4.148   6.633
 5656SOL    HW117867   6.700   4.105   6.571
 5656SOL    HW217868   6.849   4.172   6.583
 5657SOL     OW17869   5.332   3.310   5.497
 5657SOL    HW117870   5.276   3.328   5.578
 5657SOL    HW217871   5.279   3.330   5.415
 5658SOL     OW17872   2.732   3.263   6.316
 5658SOL    HW117873   2.694   3.171   6.308
 5658SOL    HW217874   2.663   3.331   6.291
 5659SOL     OW17875   3.799   3.453   6.435
 5659SOL    HW117876   3.806   3.517   6.358
 5659SOL    HW217877   3.742   3.375   6.408
 5660SOL     OW17878   4.812   6.715   5.690
 5660SOL    HW117879   4.855   6.625   5.691
 5660SOL    HW217880   4.719   6.707   5.654
 5661SOL     OW17881   1.537   5.744   4.416
 5661SOL    HW117882   1.586   5.794   4.345
 5661SOL    HW217883   1.595   5.736   4.497
 5662SOL     OW17884   2.939   6.869   2.865
 5662SOL    HW117885   2.934   6.821   2.953
 5662SOL    HW217886   2.847   6.893   2.834
 5663SOL     OW17887   2.181   1.973   0.765
 5663SOL    HW117888   2.274   2.003   0.744
 5663SOL    HW217889   2.124   2.052   0.788
 5664SOL     OW17890   6.725   3.448   3.942
 5664SOL    HW117891   6.816   3.483   3.917
 5664SOL    HW217892   6.727   3.416   4.036
 5665SOL     OW17893   1.130   0.054   0.602
 5665SOL    HW117894   1.187   6.996   0.596
 5665SOL    HW217895   1.034   0.028   0.594
 5666SOL     OW17896   6.558   0.422   3.941
 5666SOL    HW117897   6.601   0.507   3.969
 5666SOL    HW217898   6.573   0.352   4.011
 5667SOL     OW17899   1.699   5.224   4.787
 5667SOL    HW117900   1.645   5.205   4.706
 5667SOL    HW217901   1.750   5.142   4.814
 5668SOL     OW17902   6.218   3.094   3.380
 5668SOL    HW117903   6.243   3.096   3.283
 5668SOL    HW217904   6.187   3.002   3.404
 5669SOL     OW17905   6.585   4.467   0.947
 5669SOL    HW117906   6.631   4.395   0.895
 5669SOL    HW217907   6.639   4.551   0.941
 5670SOL     OW17908   1.538   3.334   3.697
 5670SOL    HW117909   1.472   3.266   3.666
 5670SOL    HW217910   1.495   3.425   3.698
 5671SOL     OW17911   5.901   6.307   5.374
 5671SOL    HW117912   5.893   6.405   5.392
 5671SOL    HW217913   5.904   6.291   5.276
 5672SOL     OW17914   5.309   4.412   5.827
 5672SOL    HW117915   5.280   4.494   5.876
 5672SOL    HW217916   5.409   4.412   5.817
 5673SOL     OW17917   1.611   6.485   1.017
 5673SOL    HW117918   1.555   6.562   0.987
 5673SOL    HW217919   1.553   6.419   1.066
 5674SOL     OW17920   1.928   4.640   5.000
 5674SOL    HW117921   1.987   4.686   4.933
 5674SOL    HW217922   1.894   4.706   5.066
 5675SOL     OW17923   4.732   2.607   6.692
 5675SOL    HW117924   4.698   2.695   6.725
 5675SOL    HW217925   4.692   2.587   6.603
 5676SOL     OW17926   2.697   1.718   2.397
 5676SOL    HW117927   2.667   1.797   2.345
 5676SOL    HW217928   2.795   1.726   2.416
 5677SOL     OW17929   0.676   0.791   0.940
 5677SOL    HW117930   0.725   0.867   0.897
 5677SOL    HW217931   0.713   0.775   1.031
 5678SOL     OW17932   4.448   0.864   2.598
 5678SOL    HW117933   4.351   0.872   2.620
 5678SOL    HW217934   4.495   0.813   2.670
 5679SOL     OW17935   5.721   1.337   4.183
 5679SOL    HW117936   5.666   1.358   4.102
 5679SOL    HW217937   5.716   1.414   4.248
 5680SOL     OW17938   1.951   5.128   6.178
 5680SOL    HW117939   1.928   5.202   6.241
 5680SOL    HW217940   1.980   5.048   6.230
 5681SOL     OW17941   0.438   3.737   2.116
 5681SOL    HW117942   0.458   3.639   2.110
 5681SOL    HW217943   0.344   3.753   2.085
 5682SOL     OW17944   2.729   5.366   4.315
 5682SOL    HW117945   2.661   5.410   4.256
 5682SOL    HW217946   2.781   5.300   4.262
 5683SOL     OW17947   3.548   2.119   6.305
 5683SOL    HW117948   3.615   2.067   6.252
 5683SOL    HW217949   3.561   2.100   6.402
 5684SOL     OW17950   1.983   3.515   5.827
 5684SOL    HW117951   2.058   3.580   5.841
 5684SOL    HW217952   1.944   3.490   5.916
 5685SOL     OW17953   2.381   2.039   3.010
 5685SOL    HW117954   2.390   1.950   2.966
 5685SOL    HW217955   2.317   2.032   3.087
 5686SOL     OW17956   2.697   1.507   4.932
 5686SOL    HW117957   2.779   1.508   4.989
 5686SOL    HW217958   2.669   1.601   4.912
 5687SOL     OW17959   0.908   6.093   5.847
 5687SOL    HW117960   0.931   6.031   5.772
 5687SOL    HW217961   0.810   6.111   5.846
 5688SOL     OW17962   1.635   2.477   3.022
 5688SOL    HW117963   1.550   2.441   3.060
 5688SOL    HW217964   1.614   2.556   2.964
 5689SOL     OW17965   2.574   0.761   1.746
 5689SOL    HW117966   2.549   0.678   1.796
 5689SOL    HW217967   2.643   0.739   1.677
 5690SOL     OW17968   1.358   5.757   0.145
 5690SOL    HW117969   1.435   5.703   0.177
 5690SOL    HW217970   1.355   5.844   0.195
 5691SOL     OW17971   3.561   0.602   1.915
 5691SOL    HW117972   3.609   0.528   1.868
 5691SOL    HW217973   3.533   0.671   1.848
 5692SOL     OW17974   4.900   4.992   0.999
 5692SOL    HW117975   4.823   5.047   0.966
 5692SOL    HW217976   4.927   5.026   1.089
 5693SOL     OW17977   4.615   0.705   1.719
 5693SOL    HW117978   4.630   0.714   1.621
 5693SOL    HW217979   4.703   0.701   1.766
 5694SOL     OW17980   0.779   0.835   2.360
 5694SOL    HW117981   0.849   0.765   2.374
 5694SOL    HW217982   0.821   0.918   2.324
 5695SOL     OW17983   1.571   1.254   3.179
 5695SOL    HW117984   1.520   1.304   3.110
 5695SOL    HW217985   1.643   1.201   3.135
 5696SOL     OW17986   0.816   6.629   4.328
 5696SOL    HW117987   0.870   6.638   4.244
 5696SOL    HW217988   0.829   6.538   4.366
 5697SOL     OW17989   5.744   2.524   2.171
 5697SOL    HW117990   5.669   2.508   2.235
 5697SOL    HW217991   5.708   2.534   2.078
 5698SOL     OW17992   1.655   4.354   4.600
 5698SOL    HW117993   1.673   4.345   4.502
 5698SOL    HW217994   1.585   4.423   4.616
 5699SOL     OW17995   1.604   2.252   2.792
 5699SOL    HW117996   1.553   2.318   2.738
 5699SOL    HW217997   1.643   2.297   2.872
 5700SOL     OW17998   6.430   6.696   3.601
 5700SOL    HW117999   6.419   6.673   3.505
 5700SOL    HW218000   6.527   6.702   3.624
 5701SOL     OW18001   0.167   0.716   1.715
 5701SOL    HW118002   0.140   0.645   1.649
 5701SOL    HW218003   0.243   0.682   1.770
 5702SOL     OW18004   2.106   6.269   3.889
 5702SOL    HW118005   2.032   6.211   3.922
 5702SOL    HW218006   2.135   6.238   3.799
 5703SOL     OW18007   7.004   4.457   6.775
 5703SOL    HW118008   0.046   4.525   6.807
 5703SOL    HW218009   6.911   4.489   6.791
 5704SOL     OW18010   4.814   3.949   3.159
 5704SOL    HW118011   4.907   3.978   3.183
 5704SOL    HW218012   4.756   4.030   3.151
 5705SOL     OW18013   4.978   5.737   6.443
 5705SOL    HW118014   4.930   5.655   6.476
 5705SOL    HW218015   5.029   5.715   6.360
 5706SOL     OW18016   5.301   2.065   2.099
 5706SOL    HW118017   5.329   2.102   2.011
 5706SOL    HW218018   5.213   2.018   2.089
 5707SOL     OW18019   6.398   0.238   0.707
 5707SOL    HW118020   6.326   0.288   0.658
 5707SOL    HW218021   6.369   0.221   0.801
 5708SOL     OW18022   5.209   5.931   2.487
 5708SOL    HW118023   5.126   5.987   2.483
 5708SOL    HW218024   5.284   5.980   2.441
 5709SOL     OW18025   0.377   1.220   2.523
 5709SOL    HW118026   0.296   1.263   2.562
 5709SOL    HW218027   0.379   1.235   2.424
 5710SOL     OW18028   3.143   2.291   0.444
 5710SOL    HW118029   3.188   2.212   0.486
 5710SOL    HW218030   3.194   2.320   0.363
 5711SOL     OW18031   5.103   0.972   1.385
 5711SOL    HW118032   5.114   0.893   1.445
 5711SOL    HW218033   5.157   1.049   1.421
 5712SOL     OW18034   6.281   6.909   0.041
 5712SOL    HW118035   6.195   6.874   0.078
 5712SOL    HW218036   6.265   6.996   7.018
 5713SOL     OW18037   3.175   4.003   1.552
 5713SOL    HW118038   3.247   4.050   1.602
 5713SOL    HW218039   3.144   4.060   1.476
 5714SOL     OW18040   6.533   6.275   1.350
 5714SOL    HW118041   6.605   6.284   1.282
 5714SOL    HW218042   6.540   6.185   1.394
 5715SOL     OW18043   0.272   6.927   2.323
 5715SOL    HW118044   0.214   6.930   2.405
 5715SOL    HW218045   0.226   6.971   2.247
 5716SOL     OW18046   0.943   5.947   5.609
 5716SOL    HW118047   0.944   6.039   5.570
 5716SOL    HW218048   0.967   5.881   5.539
 5717SOL     OW18049   1.869   4.944   1.384
 5717SOL    HW118050   1.781   4.935   1.337
 5717SOL    HW218051   1.915   5.027   1.353
 5718SOL     OW18052   1.649   3.412   0.214
 5718SOL    HW118053   1.600   3.349   0.273
 5718SOL    HW218054   1.666   3.498   0.263
 5719SOL     OW18055   2.337   3.502   0.403
 5719SOL    HW118056   2.283   3.432   0.357
 5719SOL    HW218057   2.277   3.558   0.460
 5720SOL     OW18058   1.600   6.892   4.699
 5720SOL    HW118059   1.680   6.951   4.698
 5720SOL    HW218060   1.560   6.891   4.791
 5721SOL     OW18061   5.732   4.234   1.057
 5721SOL    HW118062   5.658   4.271   1.002
 5721SOL    HW218063   5.805   4.302   1.066
 5722SOL     OW18064   6.657   2.716   5.342
 5722SOL    HW118065   6.667   2.783   5.268
 5722SOL    HW218066   6.561   2.693   5.354
 5723SOL     OW18067   4.609   3.717   6.897
 5723SOL    HW118068   4.562   3.630   6.880
 5723SOL    HW218069   4.700   3.700   6.933
 5724SOL     OW18070   6.099   2.762   3.965
 5724SOL    HW118071   6.160   2.683   3.974
 5724SOL    HW218072   6.095   2.811   4.052
 5725SOL     OW18073   6.938   4.529   4.050
 5725SOL    HW118074   6.979   4.444   4.018
 5725SOL    HW218075   6.902   4.580   3.972
 5726SOL     OW18076   6.702   5.344   3.939
 5726SOL    HW118077   6.695   5.382   3.846
 5726SOL    HW218078   6.612   5.315   3.969
 5727SOL     OW18079   6.238   2.527   4.675
 5727SOL    HW118080   6.200   2.524   4.768
 5727SOL    HW218081   6.326   2.575   4.677
 5728SOL     OW18082   5.108   6.212   5.558
 5728SOL    HW118083   5.084   6.284   5.623
 5728SOL    HW218084   5.029   6.192   5.500
 5729SOL     OW18085   1.775   1.692   6.824
 5729SOL    HW118086   1.847   1.728   6.883
 5729SOL    HW218087   1.750   1.762   6.757
 5730SOL     OW18088   6.122   4.379   6.502
 5730SOL    HW118089   6.113   4.290   6.546
 5730SOL    HW218090   6.035   4.404   6.459
 5731SOL     OW18091   6.633   0.304   2.422
 5731SOL    HW118092   6.586   0.357   2.493
 5731SOL    HW218093   6.732   0.316   2.432
 5732SOL     OW18094   0.675   6.131   3.859
 5732SOL    HW118095   0.606   6.202   3.849
 5732SOL    HW218096   0.646   6.066   3.929
 5733SOL     OW18097   3.572   6.566   4.920
 5733SOL    HW118098   3.531   6.641   4.868
 5733SOL    HW218099   3.625   6.508   4.858
 5734SOL     OW18100   1.130   0.527   5.279
 5734SOL    HW118101   1.181   0.479   5.208
 5734SOL    HW218102   1.184   0.606   5.310
 5735SOL     OW18103   3.360   1.293   0.876
 5735SOL    HW118104   3.350   1.194   0.873
 5735SOL    HW218105   3.373   1.322   0.971
 5736SOL     OW18106   0.009   4.468   0.134
 5736SOL    HW118107   0.068   4.534   0.089
 5736SOL    HW218108   0.030   4.376   0.101
 5737SOL     OW18109   5.447   5.822   0.631
 5737SOL    HW118110   5.420   5.752   0.565
 5737SOL    HW218111   5.391   5.904   0.617
 5738SOL     OW18112   1.891   3.006   6.188
 5738SOL    HW118113   1.984   3.042   6.200
 5738SOL    HW218114   1.826   3.082   6.188
 5739SOL     OW18115   1.735   1.581   6.434
 5739SOL    HW118116   1.819   1.635   6.440
 5739SOL    HW218117   1.664   1.633   6.388
 5740SOL     OW18118   4.315   5.644   0.435
 5740SOL    HW118119   4.304   5.714   0.506
 5740SOL    HW218120   4.276   5.677   0.350
 5741SOL     OW18121   0.030   5.556   3.982
 5741SOL    HW118122   6.993   5.626   4.020
 5741SOL    HW218123   0.003   5.535   3.888
 5742SOL     OW18124   5.007   6.341   2.575
 5742SOL    HW118125   5.053   6.326   2.663
 5742SOL    HW218126   4.931   6.405   2.588
 5743SOL     OW18127   2.886   5.979   4.877
 5743SOL    HW118128   2.786   5.969   4.881
 5743SOL    HW218129   2.911   6.031   4.795
 5744SOL     OW18130   4.841   0.229   0.933
 5744SOL    HW118131   4.860   0.327   0.938
 5744SOL    HW218132   4.893   0.182   1.004
 5745SOL     OW18133   3.135   1.276   4.549
 5745SOL    HW118134   3.222   1.268   4.501
 5745SOL    HW218135   3.100   1.370   4.540
 5746SOL     OW18136   4.684   0.956   1.056
 5746SOL    HW118137   4.707   0.978   1.151
 5746SOL    HW218138   4.596   0.998   1.033
 5747SOL     OW18139   0.304   5.222   2.851
 5747SOL    HW118140   0.337   5.154   2.786
 5747SOL    HW218141   0.324   5.192   2.944
 5748SOL     OW18142   1.865   4.679   1.305
 5748SOL    HW118143   1.876   4.771   1.343
 5748SOL    HW218144   1.768   4.660   1.289
 5749SOL     OW18145   2.346   1.324   4.069
 5749SOL    HW118146   2.286   1.396   4.035
 5749SOL    HW218147   2.292   1.255   4.118
 5750SOL     OW18148   6.116   5.247   4.565
 5750SOL    HW118149   6.190   5.187   4.533
 5750SOL    HW218150   6.156   5.326   4.612
 5751SOL     OW18151   2.628   2.330   5.005
 5751SOL    HW118152   2.678   2.384   5.073
 5751SOL    HW218153   2.534   2.318   5.035
 5752SOL     OW18154   6.030   1.218   6.164
 5752SOL    HW118155   6.057   1.174   6.250
 5752SOL    HW218156   5.984   1.152   6.105
 5753SOL     OW18157   3.254   3.284   6.304
 5753SOL    HW118158   3.158   3.278   6.273
 5753SOL    HW218159   3.314   3.286   6.224
 5754SOL     OW18160   5.753   5.522   1.372
 5754SOL    HW118161   5.803   5.516   1.286
 5754SOL    HW218162   5.815   5.506   1.448
 5755SOL     OW18163   2.931   3.703   6.118
 5755SOL    HW118164   2.874   3.718   6.199
 5755SOL    HW218165   2.928   3.606   6.093
 5756SOL     OW18166   6.663   5.410   3.361
 5756SOL    HW118167   6.754   5.409   3.320
 5756SOL    HW218168   6.611   5.331   3.327
 5757SOL     OW18169   6.542   6.633   1.783
 5757SOL    HW118170   6.478   6.570   1.827
 5757SOL    HW218171   6.495   6.719   1.763
 5758SOL     OW18172   2.851   2.058   4.291
 5758SOL    HW118173   2.887   2.052   4.198
 5758SOL    HW218174   2.755   2.030   4.292
 5759SOL     OW18175   5.065   2.405   6.753
 5759SOL    HW118176   5.015   2.320   6.770
 5759SOL    HW218177   5.018   2.481   6.798
 5760SOL     OW18178   1.422   6.231   2.144
 5760SOL    HW118179   1.490   6.291   2.187
 5760SOL    HW218180   1.367   6.283   2.079
 5761SOL     OW18181   5.951   0.077   5.099
 5761SOL    HW118182   5.989   0.078   5.191
 5761SOL    HW218183   5.858   0.113   5.101
 5762SOL     OW18184   5.700   0.055   0.229
 5762SOL    HW118185   5.767   0.085   0.296
 5762SOL    HW218186   5.623   0.119   0.227
 5763SOL     OW18187   0.981   6.466   0.659
 5763SOL    HW118188   0.932   6.452   0.573
 5763SOL    HW218189   0.921   6.442   0.736
 5764SOL     OW18190   5.693   4.679   5.757
 5764SOL    HW118191   5.669   4.750   5.824
 5764SOL    HW218192   5.792   4.681   5.742
 5765SOL     OW18193   6.240   4.611   6.607
 5765SOL    HW118194   6.173   4.685   6.613
 5765SOL    HW218195   6.196   4.529   6.571
 5766SOL     OW18196   2.998   1.231   1.698
 5766SOL    HW118197   3.014   1.138   1.731
 5766SOL    HW218198   3.084   1.270   1.665
 5767SOL     OW18199   1.543   6.427   0.572
 5767SOL    HW118200   1.631   6.474   0.563
 5767SOL    HW218201   1.526   6.373   0.489
 5768SOL     OW18202   6.955   0.377   2.830
 5768SOL    HW118203   6.906   0.291   2.842
 5768SOL    HW218204   6.896   0.443   2.784
 5769SOL     OW18205   2.837   0.006   3.394
 5769SOL    HW118206   2.935   0.015   3.377
 5769SOL    HW218207   2.787   0.008   3.307
 5770SOL     OW18208   0.015   0.042   0.803
 5770SOL    HW118209   0.097   7.011   0.786
 5770SOL    HW218210   0.020   0.082   0.895
 5771SOL     OW18211   1.309   0.236   1.141
 5771SOL    HW118212   1.231   0.174   1.147
 5771SOL    HW218213   1.338   0.245   1.046
 5772SOL     OW18214   5.937   2.676   0.706
 5772SOL    HW118215   5.915   2.771   0.682
 5772SOL    HW218216   5.897   2.614   0.639
 5773SOL     OW18217   5.468   6.620   3.874
 5773SOL    HW118218   5.445   6.707   3.919
 5773SOL    HW218219   5.513   6.560   3.939
 5774SOL     OW18220   2.481   4.576   3.113
 5774SOL    HW118221   2.415   4.607   3.182
 5774SOL    HW218222   2.574   4.593   3.146
 5775SOL     OW18223   0.905   0.425   0.612
 5775SOL    HW118224   0.851   0.467   0.539
 5775SOL    HW218225   0.931   0.495   0.679
 5776SOL     OW18226   5.885   0.779   6.355
 5776SOL    HW118227   5.939   0.837   6.293
 5776SOL    HW218228   5.943   0.705   6.390
 5777SOL     OW18229   5.760   0.731   4.206
 5777SOL    HW118230   5.687   0.663   4.202
 5777SOL    HW218231   5.844   0.688   4.240
 5778SOL     OW18232   2.500   0.532   2.556
 5778SOL    HW118233   2.484   0.443   2.598
 5778SOL    HW218234   2.492   0.523   2.456
 5779SOL     OW18235   3.758   0.646   0.921
 5779SOL    HW118236   3.715   0.558   0.903
 5779SOL    HW218237   3.735   0.676   1.014
 5780SOL     OW18238   6.311   5.047   1.645
 5780SOL    HW118239   6.302   4.968   1.586
 5780SOL    HW218240   6.232   5.107   1.634
 5781SOL     OW18241   1.918   3.933   4.864
 5781SOL    HW118242   1.995   3.875   4.891
 5781SOL    HW218243   1.927   4.023   4.908
 5782SOL     OW18244   1.404   0.939   1.464
 5782SOL    HW118245   1.491   0.893   1.480
 5782SOL    HW218246   1.375   0.925   1.370
 5783SOL     OW18247   1.801   1.057   0.308
 5783SOL    HW118248   1.793   1.033   0.404
 5783SOL    HW218249   1.711   1.086   0.273
 5784SOL     OW18250   0.528   6.296   0.289
 5784SOL    HW118251   0.532   6.196   0.277
 5784SOL    HW218252   0.527   6.317   0.386
 5785SOL     OW18253   1.341   1.169   0.693
 5785SOL    HW118254   1.440   1.181   0.691
 5785SOL    HW218255   1.314   1.129   0.781
 5786SOL     OW18256   1.560   3.802   1.797
 5786SOL    HW118257   1.530   3.877   1.856
 5786SOL    HW218258   1.490   3.784   1.728
 5787SOL     OW18259   5.707   2.055   4.207
 5787SOL    HW118260   5.615   2.017   4.199
 5787SOL    HW218261   5.747   2.065   4.116
 5788SOL     OW18262   3.256   0.211   1.828
 5788SOL    HW118263   3.309   0.276   1.882
 5788SOL    HW218264   3.162   0.207   1.862
 5789SOL     OW18265   3.824   2.874   0.359
 5789SOL    HW118266   3.794   2.963   0.323
 5789SOL    HW218267   3.923   2.877   0.375
 5790SOL     OW18268   6.187   5.461   4.729
 5790SOL    HW118269   6.209   5.556   4.707
 5790SOL    HW218270   6.246   5.431   4.805
 5791SOL     OW18271   2.975   1.725   2.468
 5791SOL    HW118272   2.972   1.783   2.549
 5791SOL    HW218273   2.949   1.631   2.493
 5792SOL     OW18274   4.983   3.278   3.270
 5792SOL    HW118275   4.935   3.314   3.189
 5792SOL    HW218276   4.919   3.222   3.323
 5793SOL     OW18277   6.114   2.365   5.356
 5793SOL    HW118278   6.142   2.284   5.407
 5793SOL    HW218279   6.117   2.445   5.416
 5794SOL     OW18280   2.790   6.455   5.971
 5794SOL    HW118281   2.843   6.375   5.998
 5794SOL    HW218282   2.850   6.536   5.972
 5795SOL     OW18283   0.792   5.647   1.628
 5795SOL    HW118284   0.784   5.549   1.609
 5795SOL    HW218285   0.837   5.661   1.716
 5796SOL     OW18286   4.567   1.670   6.429
 5796SOL    HW118287   4.605   1.762   6.422
 5796SOL    HW218288   4.480   1.674   6.478
 5797SOL     OW18289   5.742   1.791   0.153
 5797SOL    HW118290   5.671   1.848   0.112
 5797SOL    HW218291   5.699   1.714   0.201
 5798SOL     OW18292   0.998   3.973   5.038
 5798SOL    HW118293   0.950   3.890   5.009
 5798SOL    HW218294   1.033   4.021   4.957
 5799SOL     OW18295   1.731   6.334   3.093
 5799SOL    HW118296   1.638   6.336   3.131
 5799SOL    HW218297   1.767   6.240   3.098
 5800SOL     OW18298   0.341   0.213   0.799
 5800SOL    HW118299   0.319   0.171   0.887
 5800SOL    HW218300   0.264   0.270   0.770
 5801SOL     OW18301   2.336   2.682   2.223
 5801SOL    HW118302   2.364   2.613   2.156
 5801SOL    HW218303   2.407   2.692   2.293
 5802SOL     OW18304   6.834   1.918   3.318
 5802SOL    HW118305   6.901   1.992   3.312
 5802SOL    HW218306   6.859   1.845   3.254
 5803SOL     OW18307   1.902   5.147   4.565
 5803SOL    HW118308   1.944   5.226   4.611
 5803SOL    HW218309   1.807   5.139   4.593
 5804SOL     OW18310   6.112   6.330   3.885
 5804SOL    HW118311   6.116   6.383   3.801
 5804SOL    HW218312   6.032   6.357   3.939
 5805SOL     OW18313   1.637   3.399   1.269
 5805SOL    HW118314   1.580   3.324   1.235
 5805SOL    HW218315   1.599   3.433   1.355
 5806SOL     OW18316   0.397   3.263   3.696
 5806SOL    HW118317   0.362   3.347   3.738
 5806SOL    HW218318   0.496   3.258   3.711
 5807SOL     OW18319   1.408   5.850   0.926
 5807SOL    HW118320   1.310   5.855   0.943
 5807SOL    HW218321   1.454   5.929   0.966
 5808SOL     OW18322   6.245   6.684   4.431
 5808SOL    HW118323   6.240   6.782   4.454
 5808SOL    HW218324   6.203   6.631   4.504
 5809SOL     OW18325   0.259   2.332   6.034
 5809SOL    HW118326   0.333   2.294   6.089
 5809SOL    HW218327   0.173   2.325   6.085
 5810SOL     OW18328   4.097   6.768   4.956
 5810SOL    HW118329   4.173   6.725   4.907
 5810SOL    HW218330   4.071   6.852   4.909
 5811SOL     OW18331   2.978   3.240   6.224
 5811SOL    HW118332   2.879   3.239   6.238
 5811SOL    HW218333   3.009   3.150   6.193
 5812SOL     OW18334   5.719   3.189   0.339
 5812SOL    HW118335   5.663   3.118   0.296
 5812SOL    HW218336   5.660   3.257   0.381
 5813SOL     OW18337   4.057   6.205   1.370
 5813SOL    HW118338   4.088   6.207   1.275
 5813SOL    HW218339   4.027   6.297   1.397
 5814SOL     OW18340   6.183   1.845   2.328
 5814SOL    HW118341   6.240   1.904   2.270
 5814SOL    HW218342   6.133   1.901   2.394
 5815SOL     OW18343   6.337   1.166   3.865
 5815SOL    HW118344   6.276   1.126   3.934
 5815SOL    HW218345   6.339   1.107   3.784
 5816SOL     OW18346   0.549   4.851   2.740
 5816SOL    HW118347   0.630   4.794   2.723
 5816SOL    HW218348   0.466   4.798   2.720
 5817SOL     OW18349   5.701   4.104   4.610
 5817SOL    HW118350   5.720   4.011   4.578
 5817SOL    HW218351   5.785   4.143   4.650
 5818SOL     OW18352   1.502   6.897   4.943
 5818SOL    HW118353   1.557   6.906   5.026
 5818SOL    HW218354   1.427   6.834   4.960
 5819SOL     OW18355   3.762   4.800   0.142
 5819SOL    HW118356   3.725   4.835   0.228
 5819SOL    HW218357   3.848   4.753   0.159
 5820SOL     OW18358   5.492   4.917   2.122
 5820SOL    HW118359   5.448   4.877   2.203
 5820SOL    HW218360   5.422   4.950   2.059
 5821SOL     OW18361   6.713   0.851   1.355
 5821SOL    HW118362   6.683   0.794   1.278
 5821SOL    HW218363   6.744   0.939   1.321
 5822SOL     OW18364   1.398   2.112   2.880
 5822SOL    HW118365   1.421   2.018   2.909
 5822SOL    HW218366   1.479   2.154   2.839
 5823SOL     OW18367   2.252   6.771   3.847
 5823SOL    HW118368   2.190   6.848   3.858
 5823SOL    HW218369   2.314   6.765   3.925
 5824SOL     OW18370   1.122   6.955   2.272
 5824SOL    HW118371   1.025   6.970   2.290
 5824SOL    HW218372   1.133   6.869   2.222
 5825SOL     OW18373   6.293   0.365   4.724
 5825SOL    HW118374   6.390   0.381   4.741
 5825SOL    HW218375   6.252   0.446   4.683
 5826SOL     OW18376   0.161   0.768   5.356
 5826SOL    HW118377   0.167   0.675   5.320
 5826SOL    HW218378   0.067   0.802   5.346
 5827SOL     OW18379   1.351   4.052   5.434
 5827SOL    HW118380   1.389   4.001   5.512
 5827SOL    HW218381   1.418   4.056   5.360
 5828SOL     OW18382   5.275   6.700   4.172
 5828SOL    HW118383   5.267   6.714   4.271
 5828SOL    HW218384   5.353   6.751   4.138
 5829SOL     OW18385   1.934   0.834   4.371
 5829SOL    HW118386   1.920   0.803   4.465
 5829SOL    HW218387   1.901   0.928   4.361
 5830SOL     OW18388   3.394   4.872   5.483
 5830SOL    HW118389   3.441   4.838   5.564
 5830SOL    HW218390   3.417   4.969   5.469
 5831SOL     OW18391   1.358   1.330   5.388
 5831SOL    HW118392   1.308   1.350   5.304
 5831SOL    HW218393   1.403   1.241   5.381
 5832SOL     OW18394   3.323   4.630   1.434
 5832SOL    HW118395   3.334   4.726   1.409
 5832SOL    HW218396   3.287   4.624   1.527
 5833SOL     OW18397   4.161   3.722   5.666
 5833SOL    HW118398   4.149   3.645   5.729
 5833SOL    HW218399   4.094   3.793   5.688
 5834SOL     OW18400   6.357   4.451   6.865
 5834SOL    HW118401   6.444   4.424   6.823
 5834SOL    HW218402   6.339   4.548   6.845
 5835SOL     OW18403   5.370   0.522   2.723
 5835SOL    HW118404   5.388   0.607   2.774
 5835SOL    HW218405   5.406   0.444   2.774
 5836SOL     OW18406   4.365   6.354   2.277
 5836SOL    HW118407   4.288   6.404   2.315
 5836SOL    HW218408   4.416   6.414   2.214
 5837SOL     OW18409   3.660   4.018   0.550
 5837SOL    HW118410   3.758   4.007   0.569
 5837SOL    HW218411   3.610   3.940   0.588
 5838SOL     OW18412   2.770   1.941   1.503
 5838SOL    HW118413   2.821   2.001   1.441
 5838SOL    HW218414   2.832   1.901   1.570
 5839SOL     OW18415   1.337   2.388   1.889
 5839SOL    HW118416   1.360   2.298   1.850
 5839SOL    HW218417   1.261   2.378   1.953
 5840SOL     OW18418   0.834   3.604   2.125
 5840SOL    HW118419   0.741   3.595   2.088
 5840SOL    HW218420   0.836   3.570   2.219
 5841SOL     OW18421   4.778   0.669   1.368
 5841SOL    HW118422   4.796   0.572   1.387
 5841SOL    HW218423   4.853   0.707   1.313
 5842SOL     OW18424   3.539   1.828   0.448
 5842SOL    HW118425   3.468   1.763   0.473
 5842SOL    HW218426   3.560   1.886   0.527
 5843SOL     OW18427   1.778   3.704   1.132
 5843SOL    HW118428   1.779   3.641   1.210
 5843SOL    HW218429   1.871   3.715   1.097
 5844SOL     OW18430   0.684   0.245   4.815
 5844SOL    HW118431   0.685   0.230   4.716
 5844SOL    HW218432   0.672   0.157   4.861
 5845SOL     OW18433   0.506   6.555   1.987
 5845SOL    HW118434   0.422   6.528   1.939
 5845SOL    HW218435   0.519   6.653   1.976
 5846SOL     OW18436   6.932   3.790   5.463
 5846SOL    HW118437   6.888   3.807   5.375
 5846SOL    HW218438   6.966   3.696   5.466
 5847SOL     OW18439   2.615   3.172   1.226
 5847SOL    HW118440   2.530   3.217   1.199
 5847SOL    HW218441   2.595   3.095   1.286
 5848SOL     OW18442   2.435   5.877   3.875
 5848SOL    HW118443   2.453   5.955   3.935
 5848SOL    HW218444   2.351   5.893   3.824
 5849SOL     OW18445   2.170   6.660   5.249
 5849SOL    HW118446   2.083   6.622   5.280
 5849SOL    HW218447   2.164   6.681   5.151
 5850SOL     OW18448   1.624   2.113   1.881
 5850SOL    HW118449   1.556   2.072   1.942
 5850SOL    HW218450   1.600   2.093   1.786
 5851SOL     OW18451   5.854   3.114   4.340
 5851SOL    HW118452   5.867   3.190   4.404
 5851SOL    HW218453   5.871   3.145   4.247
 5852SOL     OW18454   5.023   5.568   3.773
 5852SOL    HW118455   5.026   5.586   3.675
 5852SOL    HW218456   4.974   5.482   3.790
 5853SOL     OW18457   3.575   4.751   5.654
 5853SOL    HW118458   3.537   4.771   5.744
 5853SOL    HW218459   3.675   4.757   5.658
 5854SOL     OW18460   3.219   4.444   6.207
 5854SOL    HW118461   3.258   4.414   6.120
 5854SOL    HW218462   3.240   4.541   6.220
 5855SOL     OW18463   2.189   2.604   3.772
 5855SOL    HW118464   2.228   2.514   3.752
 5855SOL    HW218465   2.262   2.673   3.771
 5856SOL     OW18466   1.751   6.552   2.515
 5856SOL    HW118467   1.832   6.503   2.482
 5856SOL    HW218468   1.715   6.505   2.595
 5857SOL     OW18469   0.183   3.316   5.958
 5857SOL    HW118470   0.094   3.286   5.926
 5857SOL    HW218471   0.254   3.283   5.897
 5858SOL     OW18472   1.755   1.604   3.250
 5858SOL    HW118473   1.776   1.550   3.331
 5858SOL    HW218474   1.792   1.559   3.168
 5859SOL     OW18475   5.799   0.188   1.892
 5859SOL    HW118476   5.785   0.169   1.795
 5859SOL    HW218477   5.792   0.287   1.908
 5860SOL     OW18478   6.965   3.578   3.164
 5860SOL    HW118479   0.030   3.576   3.118
 5860SOL    HW218480   6.918   3.664   3.142
 5861SOL     OW18481   5.915   0.434   5.076
 5861SOL    HW118482   5.904   0.463   4.981
 5861SOL    HW218483   6.012   0.430   5.099
 5862SOL     OW18484   6.390   5.854   2.552
 5862SOL    HW118485   6.457   5.832   2.623
 5862SOL    HW218486   6.437   5.880   2.468
 5863SOL     OW18487   3.139   0.532   4.647
 5863SOL    HW118488   3.087   0.593   4.707
 5863SOL    HW218489   3.125   0.557   4.552
 5864SOL     OW18490   3.543   3.743   3.489
 5864SOL    HW118491   3.590   3.700   3.566
 5864SOL    HW218492   3.461   3.690   3.466
 5865SOL     OW18493   6.081   1.073   5.735
 5865SOL    HW118494   6.125   1.160   5.712
 5865SOL    HW218495   5.983   1.080   5.718
 5866SOL     OW18496   3.861   3.396   1.623
 5866SOL    HW118497   3.857   3.337   1.543
 5866SOL    HW218498   3.928   3.469   1.607
 5867SOL     OW18499   2.372   2.192   1.577
 5867SOL    HW118500   2.434   2.209   1.500
 5867SOL    HW218501   2.333   2.100   1.568
 5868SOL     OW18502   1.039   1.729   6.008
 5868SOL    HW118503   0.979   1.803   6.039
 5868SOL    HW218504   1.132   1.746   6.041
 5869SOL     OW18505   0.847   4.528   3.990
 5869SOL    HW118506   0.920   4.520   3.922
 5869SOL    HW218507   0.886   4.538   4.081
 5870SOL     OW18508   4.132   4.811   5.473
 5870SOL    HW118509   4.123   4.884   5.541
 5870SOL    HW218510   4.183   4.845   5.394
 5871SOL     OW18511   2.954   3.246   3.790
 5871SOL    HW118512   3.010   3.329   3.784
 5871SOL    HW218513   2.924   3.220   3.699
 5872SOL     OW18514   4.300   5.886   2.064
 5872SOL    HW118515   4.250   5.824   2.004
 5872SOL    HW218516   4.241   5.961   2.091
 5873SOL     OW18517   3.261   4.886   2.566
 5873SOL    HW118518   3.359   4.886   2.546
 5873SOL    HW218519   3.247   4.891   2.665
 5874SOL     OW18520   2.253   4.253   5.045
 5874SOL    HW118521   2.166   4.267   5.091
 5874SOL    HW218522   2.270   4.155   5.034
 5875SOL     OW18523   3.600   2.043   0.014
 5875SOL    HW118524   3.564   2.136   0.002
 5875SOL    HW218525   3.536   1.977   7.000
 5876SOL     OW18526   3.861   3.702   2.297
 5876SOL    HW118527   3.902   3.722   2.208
 5876SOL    HW218528   3.896   3.615   2.331
 5877SOL     OW18529   5.917   6.126   1.012
 5877SOL    HW118530   5.971   6.197   1.058
 5877SOL    HW218531   5.870   6.070   1.080
 5878SOL     OW18532   1.238   5.396   3.111
 5878SOL    HW118533   1.228   5.418   3.208
 5878SOL    HW218534   1.250   5.481   3.059
 5879SOL     OW18535   6.386   3.610   6.862
 5879SOL    HW118536   6.350   3.548   6.793
 5879SOL    HW218537   6.310   3.642   6.920
 5880SOL     OW18538   2.967   6.069   1.289
 5880SOL    HW118539   3.021   6.123   1.224
 5880SOL    HW218540   3.013   6.068   1.378
 5881SOL     OW18541   0.305   4.581   3.561
 5881SOL    HW118542   0.390   4.528   3.558
 5881SOL    HW218543   0.230   4.523   3.593
 5882SOL     OW18544   5.998   0.789   0.860
 5882SOL    HW118545   5.922   0.839   0.818
 5882SOL    HW218546   6.025   0.713   0.801
 5883SOL     OW18547   0.479   2.373   6.320
 5883SOL    HW118548   0.485   2.459   6.268
 5883SOL    HW218549   0.565   2.358   6.368
 5884SOL     OW18550   1.705   1.423   3.603
 5884SOL    HW118551   1.731   1.519   3.589
 5884SOL    HW218552   1.687   1.380   3.515
 5885SOL     OW18553   6.679   6.530   1.297
 5885SOL    HW118554   6.732   6.608   1.262
 5885SOL    HW218555   6.605   6.564   1.354
 5886SOL     OW18556   0.124   2.567   5.401
 5886SOL    HW118557   0.119   2.499   5.329
 5886SOL    HW218558   0.130   2.658   5.360
 5887SOL     OW18559   4.041   0.861   3.808
 5887SOL    HW118560   4.058   0.889   3.902
 5887SOL    HW218561   3.950   0.892   3.780
 5888SOL     OW18562   2.608   5.809   2.679
 5888SOL    HW118563   2.647   5.730   2.632
 5888SOL    HW218564   2.604   5.886   2.615
 5889SOL     OW18565   1.910   6.919   1.516
 5889SOL    HW118566   1.871   6.981   1.448
 5889SOL    HW218567   2.008   6.937   1.526
 5890SOL     OW18568   1.161   6.989   5.284
 5890SOL    HW118569   1.148   6.890   5.281
 5890SOL    HW218570   1.075   0.010   5.259
 5891SOL     OW18571   3.965   3.425   6.899
 5891SOL    HW118572   3.878   3.400   6.857
 5891SOL    HW218573   3.978   3.524   6.892
 5892SOL     OW18574   0.718   6.152   1.135
 5892SOL    HW118575   0.766   6.199   1.209
 5892SOL    HW218576   0.733   6.053   1.144
 5893SOL     OW18577   1.791   2.795   3.295
 5893SOL    HW118578   1.707   2.849   3.299
 5893SOL    HW218579   1.786   2.720   3.360
 5894SOL     OW18580   1.322   4.875   3.543
 5894SOL    HW118581   1.262   4.804   3.581
 5894SOL    HW218582   1.340   4.944   3.614
 5895SOL     OW18583   5.272   2.307   4.733
 5895SOL    HW118584   5.242   2.375   4.800
 5895SOL    HW218585   5.359   2.335   4.694
 5896SOL     OW18586   3.832   1.981   6.946
 5896SOL    HW118587   3.907   1.968   7.010
 5896SOL    HW218588   3.749   2.006   6.997
 5897SOL     OW18589   4.010   6.874   1.801
 5897SOL    HW118590   4.060   6.825   1.729
 5897SOL    HW218591   4.074   6.904   1.872
 5898SOL     OW18592   1.711   0.321   2.026
 5898SOL    HW118593   1.622   0.316   1.980
 5898SOL    HW218594   1.714   0.402   2.084
 5899SOL     OW18595   5.712   6.843   5.155
 5899SOL    HW118596   5.670   6.905   5.222
 5899SOL    HW218597   5.812   6.845   5.166
 5900SOL     OW18598   4.474   5.085   3.399
 5900SOL    HW118599   4.571   5.106   3.386
 5900SOL    HW218600   4.464   5.016   3.470
 5901SOL     OW18601   2.035   0.315   6.621
 5901SOL    HW118602   2.007   0.358   6.706
 5901SOL    HW218603   2.117   0.260   6.636
 5902SOL     OW18604   6.853   2.419   1.042
 5902SOL    HW118605   6.929   2.456   0.988
 5902SOL    HW218606   6.771   2.415   0.985
 5903SOL     OW18607   5.476   4.396   0.864
 5903SOL    HW118608   5.492   4.336   0.786
 5903SOL    HW218609   5.520   4.484   0.848
 5904SOL     OW18610   0.478   3.558   2.428
 5904SOL    HW118611   0.378   3.563   2.423
 5904SOL    HW218612   0.518   3.628   2.370
 5905SOL     OW18613   6.473   6.467   2.765
 5905SOL    HW118614   6.373   6.457   2.766
 5905SOL    HW218615   6.499   6.544   2.825
 5906SOL     OW18616   5.527   0.622   3.919
 5906SOL    HW118617   5.598   0.621   3.990
 5906SOL    HW218618   5.553   0.561   3.845
 5907SOL     OW18619   1.003   6.257   1.771
 5907SOL    HW118620   0.945   6.212   1.703
 5907SOL    HW218621   0.958   6.256   1.860
 5908SOL     OW18622   0.878   2.336   5.737
 5908SOL    HW118623   0.856   2.270   5.665
 5908SOL    HW218624   0.839   2.307   5.824
 5909SOL     OW18625   0.579   5.750   0.672
 5909SOL    HW118626   0.669   5.753   0.629
 5909SOL    HW218627   0.574   5.819   0.744
 5910SOL     OW18628   0.800   2.630   3.239
 5910SOL    HW118629   0.828   2.540   3.205
 5910SOL    HW218630   0.754   2.680   3.167
 5911SOL     OW18631   0.078   5.703   6.532
 5911SOL    HW118632   0.171   5.738   6.518
 5911SOL    HW218633   0.017   5.744   6.465
 5912SOL     OW18634   6.252   1.245   5.391
 5912SOL    HW118635   6.224   1.338   5.415
 5912SOL    HW218636   6.352   1.241   5.388
 5913SOL     OW18637   5.456   3.078   0.230
 5913SOL    HW118638   5.539   3.026   0.211
 5913SOL    HW218639   5.411   3.040   0.311
 5914SOL     OW18640   0.926   6.791   6.435
 5914SOL    HW118641   0.925   6.873   6.377
 5914SOL    HW218642   1.018   6.774   6.469
 5915SOL     OW18643   3.538   6.325   0.305
 5915SOL    HW118644   3.520   6.382   0.385
 5915SOL    HW218645   3.455   6.317   0.251
 5916SOL     OW18646   0.123   7.014   2.119
 5916SOL    HW118647   0.103   6.952   2.044
 5916SOL    HW218648   0.046   0.054   2.131
 5917SOL     OW18649   2.897   3.815   5.878
 5917SOL    HW118650   2.964   3.889   5.876
 5917SOL    HW218651   2.902   3.768   5.967
 5918SOL     OW18652   2.102   5.853   6.148
 5918SOL    HW118653   2.128   5.764   6.184
 5918SOL    HW218654   2.183   5.902   6.116
 5919SOL     OW18655   3.004   3.387   3.149
 5919SOL    HW118656   2.963   3.443   3.222
 5919SOL    HW218657   3.057   3.446   3.088
 5920SOL     OW18658   5.136   1.414   5.920
 5920SOL    HW118659   5.203   1.351   5.960
 5920SOL    HW218660   5.164   1.508   5.936
 5921SOL     OW18661   3.944   5.125   6.869
 5921SOL    HW118662   3.974   5.212   6.831
 5921SOL    HW218663   3.888   5.142   6.950
 5922SOL     OW18664   6.424   3.740   3.650
 5922SOL    HW118665   6.481   3.697   3.720
 5922SOL    HW218666   6.328   3.721   3.668
 5923SOL     OW18667   6.947   0.809   1.828
 5923SOL    HW118668   6.905   0.834   1.741
 5923SOL    HW218669   0.019   0.783   1.813
 5924SOL     OW18670   5.764   6.789   3.295
 5924SOL    HW118671   5.683   6.733   3.277
 5924SOL    HW218672   5.780   6.793   3.393
 5925SOL     OW18673   3.883   6.211   1.851
 5925SOL    HW118674   3.971   6.179   1.815
 5925SOL    HW218675   3.815   6.139   1.841
 5926SOL     OW18676   4.503   4.471   2.854
 5926SOL    HW118677   4.538   4.565   2.854
 5926SOL    HW218678   4.480   4.444   2.761
 5927SOL     OW18679   1.297   3.565   2.219
 5927SOL    HW118680   1.219   3.525   2.170
 5927SOL    HW218681   1.361   3.493   2.243
 5928SOL     OW18682   3.559   6.881   1.558
 5928SOL    HW118683   3.482   6.934   1.593
 5928SOL    HW218684   3.644   6.921   1.590
 5929SOL     OW18685   6.294   0.965   5.542
 5929SOL    HW118686   6.269   1.052   5.499
 5929SOL    HW218687   6.280   0.972   5.641
 5930SOL     OW18688   0.753   2.968   2.259
 5930SOL    HW118689   0.826   2.906   2.232
 5930SOL    HW218690   0.670   2.945   2.208
 5931SOL     OW18691   6.043   6.162   2.600
 5931SOL    HW118692   6.141   6.150   2.617
 5931SOL    HW218693   6.021   6.259   2.596
 5932SOL     OW18694   3.352   0.156   6.498
 5932SOL    HW118695   3.371   0.221   6.571
 5932SOL    HW218696   3.437   0.135   6.450
 5933SOL     OW18697   6.930   4.844   4.491
 5933SOL    HW118698   6.887   4.806   4.572
 5933SOL    HW218699   7.018   4.799   4.476
 5934SOL     OW18700   3.607   3.478   5.921
 5934SOL    HW118701   3.571   3.385   5.913
 5934SOL    HW218702   3.535   3.543   5.895
 5935SOL     OW18703   0.673   5.962   5.323
 5935SOL    HW118704   0.630   5.911   5.397
 5935SOL    HW218705   0.610   6.031   5.288
 5936SOL     OW18706   2.983   3.300   2.441
 5936SOL    HW118707   2.990   3.227   2.509
 5936SOL    HW218708   3.011   3.265   2.351
 5937SOL     OW18709   6.401   3.222   2.112
 5937SOL    HW118710   6.361   3.309   2.083
 5937SOL    HW218711   6.500   3.226   2.099
 5938SOL     OW18712   5.929   5.768   4.677
 5938SOL    HW118713   5.867   5.776   4.599
 5938SOL    HW218714   5.916   5.846   4.738
 5939SOL     OW18715   3.232   5.926   4.107
 5939SOL    HW118716   3.275   5.894   4.192
 5939SOL    HW218717   3.136   5.948   4.124
 5940SOL     OW18718   4.307   4.957   3.213
 5940SOL    HW118719   4.269   4.893   3.280
 5940SOL    HW218720   4.364   5.024   3.260
 5941SOL     OW18721   5.984   2.595   3.183
 5941SOL    HW118722   6.071   2.591   3.232
 5941SOL    HW218723   5.955   2.503   3.158
 5942SOL     OW18724   5.631   2.934   6.140
 5942SOL    HW118725   5.567   2.955   6.214
 5942SOL    HW218726   5.643   3.014   6.082
 5943SOL     OW18727   3.989   3.787   0.365
 5943SOL    HW118728   3.949   3.836   0.287
 5943SOL    HW218729   3.959   3.692   0.363
 5944SOL     OW18730   0.492   2.878   0.461
 5944SOL    HW118731   0.440   2.809   0.411
 5944SOL    HW218732   0.590   2.856   0.456
 5945SOL     OW18733   0.223   6.093   5.439
 5945SOL    HW118734   0.216   6.101   5.339
 5945SOL    HW218735   0.213   5.998   5.465
 5946SOL     OW18736   3.410   4.851   6.990
 5946SOL    HW118737   3.441   4.756   6.998
 5946SOL    HW218738   3.341   4.857   6.917
 5947SOL     OW18739   3.180   3.264   4.015
 5947SOL    HW118740   3.151   3.234   3.924
 5947SOL    HW218741   3.106   3.316   4.058
 5948SOL     OW18742   4.474   4.459   2.224
 5948SOL    HW118743   4.482   4.372   2.273
 5948SOL    HW218744   4.560   4.478   2.176
 5949SOL     OW18745   5.348   5.711   0.984
 5949SOL    HW118746   5.322   5.726   1.079
 5949SOL    HW218747   5.305   5.627   0.951
 5950SOL     OW18748   4.820   2.369   5.243
 5950SOL    HW118749   4.831   2.293   5.180
 5950SOL    HW218750   4.819   2.455   5.192
 5951SOL     OW18751   1.013   5.928   5.293
 5951SOL    HW118752   1.024   5.849   5.354
 5951SOL    HW218753   0.917   5.934   5.265
 5952SOL     OW18754   4.099   5.776   3.088
 5952SOL    HW118755   4.167   5.716   3.130
 5952SOL    HW218756   4.133   5.870   3.088
 5953SOL     OW18757   0.046   3.916   4.611
 5953SOL    HW118758   0.064   3.833   4.557
 5953SOL    HW218759   6.994   3.966   4.570
 5954SOL     OW18760   0.394   5.644   5.751
 5954SOL    HW118761   0.372   5.570   5.687
 5954SOL    HW218762   0.406   5.729   5.700
 5955SOL     OW18763   4.231   5.274   1.418
 5955SOL    HW118764   4.267   5.339   1.350
 5955SOL    HW218765   4.272   5.185   1.404
 5956SOL     OW18766   5.722   1.621   4.300
 5956SOL    HW118767   5.664   1.680   4.357
 5956SOL    HW218768   5.698   1.636   4.204
 5957SOL     OW18769   2.161   1.503   3.591
 5957SOL    HW118770   2.207   1.567   3.652
 5957SOL    HW218771   2.162   1.411   3.631
 5958SOL     OW18772   4.292   0.792   3.074
 5958SOL    HW118773   4.332   0.884   3.078
 5958SOL    HW218774   4.353   0.727   3.119
 5959SOL     OW18775   4.291   2.908   5.502
 5959SOL    HW118776   4.275   2.852   5.584
 5959SOL    HW218777   4.319   2.849   5.427
 5960SOL     OW18778   2.613   6.476   3.972
 5960SOL    HW118779   2.539   6.414   3.948
 5960SOL    HW218780   2.701   6.434   3.947
 5961SOL     OW18781   3.836   1.581   2.395
 5961SOL    HW118782   3.811   1.672   2.361
 5961SOL    HW218783   3.934   1.566   2.380
 5962SOL     OW18784   5.308   5.777   6.226
 5962SOL    HW118785   5.381   5.846   6.227
 5962SOL    HW218786   5.254   5.787   6.143
 5963SOL     OW18787   3.409   3.856   0.042
 5963SOL    HW118788   3.507   3.861   0.061
 5963SOL    HW218789   3.359   3.845   0.128
 5964SOL     OW18790   2.342   6.771   3.578
 5964SOL    HW118791   2.353   6.681   3.536
 5964SOL    HW218792   2.324   6.760   3.676
 5965SOL     OW18793   1.792   0.480   6.683
 5965SOL    HW118794   1.785   0.499   6.781
 5965SOL    HW218795   1.715   0.522   6.636
 5966SOL     OW18796   1.026   0.027   6.006
 5966SOL    HW118797   1.048   0.110   6.057
 5966SOL    HW218798   1.092   0.015   5.932
 5967SOL     OW18799   2.377   1.030   5.404
 5967SOL    HW118800   2.436   1.044   5.324
 5967SOL    HW218801   2.434   1.010   5.484
 5968SOL     OW18802   5.493   2.769   0.424
 5968SOL    HW118803   5.446   2.853   0.451
 5968SOL    HW218804   5.590   2.778   0.444
 5969SOL     OW18805   5.108   1.278   6.434
 5969SOL    HW118806   5.081   1.235   6.348
 5969SOL    HW218807   5.057   1.363   6.447
 5970SOL     OW18808   0.601   4.063   0.620
 5970SOL    HW118809   0.551   4.093   0.538
 5970SOL    HW218810   0.652   3.979   0.599
 5971SOL     OW18811   6.034   0.022   1.691
 5971SOL    HW118812   6.101   0.073   1.746
 5971SOL    HW218813   6.062   0.023   1.595
 5972SOL     OW18814   5.289   5.553   6.366
 5972SOL    HW118815   5.266   5.632   6.309
 5972SOL    HW218816   5.388   5.538   6.363
 5973SOL     OW18817   1.829   3.210   2.923
 5973SOL    HW118818   1.818   3.130   2.981
 5973SOL    HW218819   1.925   3.216   2.893
 5974SOL     OW18820   5.076   0.546   0.192
 5974SOL    HW118821   5.094   0.520   0.286
 5974SOL    HW218822   5.138   0.619   0.164
 5975SOL     OW18823   4.451   5.948   1.312
 5975SOL    HW118824   4.466   5.955   1.213
 5975SOL    HW218825   4.491   6.028   1.357
 5976SOL     OW18826   3.353   3.223   5.833
 5976SOL    HW118827   3.431   3.244   5.773
 5976SOL    HW218828   3.303   3.145   5.796
 5977SOL     OW18829   0.617   5.751   0.371
 5977SOL    HW118830   0.579   5.771   0.462
 5977SOL    HW218831   0.683   5.822   0.346
 5978SOL     OW18832   3.765   5.461   1.306
 5978SOL    HW118833   3.806   5.396   1.371
 5978SOL    HW218834   3.669   5.439   1.294
 5979SOL     OW18835   6.302   0.753   2.505
 5979SOL    HW118836   6.300   0.781   2.601
 5979SOL    HW218837   6.356   0.818   2.452
 5980SOL     OW18838   3.776   2.992   2.080
 5980SOL    HW118839   3.803   3.061   2.147
 5980SOL    HW218840   3.802   3.022   1.988
 5981SOL     OW18841   4.812   1.695   0.435
 5981SOL    HW118842   4.753   1.646   0.371
 5981SOL    HW218843   4.900   1.714   0.392
 5982SOL     OW18844   6.033   2.307   2.557
 5982SOL    HW118845   6.038   2.257   2.471
 5982SOL    HW218846   5.942   2.295   2.597
 5983SOL     OW18847   1.427   0.554   4.221
 5983SOL    HW118848   1.433   0.458   4.246
 5983SOL    HW218849   1.333   0.576   4.195
 5984SOL     OW18850   5.711   6.410   3.795
 5984SOL    HW118851   5.730   6.482   3.729
 5984SOL    HW218852   5.758   6.326   3.767
 5985SOL     OW18853   6.285   2.540   3.257
 5985SOL    HW118854   6.383   2.558   3.254
 5985SOL    HW218855   6.256   2.499   3.171
 5986SOL     OW18856   3.832   4.059   5.989
 5986SOL    HW118857   3.762   4.131   5.995
 5986SOL    HW218858   3.909   4.092   5.934
 5987SOL     OW18859   5.548   0.506   4.524
 5987SOL    HW118860   5.521   0.552   4.440
 5987SOL    HW218861   5.471   0.507   4.589
 5988SOL     OW18862   3.611   1.222   6.448
 5988SOL    HW118863   3.659   1.291   6.502
 5988SOL    HW218864   3.536   1.184   6.502
 5989SOL     OW18865   2.044   5.647   5.650
 5989SOL    HW118866   1.988   5.606   5.577
 5989SOL    HW218867   2.070   5.740   5.624
 5990SOL     OW18868   3.928   3.764   0.853
 5990SOL    HW118869   4.013   3.753   0.904
 5990SOL    HW218870   3.851   3.735   0.910
 5991SOL     OW18871   4.591   5.889   0.316
 5991SOL    HW118872   4.504   5.857   0.353
 5991SOL    HW218873   4.581   5.984   0.285
 5992SOL     OW18874   3.156   6.812   2.398
 5992SOL    HW118875   3.218   6.740   2.368
 5992SOL    HW218876   3.151   6.813   2.498
 5993SOL     OW18877   5.813   4.385   5.968
 5993SOL    HW118878   5.852   4.469   5.929
 5993SOL    HW218879   5.887   4.329   6.006
 5994SOL     OW18880   6.652   3.053   1.275
 5994SOL    HW118881   6.711   2.981   1.237
 5994SOL    HW218882   6.667   3.061   1.373
 5995SOL     OW18883   4.615   2.855   1.737
 5995SOL    HW118884   4.639   2.938   1.788
 5995SOL    HW218885   4.520   2.829   1.758
 5996SOL     OW18886   1.680   5.675   1.901
 5996SOL    HW118887   1.674   5.600   1.966
 5996SOL    HW218888   1.603   5.737   1.914
 5997SOL     OW18889   0.432   6.860   3.518
 5997SOL    HW118890   0.386   6.771   3.506
 5997SOL    HW218891   0.479   6.885   3.434
 5998SOL     OW18892   5.819   0.997   1.417
 5998SOL    HW118893   5.736   1.023   1.369
 5998SOL    HW218894   5.855   0.912   1.379
 5999SOL     OW18895   3.214   3.146   1.072
 5999SOL    HW118896   3.265   3.227   1.100
 5999SOL    HW218897   3.276   3.079   1.032
 6000SOL     OW18898   0.207   6.308   0.300
 6000SOL    HW118899   0.247   6.285   0.211
 6000SOL    HW218900   0.267   6.276   0.373
 6001SOL     OW18901   5.391   5.251   0.271
 6001SOL    HW118902   5.470   5.192   0.289
 6001SOL    HW218903   5.357   5.233   0.179
 6002SOL     OW18904   7.023   0.055   5.687
 6002SOL    HW118905   7.002   0.122   5.615
 6002SOL    HW218906   6.961   7.001   5.678
 6003SOL     OW18907   6.176   2.649   4.251
 6003SOL    HW118908   6.273   2.668   4.230
 6003SOL    HW218909   6.129   2.736   4.269
 6004SOL     OW18910   6.002   2.517   3.796
 6004SOL    HW118911   5.934   2.517   3.723
 6004SOL    HW218912   6.015   2.610   3.829
 6005SOL     OW18913   5.756   5.119   5.265
 6005SOL    HW118914   5.826   5.091   5.330
 6005SOL    HW218915   5.688   5.046   5.254
 6006SOL     OW18916   2.950   0.040   5.132
 6006SOL    HW118917   2.990   6.992   5.075
 6006SOL    HW218918   2.889   0.096   5.076
 6007SOL     OW18919   0.208   2.839   6.560
 6007SOL    HW118920   0.190   2.772   6.633
 6007SOL    HW218921   0.232   2.927   6.602
 6008SOL     OW18922   2.047   4.429   5.438
 6008SOL    HW118923   2.111   4.353   5.423
 6008SOL    HW218924   2.057   4.464   5.531
 6009SOL     OW18925   4.229   5.730   3.390
 6009SOL    HW118926   4.163   5.739   3.464
 6009SOL    HW218927   4.259   5.821   3.361
 6010SOL     OW18928   0.220   4.242   3.821
 6010SOL    HW118929   0.200   4.264   3.916
 6010SOL    HW218930   0.188   4.316   3.762
 6011SOL     OW18931   4.741   2.920   2.584
 6011SOL    HW118932   4.719   2.823   2.597
 6011SOL    HW218933   4.733   2.968   2.671
 6012SOL     OW18934   6.306   0.567   0.138
 6012SOL    HW118935   6.240   0.610   0.076
 6012SOL    HW218936   6.398   0.595   0.114
 6013SOL     OW18937   4.890   1.177   2.658
 6013SOL    HW118938   4.904   1.091   2.708
 6013SOL    HW218939   4.795   1.207   2.671
 6014SOL     OW18940   3.419   3.836   4.141
 6014SOL    HW118941   3.504   3.816   4.190
 6014SOL    HW218942   3.348   3.771   4.169
 6015SOL     OW18943   6.189   3.693   4.400
 6015SOL    HW118944   6.120   3.622   4.411
 6015SOL    HW218945   6.263   3.660   4.342
 6016SOL     OW18946   5.434   1.937   5.514
 6016SOL    HW118947   5.413   1.839   5.523
 6016SOL    HW218948   5.473   1.970   5.600
 6017SOL     OW18949   0.062   4.449   5.448
 6017SOL    HW118950   0.139   4.482   5.393
 6017SOL    HW218951   7.019   4.404   5.389
 6018SOL     OW18952   2.958   1.067   4.460
 6018SOL    HW118953   2.919   1.113   4.380
 6018SOL    HW218954   2.982   1.135   4.529
 6019SOL     OW18955   0.565   3.327   6.205
 6019SOL    HW118956   0.522   3.417   6.205
 6019SOL    HW218957   0.523   3.271   6.276
 6020SOL     OW18958   0.887   5.307   0.825
 6020SOL    HW118959   0.950   5.328   0.751
 6020SOL    HW218960   0.929   5.240   0.887
 6021SOL     OW18961   5.168   6.953   2.705
 6021SOL    HW118962   5.190   6.874   2.762
 6021SOL    HW218963   5.069   6.963   2.699
 6022SOL     OW18964   6.532   1.382   3.264
 6022SOL    HW118965   6.625   1.357   3.289
 6022SOL    HW218966   6.500   1.455   3.324
 6023SOL     OW18967   5.479   0.167   1.341
 6023SOL    HW118968   5.566   0.118   1.331
 6023SOL    HW218969   5.403   0.102   1.336
 6024SOL     OW18970   0.372   5.090   0.406
 6024SOL    HW118971   0.417   5.167   0.451
 6024SOL    HW218972   0.378   5.100   0.307
 6025SOL     OW18973   3.321   1.019   3.706
 6025SOL    HW118974   3.253   1.034   3.634
 6025SOL    HW218975   3.413   1.019   3.665
 6026SOL     OW18976   6.986   5.340   4.971
 6026SOL    HW118977   0.006   5.289   4.897
 6026SOL    HW218978   0.015   5.329   5.055
 6027SOL     OW18979   6.667   3.437   6.015
 6027SOL    HW118980   6.733   3.512   6.019
 6027SOL    HW218981   6.620   3.439   5.926
 6028SOL     OW18982   5.136   4.950   1.391
 6028SOL    HW118983   5.207   5.020   1.395
 6028SOL    HW218984   5.161   4.880   1.324
 6029SOL     OW18985   2.195   6.990   3.565
 6029SOL    HW118986   2.169   7.016   3.472
 6029SOL    HW218987   2.225   6.895   3.566
 6030SOL     OW18988   4.954   3.581   4.886
 6030SOL    HW118989   4.894   3.621   4.955
 6030SOL    HW218990   4.958   3.482   4.898
 6031SOL     OW18991   1.875   5.726   4.215
 6031SOL    HW118992   1.813   5.803   4.232
 6031SOL    HW218993   1.827   5.640   4.232
 6032SOL     OW18994   2.449   4.945   3.087
 6032SOL    HW118995   2.517   4.888   3.041
 6032SOL    HW218996   2.439   4.914   3.182
 6033SOL     OW18997   2.417   2.631   2.510
 6033SOL    HW118998   2.475   2.650   2.589
 6033SOL    HW218999   2.323   2.619   2.539
 6034SOL     OW19000   0.915   0.367   6.481
 6034SOL    HW119001   0.819   0.346   6.461
 6034SOL    HW219002   0.959   0.289   6.524
 6035SOL     OW19003   1.229   0.404   2.577
 6035SOL    HW119004   1.187   0.355   2.501
 6035SOL    HW219005   1.171   0.396   2.659
 6036SOL     OW19006   5.827   4.855   1.494
 6036SOL    HW119007   5.767   4.801   1.435
 6036SOL    HW219008   5.871   4.795   1.560
 6037SOL     OW19009   4.017   0.517   0.916
 6037SOL    HW119010   4.050   0.500   1.009
 6037SOL    HW219011   3.948   0.589   0.918
 6038SOL     OW19012   0.905   2.487   6.571
 6038SOL    HW119013   0.851   2.438   6.640
 6038SOL    HW219014   0.918   2.582   6.601
 6039SOL     OW19015   3.918   4.009   3.905
 6039SOL    HW119016   3.901   3.954   3.823
 6039SOL    HW219017   4.003   4.061   3.893
 6040SOL     OW19018   1.808   1.229   6.978
 6040SOL    HW119019   1.768   1.317   6.951
 6040SOL    HW219020   1.826   1.174   6.897
 6041SOL     OW19021   3.198   2.588   5.368
 6041SOL    HW119022   3.198   2.541   5.457
 6041SOL    HW219023   3.196   2.521   5.295
 6042SOL     OW19024   3.970   6.492   2.864
 6042SOL    HW119025   4.046   6.429   2.883
 6042SOL    HW219026   3.946   6.542   2.948
 6043SOL     OW19027   1.387   0.417   3.887
 6043SOL    HW119028   1.297   0.381   3.861
 6043SOL    HW219029   1.375   0.495   3.949
 6044SOL     OW19030   2.448   2.461   2.090
 6044SOL    HW119031   2.527   2.401   2.098
 6044SOL    HW219032   2.370   2.410   2.055
 6045SOL     OW19033   5.189   3.203   4.015
 6045SOL    HW119034   5.264   3.136   4.013
 6045SOL    HW219035   5.102   3.155   4.024
 6046SOL     OW19036   3.104   2.856   1.055
 6046SOL    HW119037   3.144   2.764   1.051
 6046SOL    HW219038   3.135   2.902   1.138
 6047SOL     OW19039   5.169   2.462   1.141
 6047SOL    HW119040   5.166   2.437   1.045
 6047SOL    HW219041   5.233   2.402   1.189
 6048SOL     OW19042   4.949   5.787   5.138
 6048SOL    HW119043   4.957   5.809   5.041
 6048SOL    HW219044   5.039   5.761   5.173
 6049SOL     OW19045   5.593   4.693   6.253
 6049SOL    HW119046   5.691   4.707   6.246
 6049SOL    HW219047   5.546   4.781   6.263
 6050SOL     OW19048   2.692   5.385   1.013
 6050SOL    HW119049   2.780   5.409   1.054
 6050SOL    HW219050   2.648   5.314   1.068
 6051SOL     OW19051   2.079   6.919   2.788
 6051SOL    HW119052   2.062   7.017   2.782
 6051SOL    HW219053   2.009   6.876   2.846
 6052SOL     OW19054   5.424   1.027   1.645
 6052SOL    HW119055   5.380   1.065   1.727
 6052SOL    HW219056   5.429   1.098   1.574
 6053SOL     OW19057   4.017   0.562   6.419
 6053SOL    HW119058   3.970   0.522   6.340
 6053SOL    HW219059   3.999   0.660   6.423
 6054SOL     OW19060   3.386   4.797   0.807
 6054SOL    HW119061   3.325   4.816   0.883
 6054SOL    HW219062   3.449   4.873   0.794
 6055SOL     OW19063   3.145   5.655   5.987
 6055SOL    HW119064   3.157   5.572   5.933
 6055SOL    HW219065   3.047   5.677   5.992
 6056SOL     OW19066   5.531   2.922   5.119
 6056SOL    HW119067   5.499   3.007   5.159
 6056SOL    HW219068   5.529   2.929   5.019
 6057SOL     OW19069   5.949   0.622   2.089
 6057SOL    HW119070   5.873   0.627   2.024
 6057SOL    HW219071   5.967   0.712   2.126
 6058SOL     OW19072   5.109   3.760   0.042
 6058SOL    HW119073   5.138   3.667   0.064
 6058SOL    HW219074   5.186   3.811   0.002
 6059SOL     OW19075   5.397   4.536   5.233
 6059SOL    HW119076   5.374   4.577   5.145
 6059SOL    HW219077   5.448   4.602   5.289
 6060SOL     OW19078   2.941   3.317   6.992
 6060SOL    HW119079   2.960   3.221   6.971
 6060SOL    HW219080   2.916   3.366   6.909
 6061SOL     OW19081   4.647   4.394   0.463
 6061SOL    HW119082   4.708   4.469   0.437
 6061SOL    HW219083   4.559   4.431   0.492
 6062SOL     OW19084   2.377   1.562   6.802
 6062SOL    HW119085   2.340   1.589   6.890
 6062SOL    HW219086   2.475   1.544   6.811
 6063SOL     OW19087   3.595   4.127   5.739
 6063SOL    HW119088   3.581   4.215   5.694
 6063SOL    HW219089   3.525   4.114   5.809
 6064SOL     OW19090   0.530   0.509   1.270
 6064SOL    HW119091   0.550   0.588   1.212
 6064SOL    HW219092   0.615   0.463   1.296
 6065SOL     OW19093   0.522   5.798   1.791
 6065SOL    HW119094   0.456   5.740   1.744
 6065SOL    HW219095   0.475   5.856   1.858
 6066SOL     OW19096   5.799   0.878   4.942
 6066SOL    HW119097   5.885   0.916   4.977
 6066SOL    HW219098   5.781   0.790   4.986
 6067SOL     OW19099   4.677   1.157   5.215
 6067SOL    HW119100   4.640   1.091   5.151
 6067SOL    HW219101   4.602   1.202   5.264
 6068SOL     OW19102   5.255   2.429   4.361
 6068SOL    HW119103   5.182   2.446   4.294
 6068SOL    HW219104   5.242   2.490   4.439
 6069SOL     OW19105   6.935   3.818   5.860
 6069SOL    HW119106   6.899   3.793   5.771
 6069SOL    HW219107   6.909   3.911   5.882
 6070SOL     OW19108   3.751   2.754   1.498
 6070SOL    HW119109   3.691   2.725   1.572
 6070SOL    HW219110   3.724   2.709   1.413
 6071SOL     OW19111   0.514   5.759   4.649
 6071SOL    HW119112   0.578   5.685   4.628
 6071SOL    HW219113   0.426   5.721   4.676
 6072SOL     OW19114   0.107   1.256   2.062
 6072SOL    HW119115   0.150   1.166   2.068
 6072SOL    HW219116   0.008   1.246   2.067
 6073SOL     OW19117   4.699   2.914   0.922
 6073SOL    HW119118   4.639   2.844   0.961
 6073SOL    HW219119   4.741   2.966   0.997
 6074SOL     OW19120   1.761   6.866   1.758
 6074SOL    HW119121   1.827   6.835   1.826
 6074SOL    HW219122   1.807   6.923   1.690
 6075SOL     OW19123   4.943   0.363   5.225
 6075SOL    HW119124   4.996   0.324   5.300
 6075SOL    HW219125   4.854   0.319   5.220
 6076SOL     OW19126   2.498   5.347   3.248
 6076SOL    HW119127   2.427   5.418   3.247
 6076SOL    HW219128   2.485   5.286   3.171
 6077SOL     OW19129   5.773   6.437   1.026
 6077SOL    HW119130   5.809   6.356   1.071
 6077SOL    HW219131   5.807   6.442   0.932
 6078SOL     OW19132   4.471   5.034   0.522
 6078SOL    HW119133   4.392   5.030   0.460
 6078SOL    HW219134   4.458   4.969   0.597
 6079SOL     OW19135   4.747   4.900   6.313
 6079SOL    HW119136   4.764   4.892   6.215
 6079SOL    HW219137   4.771   4.813   6.358
 6080SOL     OW19138   0.463   4.984   1.528
 6080SOL    HW119139   0.446   4.888   1.551
 6080SOL    HW219140   0.500   5.031   1.608
 6081SOL     OW19141   6.558   3.389   5.516
 6081SOL    HW119142   6.537   3.399   5.419
 6081SOL    HW219143   6.475   3.361   5.565
 6082SOL     OW19144   3.452   6.695   2.645
 6082SOL    HW119145   3.530   6.700   2.582
 6082SOL    HW219146   3.368   6.682   2.592
 6083SOL     OW19147   5.460   5.508   0.720
 6083SOL    HW119148   5.509   5.498   0.633
 6083SOL    HW219149   5.474   5.601   0.755
 6084SOL     OW19150   1.179   6.706   2.166
 6084SOL    HW119151   1.154   6.612   2.189
 6084SOL    HW219152   1.158   6.723   2.069
 6085SOL     OW19153   6.655   5.791   6.256
 6085SOL    HW119154   6.620   5.864   6.315
 6085SOL    HW219155   6.604   5.790   6.170
 6086SOL     OW19156   2.876   2.273   5.819
 6086SOL    HW119157   2.938   2.260   5.741
 6086SOL    HW219158   2.782   2.262   5.788
 6087SOL     OW19159   4.015   5.778   1.176
 6087SOL    HW119160   4.070   5.701   1.145
 6087SOL    HW219161   4.072   5.842   1.228
 6088SOL     OW19162   5.174   6.544   5.100
 6088SOL    HW119163   5.158   6.521   5.195
 6088SOL    HW219164   5.205   6.463   5.050
 6089SOL     OW19165   6.558   2.457   2.839
 6089SOL    HW119166   6.576   2.383   2.904
 6089SOL    HW219167   6.548   2.419   2.747
 6090SOL     OW19168   2.738   4.969   4.799
 6090SOL    HW119169   2.661   5.024   4.767
 6090SOL    HW219170   2.706   4.876   4.820
 6091SOL     OW19171   3.224   1.563   0.532
 6091SOL    HW119172   3.220   1.591   0.628
 6091SOL    HW219173   3.294   1.492   0.520
 6092SOL     OW19174   4.016   1.098   1.605
 6092SOL    HW119175   4.032   1.061   1.697
 6092SOL    HW219176   4.100   1.092   1.551
 6093SOL     OW19177   2.268   2.277   1.977
 6093SOL    HW119178   2.184   2.317   1.939
 6093SOL    HW219179   2.341   2.282   1.910
 6094SOL     OW19180   1.591   6.137   3.471
 6094SOL    HW119181   1.620   6.210   3.532
 6094SOL    HW219182   1.519   6.084   3.514
 6095SOL     OW19183   4.518   5.059   6.440
 6095SOL    HW119184   4.569   5.110   6.509
 6095SOL    HW219185   4.575   4.987   6.402
 6096SOL     OW19186   5.632   0.013   2.036
 6096SOL    HW119187   5.684   0.097   2.017
 6096SOL    HW219188   5.685   6.978   2.097
 6097SOL     OW19189   1.844   5.046   2.450
 6097SOL    HW119190   1.783   4.993   2.509
 6097SOL    HW219191   1.873   4.989   2.373
 6098SOL     OW19192   6.381   0.986   6.158
 6098SOL    HW119193   6.365   0.977   6.059
 6098SOL    HW219194   6.385   0.895   6.199
 6099SOL     OW19195   4.674   6.008   5.597
 6099SOL    HW119196   4.598   5.946   5.611
 6099SOL    HW219197   4.669   6.048   5.506
 6100SOL     OW19198   0.419   6.336   2.181
 6100SOL    HW119199   0.361   6.383   2.115
 6100SOL    HW219200   0.499   6.298   2.133
 6101SOL     OW19201   6.435   2.711   2.849
 6101SOL    HW119202   6.340   2.696   2.820
 6101SOL    HW219203   6.487   2.626   2.835
 6102SOL     OW19204   4.188   6.074   2.799
 6102SOL    HW119205   4.135   5.989   2.803
 6102SOL    HW219206   4.262   6.063   2.733
 6103SOL     OW19207   0.235   0.983   1.415
 6103SOL    HW119208   0.261   0.900   1.366
 6103SOL    HW219209   0.256   1.063   1.360
 6104SOL     OW19210   6.234   6.868   5.157
 6104SOL    HW119211   6.260   6.870   5.254
 6104SOL    HW219212   6.282   6.941   5.108
 6105SOL     OW19213   1.922   5.291   5.673
 6105SOL    HW119214   1.890   5.197   5.689
 6105SOL    HW219215   2.022   5.293   5.674
 6106SOL     OW19216   1.221   5.419   0.198
 6106SOL    HW119217   1.132   5.460   0.216
 6106SOL    HW219218   1.243   5.429   0.102
 6107SOL     OW19219   4.772   5.524   4.905
 6107SOL    HW119220   4.754   5.450   4.971
 6107SOL    HW219221   4.688   5.576   4.891
 6108SOL     OW19222   1.876   2.382   3.118
 6108SOL    HW119223   1.781   2.414   3.120
 6108SOL    HW219224   1.936   2.458   3.094
 6109SOL     OW19225   5.556   1.085   5.097
 6109SOL    HW119226   5.490   1.108   5.169
 6109SOL    HW219227   5.648   1.112   5.126
 6110SOL     OW19228   2.098   2.804   0.391
 6110SOL    HW119229   2.042   2.790   0.309
 6110SOL    HW219230   2.038   2.823   0.469
 6111SOL     OW19231   1.399   3.111   2.199
 6111SOL    HW119232   1.445   3.097   2.111
 6111SOL    HW219233   1.402   3.026   2.252
 6112SOL     OW19234   4.558   0.415   2.663
 6112SOL    HW119235   4.582   0.474   2.587
 6112SOL    HW219236   4.497   0.463   2.725
 6113SOL     OW19237   2.622   2.965   6.551
 6113SOL    HW119238   2.608   3.026   6.629
 6113SOL    HW219239   2.663   2.879   6.582
 6114SOL     OW19240   5.046   3.408   2.584
 6114SOL    HW119241   5.011   3.401   2.490
 6114SOL    HW219242   5.104   3.490   2.591
 6115SOL     OW19243   6.491   1.442   4.912
 6115SOL    HW119244   6.591   1.444   4.925
 6115SOL    HW219245   6.470   1.456   4.815
 6116SOL     OW19246   4.145   2.063   5.848
 6116SOL    HW119247   4.221   2.119   5.816
 6116SOL    HW219248   4.160   1.968   5.823
 6117SOL     OW19249   1.919   2.096   3.143
 6117SOL    HW119250   1.944   2.192   3.160
 6117SOL    HW219251   1.959   2.066   3.057
 6118SOL     OW19252   6.218   1.296   1.543
 6118SOL    HW119253   6.196   1.386   1.581
 6118SOL    HW219254   6.139   1.263   1.491
 6119SOL     OW19255   1.199   2.992   0.190
 6119SOL    HW119256   1.227   3.044   0.271
 6119SOL    HW219257   1.246   2.903   0.190
 6120SOL     OW19258   1.914   6.970   5.214
 6120SOL    HW119259   1.904   7.020   5.300
 6120SOL    HW219260   1.996   7.001   5.166
 6121SOL     OW19261   1.152   4.130   5.871
 6121SOL    HW119262   1.201   4.051   5.907
 6121SOL    HW219263   1.198   4.164   5.788
 6122SOL     OW19264   4.696   5.405   6.183
 6122SOL    HW119265   4.646   5.484   6.219
 6122SOL    HW219266   4.632   5.335   6.153
 6123SOL     OW19267   4.926   0.287   5.553
 6123SOL    HW119268   4.839   0.241   5.573
 6123SOL    HW219269   4.921   0.382   5.585
 6124SOL     OW19270   0.257   6.435   5.737
 6124SOL    HW119271   0.245   6.470   5.830
 6124SOL    HW219272   0.267   6.336   5.739
 6125SOL     OW19273   2.575   4.039   0.018
 6125SOL    HW119274   2.481   4.020   0.047
 6125SOL    HW219275   2.587   4.137   0.007
 6126SOL     OW19276   0.665   1.684   4.910
 6126SOL    HW119277   0.624   1.762   4.958
 6126SOL    HW219278   0.711   1.716   4.827
 6127SOL     OW19279   4.031   0.062   2.065
 6127SOL    HW119280   4.111   0.003   2.061
 6127SOL    HW219281   4.014   0.101   1.974
 6128SOL     OW19282   5.155   5.166   0.887
 6128SOL    HW119283   5.113   5.088   0.839
 6128SOL    HW219284   5.138   5.157   0.985
 6129SOL     OW19285   1.073   3.178   3.977
 6129SOL    HW119286   1.128   3.096   3.993
 6129SOL    HW219287   1.119   3.257   4.016
 6130SOL     OW19288   5.662   2.377   3.012
 6130SOL    HW119289   5.741   2.325   3.044
 6130SOL    HW219290   5.692   2.447   2.947
 6131SOL     OW19291   1.086   1.578   2.883
 6131SOL    HW119292   1.145   1.649   2.921
 6131SOL    HW219293   1.090   1.497   2.941
 6132SOL     OW19294   3.827   1.742   6.795
 6132SOL    HW119295   3.735   1.702   6.795
 6132SOL    HW219296   3.829   1.821   6.857
 6133SOL     OW19297   2.075   3.120   3.054
 6133SOL    HW119298   2.115   3.167   2.975
 6133SOL    HW219299   2.140   3.121   3.129
 6134SOL     OW19300   4.286   6.744   0.074
 6134SOL    HW119301   4.338   6.790   0.146
 6134SOL    HW219302   4.275   6.805   7.020
 6135SOL     OW19303   6.968   5.876   0.848
 6135SOL    HW119304   0.003   5.957   0.845
 6135SOL    HW219305   6.878   5.899   0.814
 6136SOL     OW19306   1.418   3.204   1.578
 6136SOL    HW119307   1.377   3.114   1.592
 6136SOL    HW219308   1.361   3.274   1.621
 6137SOL     OW19309   0.612   3.834   2.353
 6137SOL    HW119310   0.530   3.878   2.388
 6137SOL    HW219311   0.612   3.836   2.253
 6138SOL     OW19312   4.111   7.011   3.053
 6138SOL    HW119313   4.045   0.060   3.073
 6138SOL    HW219314   4.075   6.952   2.981
 6139SOL     OW19315   0.722   6.803   5.319
 6139SOL    HW119316   0.738   6.848   5.407
 6139SOL    HW219317   0.627   6.772   5.314
 6140SOL     OW19318   0.599   1.208   2.676
 6140SOL    HW119319   0.604   1.281   2.744
 6140SOL    HW219320   0.512   1.213   2.627
 6141SOL     OW19321   0.243   0.113   6.173
 6141SOL    HW119322   0.325   0.056   6.166
 6141SOL    HW219323   0.166   0.057   6.202
 6142SOL     OW19324   0.980   6.487   6.049
 6142SOL    HW119325   0.928   6.486   6.134
 6142SOL    HW219326   0.959   6.405   5.996
 6143SOL     OW19327   0.058   4.174   0.969
 6143SOL    HW119328   0.100   4.264   0.969
 6143SOL    HW219329   0.027   4.152   0.876
 6144SOL     OW19330   5.117   4.903   3.485
 6144SOL    HW119331   5.067   4.873   3.567
 6144SOL    HW219332   5.057   4.959   3.428
 6145SOL     OW19333   5.767   4.671   4.121
 6145SOL    HW119334   5.675   4.711   4.116
 6145SOL    HW219335   5.835   4.743   4.107
 6146SOL     OW19336   3.628   5.962   3.380
 6146SOL    HW119337   3.606   5.998   3.471
 6146SOL    HW219338   3.543   5.942   3.332
 6147SOL     OW19339   2.126   2.461   4.779
 6147SOL    HW119340   2.164   2.470   4.687
 6147SOL    HW219341   2.196   2.423   4.840
 6148SOL     OW19342   3.917   5.754   5.867
 6148SOL    HW119343   3.868   5.822   5.813
 6148SOL    HW219344   3.995   5.798   5.913
 6149SOL     OW19345   2.376   0.252   1.892
 6149SOL    HW119346   2.357   0.262   1.795
 6149SOL    HW219347   2.295   0.220   1.940
 6150SOL     OW19348   6.268   3.927   6.623
 6150SOL    HW119349   6.333   3.920   6.699
 6150SOL    HW219350   6.316   3.917   6.537
 6151SOL     OW19351   5.617   5.172   4.822
 6151SOL    HW119352   5.616   5.157   4.723
 6151SOL    HW219353   5.540   5.123   4.863
 6152SOL     OW19354   0.648   5.327   4.635
 6152SOL    HW119355   0.613   5.355   4.724
 6152SOL    HW219356   0.741   5.292   4.645
 6153SOL     OW19357   4.926   5.116   1.242
 6153SOL    HW119358   4.892   5.206   1.214
 6153SOL    HW219359   5.026   5.115   1.239
 6154SOL     OW19360   5.811   2.887   2.839
 6154SOL    HW119361   5.890   2.948   2.840
 6154SOL    HW219362   5.804   2.840   2.927
 6155SOL     OW19363   3.168   1.306   2.807
 6155SOL    HW119364   3.186   1.397   2.844
 6155SOL    HW219365   3.188   1.237   2.877
 6156SOL     OW19366   4.128   4.982   1.668
 6156SOL    HW119367   4.215   4.959   1.625
 6156SOL    HW219368   4.059   4.997   1.598
 6157SOL     OW19369   0.770   2.239   2.954
 6157SOL    HW119370   0.703   2.302   2.915
 6157SOL    HW219371   0.814   2.282   3.034
 6158SOL     OW19372   3.678   2.169   0.294
 6158SOL    HW119373   3.647   2.101   0.227
 6158SOL    HW219374   3.774   2.190   0.278
 6159SOL     OW19375   4.851   2.483   0.911
 6159SOL    HW119376   4.772   2.537   0.882
 6159SOL    HW219377   4.843   2.463   1.009
 6160SOL     OW19378   6.560   6.947   6.591
 6160SOL    HW119379   6.600   6.966   6.501
 6160SOL    HW219380   6.470   6.991   6.598
 6161SOL     OW19381   5.208   0.984   0.373
 6161SOL    HW119382   5.297   0.976   0.329
 6161SOL    HW219383   5.216   1.036   0.458
 6162SOL     OW19384   6.241   6.094   3.926
 6162SOL    HW119385   6.206   6.187   3.917
 6162SOL    HW219386   6.339   6.094   3.909
 6163SOL     OW19387   5.513   5.678   2.315
 6163SOL    HW119388   5.461   5.716   2.392
 6163SOL    HW219389   5.488   5.583   2.301
 6164SOL     OW19390   3.660   4.194   4.906
 6164SOL    HW119391   3.729   4.156   4.967
 6164SOL    HW219392   3.585   4.233   4.960
 6165SOL     OW19393   3.852   2.093   5.767
 6165SOL    HW119394   3.848   2.033   5.687
 6165SOL    HW219395   3.948   2.105   5.793
 6166SOL     OW19396   5.852   1.769   0.527
 6166SOL    HW119397   5.940   1.728   0.552
 6166SOL    HW219398   5.780   1.729   0.585
 6167SOL     OW19399   0.505   4.743   3.309
 6167SOL    HW119400   0.418   4.792   3.303
 6167SOL    HW219401   0.580   4.809   3.310
 6168SOL     OW19402   1.030   2.767   3.363
 6168SOL    HW119403   0.940   2.732   3.338
 6168SOL    HW219404   1.058   2.837   3.297
 6169SOL     OW19405   1.011   1.330   6.426
 6169SOL    HW119406   0.947   1.272   6.476
 6169SOL    HW219407   1.058   1.392   6.489
 6170SOL     OW19408   2.926   3.960   5.617
 6170SOL    HW119409   2.902   3.904   5.696
 6170SOL    HW219410   2.886   3.921   5.534
 6171SOL     OW19411   1.360   3.510   1.428
 6171SOL    HW119412   1.273   3.559   1.431
 6171SOL    HW219413   1.435   3.574   1.410
 6172SOL     OW19414   0.532   0.557   2.668
 6172SOL    HW119415   0.483   0.625   2.613
 6172SOL    HW219416   0.597   0.604   2.727
 6173SOL     OW19417   0.145   4.961   2.448
 6173SOL    HW119418   0.131   5.049   2.493
 6173SOL    HW219419   0.058   4.929   2.409
 6174SOL     OW19420   5.789   5.071   2.965
 6174SOL    HW119421   5.876   5.094   2.923
 6174SOL    HW219422   5.785   4.973   2.983
 6175SOL     OW19423   4.986   0.241   3.719
 6175SOL    HW119424   4.979   0.143   3.702
 6175SOL    HW219425   5.045   0.258   3.798
 6176SOL     OW19426   6.560   2.827   7.020
 6176SOL    HW119427   6.479   2.845   0.052
 6176SOL    HW219428   6.532   2.790   6.931
 6177SOL     OW19429   5.939   1.392   0.968
 6177SOL    HW119430   5.942   1.471   0.906
 6177SOL    HW219431   5.852   1.343   0.955
 6178SOL     OW19432   4.675   5.557   2.058
 6178SOL    HW119433   4.723   5.510   1.983
 6178SOL    HW219434   4.703   5.518   2.145
 6179SOL     OW19435   6.791   4.577   4.899
 6179SOL    HW119436   6.800   4.547   4.804
 6179SOL    HW219437   6.872   4.549   4.951
 6180SOL     OW19438   3.212   6.522   6.370
 6180SOL    HW119439   3.241   6.541   6.464
 6180SOL    HW219440   3.269   6.450   6.332
 6181SOL     OW19441   4.764   6.426   1.350
 6181SOL    HW119442   4.815   6.486   1.289
 6181SOL    HW219443   4.670   6.460   1.359
 6182SOL     OW19444   5.575   3.953   5.345
 6182SOL    HW119445   5.629   3.870   5.333
 6182SOL    HW219446   5.489   3.931   5.391
 6183SOL     OW19447   2.559   0.162   3.228
 6183SOL    HW119448   2.476   0.155   3.173
 6183SOL    HW219449   2.621   0.087   3.205
 6184SOL     OW19450   2.151   6.498   5.962
 6184SOL    HW119451   2.180   6.404   5.980
 6184SOL    HW219452   2.105   6.502   5.873
 6185SOL     OW19453   1.434   5.007   6.613
 6185SOL    HW119454   1.415   4.913   6.640
 6185SOL    HW219455   1.509   5.009   6.548
 6186SOL     OW19456   5.800   0.206   4.224
 6186SOL    HW119457   5.722   0.250   4.268
 6186SOL    HW219458   5.802   0.109   4.249
 6187SOL     OW19459   4.654   4.555   4.282
 6187SOL    HW119460   4.647   4.593   4.375
 6187SOL    HW219461   4.722   4.607   4.230
 6188SOL     OW19462   1.810   6.739   1.301
 6188SOL    HW119463   1.894   6.764   1.252
 6188SOL    HW219464   1.809   6.786   1.390
 6189SOL     OW19465   4.526   4.558   3.891
 6189SOL    HW119466   4.493   4.570   3.984
 6189SOL    HW219467   4.613   4.606   3.879
 6190SOL     OW19468   6.459   3.670   6.006
 6190SOL    HW119469   6.451   3.734   5.930
 6190SOL    HW219470   6.556   3.653   6.025
 6191SOL     OW19471   4.546   2.918   0.044
 6191SOL    HW119472   4.464   2.941   0.097
 6191SOL    HW219473   4.627   2.946   0.096
 6192SOL     OW19474   3.236   3.218   0.313
 6192SOL    HW119475   3.169   3.179   0.250
 6192SOL    HW219476   3.260   3.150   0.383
 6193SOL     OW19477   5.432   1.270   2.908
 6193SOL    HW119478   5.364   1.199   2.892
 6193SOL    HW219479   5.482   1.288   2.824
 6194SOL     OW19480   1.640   6.505   0.222
 6194SOL    HW119481   1.606   6.599   0.229
 6194SOL    HW219482   1.680   6.491   0.132
 6195SOL     OW19483   3.411   5.506   5.508
 6195SOL    HW119484   3.473   5.582   5.525
 6195SOL    HW219485   3.384   5.505   5.412
 6196SOL     OW19486   5.311   2.260   1.265
 6196SOL    HW119487   5.390   2.276   1.325
 6196SOL    HW219488   5.334   2.189   1.199
 6197SOL     OW19489   4.406   3.766   0.161
 6197SOL    HW119490   4.385   3.808   0.073
 6197SOL    HW219491   4.444   3.835   0.223
 6198SOL     OW19492   3.416   5.317   2.487
 6198SOL    HW119493   3.370   5.281   2.568
 6198SOL    HW219494   3.438   5.242   2.425
 6199SOL     OW19495   0.591   0.101   1.087
 6199SOL    HW119496   0.594   0.106   1.187
 6199SOL    HW219497   0.611   0.008   1.058
 6200SOL     OW19498   2.024   1.091   5.744
 6200SOL    HW119499   2.040   1.087   5.646
 6200SOL    HW219500   2.031   1.000   5.783
 6201SOL     OW19501   1.720   3.870   5.492
 6201SOL    HW119502   1.711   3.823   5.405
 6201SOL    HW219503   1.736   3.803   5.565
 6202SOL     OW19504   3.883   2.081   1.588
 6202SOL    HW119505   3.920   2.130   1.667
 6202SOL    HW219506   3.799   2.126   1.557
 6203SOL     OW19507   5.593   6.853   3.542
 6203SOL    HW119508   5.614   6.950   3.530
 6203SOL    HW219509   5.498   6.836   3.515
 6204SOL     OW19510   0.460   5.054   5.397
 6204SOL    HW119511   0.452   5.151   5.375
 6204SOL    HW219512   0.505   5.043   5.486
 6205SOL     OW19513   5.493   6.133   0.118
 6205SOL    HW119514   5.461   6.187   0.196
 6205SOL    HW219515   5.474   6.036   0.134
 6206SOL     OW19516   6.042   0.367   2.870
 6206SOL    HW119517   6.056   0.280   2.822
 6206SOL    HW219518   6.049   0.442   2.804
 6207SOL     OW19519   1.614   4.309   4.308
 6207SOL    HW119520   1.658   4.349   4.227
 6207SOL    HW219521   1.661   4.224   4.331
 6208SOL     OW19522   6.179   1.256   6.633
 6208SOL    HW119523   6.095   1.257   6.579
 6208SOL    HW219524   6.259   1.263   6.572
 6209SOL     OW19525   4.731   5.415   6.823
 6209SOL    HW119526   4.749   5.319   6.848
 6209SOL    HW219527   4.677   5.458   6.896
 6210SOL     OW19528   6.252   5.005   3.659
 6210SOL    HW119529   6.288   4.912   3.672
 6210SOL    HW219530   6.163   5.012   3.703
 6211SOL     OW19531   3.243   6.673   4.349
 6211SOL    HW119532   3.173   6.693   4.281
 6211SOL    HW219533   3.329   6.719   4.323
 6212SOL     OW19534   2.096   5.005   3.046
 6212SOL    HW119535   2.022   5.056   3.089
 6212SOL    HW219536   2.063   4.961   2.962
 6213SOL     OW19537   4.776   0.229   6.657
 6213SOL    HW119538   4.813   0.319   6.631
 6213SOL    HW219539   4.814   0.202   6.745
 6214SOL     OW19540   5.215   4.628   3.478
 6214SOL    HW119541   5.243   4.710   3.530
 6214SOL    HW219542   5.279   4.554   3.497
 6215SOL     OW19543   4.033   2.105   6.716
 6215SOL    HW119544   4.115   2.052   6.738
 6215SOL    HW219545   3.957   2.075   6.773
 6216SOL     OW19546   6.710   2.499   2.233
 6216SOL    HW119547   6.790   2.445   2.211
 6216SOL    HW219548   6.660   2.521   2.150
 6217SOL     OW19549   7.009   2.859   2.762
 6217SOL    HW119550   6.980   2.781   2.706
 6217SOL    HW219551   6.948   2.936   2.745
 6218SOL     OW19552   3.549   5.331   5.122
 6218SOL    HW119553   3.485   5.273   5.071
 6218SOL    HW219554   3.497   5.398   5.174
 6219SOL     OW19555   1.235   1.929   4.499
 6219SOL    HW119556   1.245   1.989   4.578
 6219SOL    HW219557   1.139   1.928   4.470
 6220SOL     OW19558   1.130   3.492   5.617
 6220SOL    HW119559   1.108   3.543   5.534
 6220SOL    HW219560   1.207   3.431   5.600
 6221SOL     OW19561   6.344   6.028   6.629
 6221SOL    HW119562   6.250   6.047   6.600
 6221SOL    HW219563   6.357   5.929   6.635
 6222SOL     OW19564   0.770   6.550   0.869
 6222SOL    HW119565   0.791   6.646   0.851
 6222SOL    HW219566   0.821   6.519   0.949
 6223SOL     OW19567   0.126   4.259   5.076
 6223SOL    HW119568   0.125   4.191   5.003
 6223SOL    HW219569   0.216   4.258   5.121
 6224SOL     OW19570   2.664   2.066   6.359
 6224SOL    HW119571   2.635   2.054   6.264
 6224SOL    HW219572   2.623   1.993   6.415
 6225SOL     OW19573   3.107   2.915   1.331
 6225SOL    HW119574   3.025   2.870   1.368
 6225SOL    HW219575   3.113   3.008   1.366
 6226SOL     OW19576   5.595   2.077   4.982
 6226SOL    HW119577   5.570   2.128   5.064
 6226SOL    HW219578   5.524   2.087   4.913
 6227SOL     OW19579   3.479   5.505   5.949
 6227SOL    HW119580   3.573   5.475   5.932
 6227SOL    HW219581   3.471   5.538   6.043
 6228SOL     OW19582   0.346   2.767   2.409
 6228SOL    HW119583   0.347   2.804   2.502
 6228SOL    HW219584   0.439   2.746   2.380
 6229SOL     OW19585   0.577   2.639   2.309
 6229SOL    HW119586   0.675   2.620   2.305
 6229SOL    HW219587   0.536   2.620   2.220
 6230SOL     OW19588   1.218   1.331   4.096
 6230SOL    HW119589   1.211   1.410   4.157
 6230SOL    HW219590   1.179   1.355   4.007
 6231SOL     OW19591   6.747   4.855   1.326
 6231SOL    HW119592   6.791   4.795   1.392
 6231SOL    HW219593   6.694   4.801   1.261
 6232SOL     OW19594   5.989   2.251   1.004
 6232SOL    HW119595   5.947   2.259   1.094
 6232SOL    HW219596   5.934   2.303   0.938
 6233SOL     OW19597   5.456   0.929   6.973
 6233SOL    HW119598   5.517   1.005   6.951
 6233SOL    HW219599   5.509   0.843   6.974
 6234SOL     OW19600   6.718   1.119   5.637
 6234SOL    HW119601   6.734   1.041   5.577
 6234SOL    HW219602   6.805   1.156   5.669
 6235SOL     OW19603   1.206   0.488   1.895
 6235SOL    HW119604   1.244   0.501   1.804
 6235SOL    HW219605   1.120   0.438   1.889
 6236SOL     OW19606   0.773   4.458   0.324
 6236SOL    HW119607   0.812   4.419   0.407
 6236SOL    HW219608   0.842   4.459   0.251
 6237SOL     OW19609   3.462   6.002   6.780
 6237SOL    HW119610   3.526   5.937   6.741
 6237SOL    HW219611   3.380   5.954   6.811
 6238SOL     OW19612   3.926   4.884   3.238
 6238SOL    HW119613   4.007   4.841   3.278
 6238SOL    HW219614   3.853   4.887   3.306
 6239SOL     OW19615   3.153   6.215   2.001
 6239SOL    HW119616   3.221   6.199   2.073
 6239SOL    HW219617   3.080   6.273   2.037
 6240SOL     OW19618   3.070   2.915   6.472
 6240SOL    HW119619   3.105   2.857   6.547
 6240SOL    HW219620   2.999   2.865   6.422
 6241SOL     OW19621   2.835   0.385   1.662
 6241SOL    HW119622   2.793   0.440   1.734
 6241SOL    HW219623   2.766   0.364   1.592
 6242SOL     OW19624   5.083   0.349   3.235
 6242SOL    HW119625   5.086   0.448   3.220
 6242SOL    HW219626   5.023   0.329   3.312
 6243SOL     OW19627   5.712   6.656   3.681
 6243SOL    HW119628   5.667   6.740   3.652
 6243SOL    HW219629   5.686   6.635   3.776
 6244SOL     OW19630   1.654   2.149   2.261
 6244SOL    HW119631   1.727   2.202   2.216
 6244SOL    HW219632   1.686   2.118   2.350
 6245SOL     OW19633   1.918   4.733   0.693
 6245SOL    HW119634   1.981   4.665   0.655
 6245SOL    HW219635   1.926   4.818   0.642
 6246SOL     OW19636   1.709   2.962   5.823
 6246SOL    HW119637   1.796   2.979   5.870
 6246SOL    HW219638   1.695   3.031   5.753
 6247SOL     OW19639   1.208   6.899   3.546
 6247SOL    HW119640   1.272   6.933   3.477
 6247SOL    HW219641   1.223   6.801   3.560
 6248SOL     OW19642   2.739   4.219   0.914
 6248SOL    HW119643   2.713   4.311   0.885
 6248SOL    HW219644   2.836   4.204   0.891
 6249SOL     OW19645   1.054   3.807   0.467
 6249SOL    HW119646   1.098   3.876   0.409
 6249SOL    HW219647   1.056   3.838   0.562
 6250SOL     OW19648   6.958   6.265   0.237
 6250SOL    HW119649   6.895   6.328   0.282
 6250SOL    HW219650   0.027   6.282   0.270
 6251SOL     OW19651   3.540   6.136   0.089
 6251SOL    HW119652   3.488   6.197   0.029
 6251SOL    HW219653   3.620   6.101   0.040
 6252SOL     OW19654   1.364   6.789   6.045
 6252SOL    HW119655   1.278   6.770   6.093
 6252SOL    HW219656   1.344   6.825   5.954
 6253SOL     OW19657   2.124   3.886   2.399
 6253SOL    HW119658   2.205   3.891   2.341
 6253SOL    HW219659   2.105   3.976   2.438
 6254SOL     OW19660   4.890   1.332   0.478
 6254SOL    HW119661   4.810   1.341   0.418
 6254SOL    HW219662   4.860   1.337   0.573
 6255SOL     OW19663   2.571   0.775   1.257
 6255SOL    HW119664   2.499   0.751   1.192
 6255SOL    HW219665   2.569   0.874   1.274
 6256SOL     OW19666   3.295   5.234   2.700
 6256SOL    HW119667   3.292   5.321   2.749
 6256SOL    HW219668   3.204   5.192   2.700
 6257SOL     OW19669   4.908   2.238   0.790
 6257SOL    HW119670   4.892   2.328   0.831
 6257SOL    HW219671   4.846   2.226   0.713
 6258SOL     OW19672   4.502   0.030   3.855
 6258SOL    HW119673   4.474   0.099   3.922
 6258SOL    HW219674   4.600   0.013   3.863
 6259SOL     OW19675   2.724   2.570   0.829
 6259SOL    HW119676   2.824   2.569   0.829
 6259SOL    HW219677   2.692   2.645   0.772
 6260SOL     OW19678   2.706   5.095   0.107
 6260SOL    HW119679   2.657   5.008   0.112
 6260SOL    HW219680   2.719   5.132   0.199
 6261SOL     OW19681   3.654   0.381   6.522
 6261SOL    HW119682   3.649   0.441   6.442
 6261SOL    HW219683   3.742   0.392   6.566
 6262SOL     OW19684   1.621   4.478   0.970
 6262SOL    HW119685   1.696   4.448   0.911
 6262SOL    HW219686   1.547   4.516   0.913
 6263SOL     OW19687   0.137   0.720   5.644
 6263SOL    HW119688   0.109   0.727   5.549
 6263SOL    HW219689   0.073   0.660   5.693
 6264SOL     OW19690   1.360   0.213   1.453
 6264SOL    HW119691   1.291   0.141   1.467
 6264SOL    HW219692   1.361   0.238   1.357
 6265SOL     OW19693   3.001   4.300   0.700
 6265SOL    HW119694   3.017   4.399   0.695
 6265SOL    HW219695   3.054   4.262   0.775
 6266SOL     OW19696   4.026   0.646   4.658
 6266SOL    HW119697   3.965   0.724   4.673
 6266SOL    HW219698   3.998   0.570   4.717
 6267SOL     OW19699   2.585   0.187   6.857
 6267SOL    HW119700   2.534   0.218   6.938
 6267SOL    HW219701   2.678   0.225   6.860
 6268SOL     OW19702   3.391   6.471   3.530
 6268SOL    HW119703   3.475   6.426   3.560
 6268SOL    HW219704   3.413   6.542   3.463
 6269SOL     OW19705   6.870   5.933   1.656
 6269SOL    HW119706   6.835   5.848   1.615
 6269SOL    HW219707   6.794   5.998   1.667
 6270SOL     OW19708   1.640   0.188   5.338
 6270SOL    HW119709   1.730   0.163   5.375
 6270SOL    HW219710   1.573   0.191   5.411
 6271SOL     OW19711   5.402   2.532   5.771
 6271SOL    HW119712   5.339   2.586   5.826
 6271SOL    HW219713   5.352   2.460   5.723
 6272SOL     OW19714   0.852   2.426   6.060
 6272SOL    HW119715   0.894   2.412   6.150
 6272SOL    HW219716   0.813   2.340   6.027
 6273SOL     OW19717   2.449   0.301   2.705
 6273SOL    HW119718   2.499   0.243   2.641
 6273SOL    HW219719   2.471   0.274   2.799
 6274SOL     OW19720   2.382   5.508   5.844
 6274SOL    HW119721   2.362   5.600   5.812
 6274SOL    HW219722   2.425   5.512   5.934
 6275SOL     OW19723   1.933   6.320   5.005
 6275SOL    HW119724   1.857   6.365   4.958
 6275SOL    HW219725   2.020   6.352   4.966
 6276SOL     OW19726   2.023   4.988   3.998
 6276SOL    HW119727   2.068   4.912   3.950
 6276SOL    HW219728   2.090   5.034   4.056
 6277SOL     OW19729   5.350   3.507   1.329
 6277SOL    HW119730   5.449   3.498   1.315
 6277SOL    HW219731   5.333   3.545   1.420
 6278SOL     OW19732   4.873   6.741   4.644
 6278SOL    HW119733   4.910   6.734   4.737
 6278SOL    HW219734   4.797   6.677   4.634
 6279SOL     OW19735   3.573   0.764   6.448
 6279SOL    HW119736   3.473   0.765   6.459
 6279SOL    HW219737   3.599   0.688   6.389
 6280SOL     OW19738   0.702   2.546   5.643
 6280SOL    HW119739   0.744   2.473   5.697
 6280SOL    HW219740   0.694   2.517   5.548
 6281SOL     OW19741   1.617   5.398   4.415
 6281SOL    HW119742   1.640   5.301   4.414
 6281SOL    HW219743   1.566   5.419   4.498
 6282SOL     OW19744   1.106   0.511   4.881
 6282SOL    HW119745   1.043   0.472   4.812
 6282SOL    HW219746   1.074   0.486   4.972
 6283SOL     OW19747   6.434   3.170   5.837
 6283SOL    HW119748   6.434   3.181   5.937
 6283SOL    HW219749   6.521   3.203   5.800
 6284SOL     OW19750   2.184   5.405   5.025
 6284SOL    HW119751   2.279   5.431   5.043
 6284SOL    HW219752   2.126   5.432   5.102
 6285SOL     OW19753   0.879   2.859   3.862
 6285SOL    HW119754   0.955   2.795   3.863
 6285SOL    HW219755   0.863   2.893   3.954
 6286SOL     OW19756   6.710   1.696   3.939
 6286SOL    HW119757   6.776   1.688   3.864
 6286SOL    HW219758   6.672   1.788   3.940
 6287SOL     OW19759   3.657   5.165   3.619
 6287SOL    HW119760   3.567   5.183   3.658
 6287SOL    HW219761   3.650   5.093   3.550
 6288SOL     OW19762   6.062   4.790   2.648
 6288SOL    HW119763   6.027   4.882   2.629
 6288SOL    HW219764   6.038   4.764   2.741
 6289SOL     OW19765   1.244   4.989   2.518
 6289SOL    HW119766   1.231   4.906   2.573
 6289SOL    HW219767   1.274   5.064   2.577
 6290SOL     OW19768   5.973   3.347   4.160
 6290SOL    HW119769   5.893   3.404   4.142
 6290SOL    HW219770   5.979   3.274   4.091
 6291SOL     OW19771   3.892   3.116   4.246
 6291SOL    HW119772   3.844   3.202   4.225
 6291SOL    HW219773   3.828   3.040   4.237
 6292SOL     OW19774   1.843   2.355   3.728
 6292SOL    HW119775   1.745   2.348   3.713
 6292SOL    HW219776   1.880   2.431   3.673
 6293SOL     OW19777   3.899   0.299   0.167
 6293SOL    HW119778   3.977   0.316   0.227
 6293SOL    HW219779   3.931   0.277   0.075
 6294SOL     OW19780   3.824   5.060   3.953
 6294SOL    HW119781   3.867   5.026   4.037
 6294SOL    HW219782   3.726   5.074   3.970
 6295SOL     OW19783   5.069   5.276   5.622
 6295SOL    HW119784   5.061   5.177   5.614
 6295SOL    HW219785   5.122   5.312   5.545
 6296SOL     OW19786   6.946   6.911   5.082
 6296SOL    HW119787   6.889   6.830   5.097
 6296SOL    HW219788   0.019   6.885   5.086
 6297SOL     OW19789   4.639   0.013   5.307
 6297SOL    HW119790   4.667   6.941   5.316
 6297SOL    HW219791   4.541   0.021   5.323
 6298SOL     OW19792   1.529   2.492   5.641
 6298SOL    HW119793   1.439   2.506   5.599
 6298SOL    HW219794   1.575   2.581   5.651
 6299SOL     OW19795   5.283   1.703   0.640
 6299SOL    HW119796   5.317   1.718   0.547
 6299SOL    HW219797   5.359   1.677   0.699
 6300SOL     OW19798   5.102   0.491   6.481
 6300SOL    HW119799   5.182   0.445   6.442
 6300SOL    HW219800   5.041   0.520   6.408
 6301SOL     OW19801   3.602   0.677   1.160
 6301SOL    HW119802   3.552   0.598   1.196
 6301SOL    HW219803   3.549   0.719   1.086
 6302SOL     OW19804   1.407   1.594   4.123
 6302SOL    HW119805   1.431   1.531   4.049
 6302SOL    HW219806   1.464   1.676   4.116
 6303SOL     OW19807   2.334   1.027   4.724
 6303SOL    HW119808   2.337   1.086   4.643
 6303SOL    HW219809   2.342   1.082   4.806
 6304SOL     OW19810   2.547   1.284   1.032
 6304SOL    HW119811   2.513   1.214   0.969
 6304SOL    HW219812   2.647   1.287   1.027
 6305SOL     OW19813   6.110   6.657   1.576
 6305SOL    HW119814   6.147   6.565   1.589
 6305SOL    HW219815   6.117   6.709   1.661
 6306SOL     OW19816   1.221   3.373   4.109
 6306SOL    HW119817   1.313   3.400   4.079
 6306SOL    HW219818   1.222   3.356   4.207
 6307SOL     OW19819   4.052   4.512   5.710
 6307SOL    HW119820   4.150   4.529   5.725
 6307SOL    HW219821   4.000   4.589   5.748
 6308SOL     OW19822   2.031   1.715   4.541
 6308SOL    HW119823   2.011   1.620   4.568
 6308SOL    HW219824   1.947   1.769   4.550
 6309SOL     OW19825   5.160   3.985   4.448
 6309SOL    HW119826   5.228   3.916   4.474
 6309SOL    HW219827   5.206   4.073   4.435
 6310SOL     OW19828   2.012   5.523   3.344
 6310SOL    HW119829   2.061   5.536   3.258
 6310SOL    HW219830   2.056   5.449   3.396
 6311SOL     OW19831   5.554   0.031   5.298
 6311SOL    HW119832   5.461   0.057   5.271
 6311SOL    HW219833   5.616   0.107   5.280
 6312SOL     OW19834   5.892   5.242   5.871
 6312SOL    HW119835   5.867   5.157   5.823
 6312SOL    HW219836   5.902   5.316   5.804
 6313SOL     OW19837   1.360   6.058   3.656
 6313SOL    HW119838   1.284   6.086   3.715
 6313SOL    HW219839   1.343   5.967   3.619
 6314SOL     OW19840   3.817   6.479   1.322
 6314SOL    HW119841   3.752   6.469   1.398
 6314SOL    HW219842   3.774   6.527   1.247
 6315SOL     OW19843   3.676   3.142   6.216
 6315SOL    HW119844   3.773   3.142   6.192
 6315SOL    HW219845   3.665   3.168   6.312
 6316SOL     OW19846   4.845   1.907   6.670
 6316SOL    HW119847   4.803   1.819   6.691
 6316SOL    HW219848   4.781   1.963   6.618
 6317SOL     OW19849   5.438   5.231   3.188
 6317SOL    HW119850   5.501   5.210   3.113
 6317SOL    HW219851   5.363   5.166   3.189
 6318SOL     OW19852   2.978   2.235   4.595
 6318SOL    HW119853   3.052   2.297   4.623
 6318SOL    HW219854   2.896   2.288   4.574
 6319SOL     OW19855   0.372   2.117   3.520
 6319SOL    HW119856   0.278   2.084   3.529
 6319SOL    HW219857   0.377   2.184   3.446
 6320SOL     OW19858   5.970   5.242   5.429
 6320SOL    HW119859   6.067   5.251   5.408
 6320SOL    HW219860   5.918   5.312   5.381
 6321SOL     OW19861   3.258   4.557   0.906
 6321SOL    HW119862   3.318   4.512   0.971
 6321SOL    HW219863   3.311   4.622   0.851
 6322SOL     OW19864   1.419   2.352   6.780
 6322SOL    HW119865   1.436   2.449   6.794
 6322SOL    HW219866   1.468   2.320   6.699
 6323SOL     OW19867   3.340   2.748   1.392
 6323SOL    HW119868   3.395   2.823   1.357
 6323SOL    HW219869   3.251   2.747   1.346
 6324SOL     OW19870   4.945   6.861   6.627
 6324SOL    HW119871   4.941   6.961   6.623
 6324SOL    HW219872   4.882   6.827   6.697
 6325SOL     OW19873   2.136   1.700   2.106
 6325SOL    HW119874   2.165   1.759   2.182
 6325SOL    HW219875   2.051   1.735   2.067
 6326SOL     OW19876   4.680   5.783   1.875
 6326SOL    HW119877   4.657   5.741   1.787
 6326SOL    HW219878   4.673   5.713   1.947
 6327SOL     OW19879   0.175   0.601   4.991
 6327SOL    HW119880   0.264   0.644   5.001
 6327SOL    HW219881   0.166   0.526   5.056
 6328SOL     OW19882   2.215   3.677   0.559
 6328SOL    HW119883   2.287   3.746   0.552
 6328SOL    HW219884   2.181   3.674   0.653
 6329SOL     OW19885   2.521   2.524   3.207
 6329SOL    HW119886   2.485   2.568   3.289
 6329SOL    HW219887   2.460   2.542   3.130
 6330SOL     OW19888   4.465   1.249   1.401
 6330SOL    HW119889   4.486   1.284   1.310
 6330SOL    HW219890   4.542   1.195   1.435
 6331SOL     OW19891   5.961   2.171   0.215
 6331SOL    HW119892   5.910   2.167   0.301
 6331SOL    HW219893   6.022   2.092   0.208
 6332SOL     OW19894   6.633   3.856   2.037
 6332SOL    HW119895   6.686   3.861   1.953
 6332SOL    HW219896   6.599   3.947   2.060
 6333SOL     OW19897   3.970   5.279   4.302
 6333SOL    HW119898   3.985   5.369   4.260
 6333SOL    HW219899   3.897   5.287   4.370
 6334SOL     OW19900   2.883   0.090   2.259
 6334SOL    HW119901   2.833   0.004   2.271
 6334SOL    HW219902   2.840   0.143   2.185
 6335SOL     OW19903   4.621   1.588   0.290
 6335SOL    HW119904   4.586   1.674   0.252
 6335SOL    HW219905   4.557   1.554   0.359
 6336SOL     OW19906   0.619   1.972   6.432
 6336SOL    HW119907   0.543   2.012   6.380
 6336SOL    HW219908   0.597   1.972   6.529
 6337SOL     OW19909   4.636   4.431   6.263
 6337SOL    HW119910   4.614   4.351   6.320
 6337SOL    HW219911   4.723   4.470   6.293
 6338SOL     OW19912   3.524   2.114   2.797
 6338SOL    HW119913   3.554   2.130   2.891
 6338SOL    HW219914   3.438   2.062   2.797
 6339SOL     OW19915   1.309   2.914   2.854
 6339SOL    HW119916   1.307   3.000   2.803
 6339SOL    HW219917   1.359   2.928   2.939
 6340SOL     OW19918   1.387   4.830   3.048
 6340SOL    HW119919   1.434   4.772   2.982
 6340SOL    HW219920   1.291   4.800   3.056
 6341SOL     OW19921   0.756   4.233   3.888
 6341SOL    HW119922   0.796   4.321   3.913
 6341SOL    HW219923   0.656   4.241   3.888
 6342SOL     OW19924   2.587   2.017   1.896
 6342SOL    HW119925   2.671   2.072   1.892
 6342SOL    HW219926   2.595   1.950   1.969
 6343SOL     OW19927   5.262   2.401   6.921
 6343SOL    HW119928   5.339   2.341   6.901
 6343SOL    HW219929   5.200   2.402   6.843
 6344SOL     OW19930   5.759   3.741   5.322
 6344SOL    HW119931   5.834   3.679   5.344
 6344SOL    HW219932   5.775   3.783   5.233
 6345SOL     OW19933   4.497   1.823   2.117
 6345SOL    HW119934   4.512   1.795   2.022
 6345SOL    HW219935   4.571   1.884   2.146
 6346SOL     OW19936   6.805   4.256   3.762
 6346SOL    HW119937   6.784   4.330   3.698
 6346SOL    HW219938   6.878   4.199   3.725
 6347SOL     OW19939   1.750   0.223   1.589
 6347SOL    HW119940   1.756   0.246   1.492
 6347SOL    HW219941   1.825   0.268   1.639
 6348SOL     OW19942   1.532   3.945   5.201
 6348SOL    HW119943   1.514   4.013   5.130
 6348SOL    HW219944   1.486   3.859   5.179
 6349SOL     OW19945   3.383   0.063   1.340
 6349SOL    HW119946   3.379   0.044   1.241
 6349SOL    HW219947   3.475   0.094   1.364
 6350SOL     OW19948   2.634   4.624   4.239
 6350SOL    HW119949   2.602   4.585   4.325
 6350SOL    HW219950   2.681   4.711   4.257
 6351SOL     OW19951   6.581   3.364   3.147
 6351SOL    HW119952   6.665   3.356   3.093
 6351SOL    HW219953   6.587   3.305   3.227
 6352SOL     OW19954   2.529   5.303   4.944
 6352SOL    HW119955   2.606   5.330   5.001
 6352SOL    HW219956   2.501   5.381   4.888
 6353SOL     OW19957   6.575   1.159   6.230
 6353SOL    HW119958   6.505   1.102   6.187
 6353SOL    HW219959   6.571   1.251   6.191
 6354SOL     OW19960   1.731   7.007   2.659
 6354SOL    HW119961   1.731   6.956   2.573
 6354SOL    HW219962   1.710   0.079   2.640
 6355SOL     OW19963   1.337   5.382   5.950
 6355SOL    HW119964   1.377   5.410   6.038
 6355SOL    HW219965   1.347   5.456   5.884
 6356SOL     OW19966   3.682   4.932   3.081
 6356SOL    HW119967   3.768   4.896   3.117
 6356SOL    HW219968   3.642   4.996   3.147
 6357SOL     OW19969   5.203   2.857   2.216
 6357SOL    HW119970   5.223   2.954   2.228
 6357SOL    HW219971   5.284   2.803   2.240
 6358SOL     OW19972   1.439   2.163   5.853
 6358SOL    HW119973   1.456   2.090   5.920
 6358SOL    HW219974   1.500   2.240   5.871
 6359SOL     OW19975   6.275   6.848   5.457
 6359SOL    HW119976   6.362   6.890   5.432
 6359SOL    HW219977   6.270   6.837   5.556
 6360SOL     OW19978   1.928   3.759   4.203
 6360SOL    HW119979   1.879   3.718   4.279
 6360SOL    HW219980   1.931   3.859   4.214
 6361SOL     OW19981   6.308   0.143   0.366
 6361SOL    HW119982   6.377   0.164   0.436
 6361SOL    HW219983   6.299   0.222   0.305
 6362SOL     OW19984   6.847   5.764   6.667
 6362SOL    HW119985   6.895   5.848   6.642
 6362SOL    HW219986   6.884   5.688   6.613
 6363SOL     OW19987   2.287   4.232   3.271
 6363SOL    HW119988   2.366   4.216   3.213
 6363SOL    HW219989   2.205   4.242   3.214
 6364SOL     OW19990   3.434   1.357   5.795
 6364SOL    HW119991   3.400   1.265   5.776
 6364SOL    HW219992   3.380   1.424   5.744
 6365SOL     OW19993   5.646   6.630   4.456
 6365SOL    HW119994   5.733   6.640   4.505
 6365SOL    HW219995   5.659   6.654   4.360
 6366SOL     OW19996   0.846   5.919   6.584
 6366SOL    HW119997   0.909   5.854   6.542
 6366SOL    HW219998   0.897   5.983   6.641
 6367SOL     OW19999   3.928   0.575   4.016
 6367SOL    HW120000   3.937   0.647   4.085
 6367SOL    HW220001   3.906   0.615   3.928
 6368SOL     OW20002   3.652   6.655   3.664
 6368SOL    HW120003   3.699   6.736   3.696
 6368SOL    HW220004   3.647   6.588   3.738
 6369SOL     OW20005   2.342   4.849   4.694
 6369SOL    HW120006   2.393   4.844   4.780
 6369SOL    HW220007   2.406   4.851   4.618
 6370SOL     OW20008   1.311   3.366   2.563
 6370SOL    HW120009   1.392   3.353   2.507
 6370SOL    HW220010   1.269   3.455   2.541
 6371SOL     OW20011   5.293   3.434   4.096
 6371SOL    HW120012   5.221   3.367   4.080
 6371SOL    HW220013   5.280   3.477   4.185
 6372SOL     OW20014   3.585   0.226   2.038
 6372SOL    HW120015   3.661   0.274   2.083
 6372SOL    HW220016   3.574   0.262   1.945
 6373SOL     OW20017   5.493   4.492   3.472
 6373SOL    HW120018   5.444   4.478   3.558
 6373SOL    HW220019   5.578   4.543   3.489
 6374SOL     OW20020   3.526   4.188   4.370
 6374SOL    HW120021   3.524   4.274   4.320
 6374SOL    HW220022   3.536   4.206   4.468
 6375SOL     OW20023   0.321   1.858   3.771
 6375SOL    HW120024   0.403   1.849   3.827
 6375SOL    HW220025   0.270   1.772   3.773
 6376SOL     OW20026   6.222   2.738   5.421
 6376SOL    HW120027   6.307   2.686   5.411
 6376SOL    HW220028   6.153   2.682   5.468
 6377SOL     OW20029   6.482   1.614   5.376
 6377SOL    HW120030   6.481   1.547   5.302
 6377SOL    HW220031   6.558   1.594   5.438
 6378SOL     OW20032   5.678   4.956   3.583
 6378SOL    HW120033   5.700   5.040   3.534
 6378SOL    HW220034   5.676   4.879   3.519
 6379SOL     OW20035   2.301   4.132   4.319
 6379SOL    HW120036   2.263   4.099   4.232
 6379SOL    HW220037   2.270   4.073   4.393
 6380SOL     OW20038   0.633   1.591   6.233
 6380SOL    HW120039   0.582   1.591   6.319
 6380SOL    HW220040   0.588   1.530   6.167
 6381SOL     OW20041   4.014   3.475   1.984
 6381SOL    HW120042   3.992   3.377   1.982
 6381SOL    HW220043   4.012   3.511   1.891
 6382SOL     OW20044   1.282   2.823   0.430
 6382SOL    HW120045   1.237   2.902   0.472
 6382SOL    HW220046   1.251   2.740   0.475
 6383SOL     OW20047   2.065   2.053   2.921
 6383SOL    HW120048   2.065   2.112   2.840
 6383SOL    HW220049   2.066   1.957   2.891
 6384SOL     OW20050   5.181   4.063   1.241
 6384SOL    HW120051   5.205   3.968   1.257
 6384SOL    HW220052   5.168   4.079   1.143
 6385SOL     OW20053   6.609   4.565   4.630
 6385SOL    HW120054   6.510   4.579   4.639
 6385SOL    HW220055   6.636   4.582   4.535
 6386SOL     OW20056   2.663   4.488   6.629
 6386SOL    HW120057   2.703   4.400   6.603
 6386SOL    HW220058   2.713   4.526   6.706
 6387SOL     OW20059   0.791   1.457   6.625
 6387SOL    HW120060   0.726   1.449   6.702
 6387SOL    HW220061   0.864   1.520   6.650
 6388SOL     OW20062   4.156   4.684   1.014
 6388SOL    HW120063   4.076   4.712   1.067
 6388SOL    HW220064   4.218   4.632   1.072
 6389SOL     OW20065   0.695   6.084   2.488
 6389SOL    HW120066   0.636   6.084   2.407
 6389SOL    HW220067   0.647   6.131   2.563
 6390SOL     OW20068   1.238   2.141   4.702
 6390SOL    HW120069   1.245   2.111   4.797
 6390SOL    HW220070   1.238   2.241   4.698
 6391SOL     OW20071   3.061   6.979   6.078
 6391SOL    HW120072   2.969   7.016   6.061
 6391SOL    HW220073   3.113   0.020   6.134
 6392SOL     OW20074   2.469   0.054   3.694
 6392SOL    HW120075   2.385   0.011   3.661
 6392SOL    HW220076   2.534   7.007   3.722
 6393SOL     OW20077   5.861   0.020   1.275
 6393SOL    HW120078   5.803   6.966   1.297
 6393SOL    HW220079   5.849   0.092   1.343
 6394SOL     OW20080   2.431   4.757   1.188
 6394SOL    HW120081   2.443   4.795   1.279
 6394SOL    HW220082   2.364   4.811   1.138
 6395SOL     OW20083   6.430   2.857   1.388
 6395SOL    HW120084   6.404   2.768   1.424
 6395SOL    HW220085   6.393   2.867   1.295
 6396SOL     OW20086   5.310   3.081   6.617
 6396SOL    HW120087   5.403   3.048   6.632
 6396SOL    HW220088   5.276   3.044   6.530
 6397SOL     OW20089   5.858   2.655   6.528
 6397SOL    HW120090   5.805   2.630   6.609
 6397SOL    HW220091   5.797   2.694   6.459
 6398SOL     OW20092   3.385   0.717   0.768
 6398SOL    HW120093   3.344   0.677   0.686
 6398SOL    HW220094   3.330   0.692   0.848
 6399SOL     OW20095   1.695   5.290   6.693
 6399SOL    HW120096   1.688   5.279   6.792
 6399SOL    HW220097   1.751   5.217   6.655
 6400SOL     OW20098   2.359   6.005   2.677
 6400SOL    HW120099   2.375   6.005   2.776
 6400SOL    HW220100   2.443   6.034   2.630
 6401SOL     OW20101   7.003   4.348   3.305
 6401SOL    HW120102   0.002   4.436   3.263
 6401SOL    HW220103   0.054   4.319   3.364
 6402SOL     OW20104   4.067   1.045   3.186
 6402SOL    HW120105   4.034   1.098   3.108
 6402SOL    HW220106   4.119   0.967   3.154
 6403SOL     OW20107   0.358   6.267   6.221
 6403SOL    HW120108   0.353   6.363   6.250
 6403SOL    HW220109   0.313   6.257   6.132
 6404SOL     OW20110   3.887   1.049   2.962
 6404SOL    HW120111   3.828   1.123   2.930
 6404SOL    HW220112   3.837   0.994   3.029
 6405SOL     OW20113   1.824   1.013   3.304
 6405SOL    HW120114   1.843   0.915   3.310
 6405SOL    HW220115   1.775   1.032   3.219
 6406SOL     OW20116   2.078   2.716   3.544
 6406SOL    HW120117   2.079   2.648   3.617
 6406SOL    HW220118   2.003   2.697   3.481
 6407SOL     OW20119   3.366   0.226   3.096
 6407SOL    HW120120   3.306   0.153   3.066
 6407SOL    HW220121   3.378   0.222   3.195
 6408SOL     OW20122   6.043   2.538   6.918
 6408SOL    HW120123   6.060   2.529   7.017
 6408SOL    HW220124   5.950   2.571   6.902
 6409SOL     OW20125   0.421   4.842   2.993
 6409SOL    HW120126   0.448   4.837   2.897
 6409SOL    HW220127   0.502   4.853   3.050
 6410SOL     OW20128   2.033   1.188   0.317
 6410SOL    HW120129   2.019   1.264   0.381
 6410SOL    HW220130   1.950   1.132   0.314
 6411SOL     OW20131   0.174   2.476   3.057
 6411SOL    HW120132   0.156   2.392   3.108
 6411SOL    HW220133   0.229   2.538   3.112
 6412SOL     OW20134   6.826   3.229   5.128
 6412SOL    HW120135   6.730   3.223   5.103
 6412SOL    HW220136   6.847   3.321   5.163
 6413SOL     OW20137   4.973   4.576   3.347
 6413SOL    HW120138   5.054   4.611   3.395
 6413SOL    HW220139   4.946   4.489   3.388
 6414SOL     OW20140   6.046   0.679   1.656
 6414SOL    HW120141   6.114   0.611   1.683
 6414SOL    HW220142   6.086   0.743   1.591
 6415SOL     OW20143   2.375   2.167   2.755
 6415SOL    HW120144   2.300   2.113   2.716
 6415SOL    HW220145   2.386   2.143   2.852
 6416SOL     OW20146   1.406   1.163   6.101
 6416SOL    HW120147   1.470   1.208   6.038
 6416SOL    HW220148   1.340   1.230   6.135
 6417SOL     OW20149   6.932   4.521   2.097
 6417SOL    HW120150   6.875   4.523   2.015
 6417SOL    HW220151   6.887   4.572   2.171
 6418SOL     OW20152   5.012   4.415   1.951
 6418SOL    HW120153   4.953   4.360   1.891
 6418SOL    HW220154   5.006   4.379   2.044
 6419SOL     OW20155   2.370   4.587   2.440
 6419SOL    HW120156   2.462   4.557   2.466
 6419SOL    HW220157   2.335   4.651   2.508
 6420SOL     OW20158   2.590   3.587   5.811
 6420SOL    HW120159   2.684   3.584   5.776
 6420SOL    HW220160   2.538   3.512   5.772
 6421SOL     OW20161   5.430   1.297   2.105
 6421SOL    HW120162   5.437   1.203   2.071
 6421SOL    HW220163   5.489   1.357   2.051
 6422SOL     OW20164   0.045   0.539   4.238
 6422SOL    HW120165   0.094   0.498   4.315
 6422SOL    HW220166   0.095   0.619   4.205
 6423SOL     OW20167   4.901   4.997   2.280
 6423SOL    HW120168   4.880   5.073   2.341
 6423SOL    HW220169   4.926   5.034   2.190
 6424SOL     OW20170   6.897   5.722   5.646
 6424SOL    HW120171   6.917   5.817   5.671
 6424SOL    HW220172   6.825   5.685   5.705
 6425SOL     OW20173   6.408   5.613   3.364
 6425SOL    HW120174   6.363   5.553   3.297
 6425SOL    HW220175   6.467   5.678   3.316
 6426SOL     OW20176   0.329   4.840   3.600
 6426SOL    HW120177   0.321   4.742   3.588
 6426SOL    HW220178   0.300   4.865   3.692
 6427SOL     OW20179   2.111   2.843   6.825
 6427SOL    HW120180   2.111   2.894   6.739
 6427SOL    HW220181   2.144   2.750   6.808
 6428SOL     OW20182   6.752   3.223   0.462
 6428SOL    HW120183   6.712   3.312   0.441
 6428SOL    HW220184   6.687   3.169   0.515
 6429SOL     OW20185   0.531   1.491   5.485
 6429SOL    HW120186   0.452   1.457   5.433
 6429SOL    HW220187   0.545   1.588   5.463
 6430SOL     OW20188   5.143   1.084   2.531
 6430SOL    HW120189   5.170   1.088   2.435
 6430SOL    HW220190   5.050   1.120   2.541
 6431SOL     OW20191   5.265   6.432   3.402
 6431SOL    HW120192   5.276   6.416   3.501
 6431SOL    HW220193   5.254   6.529   3.385
 6432SOL     OW20194   4.397   3.550   6.840
 6432SOL    HW120195   4.333   3.543   6.917
 6432SOL    HW220196   4.388   3.641   6.798
 6433SOL     OW20197   3.632   4.649   0.504
 6433SOL    HW120198   3.719   4.604   0.486
 6433SOL    HW220199   3.625   4.673   0.601
 6434SOL     OW20200   2.017   3.764   0.100
 6434SOL    HW120201   2.011   3.764   0.200
 6434SOL    HW220202   2.112   3.752   0.072
 6435SOL     OW20203   4.048   6.204   6.487
 6435SOL    HW120204   3.954   6.236   6.487
 6435SOL    HW220205   4.052   6.114   6.444
 6436SOL     OW20206   1.988   3.476   3.567
 6436SOL    HW120207   1.906   3.432   3.604
 6436SOL    HW220208   2.053   3.492   3.640
 6437SOL     OW20209   2.447   1.022   0.970
 6437SOL    HW120210   2.479   1.051   1.060
 6437SOL    HW220211   2.507   0.949   0.935
 6438SOL     OW20212   0.689   4.794   6.602
 6438SOL    HW120213   0.679   4.850   6.521
 6438SOL    HW220214   0.674   4.698   6.578
 6439SOL     OW20215   6.556   0.360   1.811
 6439SOL    HW120216   6.574   0.364   1.910
 6439SOL    HW220217   6.626   0.413   1.763
 6440SOL     OW20218   2.291   1.932   1.585
 6440SOL    HW120219   2.388   1.914   1.596
 6440SOL    HW220220   2.254   1.877   1.511
 6441SOL     OW20221   1.290   6.864   2.494
 6441SOL    HW120222   1.223   6.895   2.427
 6441SOL    HW220223   1.361   6.811   2.448
 6442SOL     OW20224   2.278   1.179   3.224
 6442SOL    HW120225   2.326   1.132   3.298
 6442SOL    HW220226   2.235   1.262   3.259
 6443SOL     OW20227   3.976   2.864   0.009
 6443SOL    HW120228   4.042   2.795   7.006
 6443SOL    HW220229   4.019   2.930   0.070
 6444SOL     OW20230   0.661   2.680   3.870
 6444SOL    HW120231   0.717   2.760   3.891
 6444SOL    HW220232   0.695   2.635   3.788
 6445SOL     OW20233   4.959   2.773   5.776
 6445SOL    HW120234   4.976   2.710   5.700
 6445SOL    HW220235   4.979   2.866   5.747
 6446SOL     OW20236   1.422   1.028   6.332
 6446SOL    HW120237   1.440   1.049   6.236
 6446SOL    HW220238   1.324   1.019   6.346
 6447SOL     OW20239   0.277   5.631   2.622
 6447SOL    HW120240   0.276   5.719   2.669
 6447SOL    HW220241   0.283   5.557   2.690
 6448SOL     OW20242   5.189   4.051   2.491
 6448SOL    HW120243   5.127   3.977   2.465
 6448SOL    HW220244   5.136   4.134   2.508
 6449SOL     OW20245   3.057   4.592   0.609
 6449SOL    HW120246   3.070   4.680   0.655
 6449SOL    HW220247   3.116   4.587   0.529
 6450SOL     OW20248   0.041   3.131   1.320
 6450SOL    HW120249   0.114   3.199   1.332
 6450SOL    HW220250   0.014   3.128   1.224
 6451SOL     OW20251   2.459   6.348   4.646
 6451SOL    HW120252   2.436   6.267   4.699
 6451SOL    HW220253   2.432   6.334   4.550
 6452SOL     OW20254   3.501   6.090   5.062
 6452SOL    HW120255   3.473   6.005   5.108
 6452SOL    HW220256   3.504   6.164   5.128
 6453SOL     OW20257   1.355   6.486   0.042
 6453SOL    HW120258   1.297   6.521   6.991
 6453SOL    HW220259   1.320   6.521   0.129
 6454SOL     OW20260   3.105   1.370   3.663
 6454SOL    HW120261   3.013   1.371   3.704
 6454SOL    HW220262   3.097   1.378   3.564
 6455SOL     OW20263   0.728   2.158   4.053
 6455SOL    HW120264   0.671   2.195   4.126
 6455SOL    HW220265   0.760   2.067   4.079
 6456SOL     OW20266   1.797   0.788   3.634
 6456SOL    HW120267   1.760   0.759   3.721
 6456SOL    HW220268   1.755   0.875   3.607
 6457SOL     OW20269   4.967   1.289   1.259
 6457SOL    HW120270   4.924   1.378   1.275
 6457SOL    HW220271   5.060   1.291   1.295
 6458SOL     OW20272   0.920   6.843   3.590
 6458SOL    HW120273   1.006   6.891   3.572
 6458SOL    HW220274   0.864   6.844   3.508
 6459SOL     OW20275   5.866   5.213   0.589
 6459SOL    HW120276   5.788   5.178   0.640
 6459SOL    HW220277   5.840   5.227   0.494
 6460SOL     OW20278   4.657   5.413   5.409
 6460SOL    HW120279   4.695   5.444   5.323
 6460SOL    HW220280   4.711   5.449   5.485
 6461SOL     OW20281   2.943   4.790   4.813
 6461SOL    HW120282   2.887   4.872   4.799
 6461SOL    HW220283   2.909   4.741   4.894
 6462SOL     OW20284   2.398   2.699   5.111
 6462SOL    HW120285   2.369   2.787   5.074
 6462SOL    HW220286   2.483   2.711   5.162
 6463SOL     OW20287   1.388   3.633   6.793
 6463SOL    HW120288   1.304   3.587   6.763
 6463SOL    HW220289   1.428   3.581   6.869
 6464SOL     OW20290   0.952   5.225   5.107
 6464SOL    HW120291   0.870   5.186   5.065
 6464SOL    HW220292   0.965   5.318   5.074
 6465SOL     OW20293   6.496   2.086   4.038
 6465SOL    HW120294   6.438   2.069   3.959
 6465SOL    HW220295   6.477   2.177   4.074
 6466SOL     OW20296   0.967   1.657   6.657
 6466SOL    HW120297   0.987   1.727   6.588
 6466SOL    HW220298   1.053   1.618   6.691
 6467SOL     OW20299   3.083   0.766   0.072
 6467SOL    HW120300   3.043   0.849   0.032
 6467SOL    HW220301   3.176   0.785   0.101
 6468SOL     OW20302   3.916   6.478   1.744
 6468SOL    HW120303   3.963   6.540   1.808
 6468SOL    HW220304   3.880   6.400   1.795
 6469SOL     OW20305   4.481   0.520   5.535
 6469SOL    HW120306   4.561   0.489   5.482
 6469SOL    HW220307   4.507   0.599   5.590
 6470SOL     OW20308   5.896   5.838   6.502
 6470SOL    HW120309   5.926   5.802   6.414
 6470SOL    HW220310   5.913   5.770   6.573
 6471SOL     OW20311   6.609   5.884   5.742
 6471SOL    HW120312   6.513   5.858   5.739
 6471SOL    HW220313   6.660   5.818   5.796
 6472SOL     OW20314   0.460   4.574   0.847
 6472SOL    HW120315   0.414   4.492   0.881
 6472SOL    HW220316   0.554   4.577   0.881
 6473SOL     OW20317   2.089   1.892   4.126
 6473SOL    HW120318   1.993   1.871   4.145
 6473SOL    HW220319   2.125   1.952   4.197
 6474SOL     OW20320   2.043   3.335   5.591
 6474SOL    HW120321   2.050   3.385   5.678
 6474SOL    HW220322   2.113   3.264   5.588
 6475SOL     OW20323   6.974   5.261   4.049
 6475SOL    HW120324   6.879   5.289   4.036
 6475SOL    HW220325   0.008   5.342   4.055
 6476SOL     OW20326   4.302   3.475   1.459
 6476SOL    HW120327   4.291   3.399   1.395
 6476SOL    HW220328   4.212   3.517   1.476
 6477SOL     OW20329   6.934   4.638   1.386
 6477SOL    HW120330   6.946   4.577   1.464
 6477SOL    HW220331   6.915   4.584   1.303
 6478SOL     OW20332   3.591   6.062   2.571
 6478SOL    HW120333   3.527   5.989   2.594
 6478SOL    HW220334   3.635   6.042   2.484
 6479SOL     OW20335   3.901   5.562   3.689
 6479SOL    HW120336   3.837   5.518   3.626
 6479SOL    HW220337   3.864   5.560   3.782
 6480SOL     OW20338   3.204   2.490   5.655
 6480SOL    HW120339   3.242   2.457   5.742
 6480SOL    HW220340   3.217   2.420   5.585
 6481SOL     OW20341   3.109   2.006   1.911
 6481SOL    HW120342   3.070   2.037   1.997
 6481SOL    HW220343   3.112   2.082   1.846
 6482SOL     OW20344   0.437   0.966   6.257
 6482SOL    HW120345   0.447   0.944   6.160
 6482SOL    HW220346   0.383   1.050   6.267
 6483SOL     OW20347   2.414   5.572   1.608
 6483SOL    HW120348   2.353   5.496   1.589
 6483SOL    HW220349   2.364   5.658   1.597
 6484SOL     OW20350   3.840   0.570   2.528
 6484SOL    HW120351   3.928   0.550   2.572
 6484SOL    HW220352   3.766   0.550   2.591
 6485SOL     OW20353   2.088   3.740   3.354
 6485SOL    HW120354   2.103   3.709   3.448
 6485SOL    HW220355   2.143   3.821   3.336
 6486SOL     OW20356   1.395   4.533   4.494
 6486SOL    HW120357   1.381   4.434   4.488
 6486SOL    HW220358   1.310   4.578   4.521
 6487SOL     OW20359   6.463   5.781   4.841
 6487SOL    HW120360   6.435   5.712   4.908
 6487SOL    HW220361   6.477   5.868   4.888
 6488SOL     OW20362   3.187   5.725   4.791
 6488SOL    HW120363   3.134   5.750   4.872
 6488SOL    HW220364   3.134   5.747   4.709
 6489SOL     OW20365   2.747   3.585   0.103
 6489SOL    HW120366   2.713   3.630   0.186
 6489SOL    HW220367   2.844   3.606   0.092
 6490SOL     OW20368   4.311   2.496   6.780
 6490SOL    HW120369   4.290   2.427   6.711
 6490SOL    HW220370   4.234   2.504   6.844
 6491SOL     OW20371   4.261   1.226   6.589
 6491SOL    HW120372   4.314   1.143   6.572
 6491SOL    HW220373   4.317   1.291   6.640
 6492SOL     OW20374   5.878   5.959   0.243
 6492SOL    HW120375   5.804   5.931   0.303
 6492SOL    HW220376   5.873   6.058   0.227
 6493SOL     OW20377   1.648   5.959   5.221
 6493SOL    HW120378   1.715   5.939   5.148
 6493SOL    HW220379   1.600   6.044   5.199
 6494SOL     OW20380   0.279   0.807   2.976
 6494SOL    HW120381   0.309   0.844   3.063
 6494SOL    HW220382   0.259   0.709   2.986
 6495SOL     OW20383   4.918   6.321   4.411
 6495SOL    HW120384   4.923   6.278   4.501
 6495SOL    HW220385   4.955   6.413   4.416
 6496SOL     OW20386   0.605   6.879   2.440
 6496SOL    HW120387   0.613   6.788   2.482
 6496SOL    HW220388   0.522   6.883   2.385
 6497SOL     OW20389   2.446   3.511   0.020
 6497SOL    HW120390   2.540   3.518   7.010
 6497SOL    HW220391   2.445   3.516   0.120
 6498SOL     OW20392   2.271   4.316   3.948
 6498SOL    HW120393   2.249   4.330   3.852
 6498SOL    HW220394   2.364   4.349   3.966
 6499SOL     OW20395   5.589   2.447   4.947
 6499SOL    HW120396   5.520   2.389   4.990
 6499SOL    HW220397   5.594   2.535   4.994
 6500SOL     OW20398   0.284   4.905   3.346
 6500SOL    HW120399   0.311   4.907   3.442
 6500SOL    HW220400   0.237   4.819   3.326
 6501SOL     OW20401   6.683   2.199   6.795
 6501SOL    HW120402   6.740   2.235   6.721
 6501SOL    HW220403   6.642   2.112   6.767
 6502SOL     OW20404   6.625   3.939   2.922
 6502SOL    HW120405   6.532   3.973   2.939
 6502SOL    HW220406   6.620   3.851   2.874
 6503SOL     OW20407   5.794   6.824   3.970
 6503SOL    HW120408   5.874   6.798   3.915
 6503SOL    HW220409   5.737   6.888   3.918
 6504SOL     OW20410   4.891   6.437   6.126
 6504SOL    HW120411   4.932   6.412   6.214
 6504SOL    HW220412   4.923   6.528   6.100
 6505SOL     OW20413   5.389   4.914   1.606
 6505SOL    HW120414   5.426   4.865   1.527
 6505SOL    HW220415   5.322   4.855   1.652
 6506SOL     OW20416   6.704   3.757   1.392
 6506SOL    HW120417   6.770   3.785   1.323
 6506SOL    HW220418   6.744   3.685   1.449
 6507SOL     OW20419   1.803   5.430   5.920
 6507SOL    HW120420   1.891   5.450   5.963
 6507SOL    HW220421   1.814   5.352   5.858
 6508SOL     OW20422   2.250   1.706   3.201
 6508SOL    HW120423   2.244   1.806   3.205
 6508SOL    HW220424   2.345   1.678   3.191
 6509SOL     OW20425   2.658   2.438   4.142
 6509SOL    HW120426   2.728   2.404   4.205
 6509SOL    HW220427   2.627   2.363   4.083
 6510SOL     OW20428   0.162   5.249   6.569
 6510SOL    HW120429   0.142   5.347   6.583
 6510SOL    HW220430   0.234   5.239   6.501
 6511SOL     OW20431   5.221   0.925   4.853
 6511SOL    HW120432   5.160   0.873   4.792
 6511SOL    HW220433   5.315   0.916   4.822
 6512SOL     OW20434   5.028   0.622   2.062
 6512SOL    HW120435   5.010   0.567   2.144
 6512SOL    HW220436   5.119   0.663   2.069
 6513SOL     OW20437   3.209   5.237   3.184
 6513SOL    HW120438   3.262   5.231   3.099
 6513SOL    HW220439   3.271   5.251   3.261
 6514SOL     OW20440   5.797   0.016   3.204
 6514SOL    HW120441   5.795   6.945   3.235
 6514SOL    HW220442   5.867   0.066   3.255
 6515SOL     OW20443   0.621   5.324   4.092
 6515SOL    HW120444   0.658   5.335   4.000
 6515SOL    HW220445   0.615   5.413   4.136
 6516SOL     OW20446   0.208   2.722   0.630
 6516SOL    HW120447   0.168   2.812   0.609
 6516SOL    HW220448   0.170   2.654   0.567
 6517SOL     OW20449   6.537   1.208   0.683
 6517SOL    HW120450   6.607   1.186   0.751
 6517SOL    HW220451   6.509   1.303   0.694
 6518SOL     OW20452   0.345   6.532   6.804
 6518SOL    HW120453   0.279   6.470   6.847
 6518SOL    HW220454   0.358   6.612   6.862
 6519SOL     OW20455   2.549   2.195   3.445
 6519SOL    HW120456   2.467   2.214   3.392
 6519SOL    HW220457   2.628   2.239   3.401
 6520SOL     OW20458   6.186   5.717   2.672
 6520SOL    HW120459   6.261   5.764   2.625
 6520SOL    HW220460   6.225   5.655   2.740
 6521SOL     OW20461   1.287   1.655   4.503
 6521SOL    HW120462   1.386   1.644   4.502
 6521SOL    HW220463   1.264   1.752   4.510
 6522SOL     OW20464   3.560   4.357   7.002
 6522SOL    HW120465   3.582   4.328   0.072
 6522SOL    HW220466   3.530   4.278   6.949
 6523SOL     OW20467   3.281   0.980   6.929
 6523SOL    HW120468   3.286   0.949   0.000
 6523SOL    HW220469   3.296   1.079   6.925
 6524SOL     OW20470   3.383   2.917   3.098
 6524SOL    HW120471   3.457   2.897   3.034
 6524SOL    HW220472   3.340   2.831   3.127
 6525SOL     OW20473   2.301   2.869   2.886
 6525SOL    HW120474   2.359   2.793   2.857
 6525SOL    HW220475   2.292   2.867   2.986
 6526SOL     OW20476   1.173   6.523   5.720
 6526SOL    HW120477   1.115   6.552   5.643
 6526SOL    HW220478   1.115   6.488   5.793
 6527SOL     OW20479   0.808   1.898   4.142
 6527SOL    HW120480   0.845   1.850   4.062
 6527SOL    HW220481   0.868   1.882   4.220
 6528SOL     OW20482   6.771   0.408   3.134
 6528SOL    HW120483   6.804   0.392   3.227
 6528SOL    HW220484   6.844   0.390   3.068
 6529SOL     OW20485   6.877   1.705   3.163
 6529SOL    HW120486   6.944   1.639   3.197
 6529SOL    HW220487   6.789   1.659   3.149
 6530SOL     OW20488   6.421   3.914   1.112
 6530SOL    HW120489   6.380   3.897   1.202
 6530SOL    HW220490   6.427   4.013   1.096
 6531SOL     OW20491   5.256   3.572   4.818
 6531SOL    HW120492   5.196   3.605   4.892
 6531SOL    HW220493   5.201   3.548   4.739
 6532SOL     OW20494   5.972   1.017   0.512
 6532SOL    HW120495   6.004   0.941   0.455
 6532SOL    HW220496   6.033   1.026   0.591
 6533SOL     OW20497   5.119   5.649   1.425
 6533SOL    HW120498   5.165   5.618   1.342
 6533SOL    HW220499   5.029   5.686   1.401
 6534SOL     OW20500   2.916   4.569   1.470
 6534SOL    HW120501   2.858   4.488   1.478
 6534SOL    HW220502   2.960   4.588   1.557
 6535SOL     OW20503   6.587   3.057   4.246
 6535SOL    HW120504   6.495   3.036   4.212
 6535SOL    HW220505   6.648   2.981   4.227
 6536SOL     OW20506   6.779   2.355   5.878
 6536SOL    HW120507   6.741   2.268   5.846
 6536SOL    HW220508   6.808   2.346   5.973
 6537SOL     OW20509   6.249   5.479   6.686
 6537SOL    HW120510   6.243   5.396   6.631
 6537SOL    HW220511   6.341   5.489   6.722
 6538SOL     OW20512   3.930   4.144   0.211
 6538SOL    HW120513   3.944   4.206   0.135
 6538SOL    HW220514   3.911   4.052   0.176
 6539SOL     OW20515   3.228   1.066   6.288
 6539SOL    HW120516   3.272   1.139   6.236
 6539SOL    HW220517   3.215   0.986   6.229
 6540SOL     OW20518   4.883   1.834   5.119
 6540SOL    HW120519   4.790   1.799   5.109
 6540SOL    HW220520   4.947   1.775   5.069
 6541SOL     OW20521   3.957   1.945   5.183
 6541SOL    HW120522   4.020   1.891   5.239
 6541SOL    HW220523   3.994   1.954   5.091
 6542SOL     OW20524   6.802   4.834   3.259
 6542SOL    HW120525   6.825   4.931   3.261
 6542SOL    HW220526   6.821   4.793   3.348
 6543SOL     OW20527   6.386   4.049   6.889
 6543SOL    HW120528   6.310   4.113   6.900
 6543SOL    HW220529   6.421   4.023   6.979
 6544SOL     OW20530   0.380   5.972   3.263
 6544SOL    HW120531   0.417   6.014   3.346
 6544SOL    HW220532   0.286   5.943   3.280
 6545SOL     OW20533   5.459   2.120   6.740
 6545SOL    HW120534   5.418   2.200   6.698
 6545SOL    HW220535   5.474   2.137   6.838
 6546SOL     OW20536   4.934   4.470   6.601
 6546SOL    HW120537   4.998   4.404   6.561
 6546SOL    HW220538   4.964   4.492   6.694
 6547SOL     OW20539   4.700   1.640   5.823
 6547SOL    HW120540   4.743   1.729   5.834
 6547SOL    HW220541   4.770   1.571   5.805
 6548SOL     OW20542   1.214   3.431   0.070
 6548SOL    HW120543   1.248   3.355   0.015
 6548SOL    HW220544   1.267   3.438   0.154
 6549SOL     OW20545   3.736   1.255   0.933
 6549SOL    HW120546   3.678   1.188   0.980
 6549SOL    HW220547   3.746   1.336   0.991
 6550SOL     OW20548   6.931   6.426   3.495
 6550SOL    HW120549   6.843   6.444   3.452
 6550SOL    HW220550   6.977   6.513   3.513
 6551SOL     OW20551   1.493   4.000   1.985
 6551SOL    HW120552   1.578   3.955   2.014
 6551SOL    HW220553   1.417   3.964   2.039
 6552SOL     OW20554   2.198   0.226   5.277
 6552SOL    HW120555   2.197   0.159   5.351
 6552SOL    HW220556   2.293   0.249   5.254
 6553SOL     OW20557   0.425   1.844   2.112
 6553SOL    HW120558   0.456   1.928   2.158
 6553SOL    HW220559   0.332   1.822   2.143
 6554SOL     OW20560   5.944   1.840   5.764
 6554SOL    HW120561   6.024   1.899   5.773
 6554SOL    HW220562   5.876   1.884   5.706
 6555SOL     OW20563   1.217   1.667   1.968
 6555SOL    HW120564   1.194   1.763   1.984
 6555SOL    HW220565   1.146   1.625   1.911
 6556SOL     OW20566   4.669   4.719   5.196
 6556SOL    HW120567   4.757   4.676   5.175
 6556SOL    HW220568   4.670   4.814   5.164
 6557SOL     OW20569   5.483   5.475   1.287
 6557SOL    HW120570   5.565   5.486   1.343
 6557SOL    HW220571   5.403   5.468   1.346
 6558SOL     OW20572   5.859   5.558   1.115
 6558SOL    HW120573   5.930   5.585   1.050
 6558SOL    HW220574   5.770   5.591   1.084
 6559SOL     OW20575   6.699   4.014   6.892
 6559SOL    HW120576   6.722   4.080   6.820
 6559SOL    HW220577   6.749   3.929   6.876
 6560SOL     OW20578   3.671   3.018   1.483
 6560SOL    HW120579   3.574   3.018   1.458
 6560SOL    HW220580   3.711   2.929   1.462
 6561SOL     OW20581   3.583   3.783   2.512
 6561SOL    HW120582   3.658   3.766   2.576
 6561SOL    HW220583   3.498   3.793   2.563
 6562SOL     OW20584   5.790   4.807   6.999
 6562SOL    HW120585   5.890   4.805   6.991
 6562SOL    HW220586   5.750   4.764   6.918
 6563SOL     OW20587   0.546   6.435   0.023
 6563SOL    HW120588   0.502   6.406   0.108
 6563SOL    HW220589   0.505   6.520   7.014
 6564SOL     OW20590   0.429   4.111   2.263
 6564SOL    HW120591   0.364   4.055   2.212
 6564SOL    HW220592   0.512   4.124   2.207
 6565SOL     OW20593   6.409   1.832   4.136
 6565SOL    HW120594   6.459   1.914   4.108
 6565SOL    HW220595   6.312   1.854   4.143
 6566SOL     OW20596   3.403   0.080   0.813
 6566SOL    HW120597   3.340   0.013   0.774
 6566SOL    HW220598   3.367   0.172   0.798
 6567SOL     OW20599   3.752   2.381   1.125
 6567SOL    HW120600   3.806   2.297   1.132
 6567SOL    HW220601   3.778   2.430   1.042
 6568SOL     OW20602   5.239   5.397   3.026
 6568SOL    HW120603   5.272   5.304   3.040
 6568SOL    HW220604   5.213   5.409   2.930
 6569SOL     OW20605   3.158   3.981   1.212
 6569SOL    HW120606   3.077   4.025   1.251
 6569SOL    HW220607   3.153   3.882   1.230
 6570SOL     OW20608   4.495   6.575   1.682
 6570SOL    HW120609   4.420   6.590   1.747
 6570SOL    HW220610   4.572   6.532   1.730
 6571SOL     OW20611   2.396   6.192   2.294
 6571SOL    HW120612   2.297   6.205   2.301
 6571SOL    HW220613   2.438   6.273   2.255
 6572SOL     OW20614   6.451   5.193   5.510
 6572SOL    HW120615   6.409   5.134   5.580
 6572SOL    HW220616   6.540   5.223   5.542
 6573SOL     OW20617   2.881   1.369   2.758
 6573SOL    HW120618   2.825   1.299   2.801
 6573SOL    HW220619   2.974   1.364   2.795
 6574SOL     OW20620   3.014   5.988   2.389
 6574SOL    HW120621   3.076   5.962   2.315
 6574SOL    HW220622   3.033   5.931   2.469
 6575SOL     OW20623   1.079   1.783   1.517
 6575SOL    HW120624   1.100   1.685   1.521
 6575SOL    HW220625   1.164   1.834   1.502
 6576SOL     OW20626   1.430   6.919   6.702
 6576SOL    HW120627   1.506   6.883   6.647
 6576SOL    HW220628   1.459   6.927   6.797
 6577SOL     OW20629   0.111   1.306   3.533
 6577SOL    HW120630   0.044   1.316   3.459
 6577SOL    HW220631   0.184   1.373   3.520
 6578SOL     OW20632   0.586   4.359   3.129
 6578SOL    HW120633   0.505   4.414   3.149
 6578SOL    HW220634   0.595   4.286   3.198
 6579SOL     OW20635   0.671   3.990   4.746
 6579SOL    HW120636   0.758   4.000   4.698
 6579SOL    HW220637   0.672   4.047   4.829
 6580SOL     OW20638   6.640   1.345   1.317
 6580SOL    HW120639   6.645   1.399   1.401
 6580SOL    HW220640   6.559   1.286   1.321
 6581SOL     OW20641   3.528   1.459   6.282
 6581SOL    HW120642   3.618   1.466   6.238
 6581SOL    HW220643   3.504   1.363   6.296
 6582SOL     OW20644   1.727   0.714   2.020
 6582SOL    HW120645   1.684   0.705   1.930
 6582SOL    HW220646   1.682   0.651   2.084
 6583SOL     OW20647   4.009   0.723   6.014
 6583SOL    HW120648   4.080   0.678   5.960
 6583SOL    HW220649   4.050   0.774   6.089
 6584SOL     OW20650   5.142   1.592   0.011
 6584SOL    HW120651   5.161   1.514   0.070
 6584SOL    HW220652   5.118   1.559   6.943
 6585SOL     OW20653   6.326   1.088   0.530
 6585SOL    HW120654   6.251   1.140   0.489
 6585SOL    HW220655   6.395   1.150   0.567
 6586SOL     OW20656   5.868   2.640   5.920
 6586SOL    HW120657   5.838   2.545   5.931
 6586SOL    HW220658   5.967   2.645   5.924
 6587SOL     OW20659   3.196   5.143   4.081
 6587SOL    HW120660   3.127   5.137   4.153
 6587SOL    HW220661   3.287   5.143   4.122
 6588SOL     OW20662   1.550   4.056   1.532
 6588SOL    HW120663   1.611   3.979   1.552
 6588SOL    HW220664   1.576   4.097   1.445
 6589SOL     OW20665   4.510   0.574   6.433
 6589SOL    HW120666   4.564   0.557   6.351
 6589SOL    HW220667   4.447   0.499   6.448
 6590SOL     OW20668   0.915   1.501   6.107
 6590SOL    HW120669   0.945   1.589   6.069
 6590SOL    HW220670   0.828   1.513   6.154
 6591SOL     OW20671   5.282   5.968   2.206
 6591SOL    HW120672   5.318   5.967   2.113
 6591SOL    HW220673   5.336   6.031   2.262
 6592SOL     OW20674   5.692   6.663   4.190
 6592SOL    HW120675   5.750   6.735   4.153
 6592SOL    HW220676   5.667   6.599   4.116
 6593SOL     OW20677   2.218   2.442   3.437
 6593SOL    HW120678   2.267   2.380   3.377
 6593SOL    HW220679   2.233   2.416   3.532
 6594SOL     OW20680   3.914   1.600   0.816
 6594SOL    HW120681   3.874   1.580   0.905
 6594SOL    HW220682   3.932   1.515   0.768
 6595SOL     OW20683   0.335   3.548   0.370
 6595SOL    HW120684   0.267   3.500   0.425
 6595SOL    HW220685   0.329   3.646   0.388
 6596SOL     OW20686   3.553   6.889   4.701
 6596SOL    HW120687   3.637   6.926   4.662
 6596SOL    HW220688   3.474   6.937   4.661
 6597SOL     OW20689   1.472   6.387   3.135
 6597SOL    HW120690   1.401   6.325   3.100
 6597SOL    HW220691   1.472   6.471   3.081
 6598SOL     OW20692   1.112   6.562   4.522
 6598SOL    HW120693   1.158   6.649   4.503
 6598SOL    HW220694   1.150   6.522   4.606
 6599SOL     OW20695   3.478   5.124   5.374
 6599SOL    HW120696   3.483   5.162   5.467
 6599SOL    HW220697   3.529   5.182   5.311
 6600SOL     OW20698   4.993   5.303   5.888
 6600SOL    HW120699   5.051   5.292   5.807
 6600SOL    HW220700   4.916   5.238   5.883
 6601SOL     OW20701   0.748   1.140   0.489
 6601SOL    HW120702   0.805   1.111   0.412
 6601SOL    HW220703   0.676   1.202   0.456
 6602SOL     OW20704   6.295   1.490   1.784
 6602SOL    HW120705   6.350   1.409   1.770
 6602SOL    HW220706   6.354   1.570   1.794
 6603SOL     OW20707   1.163   2.684   4.306
 6603SOL    HW120708   1.178   2.753   4.377
 6603SOL    HW220709   1.212   2.600   4.330
 6604SOL     OW20710   2.622   6.310   1.440
 6604SOL    HW120711   2.627   6.210   1.440
 6604SOL    HW220712   2.540   6.340   1.392
 6605SOL     OW20713   5.119   5.003   0.488
 6605SOL    HW120714   5.120   4.971   0.583
 6605SOL    HW220715   5.083   4.930   0.429
 6606SOL     OW20716   5.073   0.139   2.068
 6606SOL    HW120717   5.157   0.089   2.086
 6606SOL    HW220718   5.080   0.230   2.108
 6607SOL     OW20719   1.645   2.415   1.230
 6607SOL    HW120720   1.662   2.446   1.323
 6607SOL    HW220721   1.731   2.381   1.191
 6608SOL     OW20722   4.963   5.099   1.776
 6608SOL    HW120723   4.969   5.001   1.798
 6608SOL    HW220724   4.912   5.110   1.691
 6609SOL     OW20725   4.558   0.914   6.229
 6609SOL    HW120726   4.513   0.826   6.214
 6609SOL    HW220727   4.611   0.910   6.314
 6610SOL     OW20728   2.256   0.753   6.345
 6610SOL    HW120729   2.165   0.790   6.325
 6610SOL    HW220730   2.282   0.690   6.272
 6611SOL     OW20731   6.548   2.528   3.175
 6611SOL    HW120732   6.636   2.546   3.219
 6611SOL    HW220733   6.562   2.470   3.094
 6612SOL     OW20734   0.553   3.002   6.819
 6612SOL    HW120735   0.566   2.908   6.849
 6612SOL    HW220736   0.580   3.064   6.893
 6613SOL     OW20737   5.726   6.161   4.064
 6613SOL    HW120738   5.817   6.193   4.091
 6613SOL    HW220739   5.657   6.203   4.124
 6614SOL     OW20740   5.186   5.999   6.853
 6614SOL    HW120741   5.277   6.030   6.827
 6614SOL    HW220742   5.141   5.956   6.775
 6615SOL     OW20743   1.169   4.421   4.081
 6615SOL    HW120744   1.260   4.398   4.114
 6615SOL    HW220745   1.101   4.399   4.151
 6616SOL     OW20746   4.359   1.103   6.263
 6616SOL    HW120747   4.425   1.037   6.226
 6616SOL    HW220748   4.361   1.100   6.363
 6617SOL     OW20749   2.993   6.249   3.249
 6617SOL    HW120750   3.044   6.210   3.172
 6617SOL    HW220751   3.050   6.319   3.293
 6618SOL     OW20752   1.365   3.287   3.008
 6618SOL    HW120753   1.283   3.318   3.056
 6618SOL    HW220754   1.411   3.366   2.967
 6619SOL     OW20755   6.688   0.101   4.716
 6619SOL    HW120756   6.763   0.065   4.660
 6619SOL    HW220757   6.705   0.079   4.812
 6620SOL     OW20758   2.275   2.921   5.340
 6620SOL    HW120759   2.221   3.005   5.345
 6620SOL    HW220760   2.348   2.931   5.272
 6621SOL     OW20761   2.635   3.278   7.006
 6621SOL    HW120762   2.730   3.303   7.024
 6621SOL    HW220763   2.583   3.283   0.068
 6622SOL     OW20764   6.035   6.321   1.725
 6622SOL    HW120765   5.947   6.368   1.720
 6622SOL    HW220766   6.023   6.235   1.775
 6623SOL     OW20767   2.933   3.492   1.042
 6623SOL    HW120768   2.954   3.556   0.969
 6623SOL    HW220769   2.945   3.537   1.131
 6624SOL     OW20770   1.708   0.549   4.036
 6624SOL    HW120771   1.690   0.611   3.960
 6624SOL    HW220772   1.772   0.478   4.006
 6625SOL     OW20773   5.156   1.759   6.171
 6625SOL    HW120774   5.150   1.847   6.217
 6625SOL    HW220775   5.223   1.701   6.218
 6626SOL     OW20776   4.188   4.903   4.108
 6626SOL    HW120777   4.189   4.809   4.073
 6626SOL    HW220778   4.250   4.960   4.054
 6627SOL     OW20779   2.567   0.532   5.874
 6627SOL    HW120780   2.605   0.515   5.965
 6627SOL    HW220781   2.544   0.445   5.831
 6628SOL     OW20782   4.573   5.160   4.060
 6628SOL    HW120783   4.569   5.197   3.967
 6628SOL    HW220784   4.644   5.208   4.112
 6629SOL     OW20785   2.643   5.872   7.010
 6629SOL    HW120786   2.714   5.802   6.995
 6629SOL    HW220787   2.649   5.941   6.938
 6630SOL     OW20788   3.568   1.383   1.351
 6630SOL    HW120789   3.560   1.480   1.377
 6630SOL    HW220790   3.596   1.329   1.430
 6631SOL     OW20791   4.215   0.610   2.332
 6631SOL    HW120792   4.263   0.525   2.357
 6631SOL    HW220793   4.281   0.674   2.292
 6632SOL     OW20794   0.501   0.496   2.163
 6632SOL    HW120795   0.510   0.427   2.090
 6632SOL    HW220796   0.571   0.566   2.151
 6633SOL     OW20797   1.406   5.057   5.895
 6633SOL    HW120798   1.475   5.121   5.861
 6633SOL    HW220799   1.377   5.085   5.987
 6634SOL     OW20800   5.662   3.247   5.161
 6634SOL    HW120801   5.677   3.344   5.142
 6634SOL    HW220802   5.750   3.200   5.169
 6635SOL     OW20803   4.235   5.348   3.383
 6635SOL    HW120804   4.155   5.403   3.358
 6635SOL    HW220805   4.205   5.263   3.426
 6636SOL     OW20806   3.279   2.120   6.303
 6636SOL    HW120807   3.378   2.133   6.298
 6636SOL    HW220808   3.239   2.194   6.356
 6637SOL     OW20809   1.742   0.223   6.317
 6637SOL    HW120810   1.775   0.217   6.412
 6637SOL    HW220811   1.796   0.291   6.268
 6638SOL     OW20812   4.077   4.776   5.157
 6638SOL    HW120813   4.039   4.765   5.065
 6638SOL    HW220814   4.016   4.734   5.223
 6639SOL     OW20815   5.843   6.228   0.197
 6639SOL    HW120816   5.785   6.294   0.151
 6639SOL    HW220817   5.852   6.252   0.293
 6640SOL     OW20818   6.685   2.082   5.365
 6640SOL    HW120819   6.638   2.066   5.279
 6640SOL    HW220820   6.742   2.163   5.358
 6641SOL     OW20821   2.215   2.310   0.027
 6641SOL    HW120822   2.244   2.369   6.976
 6641SOL    HW220823   2.159   2.363   0.091
 6642SOL     OW20824   2.543   5.735   0.501
 6642SOL    HW120825   2.590   5.745   0.413
 6642SOL    HW220826   2.610   5.734   0.575
 6643SOL     OW20827   6.503   4.710   6.493
 6643SOL    HW120828   6.465   4.699   6.401
 6643SOL    HW220829   6.443   4.664   6.559
 6644SOL     OW20830   2.807   4.812   1.808
 6644SOL    HW120831   2.818   4.782   1.714
 6644SOL    HW220832   2.817   4.734   1.870
 6645SOL     OW20833   0.097   5.167   0.073
 6645SOL    HW120834   0.119   5.229   0.149
 6645SOL    HW220835   0.132   5.206   7.011
 6646SOL     OW20836   3.857   6.321   4.439
 6646SOL    HW120837   3.831   6.416   4.422
 6646SOL    HW220838   3.818   6.291   4.526
 6647SOL     OW20839   3.506   1.477   2.089
 6647SOL    HW120840   3.435   1.414   2.057
 6647SOL    HW220841   3.471   1.570   2.087
 6648SOL     OW20842   3.201   5.939   2.169
 6648SOL    HW120843   3.252   6.024   2.183
 6648SOL    HW220844   3.186   5.926   2.071
 6649SOL     OW20845   4.896   1.723   0.007
 6649SOL    HW120846   4.984   1.689   0.040
 6649SOL    HW220847   4.904   1.820   7.008
 6650SOL     OW20848   4.415   1.293   5.450
 6650SOL    HW120849   4.461   1.347   5.380
 6650SOL    HW220850   4.380   1.354   5.521
 6651SOL     OW20851   1.952   1.741   6.531
 6651SOL    HW120852   1.990   1.730   6.623
 6651SOL    HW220853   2.013   1.800   6.477
 6652SOL     OW20854   6.805   5.024   0.447
 6652SOL    HW120855   6.772   5.037   0.540
 6652SOL    HW220856   6.728   5.012   0.385
 6653SOL     OW20857   3.831   3.357   2.839
 6653SOL    HW120858   3.918   3.397   2.869
 6653SOL    HW220859   3.761   3.429   2.838
 6654SOL     OW20860   1.898   3.189   1.119
 6654SOL    HW120861   1.804   3.187   1.085
 6654SOL    HW220862   1.939   3.099   1.111
 6655SOL     OW20863   2.984   6.818   1.396
 6655SOL    HW120864   3.079   6.798   1.418
 6655SOL    HW220865   2.938   6.733   1.369
 6656SOL     OW20866   5.767   1.638   2.649
 6656SOL    HW120867   5.706   1.608   2.575
 6656SOL    HW220868   5.735   1.601   2.736
 6657SOL     OW20869   4.997   6.077   6.584
 6657SOL    HW120870   4.938   6.075   6.504
 6657SOL    HW220871   5.074   6.014   6.571
 6658SOL     OW20872   6.097   1.662   4.708
 6658SOL    HW120873   6.167   1.603   4.749
 6658SOL    HW220874   6.036   1.606   4.651
 6659SOL     OW20875   2.700   2.201   0.574
 6659SOL    HW120876   2.753   2.240   0.498
 6659SOL    HW220877   2.665   2.111   0.547
 6660SOL     OW20878   0.106   6.084   0.848
 6660SOL    HW120879   0.192   6.033   0.845
 6660SOL    HW220880   0.079   6.110   0.755
 6661SOL     OW20881   0.285   6.000   3.919
 6661SOL    HW120882   0.323   6.015   4.011
 6661SOL    HW220883   0.316   5.911   3.886
 6662SOL     OW20884   1.241   0.346   6.760
 6662SOL    HW120885   1.191   0.431   6.775
 6662SOL    HW220886   1.272   0.310   6.848
 6663SOL     OW20887   7.008   5.433   2.935
 6663SOL    HW120888   0.012   5.510   2.876
 6663SOL    HW220889   6.976   5.358   2.878
 6664SOL     OW20890   1.753   7.019   1.049
 6664SOL    HW120891   1.760   0.094   1.031
 6664SOL    HW220892   1.661   6.988   1.025
 6665SOL     OW20893   2.168   0.642   2.829
 6665SOL    HW120894   2.187   0.560   2.775
 6665SOL    HW220895   2.209   0.722   2.786
 6666SOL     OW20896   5.510   1.334   5.999
 6666SOL    HW120897   5.529   1.429   5.976
 6666SOL    HW220898   5.595   1.287   6.023
 6667SOL     OW20899   6.796   5.554   5.161
 6667SOL    HW120900   6.761   5.461   5.153
 6667SOL    HW220901   6.896   5.552   5.169
 6668SOL     OW20902   6.378   5.972   1.628
 6668SOL    HW120903   6.458   5.957   1.569
 6668SOL    HW220904   6.408   5.988   1.722
 6669SOL     OW20905   2.178   3.054   3.988
 6669SOL    HW120906   2.079   3.061   3.994
 6669SOL    HW220907   2.215   3.138   3.950
 6670SOL     OW20908   3.547   2.912   5.992
 6670SOL    HW120909   3.451   2.930   6.012
 6670SOL    HW220910   3.579   2.974   5.920
 6671SOL     OW20911   5.110   5.535   1.147
 6671SOL    HW120912   5.039   5.573   1.088
 6671SOL    HW220913   5.192   5.518   1.093
 6672SOL     OW20914   1.088   1.932   4.912
 6672SOL    HW120915   1.063   1.946   5.008
 6672SOL    HW220916   1.182   1.897   4.908
 6673SOL     OW20917   4.803   6.205   3.246
 6673SOL    HW120918   4.752   6.225   3.162
 6673SOL    HW220919   4.881   6.145   3.224
 6674SOL     OW20920   0.916   5.135   6.752
 6674SOL    HW120921   0.977   5.100   6.681
 6674SOL    HW220922   0.874   5.220   6.721
 6675SOL     OW20923   4.379   3.922   1.718
 6675SOL    HW120924   4.342   3.956   1.631
 6675SOL    HW220925   4.403   4.000   1.776
 6676SOL     OW20926   0.512   4.161   5.784
 6676SOL    HW120927   0.529   4.186   5.880
 6676SOL    HW220928   0.598   4.162   5.734
 6677SOL     OW20929   0.405   2.611   6.923
 6677SOL    HW120930   0.403   2.551   6.843
 6677SOL    HW220931   0.365   2.563   7.001
 6678SOL     OW20932   1.953   2.422   0.278
 6678SOL    HW120933   1.967   2.447   0.374
 6678SOL    HW220934   1.939   2.323   0.271
 6679SOL     OW20935   2.713   1.762   4.097
 6679SOL    HW120936   2.639   1.718   4.149
 6679SOL    HW220937   2.801   1.722   4.125
 6680SOL     OW20938   4.207   6.477   6.478
 6680SOL    HW120939   4.301   6.451   6.497
 6680SOL    HW220940   4.148   6.396   6.480
 6681SOL     OW20941   4.778   4.872   0.151
 6681SOL    HW120942   4.837   4.880   0.071
 6681SOL    HW220943   4.685   4.901   0.128
 6682SOL     OW20944   0.948   3.880   2.329
 6682SOL    HW120945   0.848   3.872   2.328
 6682SOL    HW220946   0.987   3.799   2.373
 6683SOL     OW20947   5.028   2.586   5.550
 6683SOL    HW120948   5.017   2.608   5.453
 6683SOL    HW220949   5.003   2.490   5.566
 6684SOL     OW20950   2.108   6.829   0.539
 6684SOL    HW120951   2.114   6.826   0.638
 6684SOL    HW220952   2.166   6.902   0.503
 6685SOL     OW20953   5.292   2.698   5.095
 6685SOL    HW120954   5.387   2.670   5.109
 6685SOL    HW220955   5.283   2.795   5.116
 6686SOL     OW20956   5.153   5.800   3.860
 6686SOL    HW120957   5.103   5.719   3.829
 6686SOL    HW220958   5.248   5.794   3.827
 6687SOL     OW20959   0.110   1.839   1.197
 6687SOL    HW120960   0.203   1.834   1.161
 6687SOL    HW220961   0.054   1.768   1.154
 6688SOL     OW20962   0.208   4.081   1.882
 6688SOL    HW120963   0.231   4.164   1.932
 6688SOL    HW220964   0.136   4.031   1.931
 6689SOL     OW20965   4.007   3.239   0.503
 6689SOL    HW120966   4.092   3.292   0.502
 6689SOL    HW220967   3.930   3.301   0.519
 6690SOL     OW20968   2.559   0.795   2.219
 6690SOL    HW120969   2.490   0.866   2.235
 6690SOL    HW220970   2.514   0.706   2.212
 6691SOL     OW20971   3.130   5.961   1.901
 6691SOL    HW120972   3.124   6.056   1.933
 6691SOL    HW220973   3.040   5.931   1.870
 6692SOL     OW20974   2.763   4.848   5.193
 6692SOL    HW120975   2.774   4.812   5.286
 6692SOL    HW220976   2.773   4.773   5.127
 6693SOL     OW20977   4.787   3.780   5.915
 6693SOL    HW120978   4.786   3.759   5.818
 6693SOL    HW220979   4.754   3.873   5.929
 6694SOL     OW20980   4.755   6.247   0.089
 6694SOL    HW120981   4.729   6.305   0.011
 6694SOL    HW220982   4.673   6.219   0.139
 6695SOL     OW20983   1.903   2.070   5.514
 6695SOL    HW120984   1.943   2.018   5.439
 6695SOL    HW220985   1.825   2.122   5.480
 6696SOL     OW20986   1.629   2.210   0.130
 6696SOL    HW120987   1.568   2.227   0.207
 6696SOL    HW220988   1.710   2.161   0.162
 6697SOL     OW20989   4.638   2.583   3.643
 6697SOL    HW120990   4.552   2.541   3.615
 6697SOL    HW220991   4.701   2.512   3.675
 6698SOL     OW20992   3.164   3.069   0.535
 6698SOL    HW120993   3.092   3.016   0.491
 6698SOL    HW220994   3.200   3.018   0.613
 6699SOL     OW20995   3.377   5.030   0.170
 6699SOL    HW120996   3.427   4.978   0.239
 6699SOL    HW220997   3.365   4.974   0.088
 6700SOL     OW20998   0.141   6.304   1.319
 6700SOL    HW120999   0.129   6.279   1.223
 6700SOL    HW221000   0.177   6.225   1.369
 6701SOL     OW21001   5.822   3.074   1.290
 6701SOL    HW121002   5.836   3.145   1.360
 6701SOL    HW221003   5.753   3.105   1.225
 6702SOL     OW21004   2.389   2.557   0.573
 6702SOL    HW121005   2.475   2.545   0.523
 6702SOL    HW221006   2.383   2.652   0.604
 6703SOL     OW21007   6.525   1.718   0.021
 6703SOL    HW121008   6.545   1.650   6.974
 6703SOL    HW221009   6.426   1.732   0.026
 6704SOL     OW21010   4.352   2.442   2.831
 6704SOL    HW121011   4.417   2.443   2.907
 6704SOL    HW221012   4.286   2.516   2.842
 6705SOL     OW21013   6.972   1.705   1.903
 6705SOL    HW121014   0.009   1.776   1.939
 6705SOL    HW221015   6.927   1.738   1.820
 6706SOL     OW21016   1.143   3.964   0.678
 6706SOL    HW121017   1.121   4.061   0.671
 6706SOL    HW221018   1.109   3.928   0.765
 6707SOL     OW21019   0.049   5.192   4.764
 6707SOL    HW121020   6.993   5.134   4.779
 6707SOL    HW221021   0.110   5.148   4.697
 6708SOL     OW21022   1.730   5.243   2.673
 6708SOL    HW121023   1.755   5.173   2.740
 6708SOL    HW221024   1.801   5.249   2.603
 6709SOL     OW21025   2.979   5.651   1.898
 6709SOL    HW121026   2.932   5.591   1.834
 6709SOL    HW221027   3.076   5.624   1.904
 6710SOL     OW21028   2.779   1.913   6.118
 6710SOL    HW121029   2.853   1.862   6.075
 6710SOL    HW221030   2.799   2.011   6.115
 6711SOL     OW21031   5.965   4.718   6.523
 6711SOL    HW121032   5.872   4.753   6.515
 6711SOL    HW221033   6.027   4.775   6.468
 6712SOL     OW21034   4.179   5.387   0.108
 6712SOL    HW121035   4.214   5.295   0.090
 6712SOL    HW221036   4.239   5.454   0.065
 6713SOL     OW21037   2.199   1.835   1.349
 6713SOL    HW121038   2.165   1.917   1.304
 6713SOL    HW221039   2.266   1.789   1.289
 6714SOL     OW21040   5.297   0.503   5.787
 6714SOL    HW121041   5.318   0.532   5.694
 6714SOL    HW221042   5.234   0.425   5.785
 6715SOL     OW21043   0.270   0.774   6.958
 6715SOL    HW121044   0.294   0.685   6.997
 6715SOL    HW221045   0.182   0.803   6.994
 6716SOL     OW21046   1.054   6.209   2.208
 6716SOL    HW121047   0.985   6.261   2.158
 6716SOL    HW221048   1.021   6.191   2.301
 6717SOL     OW21049   4.391   2.866   0.997
 6717SOL    HW121050   4.430   2.812   1.071
 6717SOL    HW221051   4.350   2.806   0.929
 6718SOL     OW21052   3.818   6.386   6.548
 6718SOL    HW121053   3.758   6.353   6.476
 6718SOL    HW221054   3.773   6.375   6.637
 6719SOL     OW21055   0.075   0.301   6.229
 6719SOL    HW121056   0.143   0.234   6.198
 6719SOL    HW221057   0.118   0.365   6.292
 6720SOL     OW21058   1.784   6.168   2.329
 6720SOL    HW121059   1.782   6.152   2.428
 6720SOL    HW221060   1.879   6.162   2.297
 6721SOL     OW21061   6.320   6.699   4.723
 6721SOL    HW121062   6.226   6.681   4.696
 6721SOL    HW221063   6.324   6.786   4.773
 6722SOL     OW21064   5.107   3.368   0.915
 6722SOL    HW121065   5.126   3.336   0.823
 6722SOL    HW221066   5.116   3.468   0.919
 6723SOL     OW21067   2.364   0.104   3.040
 6723SOL    HW121068   2.329   0.011   3.024
 6723SOL    HW221069   2.288   0.168   3.038
 6724SOL     OW21070   1.308   3.763   6.029
 6724SOL    HW121071   1.326   3.859   6.009
 6724SOL    HW221072   1.252   3.723   5.956
 6725SOL     OW21073   0.944   4.078   1.857
 6725SOL    HW121074   0.965   4.123   1.771
 6725SOL    HW221075   1.021   4.089   1.921
 6726SOL     OW21076   1.022   2.131   3.956
 6726SOL    HW121077   1.000   2.121   3.859
 6726SOL    HW221078   0.940   2.159   4.006
 6727SOL     OW21079   5.975   3.852   5.502
 6727SOL    HW121080   5.883   3.884   5.525
 6727SOL    HW221081   6.006   3.785   5.569
 6728SOL     OW21082   4.916   1.344   4.566
 6728SOL    HW121083   4.894   1.297   4.652
 6728SOL    HW221084   4.838   1.400   4.538
 6729SOL     OW21085   6.336   1.630   2.415
 6729SOL    HW121086   6.298   1.700   2.353
 6729SOL    HW221087   6.289   1.635   2.503
 6730SOL     OW21088   1.993   6.305   6.619
 6730SOL    HW121089   1.927   6.264   6.556
 6730SOL    HW221090   2.026   6.392   6.582
 6731SOL     OW21091   2.438   4.432   1.112
 6731SOL    HW121092   2.447   4.511   1.172
 6731SOL    HW221093   2.506   4.363   1.138
 6732SOL     OW21094   3.595   5.785   6.681
 6732SOL    HW121095   3.523   5.757   6.617
 6732SOL    HW221096   3.597   5.723   6.759
 6733SOL     OW21097   4.203   5.358   6.376
 6733SOL    HW121098   4.253   5.398   6.453
 6733SOL    HW221099   4.237   5.397   6.290
 6734SOL     OW21100   0.794   3.323   5.996
 6734SOL    HW121101   0.706   3.340   6.041
 6734SOL    HW221102   0.780   3.260   5.920
 6735SOL     OW21103   0.453   5.320   5.362
 6735SOL    HW121104   0.432   5.332   5.266
 6735SOL    HW221105   0.549   5.346   5.379
 6736SOL     OW21106   1.886   3.512   0.711
 6736SOL    HW121107   1.941   3.580   0.663
 6736SOL    HW221108   1.931   3.486   0.796
 6737SOL     OW21109   1.877   2.354   1.104
 6737SOL    HW121110   1.930   2.293   1.046
 6737SOL    HW221111   1.937   2.394   1.174
 6738SOL     OW21112   1.748   2.778   1.980
 6738SOL    HW121113   1.758   2.701   1.917
 6738SOL    HW221114   1.799   2.857   1.945
 6739SOL     OW21115   3.035   5.342   5.870
 6739SOL    HW121116   3.125   5.379   5.845
 6739SOL    HW221117   3.000   5.287   5.794
 6740SOL     OW21118   2.008   1.438   4.543
 6740SOL    HW121119   2.101   1.407   4.562
 6740SOL    HW221120   1.944   1.364   4.563
 6741SOL     OW21121   4.790   1.574   6.274
 6741SOL    HW121122   4.792   1.634   6.193
 6741SOL    HW221123   4.711   1.596   6.331
 6742SOL     OW21124   0.100   5.644   3.344
 6742SOL    HW121125   0.067   5.558   3.305
 6742SOL    HW221126   0.129   5.705   3.270
 6743SOL     OW21127   4.280   4.010   6.565
 6743SOL    HW121128   4.264   4.090   6.623
 6743SOL    HW221129   4.360   4.025   6.508
 6744SOL     OW21130   4.297   5.709   5.965
 6744SOL    HW121131   4.387   5.751   5.966
 6744SOL    HW221132   4.228   5.776   5.994
 6745SOL     OW21133   1.023   5.285   2.582
 6745SOL    HW121134   1.100   5.240   2.628
 6745SOL    HW221135   0.999   5.368   2.631
 6746SOL     OW21136   0.405   0.782   2.566
 6746SOL    HW121137   0.319   0.833   2.576
 6746SOL    HW221138   0.481   0.839   2.595
 6747SOL     OW21139   5.556   6.192   4.421
 6747SOL    HW121140   5.500   6.243   4.486
 6747SOL    HW221141   5.652   6.193   4.451
 6748SOL     OW21142   0.970   0.646   2.486
 6748SOL    HW121143   1.051   0.690   2.525
 6748SOL    HW221144   0.901   0.634   2.558
 6749SOL     OW21145   2.815   6.760   6.810
 6749SOL    HW121146   2.816   6.842   6.868
 6749SOL    HW221147   2.795   6.680   6.867
 6750SOL     OW21148   3.810   1.775   4.859
 6750SOL    HW121149   3.855   1.776   4.948
 6750SOL    HW221150   3.727   1.720   4.865
 6751SOL     OW21151   3.425   1.989   3.597
 6751SOL    HW121152   3.428   1.974   3.696
 6751SOL    HW221153   3.458   1.907   3.550
 6752SOL     OW21154   6.371   3.098   1.537
 6752SOL    HW121155   6.428   3.132   1.612
 6752SOL    HW221156   6.419   3.025   1.489
 6753SOL     OW21157   4.299   1.950   6.817
 6753SOL    HW121158   4.300   1.984   6.911
 6753SOL    HW221159   4.253   1.861   6.814
 6754SOL     OW21160   6.708   2.100   5.827
 6754SOL    HW121161   6.781   2.039   5.796
 6754SOL    HW221162   6.671   2.067   5.914
 6755SOL     OW21163   4.908   1.750   3.908
 6755SOL    HW121164   4.935   1.788   3.820
 6755SOL    HW221165   4.883   1.654   3.896
 6756SOL     OW21166   4.716   4.290   4.160
 6756SOL    HW121167   4.753   4.203   4.192
 6756SOL    HW221168   4.646   4.322   4.224
 6757SOL     OW21169   4.826   6.069   0.581
 6757SOL    HW121170   4.749   6.120   0.543
 6757SOL    HW221171   4.860   6.116   0.662
 6758SOL     OW21172   4.976   3.489   2.071
 6758SOL    HW121173   5.054   3.551   2.069
 6758SOL    HW221174   4.949   3.465   1.978
 6759SOL     OW21175   1.070   4.062   3.995
 6759SOL    HW121176   1.023   4.111   4.068
 6759SOL    HW221177   1.129   4.125   3.945
 6760SOL     OW21178   0.135   4.659   4.687
 6760SOL    HW121179   0.102   4.566   4.677
 6760SOL    HW221180   0.125   4.689   4.782
 6761SOL     OW21181   5.630   2.676   6.052
 6761SOL    HW121182   5.695   2.645   5.983
 6761SOL    HW221183   5.657   2.768   6.083
 6762SOL     OW21184   6.719   5.527   3.056
 6762SOL    HW121185   6.634   5.475   3.049
 6762SOL    HW221186   6.794   5.465   3.081
 6763SOL     OW21187   6.537   5.801   4.067
 6763SOL    HW121188   6.613   5.861   4.093
 6763SOL    HW221189   6.512   5.745   4.145
 6764SOL     OW21190   3.265   3.935   6.174
 6764SOL    HW121191   3.339   4.000   6.158
 6764SOL    HW221192   3.303   3.842   6.175
 6765SOL     OW21193   6.321   4.744   3.695
 6765SOL    HW121194   6.242   4.721   3.638
 6765SOL    HW221195   6.366   4.660   3.725
 6766SOL     OW21196   2.604   0.178   5.828
 6766SOL    HW121197   2.630   0.241   5.754
 6766SOL    HW221198   2.569   0.093   5.789
 6767SOL     OW21199   0.410   2.603   0.385
 6767SOL    HW121200   0.362   2.631   0.468
 6767SOL    HW221201   0.482   2.537   0.408
 6768SOL     OW21202   0.621   0.579   3.038
 6768SOL    HW121203   0.614   0.631   2.953
 6768SOL    HW221204   0.713   0.541   3.046
 6769SOL     OW21205   3.191   1.891   5.288
 6769SOL    HW121206   3.137   1.846   5.359
 6769SOL    HW221207   3.134   1.959   5.241
 6770SOL     OW21208   0.218   2.828   4.127
 6770SOL    HW121209   0.252   2.867   4.213
 6770SOL    HW221210   0.296   2.794   4.073
 6771SOL     OW21211   3.919   1.953   3.177
 6771SOL    HW121212   3.870   1.935   3.091
 6771SOL    HW221213   3.877   2.032   3.223
 6772SOL     OW21214   4.992   1.809   2.405
 6772SOL    HW121215   5.002   1.909   2.409
 6772SOL    HW221216   4.895   1.785   2.413
 6773SOL     OW21217   6.828   6.588   1.816
 6773SOL    HW121218   6.728   6.580   1.819
 6773SOL    HW221219   6.858   6.605   1.722
 6774SOL     OW21220   1.959   1.887   5.299
 6774SOL    HW121221   2.026   1.898   5.226
 6774SOL    HW221222   1.971   1.797   5.342
 6775SOL     OW21223   1.322   1.753   3.715
 6775SOL    HW121224   1.377   1.794   3.642
 6775SOL    HW221225   1.281   1.824   3.770
 6776SOL     OW21226   3.736   4.132   1.067
 6776SOL    HW121227   3.681   4.065   1.016
 6776SOL    HW221228   3.675   4.194   1.115
 6777SOL     OW21229   4.386   5.726   1.081
 6777SOL    HW121230   4.303   5.674   1.101
 6777SOL    HW221231   4.466   5.671   1.102
 6778SOL     OW21232   5.564   3.242   2.535
 6778SOL    HW121233   5.594   3.181   2.607
 6778SOL    HW221234   5.542   3.190   2.453
 6779SOL     OW21235   6.196   4.241   5.952
 6779SOL    HW121236   6.120   4.306   5.947
 6779SOL    HW221237   6.213   4.203   5.861
 6780SOL     OW21238   2.260   2.813   3.164
 6780SOL    HW121239   2.211   2.895   3.196
 6780SOL    HW221240   2.328   2.786   3.233
 6781SOL     OW21241   6.185   1.188   4.390
 6781SOL    HW121242   6.117   1.230   4.330
 6781SOL    HW221243   6.217   1.256   4.457
 6782SOL     OW21244   0.092   1.292   3.160
 6782SOL    HW121245   0.029   1.271   3.086
 6782SOL    HW221246   0.061   1.374   3.208
 6783SOL     OW21247   1.241   4.753   5.356
 6783SOL    HW121248   1.332   4.771   5.318
 6783SOL    HW221249   1.197   4.680   5.302
 6784SOL     OW21250   2.339   3.335   1.588
 6784SOL    HW121251   2.246   3.357   1.618
 6784SOL    HW221252   2.403   3.359   1.661
 6785SOL     OW21253   5.562   4.934   5.241
 6785SOL    HW121254   5.625   4.861   5.215
 6785SOL    HW221255   5.508   4.905   5.320
 6786SOL     OW21256   6.210   2.907   0.844
 6786SOL    HW121257   6.216   2.823   0.791
 6786SOL    HW221258   6.302   2.940   0.866
 6787SOL     OW21259   3.591   2.131   0.540
 6787SOL    HW121260   3.659   2.134   0.467
 6787SOL    HW221261   3.604   2.209   0.601
 6788SOL     OW21262   0.560   3.785   3.084
 6788SOL    HW121263   0.484   3.735   3.042
 6788SOL    HW221264   0.626   3.720   3.122
 6789SOL     OW21265   6.684   3.995   4.030
 6789SOL    HW121266   6.667   4.094   4.029
 6789SOL    HW221267   6.738   3.969   3.951
 6790SOL     OW21268   0.780   4.971   6.323
 6790SOL    HW121269   0.706   5.026   6.284
 6790SOL    HW221270   0.860   4.975   6.263
 6791SOL     OW21271   4.191   1.502   4.246
 6791SOL    HW121272   4.130   1.545   4.313
 6791SOL    HW221273   4.184   1.550   4.159
 6792SOL     OW21274   4.311   0.005   5.156
 6792SOL    HW121275   4.316   0.015   5.256
 6792SOL    HW221276   4.336   6.935   5.131
 6793SOL     OW21277   2.812   2.889   6.812
 6793SOL    HW121278   2.721   2.923   6.835
 6793SOL    HW221279   2.807   2.835   6.728
 6794SOL     OW21280   4.499   1.470   5.779
 6794SOL    HW121281   4.552   1.554   5.769
 6794SOL    HW221282   4.547   1.407   5.840
 6795SOL     OW21283   1.297   0.920   1.219
 6795SOL    HW121284   1.198   0.906   1.209
 6795SOL    HW221285   1.317   1.017   1.219
 6796SOL     OW21286   6.185   0.972   2.317
 6796SOL    HW121287   6.232   1.002   2.400
 6796SOL    HW221288   6.197   1.041   2.245
 6797SOL     OW21289   7.015   2.355   1.597
 6797SOL    HW121290   6.991   2.259   1.614
 6797SOL    HW221291   6.937   2.402   1.555
 6798SOL     OW21292   5.306   0.692   2.093
 6798SOL    HW121293   5.300   0.777   2.040
 6798SOL    HW221294   5.327   0.715   2.188
 6799SOL     OW21295   5.354   7.015   3.319
 6799SOL    HW121296   5.387   6.928   3.284
 6799SOL    HW221297   5.365   0.062   3.250
 6800SOL     OW21298   1.048   0.907   1.125
 6800SOL    HW121299   1.003   0.840   1.066
 6800SOL    HW221300   0.980   0.968   1.166
 6801SOL     OW21301   1.322   6.556   4.748
 6801SOL    HW121302   1.313   6.470   4.798
 6801SOL    HW221303   1.414   6.593   4.762
 6802SOL     OW21304   3.166   5.804   1.673
 6802SOL    HW121305   3.225   5.726   1.652
 6802SOL    HW221306   3.203   5.853   1.753
 6803SOL     OW21307   5.028   4.811   0.280
 6803SOL    HW121308   4.936   4.831   0.247
 6803SOL    HW221309   5.077   4.759   0.211
 6804SOL     OW21310   2.627   4.806   2.910
 6804SOL    HW121311   2.701   4.789   2.844
 6804SOL    HW221312   2.654   4.772   3.000
 6805SOL     OW21313   0.274   5.089   5.868
 6805SOL    HW121314   0.349   5.152   5.886
 6805SOL    HW221315   0.238   5.054   5.955
 6806SOL     OW21316   6.592   0.767   3.468
 6806SOL    HW121317   6.653   0.838   3.505
 6806SOL    HW221318   6.498   0.787   3.494
 6807SOL     OW21319   3.271   3.919   2.902
 6807SOL    HW121320   3.212   3.865   2.963
 6807SOL    HW221321   3.280   4.011   2.939
 6808SOL     OW21322   4.564   1.414   5.229
 6808SOL    HW121323   4.480   1.465   5.211
 6808SOL    HW221324   4.636   1.477   5.258
 6809SOL     OW21325   5.565   4.577   2.111
 6809SOL    HW121326   5.482   4.629   2.133
 6809SOL    HW221327   5.539   4.486   2.077
 6810SOL     OW21328   2.851   1.165   3.490
 6810SOL    HW121329   2.928   1.112   3.525
 6810SOL    HW221330   2.874   1.203   3.401
 6811SOL     OW21331   5.873   1.799   2.298
 6811SOL    HW121332   5.813   1.831   2.372
 6811SOL    HW221333   5.952   1.751   2.338
 6812SOL     OW21334   3.049   3.620   5.305
 6812SOL    HW121335   2.999   3.687   5.249
 6812SOL    HW221336   2.985   3.551   5.338
 6813SOL     OW21337   5.115   3.390   1.210
 6813SOL    HW121338   5.191   3.446   1.241
 6813SOL    HW221339   5.132   3.294   1.235
 6814SOL     OW21340   4.030   1.594   6.276
 6814SOL    HW121341   4.022   1.499   6.245
 6814SOL    HW221342   4.026   1.596   6.376
 6815SOL     OW21343   2.105   5.330   6.686
 6815SOL    HW121344   2.026   5.373   6.642
 6815SOL    HW221345   2.149   5.268   6.622
 6816SOL     OW21346   0.442   2.290   4.187
 6816SOL    HW121347   0.446   2.390   4.191
 6816SOL    HW221348   0.360   2.259   4.235
 6817SOL     OW21349   2.986   2.181   2.626
 6817SOL    HW121350   3.078   2.220   2.633
 6817SOL    HW221351   2.919   2.246   2.662
 6818SOL     OW21352   2.263   6.246   6.021
 6818SOL    HW121353   2.356   6.280   6.009
 6818SOL    HW221354   2.229   6.210   5.935
 6819SOL     OW21355   4.788   4.769   3.261
 6819SOL    HW121356   4.766   4.680   3.301
 6819SOL    HW221357   4.724   4.788   3.186
 6820SOL     OW21358   1.808   6.189   1.559
 6820SOL    HW121359   1.908   6.200   1.554
 6820SOL    HW221360   1.773   6.239   1.638
 6821SOL     OW21361   4.352   2.744   5.303
 6821SOL    HW121362   4.417   2.680   5.344
 6821SOL    HW221363   4.288   2.693   5.245
 6822SOL     OW21364   0.022   2.703   6.289
 6822SOL    HW121365   0.115   2.739   6.293
 6822SOL    HW221366   6.989   2.766   6.236
 6823SOL     OW21367   5.655   3.473   6.696
 6823SOL    HW121368   5.651   3.571   6.676
 6823SOL    HW221369   5.748   3.447   6.721
 6824SOL     OW21370   1.491   1.606   6.802
 6824SOL    HW121371   1.563   1.666   6.835
 6824SOL    HW221372   1.529   1.515   6.784
 6825SOL     OW21373   7.024   5.933   1.350
 6825SOL    HW121374   0.087   5.953   1.304
 6825SOL    HW221375   6.998   5.838   1.332
 6826SOL     OW21376   1.363   3.346   3.336
 6826SOL    HW121377   1.451   3.339   3.382
 6826SOL    HW221378   1.365   3.421   3.271
 6827SOL     OW21379   4.506   5.584   5.156
 6827SOL    HW121380   4.443   5.516   5.192
 6827SOL    HW221381   4.520   5.569   5.058
 6828SOL     OW21382   3.893   1.365   2.954
 6828SOL    HW121383   3.861   1.348   3.047
 6828SOL    HW221384   3.988   1.335   2.946
 6829SOL     OW21385   4.865   6.435   4.891
 6829SOL    HW121386   4.954   6.420   4.848
 6829SOL    HW221387   4.868   6.407   4.986
 6830SOL     OW21388   5.733   0.694   3.057
 6830SOL    HW121389   5.686   0.778   3.086
 6830SOL    HW221390   5.775   0.709   2.968
 6831SOL     OW21391   1.517   1.463   5.693
 6831SOL    HW121392   1.438   1.413   5.658
 6831SOL    HW221393   1.600   1.429   5.648
 6832SOL     OW21394   3.044   2.013   0.754
 6832SOL    HW121395   2.986   2.094   0.763
 6832SOL    HW221396   3.089   1.994   0.842
 6833SOL     OW21397   3.145   5.325   6.120
 6833SOL    HW121398   3.102   5.303   6.033
 6833SOL    HW221399   3.224   5.266   6.134
 6834SOL     OW21400   5.030   0.077   0.616
 6834SOL    HW121401   5.090   0.134   0.560
 6834SOL    HW221402   4.936   0.113   0.611
 6835SOL     OW21403   3.417   2.052   4.071
 6835SOL    HW121404   3.446   2.092   4.158
 6835SOL    HW221405   3.319   2.069   4.057
 6836SOL     OW21406   2.088   4.923   6.498
 6836SOL    HW121407   2.148   4.853   6.537
 6836SOL    HW221408   2.060   4.895   6.406
 6837SOL     OW21409   0.877   0.537   2.093
 6837SOL    HW121410   0.799   0.597   2.111
 6837SOL    HW221411   0.906   0.494   2.178
 6838SOL     OW21412   2.634   4.463   5.269
 6838SOL    HW121413   2.564   4.468   5.197
 6838SOL    HW221414   2.720   4.500   5.234
 6839SOL     OW21415   5.452   2.086   3.919
 6839SOL    HW121416   5.494   2.037   3.995
 6839SOL    HW221417   5.424   2.177   3.950
 6840SOL     OW21418   2.378   6.294   4.360
 6840SOL    HW121419   2.448   6.225   4.341
 6840SOL    HW221420   2.385   6.367   4.293
 6841SOL     OW21421   3.836   5.912   2.155
 6841SOL    HW121422   3.874   6.005   2.159
 6841SOL    HW221423   3.787   5.892   2.240
 6842SOL     OW21424   0.681   3.254   6.935
 6842SOL    HW121425   0.659   3.350   6.953
 6842SOL    HW221426   0.732   3.247   6.849
 6843SOL     OW21427   4.490   2.295   2.003
 6843SOL    HW121428   4.523   2.381   1.963
 6843SOL    HW221429   4.443   2.315   2.089
 6844SOL     OW21430   4.560   5.229   4.475
 6844SOL    HW121431   4.505   5.155   4.438
 6844SOL    HW221432   4.560   5.306   4.411
 6845SOL     OW21433   4.502   4.750   2.773
 6845SOL    HW121434   4.540   4.747   2.681
 6845SOL    HW221435   4.405   4.774   2.767
 6846SOL     OW21436   3.442   3.126   2.164
 6846SOL    HW121437   3.446   3.210   2.109
 6846SOL    HW221438   3.446   3.149   2.261
 6847SOL     OW21439   5.138   3.511   1.778
 6847SOL    HW121440   5.202   3.443   1.743
 6847SOL    HW221441   5.046   3.491   1.746
 6848SOL     OW21442   0.592   5.473   4.415
 6848SOL    HW121443   0.610   5.417   4.496
 6848SOL    HW221444   0.494   5.491   4.409
 6849SOL     OW21445   3.611   5.756   3.942
 6849SOL    HW121446   3.670   5.677   3.928
 6849SOL    HW221447   3.516   5.726   3.951
 6850SOL     OW21448   5.614   1.868   3.796
 6850SOL    HW121449   5.658   1.802   3.736
 6850SOL    HW221450   5.563   1.934   3.742
 6851SOL     OW21451   0.846   5.204   5.987
 6851SOL    HW121452   0.940   5.238   5.993
 6851SOL    HW221453   0.834   5.126   6.047
 6852SOL     OW21454   0.873   4.096   1.315
 6852SOL    HW121455   0.960   4.118   1.359
 6852SOL    HW221456   0.801   4.088   1.385
 6853SOL     OW21457   0.794   5.761   5.977
 6853SOL    HW121458   0.769   5.849   6.016
 6853SOL    HW221459   0.889   5.765   5.945
 6854SOL     OW21460   6.555   1.784   5.851
 6854SOL    HW121461   6.638   1.808   5.801
 6854SOL    HW221462   6.573   1.787   5.949
 6855SOL     OW21463   4.341   0.134   3.128
 6855SOL    HW121464   4.271   0.072   3.092
 6855SOL    HW221465   4.309   0.228   3.122
 6856SOL     OW21466   6.727   3.815   4.549
 6856SOL    HW121467   6.796   3.887   4.542
 6856SOL    HW221468   6.757   3.735   4.498
 6857SOL     OW21469   3.320   1.536   6.485
 6857SOL    HW121470   3.376   1.489   6.417
 6857SOL    HW221471   3.367   1.619   6.516
 6858SOL     OW21472   4.073   3.669   4.690
 6858SOL    HW121473   4.013   3.748   4.692
 6858SOL    HW221474   4.106   3.654   4.597
 6859SOL     OW21475   2.488   6.697   0.639
 6859SOL    HW121476   2.472   6.680   0.542
 6859SOL    HW221477   2.497   6.610   0.688
 6860SOL     OW21478   5.227   4.745   1.227
 6860SOL    HW121479   5.293   4.737   1.301
 6860SOL    HW221480   5.156   4.675   1.237
 6861SOL     OW21481   5.769   5.578   0.301
 6861SOL    HW121482   5.706   5.511   0.339
 6861SOL    HW221483   5.860   5.567   0.343
 6862SOL     OW21484   3.151   4.913   4.696
 6862SOL    HW121485   3.126   4.836   4.754
 6862SOL    HW221486   3.079   4.983   4.700
 6863SOL     OW21487   6.473   1.329   4.248
 6863SOL    HW121488   6.384   1.292   4.276
 6863SOL    HW221489   6.492   1.300   4.154
 6864SOL     OW21490   2.902   5.668   3.301
 6864SOL    HW121491   2.886   5.757   3.258
 6864SOL    HW221492   2.922   5.681   3.398
 6865SOL     OW21493   6.540   4.071   4.321
 6865SOL    HW121494   6.510   4.031   4.235
 6865SOL    HW221495   6.539   4.002   4.393
 6866SOL     OW21496   6.896   3.946   1.731
 6866SOL    HW121497   6.913   3.854   1.696
 6866SOL    HW221498   6.798   3.961   1.740
 6867SOL     OW21499   1.725   4.229   1.775
 6867SOL    HW121500   1.804   4.176   1.805
 6867SOL    HW221501   1.729   4.240   1.675
 6868SOL     OW21502   1.696   6.464   4.915
 6868SOL    HW121503   1.642   6.380   4.902
 6868SOL    HW221504   1.684   6.525   4.837
 6869SOL     OW21505   5.855   2.913   4.822
 6869SOL    HW121506   5.929   2.848   4.836
 6869SOL    HW221507   5.885   3.004   4.849
 6870SOL     OW21508   5.534   3.560   3.353
 6870SOL    HW121509   5.584   3.488   3.305
 6870SOL    HW221510   5.570   3.649   3.326
 6871SOL     OW21511   6.102   4.513   1.744
 6871SOL    HW121512   6.199   4.497   1.760
 6871SOL    HW221513   6.054   4.425   1.739
 6872SOL     OW21514   1.433   3.421   0.999
 6872SOL    HW121515   1.385   3.350   1.049
 6872SOL    HW221516   1.468   3.490   1.063
 6873SOL     OW21517   5.603   2.897   5.631
 6873SOL    HW121518   5.608   2.928   5.536
 6873SOL    HW221519   5.583   2.799   5.633
 6874SOL     OW21520   6.979   3.521   3.847
 6874SOL    HW121521   6.986   3.603   3.790
 6874SOL    HW221522   7.000   3.440   3.793
 6875SOL     OW21523   1.478   1.413   2.780
 6875SOL    HW121524   1.552   1.349   2.758
 6875SOL    HW221525   1.514   1.506   2.783
 6876SOL     OW21526   3.443   5.724   6.445
 6876SOL    HW121527   3.491   5.694   6.363
 6876SOL    HW221528   3.357   5.673   6.453
 6877SOL     OW21529   2.088   4.303   6.812
 6877SOL    HW121530   2.001   4.343   6.786
 6877SOL    HW221531   2.115   4.335   6.903
 6878SOL     OW21532   2.477   1.723   5.740
 6878SOL    HW121533   2.557   1.711   5.799
 6878SOL    HW221534   2.421   1.640   5.742
 6879SOL     OW21535   0.130   1.967   0.351
 6879SOL    HW121536   0.137   1.985   0.449
 6879SOL    HW221537   0.178   1.882   0.329
 6880SOL     OW21538   2.121   3.790   4.939
 6880SOL    HW121539   2.187   3.863   4.956
 6880SOL    HW221540   2.108   3.736   5.022
 6881SOL     OW21541   0.200   4.354   1.349
 6881SOL    HW121542   0.220   4.256   1.338
 6881SOL    HW221543   0.240   4.405   1.273
 6882SOL     OW21544   2.054   0.645   4.818
 6882SOL    HW121545   1.992   0.569   4.798
 6882SOL    HW221546   2.011   0.707   4.884
 6883SOL     OW21547   3.910   6.994   0.758
 6883SOL    HW121548   3.913   6.971   0.855
 6883SOL    HW221549   3.986   0.031   0.736
 6884SOL     OW21550   2.246   4.365   4.623
 6884SOL    HW121551   2.221   4.269   4.619
 6884SOL    HW221552   2.331   4.376   4.676
 6885SOL     OW21553   2.915   5.962   3.308
 6885SOL    HW121554   2.936   6.039   3.247
 6885SOL    HW221555   2.967   5.972   3.392
 6886SOL     OW21556   5.063   1.370   2.458
 6886SOL    HW121557   5.072   1.287   2.402
 6886SOL    HW221558   4.972   1.373   2.499
 6887SOL     OW21559   5.352   0.108   5.008
 6887SOL    HW121560   5.316   0.115   5.101
 6887SOL    HW221561   5.427   0.174   4.996
 6888SOL     OW21562   6.063   0.059   5.346
 6888SOL    HW121563   6.083   0.146   5.391
 6888SOL    HW221564   6.101   7.008   5.401
 6889SOL     OW21565   0.789   2.844   5.687
 6889SOL    HW121566   0.818   2.904   5.612
 6889SOL    HW221567   0.731   2.771   5.651
 6890SOL     OW21568   2.282   0.113   0.735
 6890SOL    HW121569   2.382   0.124   0.739
 6890SOL    HW221570   2.247   0.094   0.827
 6891SOL     OW21571   2.148   3.501   4.797
 6891SOL    HW121572   2.227   3.555   4.767
 6891SOL    HW221573   2.081   3.496   4.723
 6892SOL     OW21574   4.067   0.346   4.073
 6892SOL    HW121575   4.153   0.394   4.056
 6892SOL    HW221576   3.991   0.411   4.065
 6893SOL     OW21577   5.580   5.826   2.755
 6893SOL    HW121578   5.629   5.796   2.673
 6893SOL    HW221579   5.645   5.854   2.825
 6894SOL     OW21580   6.042   5.643   0.386
 6894SOL    HW121581   6.047   5.728   0.439
 6894SOL    HW221582   6.110   5.645   0.313
 6895SOL     OW21583   3.163   4.582   0.014
 6895SOL    HW121584   3.147   4.638   6.956
 6895SOL    HW221585   3.087   4.594   0.078
 6896SOL     OW21586   3.546   0.645   4.089
 6896SOL    HW121587   3.448   0.665   4.085
 6896SOL    HW221588   3.594   0.722   4.133
 6897SOL     OW21589   2.802   3.359   0.309
 6897SOL    HW121590   2.882   3.333   0.256
 6897SOL    HW221591   2.809   3.454   0.337
 6898SOL     OW21592   4.348   1.099   1.596
 6898SOL    HW121593   4.413   1.140   1.532
 6898SOL    HW221594   4.279   1.166   1.621
 6899SOL     OW21595   5.186   6.898   6.484
 6899SOL    HW121596   5.214   6.842   6.406
 6899SOL    HW221597   5.097   6.865   6.517
 6900SOL     OW21598   5.840   0.534   6.116
 6900SOL    HW121599   5.790   0.564   6.035
 6900SOL    HW221600   5.781   0.480   6.174
 6901SOL     OW21601   0.197   0.198   6.548
 6901SOL    HW121602   0.135   0.122   6.567
 6901SOL    HW221603   0.158   0.255   6.475
 6902SOL     OW21604   0.811   0.129   0.082
 6902SOL    HW121605   0.810   0.203   0.014
 6902SOL    HW221606   0.883   0.064   0.060
 6903SOL     OW21607   3.857   3.544   0.334
 6903SOL    HW121608   3.790   3.490   0.284
 6903SOL    HW221609   3.822   3.565   0.426
 6904SOL     OW21610   6.709   1.298   3.550
 6904SOL    HW121611   6.730   1.201   3.564
 6904SOL    HW221612   6.619   1.318   3.591
 6905SOL     OW21613   6.035   6.757   0.610
 6905SOL    HW121614   6.056   6.729   0.704
 6905SOL    HW221615   5.957   6.820   0.611
 6906SOL     OW21616   3.819   0.906   4.538
 6906SOL    HW121617   3.724   0.935   4.535
 6906SOL    HW221618   3.877   0.976   4.495
 6907SOL     OW21619   3.951   1.104   0.835
 6907SOL    HW121620   4.013   1.139   0.764
 6907SOL    HW221621   3.887   1.176   0.861
 6908SOL     OW21622   0.803   0.237   5.463
 6908SOL    HW121623   0.723   0.252   5.404
 6908SOL    HW221624   0.780   0.266   5.557
 6909SOL     OW21625   4.300   4.863   0.826
 6909SOL    HW121626   4.397   4.870   0.851
 6909SOL    HW221627   4.248   4.827   0.903
 6910SOL     OW21628   6.221   1.713   2.653
 6910SOL    HW121629   6.187   1.805   2.635
 6910SOL    HW221630   6.306   1.719   2.706
 6911SOL     OW21631   4.345   0.178   3.672
 6911SOL    HW121632   4.291   0.106   3.630
 6911SOL    HW221633   4.424   0.139   3.719
 6912SOL     OW21634   4.759   4.777   1.585
 6912SOL    HW121635   4.744   4.752   1.489
 6912SOL    HW221636   4.785   4.696   1.637
 6913SOL     OW21637   5.056   4.321   4.745
 6913SOL    HW121638   4.972   4.268   4.749
 6913SOL    HW221639   5.067   4.360   4.654
 6914SOL     OW21640   5.964   5.215   6.890
 6914SOL    HW121641   5.870   5.191   6.913
 6914SOL    HW221642   5.988   5.172   6.803
 6915SOL     OW21643   0.556   4.451   2.382
 6915SOL    HW121644   0.518   4.470   2.473
 6915SOL    HW221645   0.611   4.367   2.386
 6916SOL     OW21646   6.559   4.382   6.683
 6916SOL    HW121647   6.482   4.408   6.623
 6916SOL    HW221648   6.605   4.302   6.645
 6917SOL     OW21649   4.777   5.773   6.090
 6917SOL    HW121650   4.696   5.822   6.120
 6917SOL    HW221651   4.754   5.677   6.072
 6918SOL     OW21652   0.470   3.912   4.231
 6918SOL    HW121653   0.433   4.001   4.256
 6918SOL    HW221654   0.560   3.900   4.272
 6919SOL     OW21655   1.959   5.298   2.441
 6919SOL    HW121656   1.913   5.385   2.425
 6919SOL    HW221657   1.908   5.225   2.396
 6920SOL     OW21658   5.255   5.405   5.421
 6920SOL    HW121659   5.219   5.498   5.433
 6920SOL    HW221660   5.237   5.375   5.328
 6921SOL     OW21661   6.155   5.730   3.622
 6921SOL    HW121662   6.169   5.631   3.628
 6921SOL    HW221663   6.136   5.755   3.527
 6922SOL     OW21664   1.779   6.185   0.174
 6922SOL    HW121665   1.746   6.276   0.147
 6922SOL    HW221666   1.873   6.172   0.142
 6923SOL     OW21667   4.078   6.481   4.117
 6923SOL    HW121668   4.103   6.474   4.214
 6923SOL    HW221669   4.104   6.396   4.070
 6924SOL     OW21670   0.682   3.858   0.225
 6924SOL    HW121671   0.740   3.777   0.210
 6924SOL    HW221672   0.588   3.837   0.200
 6925SOL     OW21673   3.928   6.200   3.849
 6925SOL    HW121674   3.923   6.256   3.766
 6925SOL    HW221675   3.906   6.105   3.827
 6926SOL     OW21676   3.713   4.093   3.239
 6926SOL    HW121677   3.676   4.170   3.188
 6926SOL    HW221678   3.772   4.038   3.180
 6927SOL     OW21679   5.032   4.098   5.903
 6927SOL    HW121680   5.128   4.125   5.912
 6927SOL    HW221681   5.007   4.039   5.980
 6928SOL     OW21682   4.494   0.183   6.684
 6928SOL    HW121683   4.593   0.196   6.676
 6928SOL    HW221684   4.450   0.208   6.598
 6929SOL     OW21685   4.361   6.346   7.005
 6929SOL    HW121686   4.460   6.361   6.994
 6929SOL    HW221687   4.339   6.253   6.977
 6930SOL     OW21688   0.411   6.675   2.417
 6930SOL    HW121689   0.392   6.577   2.406
 6930SOL    HW221690   0.347   6.728   2.361
 6931SOL     OW21691   0.643   0.144   1.706
 6931SOL    HW121692   0.571   0.089   1.663
 6931SOL    HW221693   0.636   0.137   1.805
 6932SOL     OW21694   2.973   1.043   0.068
 6932SOL    HW121695   3.010   1.134   0.085
 6932SOL    HW221696   2.883   1.051   0.025
 6933SOL     OW21697   3.749   5.495   5.061
 6933SOL    HW121698   3.689   5.422   5.093
 6933SOL    HW221699   3.770   5.481   4.964
 6934SOL     OW21700   5.557   3.379   6.413
 6934SOL    HW121701   5.483   3.447   6.407
 6934SOL    HW221702   5.580   3.364   6.509
 6935SOL     OW21703   4.409   6.179   3.203
 6935SOL    HW121704   4.386   6.264   3.250
 6935SOL    HW221705   4.495   6.190   3.153
 6936SOL     OW21706   0.180   1.745   2.193
 6936SOL    HW121707   0.151   1.793   2.275
 6936SOL    HW221708   0.156   1.648   2.200
 6937SOL     OW21709   4.743   6.381   6.683
 6937SOL    HW121710   4.727   6.447   6.610
 6937SOL    HW221711   4.690   6.298   6.666
 6938SOL     OW21712   4.886   3.816   5.445
 6938SOL    HW121713   4.807   3.807   5.506
 6938SOL    HW221714   4.855   3.813   5.350
 6939SOL     OW21715   0.282   4.777   2.630
 6939SOL    HW121716   0.201   4.719   2.642
 6939SOL    HW221717   0.265   4.843   2.556
 6940SOL     OW21718   4.855   0.786   0.684
 6940SOL    HW121719   4.931   0.789   0.620
 6940SOL    HW221720   4.769   0.795   0.634
 6941SOL     OW21721   4.111   3.568   1.749
 6941SOL    HW121722   4.152   3.659   1.748
 6941SOL    HW221723   4.182   3.499   1.761
 6942SOL     OW21724   0.233   2.893   1.026
 6942SOL    HW121725   0.304   2.955   0.993
 6942SOL    HW221726   0.244   2.804   0.981
 6943SOL     OW21727   4.928   6.715   6.143
 6943SOL    HW121728   5.016   6.701   6.097
 6943SOL    HW221729   4.926   6.807   6.182
 6944SOL     OW21730   1.394   5.800   5.243
 6944SOL    HW121731   1.486   5.840   5.242
 6944SOL    HW221732   1.326   5.873   5.232
 6945SOL     OW21733   6.257   3.390   6.752
 6945SOL    HW121734   6.307   3.327   6.692
 6945SOL    HW221735   6.177   3.426   6.704
 6946SOL     OW21736   5.770   4.947   2.443
 6946SOL    HW121737   5.746   4.866   2.390
 6946SOL    HW221738   5.703   4.960   2.516
 6947SOL     OW21739   4.038   6.919   3.752
 6947SOL    HW121740   3.998   6.853   3.815
 6947SOL    HW221741   4.130   6.943   3.784
 6948SOL     OW21742   5.120   0.509   0.455
 6948SOL    HW121743   5.037   0.452   0.456
 6948SOL    HW221744   5.201   0.450   0.452
 6949SOL     OW21745   4.925   5.979   3.105
 6949SOL    HW121746   4.958   6.022   3.021
 6949SOL    HW221747   4.828   5.955   3.094
 6950SOL     OW21748   2.475   0.401   3.022
 6950SOL    HW121749   2.570   0.369   3.028
 6950SOL    HW221750   2.450   0.448   3.107
 6951SOL     OW21751   6.194   6.549   5.849
 6951SOL    HW121752   6.242   6.628   5.809
 6951SOL    HW221753   6.249   6.467   5.834
 6952SOL     OW21754   6.838   5.117   3.217
 6952SOL    HW121755   6.835   5.217   3.215
 6952SOL    HW221756   6.898   5.084   3.144
 6953SOL     OW21757   5.452   0.946   5.556
 6953SOL    HW121758   5.426   1.013   5.626
 6953SOL    HW221759   5.372   0.892   5.530
 6954SOL     OW21760   0.606   3.561   3.587
 6954SOL    HW121761   0.695   3.519   3.571
 6954SOL    HW221762   0.607   3.610   3.674
 6955SOL     OW21763   6.706   0.127   2.044
 6955SOL    HW121764   6.776   0.153   1.978
 6955SOL    HW221765   6.663   0.209   2.082
 6956SOL     OW21766   4.472   5.870   2.442
 6956SOL    HW121767   4.493   5.947   2.382
 6956SOL    HW221768   4.400   5.814   2.401
 6957SOL     OW21769   0.160   4.776   1.341
 6957SOL    HW121770   0.210   4.736   1.419
 6957SOL    HW221771   0.065   4.745   1.342
 6958SOL     OW21772   2.485   2.367   6.142
 6958SOL    HW121773   2.516   2.357   6.237
 6958SOL    HW221774   2.555   2.415   6.089
 6959SOL     OW21775   2.316   0.998   5.011
 6959SOL    HW121776   2.266   0.913   4.994
 6959SOL    HW221777   2.284   1.038   5.096
 6960SOL     OW21778   0.564   5.320   0.427
 6960SOL    HW121779   0.579   5.336   0.329
 6960SOL    HW221780   0.640   5.268   0.465
 6961SOL     OW21781   0.668   2.298   3.553
 6961SOL    HW121782   0.659   2.226   3.621
 6961SOL    HW221783   0.578   2.323   3.518
 6962SOL     OW21784   5.752   4.677   3.269
 6962SOL    HW121785   5.752   4.674   3.369
 6962SOL    HW221786   5.676   4.733   3.237
 6963SOL     OW21787   0.386   5.669   1.171
 6963SOL    HW121788   0.426   5.652   1.261
 6963SOL    HW221789   0.447   5.635   1.100
 6964SOL     OW21790   4.708   4.984   5.169
 6964SOL    HW121791   4.646   5.060   5.192
 6964SOL    HW221792   4.788   4.988   5.229
 6965SOL     OW21793   6.799   3.506   6.279
 6965SOL    HW121794   6.790   3.524   6.181
 6965SOL    HW221795   6.874   3.561   6.316
 6966SOL     OW21796   5.785   2.718   2.620
 6966SOL    HW121797   5.693   2.737   2.587
 6966SOL    HW221798   5.815   2.792   2.681
 6967SOL     OW21799   1.710   1.725   5.329
 6967SOL    HW121800   1.680   1.721   5.425
 6967SOL    HW221801   1.773   1.801   5.317
 6968SOL     OW21802   3.949   6.532   1.043
 6968SOL    HW121803   3.861   6.548   1.088
 6968SOL    HW221804   3.941   6.454   0.981
 6969SOL     OW21805   3.714   1.759   2.010
 6969SOL    HW121806   3.700   1.842   1.955
 6969SOL    HW221807   3.634   1.699   2.001
 6970SOL     OW21808   3.913   3.926   0.601
 6970SOL    HW121809   3.909   3.861   0.677
 6970SOL    HW221810   3.970   3.888   0.528
 6971SOL     OW21811   6.667   3.209   2.084
 6971SOL    HW121812   6.742   3.273   2.099
 6971SOL    HW221813   6.704   3.115   2.083
 6972SOL     OW21814   5.902   4.469   4.529
 6972SOL    HW121815   5.805   4.454   4.546
 6972SOL    HW221816   5.925   4.564   4.547
 6973SOL     OW21817   1.690   4.767   4.707
 6973SOL    HW121818   1.640   4.707   4.768
 6973SOL    HW221819   1.733   4.840   4.760
 6974SOL     OW21820   4.074   3.497   3.535
 6974SOL    HW121821   4.099   3.401   3.544
 6974SOL    HW221822   4.006   3.521   3.604
 6975SOL     OW21823   3.196   6.656   5.450
 6975SOL    HW121824   3.132   6.703   5.389
 6975SOL    HW221825   3.167   6.668   5.545
 6976SOL     OW21826   3.736   4.721   6.628
 6976SOL    HW121827   3.749   4.791   6.698
 6976SOL    HW221828   3.653   4.669   6.648
 6977SOL     OW21829   5.447   2.189   1.838
 6977SOL    HW121830   5.513   2.136   1.785
 6977SOL    HW221831   5.355   2.172   1.804
 6978SOL     OW21832   6.521   0.704   1.861
 6978SOL    HW121833   6.585   0.693   1.937
 6978SOL    HW221834   6.523   0.799   1.830
 6979SOL     OW21835   1.424   5.605   2.209
 6979SOL    HW121836   1.435   5.525   2.150
 6979SOL    HW221837   1.370   5.675   2.162
 6980SOL     OW21838   2.131   0.736   3.726
 6980SOL    HW121839   2.080   0.816   3.696
 6980SOL    HW221840   2.121   0.663   3.659
 6981SOL     OW21841   2.481   4.078   6.730
 6981SOL    HW121842   2.544   4.103   6.656
 6981SOL    HW221843   2.517   3.998   6.778
 6982SOL     OW21844   1.408   1.509   3.751
 6982SOL    HW121845   1.384   1.606   3.742
 6982SOL    HW221846   1.504   1.501   3.778
 6983SOL     OW21847   0.122   1.026   3.857
 6983SOL    HW121848   0.181   1.104   3.877
 6983SOL    HW221849   0.175   0.941   3.860
 6984SOL     OW21850   2.856   1.759   5.135
 6984SOL    HW121851   2.840   1.743   5.232
 6984SOL    HW221852   2.830   1.853   5.112
 6985SOL     OW21853   3.622   5.469   2.664
 6985SOL    HW121854   3.537   5.519   2.648
 6985SOL    HW221855   3.671   5.459   2.577
 6986SOL     OW21856   2.136   6.175   5.803
 6986SOL    HW121857   2.114   6.106   5.734
 6986SOL    HW221858   2.075   6.253   5.792
 6987SOL     OW21859   0.478   1.785   5.909
 6987SOL    HW121860   0.560   1.771   5.966
 6987SOL    HW221861   0.417   1.706   5.918
 6988SOL     OW21862   6.137   1.185   4.831
 6988SOL    HW121863   6.103   1.116   4.894
 6988SOL    HW221864   6.080   1.267   4.837
 6989SOL     OW21865   1.032   1.996   3.443
 6989SOL    HW121866   0.989   1.907   3.426
 6989SOL    HW221867   1.097   2.017   3.371
 6990SOL     OW21868   5.080   1.836   0.336
 6990SOL    HW121869   5.090   1.934   0.351
 6990SOL    HW221870   5.123   1.811   0.249
 6991SOL     OW21871   2.632   4.679   4.819
 6991SOL    HW121872   2.540   4.683   4.858
 6991SOL    HW221873   2.697   4.651   4.890
 6992SOL     OW21874   5.645   5.774   5.143
 6992SOL    HW121875   5.611   5.862   5.111
 6992SOL    HW221876   5.731   5.752   5.098
 6993SOL     OW21877   5.728   6.424   2.989
 6993SOL    HW121878   5.810   6.436   3.044
 6993SOL    HW221879   5.704   6.327   2.985
 6994SOL     OW21880   0.555   3.577   5.081
 6994SOL    HW121881   0.564   3.521   5.163
 6994SOL    HW221882   0.529   3.519   5.004
 6995SOL     OW21883   6.406   5.128   4.753
 6995SOL    HW121884   6.480   5.064   4.775
 6995SOL    HW221885   6.403   5.142   4.654
 6996SOL     OW21886   2.654   0.999   5.236
 6996SOL    HW121887   2.648   1.064   5.160
 6996SOL    HW221888   2.729   1.024   5.296
 6997SOL     OW21889   4.708   6.275   5.682
 6997SOL    HW121890   4.669   6.189   5.647
 6997SOL    HW221891   4.758   6.320   5.609
 6998SOL     OW21892   1.877   3.103   1.534
 6998SOL    HW121893   1.962   3.097   1.482
 6998SOL    HW221894   1.888   3.170   1.607
 6999SOL     OW21895   2.590   1.688   0.033
 6999SOL    HW121896   2.498   1.656   0.058
 6999SOL    HW221897   2.593   1.787   0.040
 7000SOL     OW21898   6.942   6.321   2.707
 7000SOL    HW121899   6.927   6.416   2.734
 7000SOL    HW221900   6.888   6.260   2.765
 7001SOL     OW21901   2.703   2.544   6.049
 7001SOL    HW121902   2.706   2.510   5.956
 7001SOL    HW221903   2.707   2.644   6.048
 7002SOL     OW21904   2.352   4.652   3.758
 7002SOL    HW121905   2.365   4.588   3.682
 7002SOL    HW221906   2.297   4.730   3.727
 7003SOL     OW21907   2.887   7.005   6.889
 7003SOL    HW121908   2.861   0.078   6.885
 7003SOL    HW221909   2.981   6.995   6.857
 7004SOL     OW21910   2.047   4.293   1.946
 7004SOL    HW121911   2.045   4.365   1.877
 7004SOL    HW221912   2.000   4.212   1.911
 7005SOL     OW21913   0.208   5.833   5.511
 7005SOL    HW121914   0.231   5.746   5.469
 7005SOL    HW221915   0.119   5.827   5.556
 7006SOL     OW21916   5.051   4.656   4.754
 7006SOL    HW121917   4.985   4.660   4.829
 7006SOL    HW221918   5.069   4.560   4.731
 7007SOL     OW21919   5.222   6.687   3.312
 7007SOL    HW121920   5.169   6.769   3.333
 7007SOL    HW221921   5.208   6.662   3.216
 7008SOL     OW21922   2.383   5.148   3.900
 7008SOL    HW121923   2.331   5.172   3.982
 7008SOL    HW221924   2.413   5.053   3.906
 7009SOL     OW21925   6.340   4.909   2.180
 7009SOL    HW121926   6.346   4.919   2.081
 7009SOL    HW221927   6.408   4.968   2.224
 7010SOL     OW21928   4.371   4.765   5.731
 7010SOL    HW121929   4.446   4.704   5.704
 7010SOL    HW221930   4.322   4.724   5.808
 7011SOL     OW21931   1.367   0.030   6.219
 7011SOL    HW121932   1.465   0.038   6.236
 7011SOL    HW221933   1.350   0.035   6.120
 7012SOL     OW21934   1.750   1.009   2.044
 7012SOL    HW121935   1.738   0.917   2.007
 7012SOL    HW221936   1.766   1.074   1.969
 7013SOL     OW21937   0.830   6.873   0.784
 7013SOL    HW121938   0.808   6.866   0.687
 7013SOL    HW221939   0.925   6.846   0.798
 7014SOL     OW21940   4.624   4.285   1.299
 7014SOL    HW121941   4.581   4.350   1.363
 7014SOL    HW221942   4.557   4.217   1.270
 7015SOL     OW21943   5.631   3.415   2.135
 7015SOL    HW121944   5.697   3.342   2.152
 7015SOL    HW221945   5.615   3.466   2.219
 7016SOL     OW21946   4.008   4.892   2.675
 7016SOL    HW121947   3.938   4.928   2.738
 7016SOL    HW221948   3.967   4.878   2.585
 7017SOL     OW21949   2.247   0.749   2.188
 7017SOL    HW121950   2.205   0.677   2.244
 7017SOL    HW221951   2.270   0.827   2.247
 7018SOL     OW21952   0.009   4.476   4.962
 7018SOL    HW121953   0.033   4.394   5.013
 7018SOL    HW221954   0.065   4.553   4.995
 7019SOL     OW21955   2.857   4.837   6.709
 7019SOL    HW121956   2.899   4.750   6.685
 7019SOL    HW221957   2.918   4.912   6.684
 7020SOL     OW21958   5.409   6.606   0.355
 7020SOL    HW121959   5.379   6.654   0.438
 7020SOL    HW221960   5.502   6.573   0.367
 7021SOL     OW21961   2.840   1.012   5.638
 7021SOL    HW121962   2.899   0.931   5.640
 7021SOL    HW221963   2.888   1.089   5.679
 7022SOL     OW21964   4.569   4.374   0.124
 7022SOL    HW121965   4.639   4.348   0.191
 7022SOL    HW221966   4.486   4.321   0.142
 7023SOL     OW21967   6.931   2.158   3.098
 7023SOL    HW121968   6.982   2.124   3.019
 7023SOL    HW221969   6.989   2.221   3.151
 7024SOL     OW21970   1.409   5.921   6.372
 7024SOL    HW121971   1.457   5.892   6.289
 7024SOL    HW221972   1.365   6.010   6.355
 7025SOL     OW21973   3.506   1.818   6.881
 7025SOL    HW121974   3.518   1.719   6.886
 7025SOL    HW221975   3.487   1.845   6.786
 7026SOL     OW21976   2.762   1.290   1.854
 7026SOL    HW121977   2.735   1.386   1.860
 7026SOL    HW221978   2.837   1.281   1.789
 7027SOL     OW21979   3.247   5.482   2.837
 7027SOL    HW121980   3.272   5.495   2.933
 7027SOL    HW221981   3.148   5.469   2.830
 7028SOL     OW21982   5.584   6.374   4.641
 7028SOL    HW121983   5.544   6.461   4.613
 7028SOL    HW221984   5.683   6.384   4.647
 7029SOL     OW21985   3.740   6.909   6.646
 7029SOL    HW121986   3.783   6.935   6.560
 7029SOL    HW221987   3.666   6.973   6.668
 7030SOL     OW21988   0.228   3.004   6.055
 7030SOL    HW121989   0.240   2.905   6.058
 7030SOL    HW221990   0.226   3.034   5.960
 7031SOL     OW21991   2.215   5.922   3.724
 7031SOL    HW121992   2.223   5.877   3.635
 7031SOL    HW221993   2.142   5.880   3.777
 7032SOL     OW21994   4.264   6.690   3.610
 7032SOL    HW121995   4.173   6.654   3.592
 7032SOL    HW221996   4.333   6.621   3.586
 7033SOL     OW21997   6.690   1.530   4.171
 7033SOL    HW121998   6.624   1.456   4.167
 7033SOL    HW221999   6.665   1.601   4.104
 7034SOL     OW22000   5.473   0.869   3.152
 7034SOL    HW122001   5.536   0.947   3.152
 7034SOL    HW222002   5.469   0.829   3.244
 7035SOL     OW22003   1.446   6.722   2.290
 7035SOL    HW122004   1.523   6.750   2.233
 7035SOL    HW222005   1.367   6.704   2.232
 7036SOL     OW22006   6.208   6.418   1.359
 7036SOL    HW122007   6.200   6.334   1.413
 7036SOL    HW222008   6.302   6.451   1.363
 7037SOL     OW22009   0.103   6.592   6.589
 7037SOL    HW122010   0.067   6.505   6.555
 7037SOL    HW222011   0.149   6.577   6.676
 7038SOL     OW22012   1.775   3.964   4.606
 7038SOL    HW122013   1.693   3.951   4.662
 7038SOL    HW222014   1.854   3.977   4.666
 7039SOL     OW22015   3.180   6.686   0.176
 7039SOL    HW122016   3.147   6.742   0.253
 7039SOL    HW222017   3.222   6.746   0.108
 7040SOL     OW22018   4.741   2.654   5.927
 7040SOL    HW122019   4.785   2.578   5.976
 7040SOL    HW222020   4.806   2.694   5.863
 7041SOL     OW22021   1.199   1.728   3.417
 7041SOL    HW122022   1.253   1.701   3.497
 7041SOL    HW222023   1.237   1.812   3.377
 7042SOL     OW22024   5.271   5.242   6.710
 7042SOL    HW122025   5.250   5.274   6.618
 7042SOL    HW222026   5.209   5.285   6.775
 7043SOL     OW22027   2.432   2.639   2.804
 7043SOL    HW122028   2.519   2.591   2.817
 7043SOL    HW222029   2.360   2.572   2.787
 7044SOL     OW22030   5.057   4.352   2.839
 7044SOL    HW122031   5.048   4.322   2.934
 7044SOL    HW222032   4.968   4.385   2.807
 7045SOL     OW22033   4.511   6.219   1.341
 7045SOL    HW122034   4.481   6.313   1.322
 7045SOL    HW222035   4.510   6.167   1.256
 7046SOL     OW22036   3.663   1.833   3.712
 7046SOL    HW122037   3.746   1.889   3.719
 7046SOL    HW222038   3.595   1.865   3.778
 7047SOL     OW22039   0.892   2.381   3.160
 7047SOL    HW122040   0.883   2.325   3.243
 7047SOL    HW222041   0.988   2.392   3.138
 7048SOL     OW22042   0.729   6.082   1.408
 7048SOL    HW122043   0.684   6.077   1.319
 7048SOL    HW222044   0.694   6.010   1.468
 7049SOL     OW22045   3.053   0.486   0.767
 7049SOL    HW122046   2.995   0.563   0.739
 7049SOL    HW222047   3.008   0.400   0.744
 7050SOL     OW22048   3.154   3.946   3.670
 7050SOL    HW122049   3.158   3.977   3.765
 7050SOL    HW222050   3.240   3.966   3.624
 7051SOL     OW22051   0.442   0.514   0.885
 7051SOL    HW122052   0.482   0.571   0.814
 7051SOL    HW222053   0.499   0.433   0.899
 7052SOL     OW22054   6.511   2.536   4.340
 7052SOL    HW122055   6.482   2.605   4.274
 7052SOL    HW222056   6.488   2.567   4.432
 7053SOL     OW22057   0.377   3.098   6.267
 7053SOL    HW122058   0.349   3.051   6.183
 7053SOL    HW222059   0.319   3.178   6.281
 7054SOL     OW22060   1.045   6.656   1.380
 7054SOL    HW122061   1.143   6.677   1.385
 7054SOL    HW222062   1.020   6.595   1.455
 7055SOL     OW22063   3.968   6.555   5.143
 7055SOL    HW122064   3.991   6.629   5.206
 7055SOL    HW222065   3.981   6.467   5.189
 7056SOL     OW22066   6.013   5.063   3.863
 7056SOL    HW122067   5.993   5.157   3.835
 7056SOL    HW222068   6.063   5.064   3.950
 7057SOL     OW22069   0.756   4.344   4.763
 7057SOL    HW122070   0.720   4.276   4.826
 7057SOL    HW222071   0.734   4.318   4.669
 7058SOL     OW22072   0.048   5.588   5.934
 7058SOL    HW122073   7.021   5.559   6.015
 7058SOL    HW222074   0.100   5.511   5.898
 7059SOL     OW22075   0.385   0.259   2.633
 7059SOL    HW122076   0.300   0.228   2.591
 7059SOL    HW222077   0.455   0.189   2.623
 7060SOL     OW22078   3.326   7.003   1.596
 7060SOL    HW122079   3.303   0.025   1.510
 7060SOL    HW222080   3.275   0.022   1.671
 7061SOL     OW22081   0.471   1.679   3.469
 7061SOL    HW122082   0.492   1.776   3.455
 7061SOL    HW222083   0.524   1.645   3.547
 7062SOL     OW22084   5.703   1.502   5.833
 7062SOL    HW122085   5.701   1.600   5.854
 7062SOL    HW222086   5.790   1.464   5.863
 7063SOL     OW22087   1.265   6.844   0.612
 7063SOL    HW122088   1.352   6.794   0.601
 7063SOL    HW222089   1.202   6.789   0.666
 7064SOL     OW22090   4.147   2.442   1.748
 7064SOL    HW122091   4.078   2.486   1.690
 7064SOL    HW222092   4.235   2.488   1.735
 7065SOL     OW22093   4.406   4.141   1.230
 7065SOL    HW122094   4.430   4.057   1.181
 7065SOL    HW222095   4.333   4.188   1.180
 7066SOL     OW22096   3.843   0.864   0.398
 7066SOL    HW122097   3.872   0.790   0.459
 7066SOL    HW222098   3.880   0.951   0.431
 7067SOL     OW22099   1.295   2.634   5.071
 7067SOL    HW122100   1.197   2.649   5.083
 7067SOL    HW222101   1.342   2.723   5.067
 7068SOL     OW22102   0.780   3.365   3.313
 7068SOL    HW122103   0.858   3.428   3.314
 7068SOL    HW222104   0.809   3.276   3.278
 7069SOL     OW22105   6.668   3.110   4.684
 7069SOL    HW122106   6.729   3.033   4.705
 7069SOL    HW222107   6.613   3.088   4.604
 7070SOL     OW22108   6.719   5.791   4.697
 7070SOL    HW122109   6.711   5.818   4.601
 7070SOL    HW222110   6.630   5.799   4.741
 7071SOL     OW22111   0.487   6.705   5.401
 7071SOL    HW122112   0.498   6.605   5.408
 7071SOL    HW222113   0.407   6.733   5.454
 7072SOL     OW22114   6.867   0.229   5.873
 7072SOL    HW122115   6.907   0.161   5.811
 7072SOL    HW222116   6.778   0.257   5.839
 7073SOL     OW22117   6.543   1.050   4.538
 7073SOL    HW122118   6.643   1.044   4.536
 7073SOL    HW222119   6.512   1.070   4.631
 7074SOL     OW22120   3.779   3.269   2.167
 7074SOL    HW122121   3.743   3.329   2.239
 7074SOL    HW222122   3.759   3.309   2.078
 7075SOL     OW22123   1.117   6.151   4.448
 7075SOL    HW122124   1.029   6.130   4.405
 7075SOL    HW222125   1.164   6.066   4.470
 7076SOL     OW22126   4.301   2.401   0.594
 7076SOL    HW122127   4.318   2.460   0.516
 7076SOL    HW222128   4.380   2.403   0.656
 7077SOL     OW22129   2.121   5.131   5.533
 7077SOL    HW122130   2.137   5.032   5.525
 7077SOL    HW222131   2.179   5.169   5.605
 7078SOL     OW22132   6.206   0.191   1.856
 7078SOL    HW122133   6.292   0.141   1.862
 7078SOL    HW222134   6.168   0.203   1.948
 7079SOL     OW22135   6.805   6.512   5.582
 7079SOL    HW122136   6.711   6.480   5.587
 7079SOL    HW222137   6.857   6.474   5.658
 7080SOL     OW22138   4.046   2.266   3.857
 7080SOL    HW122139   4.122   2.319   3.818
 7080SOL    HW222140   4.056   2.171   3.830
 7081SOL     OW22141   3.334   1.020   5.583
 7081SOL    HW122142   3.281   0.954   5.636
 7081SOL    HW222143   3.407   0.972   5.533
 7082SOL     OW22144   5.667   6.516   0.377
 7082SOL    HW122145   5.662   6.514   0.277
 7082SOL    HW222146   5.761   6.538   0.405
 7083SOL     OW22147   3.338   1.078   6.547
 7083SOL    HW122148   3.300   1.085   6.455
 7083SOL    HW222149   3.355   0.982   6.568
 7084SOL     OW22150   0.179   6.915   5.438
 7084SOL    HW122151   0.222   6.851   5.502
 7084SOL    HW222152   0.091   6.946   5.475
 7085SOL     OW22153   1.765   1.142   3.044
 7085SOL    HW122154   1.863   1.125   3.053
 7085SOL    HW222155   1.740   1.143   2.947
 7086SOL     OW22156   5.482   1.582   6.269
 7086SOL    HW122157   5.515   1.489   6.281
 7086SOL    HW222158   5.451   1.619   6.357
 7087SOL     OW22159   6.970   4.076   3.660
 7087SOL    HW122160   6.887   4.061   3.605
 7087SOL    HW222161   0.026   4.042   3.610
 7088SOL     OW22162   4.948   3.242   4.270
 7088SOL    HW122163   4.921   3.278   4.360
 7088SOL    HW222164   4.943   3.315   4.202
 7089SOL     OW22165   3.568   2.654   6.600
 7089SOL    HW122166   3.591   2.711   6.521
 7089SOL    HW222167   3.541   2.563   6.569
 7090SOL     OW22168   2.733   1.399   6.265
 7090SOL    HW122169   2.806   1.463   6.288
 7090SOL    HW222170   2.730   1.384   6.167
 7091SOL     OW22171   0.191   2.027   6.752
 7091SOL    HW122172   0.267   2.001   6.811
 7091SOL    HW222173   0.166   2.122   6.770
 7092SOL     OW22174   4.292   2.681   6.592
 7092SOL    HW122175   4.314   2.595   6.636
 7092SOL    HW222176   4.197   2.705   6.611
 7093SOL     OW22177   3.081   3.950   4.149
 7093SOL    HW122178   3.013   3.906   4.208
 7093SOL    HW222179   3.165   3.964   4.201
 7094SOL     OW22180   0.500   6.435   5.380
 7094SOL    HW122181   0.402   6.432   5.402
 7094SOL    HW222182   0.528   6.347   5.342
 7095SOL     OW22183   2.713   2.699   0.192
 7095SOL    HW122184   2.642   2.637   0.225
 7095SOL    HW222185   2.746   2.755   0.268
 7096SOL     OW22186   5.976   1.234   3.831
 7096SOL    HW122187   6.020   1.320   3.857
 7096SOL    HW222188   5.909   1.208   3.900
 7097SOL     OW22189   6.560   0.348   2.098
 7097SOL    HW122190   6.526   0.290   2.172
 7097SOL    HW222191   6.582   0.439   2.134
 7098SOL     OW22192   1.346   6.256   4.851
 7098SOL    HW122193   1.397   6.176   4.818
 7098SOL    HW222194   1.393   6.294   4.931
 7099SOL     OW22195   2.171   0.484   4.322
 7099SOL    HW122196   2.161   0.519   4.415
 7099SOL    HW222197   2.258   0.516   4.284
 7100SOL     OW22198   5.131   3.638   0.872
 7100SOL    HW122199   5.058   3.690   0.917
 7100SOL    HW222200   5.210   3.633   0.932
 7101SOL     OW22201   2.379   0.152   4.505
 7101SOL    HW122202   2.298   0.177   4.451
 7101SOL    HW222203   2.432   0.083   4.456
 7102SOL     OW22204   4.411   0.324   1.081
 7102SOL    HW122205   4.313   0.305   1.081
 7102SOL    HW222206   4.428   0.414   1.119
 7103SOL     OW22207   4.361   5.592   0.023
 7103SOL    HW122208   4.309   5.644   0.090
 7103SOL    HW222209   4.371   5.645   6.963
 7104SOL     OW22210   0.965   3.401   4.571
 7104SOL    HW122211   0.947   3.463   4.495
 7104SOL    HW222212   0.995   3.453   4.651
 7105SOL     OW22213   3.497   2.881   5.587
 7105SOL    HW122214   3.517   2.811   5.518
 7105SOL    HW222215   3.552   2.962   5.570
 7106SOL     OW22216   3.489   2.946   3.361
 7106SOL    HW122217   3.443   2.941   3.272
 7106SOL    HW222218   3.584   2.975   3.347
 7107SOL     OW22219   2.722   0.759   0.692
 7107SOL    HW122220   2.703   0.701   0.772
 7107SOL    HW222221   2.744   0.701   0.614
 7108SOL     OW22222   4.100   6.517   1.284
 7108SOL    HW122223   4.063   6.504   1.376
 7108SOL    HW222224   4.028   6.503   1.217
 7109SOL     OW22225   3.550   0.039   6.824
 7109SOL    HW122226   3.486   0.114   6.805
 7109SOL    HW222227   3.611   0.067   6.899
 7110SOL     OW22228   5.438   5.023   4.030
 7110SOL    HW122229   5.397   5.036   3.940
 7110SOL    HW222230   5.413   5.100   4.089
 7111SOL     OW22231   1.442   2.776   4.443
 7111SOL    HW122232   1.362   2.757   4.500
 7111SOL    HW222233   1.473   2.691   4.401
 7112SOL     OW22234   1.740   5.464   4.176
 7112SOL    HW122235   1.694   5.414   4.250
 7112SOL    HW222236   1.698   5.439   4.089
 7113SOL     OW22237   2.905   3.866   5.170
 7113SOL    HW122238   2.944   3.955   5.195
 7113SOL    HW222239   2.906   3.855   5.071
 7114SOL     OW22240   3.796   6.784   1.951
 7114SOL    HW122241   3.874   6.830   1.908
 7114SOL    HW222242   3.753   6.847   2.017
 7115SOL     OW22243   5.139   2.462   1.895
 7115SOL    HW122244   5.125   2.523   1.973
 7115SOL    HW222245   5.215   2.496   1.840
 7116SOL     OW22246   5.773   2.931   3.349
 7116SOL    HW122247   5.779   2.881   3.262
 7116SOL    HW222248   5.864   2.936   3.390
 7117SOL     OW22249   0.159   0.390   4.438
 7117SOL    HW122250   0.231   0.430   4.494
 7117SOL    HW222251   0.151   0.292   4.457
 7118SOL     OW22252   3.965   3.542   1.182
 7118SOL    HW122253   4.019   3.595   1.117
 7118SOL    HW222254   3.925   3.463   1.136
 7119SOL     OW22255   4.647   1.610   3.391
 7119SOL    HW122256   4.637   1.696   3.341
 7119SOL    HW222257   4.574   1.603   3.460
 7120SOL     OW22258   3.694   1.644   3.278
 7120SOL    HW122259   3.680   1.593   3.193
 7120SOL    HW222260   3.790   1.667   3.288
 7121SOL     OW22261   2.562   0.163   2.443
 7121SOL    HW122262   2.642   0.223   2.436
 7121SOL    HW222263   2.490   0.196   2.382
 7122SOL     OW22264   6.495   0.918   6.605
 7122SOL    HW122265   6.421   0.866   6.563
 7122SOL    HW222266   6.502   1.008   6.562
 7123SOL     OW22267   3.193   4.928   1.301
 7123SOL    HW122268   3.205   5.025   1.322
 7123SOL    HW222269   3.108   4.896   1.343
 7124SOL     OW22270   1.117   3.550   0.426
 7124SOL    HW122271   1.116   3.649   0.438
 7124SOL    HW222272   1.024   3.515   0.427
 7125SOL     OW22273   6.886   6.427   1.472
 7125SOL    HW122274   6.962   6.468   1.423
 7125SOL    HW222275   6.800   6.455   1.429
 7126SOL     OW22276   2.949   4.642   0.184
 7126SOL    HW122277   2.916   4.689   0.102
 7126SOL    HW222278   2.875   4.636   0.251
 7127SOL     OW22279   2.927   5.566   4.344
 7127SOL    HW122280   2.852   5.502   4.325
 7127SOL    HW222281   2.981   5.580   4.261
 7128SOL     OW22282   2.791   5.567   0.301
 7128SOL    HW122283   2.743   5.652   0.279
 7128SOL    HW222284   2.834   5.576   0.391
 7129SOL     OW22285   3.621   0.446   0.817
 7129SOL    HW122286   3.608   0.523   0.755
 7129SOL    HW222287   3.680   0.378   0.774
 7130SOL     OW22288   3.356   5.087   4.691
 7130SOL    HW122289   3.434   5.028   4.671
 7130SOL    HW222290   3.277   5.030   4.714
 7131SOL     OW22291   2.585   1.838   0.315
 7131SOL    HW122292   2.586   1.841   0.415
 7131SOL    HW222293   2.678   1.848   0.281
 7132SOL     OW22294   3.491   3.673   1.621
 7132SOL    HW122295   3.431   3.647   1.545
 7132SOL    HW222296   3.438   3.723   1.689
 7133SOL     OW22297   5.635   4.682   3.818
 7133SOL    HW122298   5.565   4.749   3.844
 7133SOL    HW222299   5.725   4.724   3.822
 7134SOL     OW22300   5.877   5.800   2.889
 7134SOL    HW122301   5.884   5.748   2.974
 7134SOL    HW222302   5.886   5.737   2.811
 7135SOL     OW22303   1.673   1.859   2.997
 7135SOL    HW122304   1.766   1.849   3.034
 7135SOL    HW222305   1.656   1.785   2.932
 7136SOL     OW22306   2.084   2.278   0.804
 7136SOL    HW122307   2.127   2.347   0.861
 7136SOL    HW222308   2.108   2.295   0.708
 7137SOL     OW22309   5.698   0.781   5.534
 7137SOL    HW122310   5.614   0.835   5.541
 7137SOL    HW222311   5.694   0.725   5.451
 7138SOL     OW22312   2.752   2.408   1.083
 7138SOL    HW122313   2.775   2.469   1.007
 7138SOL    HW222314   2.656   2.418   1.106
 7139SOL     OW22315   4.960   3.135   2.138
 7139SOL    HW122316   4.951   3.180   2.049
 7139SOL    HW222317   4.900   3.055   2.142
 7140SOL     OW22318   6.286   3.418   4.976
 7140SOL    HW122319   6.321   3.326   4.957
 7140SOL    HW222320   6.188   3.420   4.958
 7141SOL     OW22321   3.667   6.512   0.589
 7141SOL    HW122322   3.753   6.544   0.550
 7141SOL    HW222323   3.590   6.555   0.540
 7142SOL     OW22324   4.430   6.950   2.916
 7142SOL    HW122325   4.342   6.930   2.958
 7142SOL    HW222326   4.477   7.021   2.969
 7143SOL     OW22327   1.346   2.467   6.168
 7143SOL    HW122328   1.281   2.470   6.093
 7143SOL    HW222329   1.391   2.377   6.169
 7144SOL     OW22330   1.041   1.625   3.220
 7144SOL    HW122331   0.978   1.683   3.168
 7144SOL    HW222332   1.101   1.683   3.275
 7145SOL     OW22333   4.382   6.156   5.879
 7145SOL    HW122334   4.467   6.207   5.887
 7145SOL    HW222335   4.324   6.199   5.810
 7146SOL     OW22336   1.788   0.533   6.977
 7146SOL    HW122337   1.888   0.532   6.974
 7146SOL    HW222338   1.755   0.626   6.960
 7147SOL     OW22339   6.137   6.652   3.404
 7147SOL    HW122340   6.050   6.619   3.440
 7147SOL    HW222341   6.157   6.742   3.444
 7148SOL     OW22342   7.020   6.241   1.754
 7148SOL    HW122343   6.955   6.284   1.692
 7148SOL    HW222344   0.082   6.293   1.753
 7149SOL     OW22345   6.712   6.822   3.339
 7149SOL    HW122346   6.785   6.793   3.277
 7149SOL    HW222347   6.741   6.806   3.433
 7150SOL     OW22348   4.791   2.449   1.738
 7150SOL    HW122349   4.814   2.503   1.657
 7150SOL    HW222350   4.856   2.374   1.748
 7151SOL     OW22351   0.687   5.657   0.945
 7151SOL    HW122352   0.691   5.604   0.861
 7151SOL    HW222353   0.673   5.595   1.023
 7152SOL     OW22354   0.383   2.323   5.609
 7152SOL    HW122355   0.328   2.263   5.667
 7152SOL    HW222356   0.356   2.418   5.624
 7153SOL     OW22357   3.511   6.050   3.608
 7153SOL    HW122358   3.544   6.143   3.595
 7153SOL    HW222359   3.524   6.023   3.704
 7154SOL     OW22360   3.899   6.810   4.638
 7154SOL    HW122361   3.981   6.863   4.660
 7154SOL    HW222362   3.919   6.713   4.650
 7155SOL     OW22363   1.572   6.033   1.592
 7155SOL    HW122364   1.572   5.960   1.524
 7155SOL    HW222365   1.655   6.087   1.583
 7156SOL     OW22366   0.826   4.662   4.505
 7156SOL    HW122367   0.837   4.642   4.602
 7156SOL    HW222368   0.881   4.743   4.482
 7157SOL     OW22369   5.887   4.656   0.902
 7157SOL    HW122370   5.934   4.744   0.899
 7157SOL    HW222371   5.828   4.652   0.982
 7158SOL     OW22372   0.524   6.820   3.193
 7158SOL    HW122373   0.451   6.761   3.159
 7158SOL    HW222374   0.607   6.806   3.139
 7159SOL     OW22375   0.417   4.516   2.608
 7159SOL    HW122376   0.357   4.595   2.601
 7159SOL    HW222377   0.427   4.489   2.704
 7160SOL     OW22378   6.376   0.208   3.017
 7160SOL    HW122379   6.363   0.307   3.015
 7160SOL    HW222380   6.449   0.185   3.082
 7161SOL     OW22381   3.262   4.097   5.117
 7161SOL    HW122382   3.178   4.140   5.150
 7161SOL    HW222383   3.245   4.001   5.097
 7162SOL     OW22384   2.890   6.183   5.706
 7162SOL    HW122385   2.876   6.142   5.796
 7162SOL    HW222386   2.985   6.210   5.695
 7163SOL     OW22387   3.399   6.711   3.769
 7163SOL    HW122388   3.361   6.625   3.736
 7163SOL    HW222389   3.486   6.729   3.723
 7164SOL     OW22390   2.163   2.008   2.639
 7164SOL    HW122391   2.076   2.021   2.592
 7164SOL    HW222392   2.190   1.912   2.633
 7165SOL     OW22393   6.504   1.052   1.247
 7165SOL    HW122394   6.601   1.072   1.231
 7165SOL    HW222395   6.491   0.953   1.252
 7166SOL     OW22396   4.893   3.774   0.399
 7166SOL    HW122397   4.947   3.859   0.398
 7166SOL    HW222398   4.926   3.714   0.472
 7167SOL     OW22399   5.135   3.993   5.167
 7167SOL    HW122400   5.134   4.024   5.262
 7167SOL    HW222401   5.208   4.038   5.117
 7168SOL     OW22402   1.042   2.363   3.724
 7168SOL    HW122403   1.112   2.396   3.661
 7168SOL    HW222404   1.076   2.368   3.818
 7169SOL     OW22405   0.821   3.223   5.266
 7169SOL    HW122406   0.741   3.242   5.323
 7169SOL    HW222407   0.796   3.234   5.169
 7170SOL     OW22408   4.014   5.468   4.059
 7170SOL    HW122409   4.093   5.424   4.103
 7170SOL    HW222410   4.024   5.568   4.065
 7171SOL     OW22411   5.888   4.081   5.792
 7171SOL    HW122412   5.874   4.004   5.730
 7171SOL    HW222413   5.814   4.083   5.860
 7172SOL     OW22414   1.214   0.111   5.498
 7172SOL    HW122415   1.210   0.069   5.407
 7172SOL    HW222416   1.150   0.187   5.502
 7173SOL     OW22417   0.245   4.841   5.779
 7173SOL    HW122418   0.157   4.805   5.808
 7173SOL    HW222419   0.245   4.940   5.785
 7174SOL     OW22420   1.207   5.327   6.565
 7174SOL    HW122421   1.158   5.293   6.484
 7174SOL    HW222422   1.197   5.427   6.570
 7175SOL     OW22423   5.586   3.375   0.492
 7175SOL    HW122424   5.576   3.472   0.470
 7175SOL    HW222425   5.668   3.361   0.547
 7176SOL     OW22426   0.689   5.036   2.873
 7176SOL    HW122427   0.722   5.114   2.820
 7176SOL    HW222428   0.629   4.980   2.816
 7177SOL     OW22429   2.485   7.008   4.073
 7177SOL    HW122430   2.560   0.051   4.068
 7177SOL    HW222431   2.519   6.918   4.046
 7178SOL     OW22432   2.430   3.051   5.842
 7178SOL    HW122433   2.407   2.954   5.834
 7178SOL    HW222434   2.379   3.102   5.773
 7179SOL     OW22435   1.238   3.376   4.873
 7179SOL    HW122436   1.278   3.379   4.965
 7179SOL    HW222437   1.275   3.298   4.823
 7180SOL     OW22438   1.349   5.507   6.194
 7180SOL    HW122439   1.297   5.588   6.164
 7180SOL    HW222440   1.367   5.514   6.292
 7181SOL     OW22441   2.923   6.812   0.736
 7181SOL    HW122442   2.930   6.765   0.824
 7181SOL    HW222443   2.905   6.744   0.664
 7182SOL     OW22444   1.363   3.265   5.697
 7182SOL    HW122445   1.313   3.183   5.722
 7182SOL    HW222446   1.435   3.282   5.765
 7183SOL     OW22447   1.647   4.923   1.836
 7183SOL    HW122448   1.721   4.927   1.904
 7183SOL    HW222449   1.668   4.851   1.769
 7184SOL     OW22450   0.679   6.880   3.733
 7184SOL    HW122451   0.772   6.872   3.696
 7184SOL    HW222452   0.614   6.835   3.672
 7185SOL     OW22453   4.968   1.703   5.517
 7185SOL    HW122454   4.891   1.639   5.517
 7185SOL    HW222455   4.952   1.774   5.449
 7186SOL     OW22456   0.212   0.143   5.317
 7186SOL    HW122457   0.180   0.124   5.224
 7186SOL    HW222458   0.233   0.057   5.363
 7187SOL     OW22459   1.657   4.748   0.775
 7187SOL    HW122460   1.661   4.835   0.825
 7187SOL    HW222461   1.749   4.719   0.751
 7188SOL     OW22462   5.582   6.875   0.415
 7188SOL    HW122463   5.615   6.949   0.356
 7188SOL    HW222464   5.646   6.798   0.410
 7189SOL     OW22465   6.066   0.986   6.920
 7189SOL    HW122466   6.024   1.063   6.873
 7189SOL    HW222467   6.103   0.921   6.853
 7190SOL     OW22468   5.400   3.292   3.077
 7190SOL    HW122469   5.366   3.284   3.171
 7190SOL    HW222470   5.325   3.315   3.016
 7191SOL     OW22471   0.784   4.232   2.365
 7191SOL    HW122472   0.729   4.189   2.436
 7191SOL    HW222473   0.762   4.190   2.276
 7192SOL     OW22474   2.087   5.937   4.713
 7192SOL    HW122475   1.990   5.915   4.697
 7192SOL    HW222476   2.113   6.014   4.654
 7193SOL     OW22477   2.727   1.996   3.076
 7193SOL    HW122478   2.798   2.064   3.059
 7193SOL    HW222479   2.705   1.949   2.991
 7194SOL     OW22480   2.268   2.600   1.163
 7194SOL    HW122481   2.324   2.682   1.175
 7194SOL    HW222482   2.308   2.525   1.216
 7195SOL     OW22483   0.817   5.369   6.698
 7195SOL    HW122484   0.787   5.416   6.615
 7195SOL    HW222485   0.827   5.435   6.772
 7196SOL     OW22486   2.955   3.366   2.718
 7196SOL    HW122487   3.030   3.301   2.701
 7196SOL    HW222488   2.911   3.390   2.632
 7197SOL     OW22489   6.828   2.716   5.960
 7197SOL    HW122490   6.730   2.701   5.954
 7197SOL    HW222491   6.846   2.792   6.023
 7198SOL     OW22492   0.968   0.835   5.404
 7198SOL    HW122493   0.906   0.836   5.482
 7198SOL    HW222494   0.916   0.822   5.320
 7199SOL     OW22495   1.991   0.916   2.183
 7199SOL    HW122496   1.896   0.942   2.166
 7199SOL    HW222497   1.994   0.839   2.247
 7200SOL     OW22498   2.344   0.900   0.011
 7200SOL    HW122499   2.357   0.866   6.941
 7200SOL    HW222500   2.425   0.881   0.065
 7201SOL     OW22501   1.347   5.537   3.439
 7201SOL    HW122502   1.425   5.538   3.378
 7201SOL    HW222503   1.307   5.445   3.442
 7202SOL     OW22504   3.628   0.136   6.411
 7202SOL    HW122505   3.704   0.120   6.348
 7202SOL    HW222506   3.640   0.225   6.456
 7203SOL     OW22507   6.412   1.232   1.006
 7203SOL    HW122508   6.492   1.291   0.994
 7203SOL    HW222509   6.370   1.250   1.095
 7204SOL     OW22510   5.932   6.983   4.606
 7204SOL    HW122511   5.969   6.992   4.699
 7204SOL    HW222512   5.915   0.050   4.568
 7205SOL     OW22513   2.051   6.272   3.003
 7205SOL    HW122514   2.145   6.263   3.035
 7205SOL    HW222515   2.045   6.347   2.936
 7206SOL     OW22516   1.511   0.478   1.469
 7206SOL    HW122517   1.534   0.465   1.373
 7206SOL    HW222518   1.506   0.389   1.514
 7207SOL     OW22519   3.228   6.775   1.504
 7207SOL    HW122520   3.266   6.858   1.544
 7207SOL    HW222521   3.291   6.699   1.518
 7208SOL     OW22522   4.323   6.495   4.463
 7208SOL    HW122523   4.407   6.448   4.489
 7208SOL    HW222524   4.256   6.429   4.429
 7209SOL     OW22525   3.044   3.097   3.211
 7209SOL    HW122526   3.038   3.197   3.213
 7209SOL    HW222527   3.035   3.066   3.116
 7210SOL     OW22528   4.968   6.985   3.636
 7210SOL    HW122529   4.901   6.978   3.562
 7210SOL    HW222530   5.060   6.983   3.597
 7211SOL     OW22531   1.923   5.587   3.940
 7211SOL    HW122532   1.892   5.561   4.031
 7211SOL    HW222533   1.957   5.506   3.892
 7212SOL     OW22534   0.875   6.379   3.449
 7212SOL    HW122535   0.942   6.445   3.414
 7212SOL    HW222536   0.862   6.306   3.383
 7213SOL     OW22537   5.731   0.185   6.021
 7213SOL    HW122538   5.715   0.098   5.975
 7213SOL    HW222539   5.800   0.237   5.971
 7214SOL     OW22540   2.547   5.475   4.145
 7214SOL    HW122541   2.457   5.433   4.135
 7214SOL    HW222542   2.536   5.574   4.157
 7215SOL     OW22543   0.161   3.402   4.057
 7215SOL    HW122544   0.215   3.424   3.976
 7215SOL    HW222545   0.134   3.486   4.103
 7216SOL     OW22546   2.631   6.024   6.799
 7216SOL    HW122547   2.603   6.000   6.706
 7216SOL    HW222548   2.558   6.075   6.844
 7217SOL     OW22549   1.871   4.550   1.655
 7217SOL    HW122550   1.958   4.526   1.697
 7217SOL    HW222551   1.844   4.478   1.591
 7218SOL     OW22552   4.468   3.018   5.298
 7218SOL    HW122553   4.415   2.936   5.274
 7218SOL    HW222554   4.406   3.093   5.319
 7219SOL     OW22555   5.158   5.312   3.483
 7219SOL    HW122556   5.183   5.238   3.546
 7219SOL    HW222557   5.123   5.272   3.398
 7220SOL     OW22558   6.718   5.671   3.451
 7220SOL    HW122559   6.701   5.700   3.545
 7220SOL    HW222560   6.671   5.585   3.434
 7221SOL     OW22561   5.135   4.971   4.930
 7221SOL    HW122562   5.162   4.907   5.001
 7221SOL    HW222563   5.036   4.971   4.921
 7222SOL     OW22564   6.439   6.840   0.708
 7222SOL    HW122565   6.389   6.802   0.630
 7222SOL    HW222566   6.374   6.882   0.772
 7223SOL     OW22567   2.977   1.853   1.653
 7223SOL    HW122568   3.040   1.904   1.596
 7223SOL    HW222569   2.989   1.879   1.749
 7224SOL     OW22570   5.819   1.955   4.887
 7224SOL    HW122571   5.735   1.976   4.938
 7224SOL    HW222572   5.797   1.893   4.812
 7225SOL     OW22573   1.602   5.537   6.288
 7225SOL    HW122574   1.628   5.466   6.353
 7225SOL    HW222575   1.532   5.502   6.226
 7226SOL     OW22576   0.520   0.694   0.338
 7226SOL    HW122577   0.618   0.673   0.335
 7226SOL    HW222578   0.478   0.645   0.415
 7227SOL     OW22579   0.790   2.123   0.499
 7227SOL    HW122580   0.699   2.132   0.539
 7227SOL    HW222581   0.795   2.176   0.415
 7228SOL     OW22582   6.766   0.788   2.033
 7228SOL    HW122583   6.821   0.780   1.950
 7228SOL    HW222584   6.721   0.877   2.035
 7229SOL     OW22585   0.822   0.916   3.973
 7229SOL    HW122586   0.800   0.874   4.062
 7229SOL    HW222587   0.853   1.010   3.988
 7230SOL     OW22588   4.464   5.539   4.873
 7230SOL    HW122589   4.500   5.502   4.787
 7230SOL    HW222590   4.379   5.491   4.897
 7231SOL     OW22591   4.388   0.327   0.175
 7231SOL    HW122592   4.373   0.340   0.273
 7231SOL    HW222593   4.456   0.392   0.142
 7232SOL     OW22594   3.713   4.926   3.431
 7232SOL    HW122595   3.655   4.988   3.379
 7232SOL    HW222596   3.661   4.889   3.508
 7233SOL     OW22597   0.380   3.114   4.870
 7233SOL    HW122598   0.344   3.044   4.808
 7233SOL    HW222599   0.438   3.070   4.939
 7234SOL     OW22600   6.414   2.794   2.313
 7234SOL    HW122601   6.370   2.709   2.287
 7234SOL    HW222602   6.420   2.855   2.234
 7235SOL     OW22603   6.352   4.028   3.363
 7235SOL    HW122604   6.405   3.945   3.378
 7235SOL    HW222605   6.256   4.004   3.349
 7236SOL     OW22606   3.340   1.648   2.873
 7236SOL    HW122607   3.277   1.611   2.942
 7236SOL    HW222608   3.318   1.744   2.856
 7237SOL     OW22609   6.602   6.432   5.112
 7237SOL    HW122610   6.541   6.393   5.043
 7237SOL    HW222611   6.689   6.456   5.069
 7238SOL     OW22612   2.203   2.210   1.240
 7238SOL    HW122613   2.278   2.276   1.247
 7238SOL    HW222614   2.225   2.142   1.170
 7239SOL     OW22615   2.064   1.657   3.382
 7239SOL    HW122616   2.098   1.602   3.459
 7239SOL    HW222617   2.141   1.681   3.322
 7240SOL     OW22618   2.891   4.224   0.022
 7240SOL    HW122619   2.880   4.134   0.064
 7240SOL    HW222620   2.862   4.295   0.086
 7241SOL     OW22621   3.154   0.614   6.366
 7241SOL    HW122622   3.215   0.535   6.374
 7241SOL    HW222623   3.061   0.583   6.347
 7242SOL     OW22624   6.091   4.147   6.652
 7242SOL    HW122625   6.136   4.188   6.732
 7242SOL    HW222626   6.146   4.070   6.619
 7243SOL     OW22627   0.983   4.406   6.566
 7243SOL    HW122628   0.960   4.373   6.475
 7243SOL    HW222629   1.065   4.463   6.562
 7244SOL     OW22630   4.676   0.347   1.228
 7244SOL    HW122631   4.658   0.431   1.176
 7244SOL    HW222632   4.624   0.271   1.187
 7245SOL     OW22633   0.471   2.519   5.031
 7245SOL    HW122634   0.465   2.420   5.017
 7245SOL    HW222635   0.471   2.539   5.129
 7246SOL     OW22636   6.746   6.769   4.635
 7246SOL    HW122637   6.725   6.850   4.581
 7246SOL    HW222638   6.673   6.701   4.625
 7247SOL     OW22639   2.589   6.582   2.675
 7247SOL    HW122640   2.534   6.620   2.750
 7247SOL    HW222641   2.536   6.511   2.628
 7248SOL     OW22642   3.278   1.315   3.890
 7248SOL    HW122643   3.262   1.382   3.818
 7248SOL    HW222644   3.326   1.236   3.853
 7249SOL     OW22645   5.693   4.668   1.365
 7249SOL    HW122646   5.683   4.659   1.265
 7249SOL    HW222647   5.708   4.578   1.405
 7250SOL     OW22648   2.371   4.810   6.429
 7250SOL    HW122649   2.452   4.779   6.478
 7250SOL    HW222650   2.387   4.902   6.394
 7251SOL     OW22651   6.935   0.024   5.439
 7251SOL    HW122652   6.869   6.974   5.424
 7251SOL    HW222653   6.972   0.055   5.351
 7252SOL     OW22654   3.494   3.673   4.621
 7252SOL    HW122655   3.438   3.647   4.700
 7252SOL    HW222656   3.485   3.771   4.605
 7253SOL     OW22657   1.423   6.124   0.712
 7253SOL    HW122658   1.373   6.056   0.766
 7253SOL    HW222659   1.359   6.196   0.683
 7254SOL     OW22660   3.728   5.501   4.798
 7254SOL    HW122661   3.636   5.475   4.769
 7254SOL    HW222662   3.765   5.568   4.734
 7255SOL     OW22663   3.289   3.641   2.231
 7255SOL    HW122664   3.191   3.634   2.214
 7255SOL    HW222665   3.331   3.551   2.219
 7256SOL     OW22666   4.725   4.990   4.506
 7256SOL    HW122667   4.732   5.089   4.496
 7256SOL    HW222668   4.678   4.951   4.427
 7257SOL     OW22669   6.272   2.978   3.141
 7257SOL    HW122670   6.239   2.888   3.115
 7257SOL    HW222671   6.349   3.004   3.082
 7258SOL     OW22672   4.438   0.388   4.367
 7258SOL    HW122673   4.412   0.386   4.270
 7258SOL    HW222674   4.364   0.431   4.419
 7259SOL     OW22675   3.017   4.377   0.241
 7259SOL    HW122676   2.956   4.335   0.308
 7259SOL    HW222677   3.001   4.475   0.239
 7260SOL     OW22678   3.629   1.522   3.041
 7260SOL    HW122679   3.656   1.443   2.986
 7260SOL    HW222680   3.634   1.605   2.986
 7261SOL     OW22681   2.742   3.190   1.700
 7261SOL    HW122682   2.731   3.251   1.621
 7261SOL    HW222683   2.661   3.132   1.709
 7262SOL     OW22684   6.026   2.404   4.298
 7262SOL    HW122685   5.996   2.401   4.202
 7262SOL    HW222686   6.079   2.487   4.314
 7263SOL     OW22687   1.170   5.620   1.953
 7263SOL    HW122688   1.186   5.605   1.856
 7263SOL    HW222689   1.141   5.534   1.996
 7264SOL     OW22690   6.694   1.541   6.858
 7264SOL    HW122691   6.773   1.480   6.850
 7264SOL    HW222692   6.726   1.636   6.859
 7265SOL     OW22693   5.954   5.083   6.068
 7265SOL    HW122694   5.931   5.136   5.987
 7265SOL    HW222695   6.054   5.076   6.077
 7266SOL     OW22696   4.140   0.478   1.195
 7266SOL    HW122697   4.216   0.468   1.260
 7266SOL    HW222698   4.053   0.465   1.243
 7267SOL     OW22699   6.299   4.597   5.200
 7267SOL    HW122700   6.226   4.618   5.264
 7267SOL    HW222701   6.332   4.681   5.158
 7268SOL     OW22702   4.355   5.390   2.443
 7268SOL    HW122703   4.348   5.317   2.510
 7268SOL    HW222704   4.448   5.393   2.405
 7269SOL     OW22705   0.639   5.324   1.551
 7269SOL    HW122706   0.724   5.337   1.602
 7269SOL    HW222707   0.660   5.313   1.454
 7270SOL     OW22708   2.542   2.239   3.011
 7270SOL    HW122709   2.472   2.168   3.014
 7270SOL    HW222710   2.630   2.198   2.989
 7271SOL     OW22711   0.467   4.234   2.835
 7271SOL    HW122712   0.379   4.188   2.844
 7271SOL    HW222713   0.476   4.302   2.908
 7272SOL     OW22714   5.396   2.898   2.651
 7272SOL    HW122715   5.326   2.830   2.628
 7272SOL    HW222716   5.353   2.980   2.687
 7273SOL     OW22717   5.550   4.054   1.774
 7273SOL    HW122718   5.586   4.019   1.687
 7273SOL    HW222719   5.468   4.003   1.799
 7274SOL     OW22720   6.717   5.355   6.101
 7274SOL    HW122721   6.719   5.286   6.173
 7274SOL    HW222722   6.678   5.316   6.018
 7275SOL     OW22723   6.349   0.832   0.477
 7275SOL    HW122724   6.341   0.930   0.495
 7275SOL    HW222725   6.419   0.793   0.537
 7276SOL     OW22726   2.695   1.680   3.555
 7276SOL    HW122727   2.682   1.752   3.486
 7276SOL    HW222728   2.788   1.686   3.591
 7277SOL     OW22729   4.951   1.105   5.450
 7277SOL    HW122730   5.009   1.137   5.525
 7277SOL    HW222731   4.978   1.148   5.365
 7278SOL     OW22732   3.704   1.570   3.659
 7278SOL    HW122733   3.640   1.643   3.684
 7278SOL    HW222734   3.793   1.610   3.637
 7279SOL     OW22735   4.154   4.323   1.120
 7279SOL    HW122736   4.108   4.292   1.203
 7279SOL    HW222737   4.088   4.322   1.044
 7280SOL     OW22738   5.334   2.506   5.413
 7280SOL    HW122739   5.407   2.575   5.416
 7280SOL    HW222740   5.267   2.531   5.344
 7281SOL     OW22741   3.625   6.942   0.725
 7281SOL    HW122742   3.559   6.987   0.665
 7281SOL    HW222743   3.709   6.996   0.728
 7282SOL     OW22744   6.636   5.660   2.164
 7282SOL    HW122745   6.636   5.618   2.073
 7282SOL    HW222746   6.561   5.726   2.170
 7283SOL     OW22747   2.672   6.253   2.075
 7283SOL    HW122748   2.600   6.218   2.016
 7283SOL    HW222749   2.730   6.177   2.106
 7284SOL     OW22750   6.730   2.871   3.813
 7284SOL    HW122751   6.820   2.830   3.829
 7284SOL    HW222752   6.741   2.964   3.779
 7285SOL     OW22753   4.858   3.089   1.493
 7285SOL    HW122754   4.778   3.103   1.552
 7285SOL    HW222755   4.917   3.170   1.498
 7286SOL     OW22756   0.478   1.169   0.676
 7286SOL    HW122757   0.559   1.149   0.620
 7286SOL    HW222758   0.444   1.261   0.654
 7287SOL     OW22759   0.426   2.852   3.944
 7287SOL    HW122760   0.390   2.919   3.879
 7287SOL    HW222761   0.498   2.798   3.900
 7288SOL     OW22762   2.901   2.265   3.004
 7288SOL    HW122763   2.885   2.277   2.906
 7288SOL    HW222764   2.897   2.354   3.049
 7289SOL     OW22765   5.562   2.448   1.949
 7289SOL    HW122766   5.641   2.462   1.889
 7289SOL    HW222767   5.532   2.353   1.943
 7290SOL     OW22768   4.330   0.721   6.157
 7290SOL    HW122769   4.264   0.795   6.163
 7290SOL    HW222770   4.390   0.736   6.078
 7291SOL     OW22771   3.194   0.111   0.008
 7291SOL    HW122772   3.267   0.178   7.018
 7291SOL    HW222773   3.146   0.095   6.946
 7292SOL     OW22774   1.654   6.991   2.915
 7292SOL    HW122775   1.661   6.991   2.815
 7292SOL    HW222776   1.741   7.019   2.955
 7293SOL     OW22777   1.493   1.086   5.331
 7293SOL    HW122778   1.584   1.069   5.368
 7293SOL    HW222779   1.497   1.085   5.231
 7294SOL     OW22780   3.053   4.631   1.691
 7294SOL    HW122781   3.000   4.583   1.760
 7294SOL    HW222782   3.147   4.641   1.723
 7295SOL     OW22783   6.224   4.906   1.434
 7295SOL    HW122784   6.143   4.963   1.416
 7295SOL    HW222785   6.306   4.956   1.405
 7296SOL     OW22786   3.446   4.976   2.938
 7296SOL    HW122787   3.524   4.937   2.986
 7296SOL    HW222788   3.478   5.044   2.872
 7297SOL     OW22789   3.080   6.618   1.713
 7297SOL    HW122790   2.996   6.632   1.767
 7297SOL    HW222791   3.098   6.699   1.657
 7298SOL     OW22792   4.312   6.157   6.466
 7298SOL    HW122793   4.318   6.070   6.516
 7298SOL    HW222794   4.218   6.171   6.436
 7299SOL     OW22795   1.330   2.845   6.804
 7299SOL    HW122796   1.244   2.885   6.833
 7299SOL    HW222797   1.330   2.834   6.704
 7300SOL     OW22798   0.885   5.033   2.203
 7300SOL    HW122799   0.908   5.022   2.106
 7300SOL    HW222800   0.963   5.008   2.259
 7301SOL     OW22801   6.239   0.262   5.950
 7301SOL    HW122802   6.271   0.355   5.969
 7301SOL    HW222803   6.265   0.235   5.857
 7302SOL     OW22804   5.535   3.046   5.877
 7302SOL    HW122805   5.563   2.992   5.798
 7302SOL    HW222806   5.435   3.044   5.885
 7303SOL     OW22807   3.196   1.153   0.574
 7303SOL    HW122808   3.275   1.110   0.531
 7303SOL    HW222809   3.224   1.241   0.614
 7304SOL     OW22810   2.457   4.857   1.415
 7304SOL    HW122811   2.501   4.881   1.502
 7304SOL    HW222812   2.362   4.890   1.416
 7305SOL     OW22813   5.803   2.243   0.018
 7305SOL    HW122814   5.858   2.246   0.102
 7305SOL    HW222815   5.745   2.323   0.014
 7306SOL     OW22816   3.514   1.730   1.139
 7306SOL    HW122817   3.590   1.770   1.190
 7306SOL    HW222818   3.515   1.763   1.044
 7307SOL     OW22819   3.325   6.610   2.318
 7307SOL    HW122820   3.256   6.611   2.247
 7307SOL    HW222821   3.390   6.536   2.301
 7308SOL     OW22822   5.835   0.815   1.781
 7308SOL    HW122823   5.920   0.769   1.756
 7308SOL    HW222824   5.829   0.902   1.732
 7309SOL     OW22825   2.486   6.167   3.531
 7309SOL    HW122826   2.566   6.226   3.528
 7309SOL    HW222827   2.512   6.078   3.571
 7310SOL     OW22828   1.612   3.143   0.356
 7310SOL    HW122829   1.587   3.046   0.355
 7310SOL    HW222830   1.580   3.183   0.442
 7311SOL     OW22831   0.622   0.531   0.553
 7311SOL    HW122832   0.568   0.608   0.586
 7311SOL    HW222833   0.592   0.447   0.597
 7312SOL     OW22834   6.801   1.822   5.472
 7312SOL    HW122835   6.743   1.902   5.460
 7312SOL    HW222836   6.808   1.772   5.385
 7313SOL     OW22837   2.350   0.715   1.117
 7313SOL    HW122838   2.268   0.734   1.170
 7313SOL    HW222839   2.327   0.655   1.040
 7314SOL     OW22840   6.944   4.203   6.849
 7314SOL    HW122841   6.864   4.169   6.799
 7314SOL    HW222842   6.969   4.293   6.815
 7315SOL     OW22843   0.003   5.484   2.396
 7315SOL    HW122844   6.967   5.552   2.354
 7315SOL    HW222845   0.045   5.428   2.325
 7316SOL     OW22846   3.087   2.307   6.401
 7316SOL    HW122847   3.031   2.358   6.336
 7316SOL    HW222848   3.111   2.366   6.478
 7317SOL     OW22849   3.280   1.531   1.850
 7317SOL    HW122850   3.277   1.452   1.912
 7317SOL    HW222851   3.228   1.606   1.890
 7318SOL     OW22852   3.843   6.878   2.339
 7318SOL    HW122853   3.796   6.934   2.272
 7318SOL    HW222854   3.928   6.923   2.367
 7319SOL     OW22855   6.832   4.123   0.125
 7319SOL    HW122856   6.757   4.082   0.072
 7319SOL    HW222857   6.859   4.210   0.083
 7320SOL     OW22858   6.850   4.198   1.130
 7320SOL    HW122859   6.849   4.282   1.184
 7320SOL    HW222860   6.925   4.202   1.064
 7321SOL     OW22861   1.924   6.069   5.990
 7321SOL    HW122862   1.992   6.033   6.055
 7321SOL    HW222863   1.970   6.095   5.905
 7322SOL     OW22864   1.104   1.391   3.101
 7322SOL    HW122865   1.052   1.306   3.112
 7322SOL    HW222866   1.062   1.463   3.156
 7323SOL     OW22867   2.071   1.258   0.992
 7323SOL    HW122868   2.160   1.286   1.029
 7323SOL    HW222869   2.068   1.275   0.894
 7324SOL     OW22870   5.665   4.539   2.615
 7324SOL    HW122871   5.644   4.450   2.654
 7324SOL    HW222872   5.739   4.530   2.548
 7325SOL     OW22873   3.429   0.702   5.426
 7325SOL    HW122874   3.356   0.745   5.373
 7325SOL    HW222875   3.498   0.771   5.449
 7326SOL     OW22876   3.350   0.634   6.122
 7326SOL    HW122877   3.391   0.639   6.031
 7326SOL    HW222878   3.293   0.552   6.128
 7327SOL     OW22879   5.949   3.284   3.099
 7327SOL    HW122880   5.945   3.184   3.107
 7327SOL    HW222881   6.045   3.313   3.101
 7328SOL     OW22882   3.796   5.233   5.671
 7328SOL    HW122883   3.747   5.241   5.758
 7328SOL    HW222884   3.857   5.153   5.675
 7329SOL     OW22885   1.932   2.848   0.174
 7329SOL    HW122886   1.840   2.885   0.165
 7329SOL    HW222887   1.997   2.908   0.127
 7330SOL     OW22888   3.237   3.285   1.589
 7330SOL    HW122889   3.196   3.248   1.506
 7330SOL    HW222890   3.167   3.331   1.643
 7331SOL     OW22891   5.278   0.490   1.876
 7331SOL    HW122892   5.297   0.513   1.781
 7331SOL    HW222893   5.266   0.574   1.929
 7332SOL     OW22894   3.920   4.062   6.918
 7332SOL    HW122895   3.935   4.158   6.942
 7332SOL    HW222896   3.911   4.053   6.819
 7333SOL     OW22897   6.784   3.454   2.544
 7333SOL    HW122898   6.702   3.445   2.600
 7333SOL    HW222899   6.794   3.373   2.485
 7334SOL     OW22900   3.020   6.579   5.706
 7334SOL    HW122901   3.109   6.557   5.746
 7334SOL    HW222902   2.980   6.657   5.753
 7335SOL     OW22903   6.940   3.740   2.854
 7335SOL    HW122904   6.885   3.771   2.776
 7335SOL    HW222905   6.951   3.641   2.848
 7336SOL     OW22906   1.881   6.262   0.728
 7336SOL    HW122907   1.970   6.217   0.731
 7336SOL    HW222908   1.889   6.355   0.764
 7337SOL     OW22909   3.564   2.828   2.014
 7337SOL    HW122910   3.638   2.886   2.049
 7337SOL    HW222911   3.578   2.734   2.045
 7338SOL     OW22912   5.182   2.725   1.066
 7338SOL    HW122913   5.208   2.632   1.093
 7338SOL    HW222914   5.089   2.744   1.096
 7339SOL     OW22915   6.851   6.238   5.131
 7339SOL    HW122916   6.900   6.167   5.081
 7339SOL    HW222917   6.794   6.290   5.068
 7340SOL     OW22918   3.501   1.267   0.256
 7340SOL    HW122919   3.404   1.243   0.259
 7340SOL    HW222920   3.512   1.362   0.229
 7341SOL     OW22921   0.451   4.919   3.880
 7341SOL    HW122922   0.398   4.996   3.842
 7341SOL    HW222923   0.391   4.865   3.940
 7342SOL     OW22924   6.586   0.630   0.496
 7342SOL    HW122925   6.666   0.686   0.518
 7342SOL    HW222926   6.614   0.535   0.486
 7343SOL     OW22927   5.840   4.386   2.128
 7343SOL    HW122928   5.870   4.397   2.223
 7343SOL    HW222929   5.743   4.407   2.121
 7344SOL     OW22930   1.773   6.513   6.512
 7344SOL    HW122931   1.769   6.420   6.473
 7344SOL    HW222932   1.784   6.579   6.437
 7345SOL     OW22933   4.072   5.018   5.669
 7345SOL    HW122934   4.156   5.072   5.676
 7345SOL    HW222935   4.028   5.013   5.759
 7346SOL     OW22936   3.380   4.236   1.375
 7346SOL    HW122937   3.361   4.246   1.472
 7346SOL    HW222938   3.329   4.304   1.323
 7347SOL     OW22939   6.168   2.412   1.938
 7347SOL    HW122940   6.136   2.432   1.845
 7347SOL    HW222941   6.266   2.392   1.936
 7348SOL     OW22942   1.302   3.191   3.618
 7348SOL    HW122943   1.331   3.127   3.546
 7348SOL    HW222944   1.209   3.169   3.646
 7349SOL     OW22945   3.290   2.243   1.521
 7349SOL    HW122946   3.350   2.243   1.441
 7349SOL    HW222947   3.262   2.150   1.541
 7350SOL     OW22948   0.463   2.376   3.394
 7350SOL    HW122949   0.455   2.389   3.295
 7350SOL    HW222950   0.409   2.445   3.441
 7351SOL     OW22951   4.192   4.652   6.662
 7351SOL    HW122952   4.108   4.597   6.661
 7351SOL    HW222953   4.172   4.743   6.625
 7352SOL     OW22954   1.609   1.384   2.505
 7352SOL    HW122955   1.689   1.444   2.503
 7352SOL    HW222956   1.634   1.295   2.466
 7353SOL     OW22957   6.571   2.089   5.105
 7353SOL    HW122958   6.584   2.187   5.121
 7353SOL    HW222959   6.593   2.068   5.010
 7354SOL     OW22960   6.891   0.981   5.943
 7354SOL    HW122961   6.979   0.948   5.909
 7354SOL    HW222962   6.877   1.075   5.912
 7355SOL     OW22963   1.208   6.305   1.005
 7355SOL    HW122964   1.118   6.291   1.048
 7355SOL    HW222965   1.212   6.254   0.919
 7356SOL     OW22966   5.949   2.552   6.184
 7356SOL    HW122967   5.914   2.487   6.252
 7356SOL    HW222968   5.914   2.643   6.204
 7357SOL     OW22969   4.799   0.709   0.955
 7357SOL    HW122970   4.750   0.788   0.992
 7357SOL    HW222971   4.836   0.731   0.865
 7358SOL     OW22972   3.638   2.149   3.637
 7358SOL    HW122973   3.553   2.099   3.619
 7358SOL    HW222974   3.643   2.171   3.734
 7359SOL     OW22975   3.312   2.954   1.962
 7359SOL    HW122976   3.302   2.988   2.056
 7359SOL    HW222977   3.403   2.915   1.951
 7360SOL     OW22978   1.436   2.852   5.125
 7360SOL    HW122979   1.436   2.852   5.225
 7360SOL    HW222980   1.511   2.908   5.092
 7361SOL     OW22981   5.129   6.721   0.878
 7361SOL    HW122982   5.091   6.811   0.855
 7361SOL    HW222983   5.228   6.723   0.869
 7362SOL     OW22984   1.120   0.133   4.904
 7362SOL    HW122985   1.213   0.106   4.926
 7362SOL    HW222986   1.119   0.181   4.817
 7363SOL     OW22987   5.823   2.509   0.517
 7363SOL    HW122988   5.748   2.443   0.531
 7363SOL    HW222989   5.798   2.572   0.443
 7364SOL     OW22990   4.182   6.663   0.999
 7364SOL    HW122991   4.135   6.717   0.929
 7364SOL    HW222992   4.119   6.595   1.036
 7365SOL     OW22993   2.892   6.824   2.355
 7365SOL    HW122994   2.990   6.839   2.360
 7365SOL    HW222995   2.852   6.834   2.446
 7366SOL     OW22996   1.010   5.306   6.967
 7366SOL    HW122997   1.106   5.329   6.981
 7366SOL    HW222998   0.998   5.268   6.876
 7367SOL     OW22999   4.281   4.034   1.482
 7367SOL    HW123000   4.208   3.992   1.429
 7367SOL    HW223001   4.359   4.055   1.422
 7368SOL     OW23002   3.108   3.721   4.611
 7368SOL    HW123003   3.076   3.806   4.651
 7368SOL    HW223004   3.208   3.714   4.622
 7369SOL     OW23005   4.866   3.759   1.434
 7369SOL    HW123006   4.859   3.699   1.355
 7369SOL    HW223007   4.776   3.773   1.474
 7370SOL     OW23008   1.775   0.222   6.580
 7370SOL    HW123009   1.803   0.148   6.642
 7370SOL    HW223010   1.825   0.305   6.604
 7371SOL     OW23011   2.830   5.173   3.743
 7371SOL    HW123012   2.746   5.226   3.758
 7371SOL    HW223013   2.908   5.235   3.742
 7372SOL     OW23014   3.357   0.146   5.317
 7372SOL    HW123015   3.268   0.107   5.338
 7372SOL    HW223016   3.363   0.238   5.357
 7373SOL     OW23017   4.725   0.966   3.037
 7373SOL    HW123018   4.674   1.022   2.971
 7373SOL    HW223019   4.664   0.898   3.076
 7374SOL     OW23020   2.000   2.826   5.188
 7374SOL    HW123021   2.009   2.750   5.123
 7374SOL    HW223022   2.005   2.790   5.282
 7375SOL     OW23023   1.211   1.777   4.170
 7375SOL    HW123024   1.266   1.693   4.159
 7375SOL    HW223025   1.271   1.853   4.192
 7376SOL     OW23026   3.206   2.806   6.754
 7376SOL    HW123027   3.204   2.880   6.822
 7376SOL    HW223028   3.301   2.785   6.730
 7377SOL     OW23029   4.586   5.189   2.028
 7377SOL    HW123030   4.650   5.263   2.051
 7377SOL    HW223031   4.544   5.208   1.939
 7378SOL     OW23032   6.722   2.383   4.434
 7378SOL    HW123033   6.648   2.430   4.388
 7378SOL    HW223034   6.738   2.295   4.389
 7379SOL     OW23035   4.304   1.149   2.516
 7379SOL    HW123036   4.281   1.185   2.425
 7379SOL    HW223037   4.345   1.059   2.506
 7380SOL     OW23038   6.517   3.443   5.786
 7380SOL    HW123039   6.542   3.475   5.694
 7380SOL    HW223040   6.425   3.474   5.808
 7381SOL     OW23041   4.981   2.804   2.392
 7381SOL    HW123042   5.039   2.823   2.313
 7381SOL    HW223043   4.885   2.816   2.367
 7382SOL     OW23044   0.377   4.948   5.161
 7382SOL    HW123045   0.408   4.970   5.253
 7382SOL    HW223046   0.277   4.947   5.159
 7383SOL     OW23047   0.221   6.763   2.630
 7383SOL    HW123048   0.138   6.767   2.574
 7383SOL    HW223049   0.282   6.693   2.592
 7384SOL     OW23050   5.375   0.753   2.347
 7384SOL    HW123051   5.392   0.849   2.325
 7384SOL    HW223052   5.443   0.721   2.414
 7385SOL     OW23053   4.286   5.475   2.182
 7385SOL    HW123054   4.297   5.394   2.125
 7385SOL    HW223055   4.304   5.451   2.278
 7386SOL     OW23056   0.427   2.562   5.288
 7386SOL    HW123057   0.370   2.643   5.299
 7386SOL    HW223058   0.398   2.491   5.352
 7387SOL     OW23059   3.762   5.897   4.421
 7387SOL    HW123060   3.669   5.877   4.451
 7387SOL    HW223061   3.760   5.959   4.343
 7388SOL     OW23062   6.892   5.736   4.112
 7388SOL    HW123063   6.820   5.671   4.137
 7388SOL    HW223064   6.857   5.799   4.043
 7389SOL     OW23065   1.685   4.564   6.972
 7389SOL    HW123066   1.731   4.558   6.883
 7389SOL    HW223067   1.587   4.553   6.960
 7390SOL     OW23068   1.221   2.056   6.465
 7390SOL    HW123069   1.286   2.039   6.539
 7390SOL    HW223070   1.156   2.126   6.494
 7391SOL     OW23071   4.946   4.435   5.864
 7391SOL    HW123072   4.938   4.534   5.879
 7391SOL    HW223073   5.012   4.397   5.929
 7392SOL     OW23074   1.718   5.904   5.651
 7392SOL    HW123075   1.773   5.874   5.574
 7392SOL    HW223076   1.621   5.885   5.633
 7393SOL     OW23077   5.997   5.033   1.820
 7393SOL    HW123078   6.040   5.106   1.768
 7393SOL    HW223079   5.979   4.955   1.759
 7394SOL     OW23080   4.179   3.177   6.091
 7394SOL    HW123081   4.215   3.246   6.028
 7394SOL    HW223082   4.249   3.107   6.107
 7395SOL     OW23083   0.583   0.459   6.145
 7395SOL    HW123084   0.675   0.449   6.182
 7395SOL    HW223085   0.540   0.541   6.182
 7396SOL     OW23086   1.805   0.777   6.402
 7396SOL    HW123087   1.725   0.771   6.342
 7396SOL    HW223088   1.776   0.773   6.497
 7397SOL     OW23089   6.310   4.642   4.345
 7397SOL    HW123090   6.244   4.602   4.281
 7397SOL    HW223091   6.292   4.608   4.437
 7398SOL     OW23092   3.409   5.223   3.681
 7398SOL    HW123093   3.381   5.143   3.734
 7398SOL    HW223094   3.361   5.304   3.714
 7399SOL     OW23095   0.703   4.137   5.575
 7399SOL    HW123096   0.760   4.213   5.543
 7399SOL    HW223097   0.760   4.058   5.595
 7400SOL     OW23098   3.363   4.170   6.907
 7400SOL    HW123099   3.357   4.094   6.971
 7400SOL    HW223100   3.290   4.236   6.925
 7401SOL     OW23101   0.279   0.726   3.406
 7401SOL    HW123102   0.305   0.782   3.485
 7401SOL    HW223103   0.216   0.654   3.435
 7402SOL     OW23104   2.198   0.310   3.738
 7402SOL    HW123105   2.280   0.296   3.683
 7402SOL    HW223106   2.118   0.317   3.678
 7403SOL     OW23107   2.312   2.854   3.859
 7403SOL    HW123108   2.375   2.809   3.922
 7403SOL    HW223109   2.266   2.929   3.906
 7404SOL     OW23110   2.301   0.193   1.368
 7404SOL    HW123111   2.322   0.218   1.462
 7404SOL    HW223112   2.248   0.108   1.367
 7405SOL     OW23113   1.602   4.690   4.466
 7405SOL    HW123114   1.520   4.639   4.492
 7405SOL    HW223115   1.641   4.732   4.548
 7406SOL     OW23116   1.851   3.833   2.305
 7406SOL    HW123117   1.794   3.889   2.366
 7406SOL    HW223118   1.941   3.819   2.347
 7407SOL     OW23119   6.779   6.134   4.604
 7407SOL    HW123120   6.796   6.081   4.521
 7407SOL    HW223121   6.864   6.140   4.657
 7408SOL     OW23122   1.338   4.437   5.827
 7408SOL    HW123123   1.365   4.374   5.900
 7408SOL    HW223124   1.308   4.524   5.867
 7409SOL     OW23125   0.694   1.111   4.478
 7409SOL    HW123126   0.600   1.143   4.466
 7409SOL    HW223127   0.736   1.096   4.389
 7410SOL     OW23128   0.126   4.456   1.028
 7410SOL    HW123129   0.208   4.494   1.070
 7410SOL    HW223130   0.129   4.470   0.929
 7411SOL     OW23131   2.474   6.950   4.400
 7411SOL    HW123132   2.407   6.911   4.337
 7411SOL    HW223133   2.566   6.923   4.372
 7412SOL     OW23134   2.822   0.652   1.234
 7412SOL    HW123135   2.740   0.707   1.254
 7412SOL    HW223136   2.860   0.617   1.320
 7413SOL     OW23137   0.291   3.776   3.696
 7413SOL    HW123138   0.357   3.780   3.620
 7413SOL    HW223139   0.310   3.852   3.759
 7414SOL     OW23140   6.888   0.457   2.478
 7414SOL    HW123141   6.931   0.535   2.432
 7414SOL    HW223142   6.881   0.476   2.576
 7415SOL     OW23143   1.127   2.962   3.218
 7415SOL    HW123144   1.109   2.991   3.124
 7415SOL    HW223145   1.131   3.043   3.277
 7416SOL     OW23146   3.248   0.991   4.400
 7416SOL    HW123147   3.283   0.966   4.490
 7416SOL    HW223148   3.154   1.023   4.409
 7417SOL     OW23149   1.100   6.235   5.528
 7417SOL    HW123150   1.021   6.195   5.481
 7417SOL    HW223151   1.070   6.311   5.585
 7418SOL     OW23152   3.335   4.501   1.211
 7418SOL    HW123153   3.239   4.514   1.187
 7418SOL    HW223154   3.352   4.539   1.302
 7419SOL     OW23155   5.869   1.700   4.995
 7419SOL    HW123156   5.866   1.795   4.966
 7419SOL    HW223157   5.955   1.659   4.966
 7420SOL     OW23158   6.814   0.039   2.292
 7420SOL    HW123159   6.788   0.040   2.196
 7420SOL    HW223160   6.887   6.995   2.306
 7421SOL     OW23161   2.945   3.199   0.993
 7421SOL    HW123162   3.026   3.151   1.027
 7421SOL    HW223163   2.943   3.292   1.030
 7422SOL     OW23164   6.555   3.232   1.817
 7422SOL    HW123165   6.549   3.180   1.901
 7422SOL    HW223166   6.491   3.310   1.822
 7423SOL     OW23167   0.946   4.645   6.161
 7423SOL    HW123168   1.003   4.699   6.223
 7423SOL    HW223169   0.997   4.626   6.077
 7424SOL     OW23170   6.106   1.411   4.100
 7424SOL    HW123171   6.083   1.443   4.008
 7424SOL    HW223172   6.065   1.321   4.115
 7425SOL     OW23173   4.088   4.736   7.023
 7425SOL    HW123174   4.121   4.663   6.964
 7425SOL    HW223175   4.096   4.824   6.976
 7426SOL     OW23176   0.551   2.191   6.885
 7426SOL    HW123177   0.456   2.222   6.894
 7426SOL    HW223178   0.584   2.210   6.793
 7427SOL     OW23179   3.080   5.757   4.553
 7427SOL    HW123180   2.989   5.716   4.554
 7427SOL    HW223181   3.133   5.719   4.478
 7428SOL     OW23182   4.152   2.115   5.524
 7428SOL    HW123183   4.237   2.067   5.502
 7428SOL    HW223184   4.081   2.048   5.546
 7429SOL     OW23185   6.636   6.890   2.701
 7429SOL    HW123186   6.618   6.894   2.603
 7429SOL    HW223187   6.582   6.961   2.748
 7430SOL     OW23188   6.916   4.925   5.758
 7430SOL    HW123189   6.918   4.833   5.720
 7430SOL    HW223190   6.919   4.992   5.683
 7431SOL     OW23191   0.982   3.781   1.532
 7431SOL    HW123192   1.020   3.701   1.486
 7431SOL    HW223193   1.011   3.783   1.627
 7432SOL     OW23194   0.368   6.351   4.091
 7432SOL    HW123195   0.335   6.270   4.140
 7432SOL    HW223196   0.397   6.326   3.999
 7433SOL     OW23197   6.307   5.087   0.905
 7433SOL    HW123198   6.261   5.136   0.832
 7433SOL    HW223199   6.274   5.119   0.994
 7434SOL     OW23200   3.086   1.563   6.898
 7434SOL    HW123201   3.005   1.598   6.945
 7434SOL    HW223202   3.086   1.596   6.803
 7435SOL     OW23203   3.240   6.500   5.841
 7435SOL    HW123204   3.334   6.534   5.833
 7435SOL    HW223205   3.205   6.518   5.933
 7436SOL     OW23206   6.474   2.851   6.555
 7436SOL    HW123207   6.400   2.864   6.489
 7436SOL    HW223208   6.554   2.904   6.527
 7437SOL     OW23209   6.756   5.324   6.689
 7437SOL    HW123210   6.779   5.346   6.784
 7437SOL    HW223211   6.750   5.225   6.678
 7438SOL     OW23212   1.063   4.392   1.458
 7438SOL    HW123213   1.149   4.343   1.445
 7438SOL    HW223214   1.060   4.472   1.398
 7439SOL     OW23215   3.034   6.857   3.828
 7439SOL    HW123216   2.984   6.840   3.742
 7439SOL    HW223217   3.119   6.905   3.808
 7440SOL     OW23218   0.792   3.300   4.994
 7440SOL    HW123219   0.853   3.232   4.955
 7440SOL    HW223220   0.737   3.343   4.922
 7441SOL     OW23221   5.838   6.953   4.251
 7441SOL    HW123222   5.930   6.935   4.287
 7441SOL    HW223223   5.839   6.943   4.152
 7442SOL     OW23224   0.975   0.737   6.408
 7442SOL    HW123225   0.954   0.745   6.506
 7442SOL    HW223226   1.008   0.825   6.374
 7443SOL     OW23227   6.609   1.937   0.499
 7443SOL    HW123228   6.682   1.967   0.438
 7443SOL    HW223229   6.553   2.016   0.525
 7444SOL     OW23230   6.829   3.216   6.356
 7444SOL    HW123231   6.867   3.306   6.378
 7444SOL    HW223232   6.901   3.157   6.321
 7445SOL     OW23233   4.687   1.158   1.541
 7445SOL    HW123234   4.742   1.118   1.468
 7445SOL    HW223235   4.664   1.087   1.608
 7446SOL     OW23236   6.199   4.237   6.886
 7446SOL    HW123237   6.272   4.306   6.887
 7446SOL    HW223238   6.136   4.254   6.962
 7447SOL     OW23239   2.684   4.774   6.335
 7447SOL    HW123240   2.659   4.694   6.280
 7447SOL    HW223241   2.644   4.766   6.426
 7448SOL     OW23242   5.701   6.628   5.892
 7448SOL    HW123243   5.649   6.595   5.971
 7448SOL    HW223244   5.792   6.657   5.921
 7449SOL     OW23245   4.848   2.388   2.360
 7449SOL    HW123246   4.840   2.450   2.281
 7449SOL    HW223247   4.893   2.435   2.435
 7450SOL     OW23248   5.159   2.778   4.104
 7450SOL    HW123249   5.133   2.872   4.085
 7450SOL    HW223250   5.153   2.724   4.020
 7451SOL     OW23251   1.675   0.307   3.234
 7451SOL    HW123252   1.755   0.356   3.268
 7451SOL    HW223253   1.678   0.303   3.134
 7452SOL     OW23254   1.623   0.267   4.616
 7452SOL    HW123255   1.596   0.362   4.604
 7452SOL    HW223256   1.543   0.208   4.609
 7453SOL     OW23257   5.577   6.019   5.027
 7453SOL    HW123258   5.574   6.089   5.098
 7453SOL    HW223259   5.577   6.063   4.937
 7454SOL     OW23260   1.019   2.996   1.557
 7454SOL    HW123261   0.968   2.911   1.546
 7454SOL    HW223262   0.997   3.037   1.646
 7455SOL     OW23263   6.000   1.204   1.395
 7455SOL    HW123264   5.949   1.275   1.443
 7455SOL    HW223265   5.939   1.128   1.371
 7456SOL     OW23266   1.527   2.135   4.485
 7456SOL    HW123267   1.523   2.234   4.499
 7456SOL    HW223268   1.580   2.093   4.559
 7457SOL     OW23269   5.551   0.454   5.893
 7457SOL    HW123270   5.460   0.490   5.874
 7457SOL    HW223271   5.576   0.388   5.822
 7458SOL     OW23272   2.139   6.671   6.589
 7458SOL    HW123273   2.098   6.759   6.569
 7458SOL    HW223274   2.118   6.645   6.683
 7459SOL     OW23275   4.483   0.379   6.871
 7459SOL    HW123276   4.539   0.367   6.953
 7459SOL    HW223277   4.494   0.300   6.811
 7460SOL     OW23278   1.923   5.221   0.325
 7460SOL    HW123279   1.908   5.128   0.290
 7460SOL    HW223280   1.990   5.218   0.399
 7461SOL     OW23281   5.354   1.297   5.496
 7461SOL    HW123282   5.438   1.310   5.550
 7461SOL    HW223283   5.279   1.274   5.556
 7462SOL     OW23284   1.766   2.489   1.465
 7462SOL    HW123285   1.859   2.514   1.439
 7462SOL    HW223286   1.723   2.567   1.511
 7463SOL     OW23287   3.634   3.070   1.756
 7463SOL    HW123288   3.644   3.062   1.657
 7463SOL    HW223289   3.537   3.068   1.780
 7464SOL     OW23290   4.012   5.958   6.425
 7464SOL    HW123291   3.929   5.958   6.480
 7464SOL    HW223292   4.073   5.885   6.457
 7465SOL     OW23293   1.582   0.437   1.203
 7465SOL    HW123294   1.553   0.373   1.131
 7465SOL    HW223295   1.618   0.520   1.161
 7466SOL     OW23296   0.690   0.257   6.381
 7466SOL    HW123297   0.732   0.240   6.291
 7466SOL    HW223298   0.640   0.175   6.410
 7467SOL     OW23299   6.173   2.537   1.139
 7467SOL    HW123300   6.197   2.457   1.085
 7467SOL    HW223301   6.225   2.616   1.106
 7468SOL     OW23302   4.683   2.178   2.411
 7468SOL    HW123303   4.592   2.187   2.450
 7468SOL    HW223304   4.722   2.269   2.398
 7469SOL     OW23305   1.106   0.068   6.925
 7469SOL    HW123306   1.026   0.097   6.874
 7469SOL    HW223307   1.077   0.034   7.015
 7470SOL     OW23308   0.535   2.688   2.857
 7470SOL    HW123309   0.590   2.744   2.795
 7470SOL    HW223310   0.459   2.647   2.807
 7471SOL     OW23311   5.824   6.666   4.895
 7471SOL    HW123312   5.741   6.643   4.947
 7471SOL    HW223313   5.903   6.623   4.938
 7472SOL     OW23314   4.962   6.366   4.165
 7472SOL    HW123315   4.987   6.461   4.148
 7472SOL    HW223316   4.916   6.358   4.253
 7473SOL     OW23317   6.982   4.115   3.150
 7473SOL    HW123318   6.979   4.188   3.219
 7473SOL    HW223319   6.899   4.060   3.156
 7474SOL     OW23320   2.685   1.009   4.494
 7474SOL    HW123321   2.623   0.966   4.428
 7474SOL    HW223322   2.774   1.023   4.451
 7475SOL     OW23323   4.806   1.104   2.386
 7475SOL    HW123324   4.714   1.135   2.364
 7475SOL    HW223325   4.841   1.154   2.465
 7476SOL     OW23326   4.156   6.272   4.662
 7476SOL    HW123327   4.129   6.177   4.650
 7476SOL    HW223328   4.204   6.304   4.580
 7477SOL     OW23329   4.742   0.935   4.259
 7477SOL    HW123330   4.781   0.844   4.275
 7477SOL    HW223331   4.808   1.005   4.284
 7478SOL     OW23332   4.099   4.108   6.145
 7478SOL    HW123333   4.039   4.078   6.071
 7478SOL    HW223334   4.188   4.135   6.107
 7479SOL     OW23335   3.723   1.891   0.678
 7479SOL    HW123336   3.797   1.832   0.647
 7479SOL    HW223337   3.758   1.983   0.697
 7480SOL     OW23338   6.108   5.334   1.131
 7480SOL    HW123339   6.177   5.400   1.159
 7480SOL    HW223340   6.071   5.360   1.043
 7481SOL     OW23341   5.570   5.065   1.206
 7481SOL    HW123342   5.571   4.994   1.135
 7481SOL    HW223343   5.655   5.059   1.259
 7482SOL     OW23344   3.941   1.333   2.250
 7482SOL    HW123345   3.929   1.248   2.300
 7482SOL    HW223346   3.858   1.354   2.198
 7483SOL     OW23347   4.099   2.011   4.943
 7483SOL    HW123348   4.038   2.058   4.879
 7483SOL    HW223349   4.175   1.970   4.893
 7484SOL     OW23350   0.061   0.375   2.130
 7484SOL    HW123351   0.125   0.428   2.186
 7484SOL    HW223352   6.998   0.364   2.179
 7485SOL     OW23353   3.123   6.342   5.186
 7485SOL    HW123354   3.146   6.279   5.111
 7485SOL    HW223355   3.067   6.417   5.151
 7486SOL     OW23356   2.256   6.813   5.482
 7486SOL    HW123357   2.209   6.761   5.411
 7486SOL    HW223358   2.323   6.753   5.528
 7487SOL     OW23359   1.959   6.719   2.235
 7487SOL    HW123360   1.994   6.729   2.328
 7487SOL    HW223361   1.987   6.631   2.198
 7488SOL     OW23362   2.134   0.059   5.076
 7488SOL    HW123363   2.190   7.000   5.083
 7488SOL    HW223364   2.163   0.124   5.146
 7489SOL     OW23365   4.682   2.115   5.127
 7489SOL    HW123366   4.661   2.101   5.030
 7489SOL    HW223367   4.758   2.055   5.153
 7490SOL     OW23368   0.700   1.109   0.960
 7490SOL    HW123369   0.664   1.191   0.917
 7490SOL    HW223370   0.781   1.078   0.911
 7491SOL     OW23371   0.699   5.089   0.004
 7491SOL    HW123372   0.753   5.011   6.995
 7491SOL    HW223373   0.735   5.120   0.092
 7492SOL     OW23374   2.667   1.777   4.894
 7492SOL    HW123375   2.590   1.825   4.853
 7492SOL    HW223376   2.726   1.842   4.941
 7493SOL     OW23377   6.382   4.318   6.128
 7493SOL    HW123378   6.350   4.395   6.183
 7493SOL    HW223379   6.313   4.296   6.058
 7494SOL     OW23380   5.950   0.868   2.423
 7494SOL    HW123381   5.917   0.805   2.493
 7494SOL    HW223382   6.050   0.863   2.418
 7495SOL     OW23383   2.494   1.204   1.479
 7495SOL    HW123384   2.506   1.297   1.512
 7495SOL    HW223385   2.494   1.140   1.556
 7496SOL     OW23386   1.061   4.546   5.917
 7496SOL    HW123387   1.148   4.594   5.912
 7496SOL    HW223388   1.013   4.555   5.829
 7497SOL     OW23389   2.952   4.818   1.378
 7497SOL    HW123390   2.920   4.737   1.427
 7497SOL    HW223391   2.916   4.817   1.285
 7498SOL     OW23392   2.606   1.334   4.194
 7498SOL    HW123393   2.548   1.271   4.246
 7498SOL    HW223394   2.553   1.373   4.119
 7499SOL     OW23395   6.282   0.287   3.348
 7499SOL    HW123396   6.231   0.339   3.417
 7499SOL    HW223397   6.250   0.312   3.257
 7500SOL     OW23398   3.960   5.975   2.607
 7500SOL    HW123399   3.901   5.940   2.679
 7500SOL    HW223400   3.990   6.068   2.630
 7501SOL     OW23401   6.706   4.259   4.419
 7501SOL    HW123402   6.755   4.321   4.358
 7501SOL    HW223403   6.644   4.202   4.366
 7502SOL     OW23404   1.366   1.716   5.262
 7502SOL    HW123405   1.307   1.710   5.342
 7502SOL    HW223406   1.418   1.801   5.265
 7503SOL     OW23407   2.949   0.869   6.734
 7503SOL    HW123408   2.865   0.824   6.764
 7503SOL    HW223409   2.927   0.943   6.671
 7504SOL     OW23410   4.214   6.956   3.532
 7504SOL    HW123411   4.116   6.969   3.548
 7504SOL    HW223412   4.241   6.864   3.560
 7505SOL     OW23413   2.984   0.885   5.218
 7505SOL    HW123414   2.960   0.925   5.129
 7505SOL    HW223415   2.975   0.955   5.289
 7506SOL     OW23416   4.190   0.867   2.666
 7506SOL    HW123417   4.177   0.840   2.761
 7506SOL    HW223418   4.108   0.916   2.634
 7507SOL     OW23419   7.005   6.657   0.254
 7507SOL    HW123420   6.915   6.629   0.288
 7507SOL    HW223421   7.004   6.658   0.154
 7508SOL     OW23422   5.602   6.734   2.640
 7508SOL    HW123423   5.577   6.770   2.730
 7508SOL    HW223424   5.604   6.809   2.574
 7509SOL     OW23425   4.716   4.804   0.417
 7509SOL    HW123426   4.621   4.781   0.438
 7509SOL    HW223427   4.720   4.861   0.335
 7510SOL     OW23428   2.795   3.856   5.414
 7510SOL    HW123429   2.702   3.890   5.403
 7510SOL    HW223430   2.837   3.845   5.323
 7511SOL     OW23431   1.665   0.504   2.210
 7511SOL    HW123432   1.569   0.512   2.239
 7511SOL    HW223433   1.725   0.532   2.285
 7512SOL     OW23434   2.962   4.137   1.385
 7512SOL    HW123435   2.961   4.191   1.470
 7512SOL    HW223436   2.976   4.198   1.307
 7513SOL     OW23437   1.696   2.482   0.533
 7513SOL    HW123438   1.686   2.534   0.448
 7513SOL    HW223439   1.792   2.486   0.563
 7514SOL     OW23440   2.393   5.994   2.100
 7514SOL    HW123441   2.382   6.037   2.189
 7514SOL    HW223442   2.416   6.063   2.031
 7515SOL     OW23443   0.930   0.053   2.617
 7515SOL    HW123444   0.914   0.005   2.531
 7515SOL    HW223445   0.843   0.087   2.653
 7516SOL     OW23446   0.033   5.786   4.336
 7516SOL    HW123447   7.020   5.775   4.244
 7516SOL    HW223448   0.133   5.784   4.332
 7517SOL     OW23449   6.575   3.631   1.176
 7517SOL    HW123450   6.596   3.687   1.096
 7517SOL    HW223451   6.593   3.684   1.259
 7518SOL     OW23452   3.905   5.963   3.765
 7518SOL    HW123453   3.887   5.902   3.841
 7518SOL    HW223454   3.925   5.909   3.683
 7519SOL     OW23455   0.166   6.529   4.102
 7519SOL    HW123456   0.222   6.447   4.112
 7519SOL    HW223457   0.118   6.548   4.188
 7520SOL     OW23458   2.519   0.557   1.908
 7520SOL    HW123459   2.506   0.465   1.870
 7520SOL    HW223460   2.429   0.600   1.920
 7521SOL     OW23461   4.384   4.648   5.415
 7521SOL    HW123462   4.310   4.716   5.419
 7521SOL    HW223463   4.430   4.644   5.504
 7522SOL     OW23464   2.652   0.882   6.426
 7522SOL    HW123465   2.643   0.907   6.522
 7522SOL    HW223466   2.576   0.920   6.374
 7523SOL     OW23467   5.933   1.409   5.604
 7523SOL    HW123468   5.928   1.470   5.525
 7523SOL    HW223469   5.860   1.341   5.597
 7524SOL     OW23470   0.418   2.501   5.893
 7524SOL    HW123471   0.393   2.510   5.797
 7524SOL    HW223472   0.354   2.440   5.939
 7525SOL     OW23473   2.522   0.287   6.063
 7525SOL    HW123474   2.447   0.228   6.092
 7525SOL    HW223475   2.551   0.262   5.971
 7526SOL     OW23476   3.746   3.026   3.311
 7526SOL    HW123477   3.755   2.949   3.249
 7526SOL    HW223478   3.817   3.094   3.291
 7527SOL     OW23479   4.717   4.512   2.629
 7527SOL    HW123480   4.691   4.574   2.555
 7527SOL    HW223481   4.702   4.418   2.599
 7528SOL     OW23482   4.722   2.536   0.455
 7528SOL    HW123483   4.758   2.556   0.546
 7528SOL    HW223484   4.644   2.473   0.462
 7529SOL     OW23485   5.360   1.199   4.191
 7529SOL    HW123486   5.388   1.106   4.213
 7529SOL    HW223487   5.398   1.262   4.259
 7530SOL     OW23488   6.878   3.272   2.351
 7530SOL    HW123489   6.907   3.284   2.256
 7530SOL    HW223490   6.848   3.178   2.365
 7531SOL     OW23491   4.393   2.390   4.331
 7531SOL    HW123492   4.365   2.481   4.301
 7531SOL    HW223493   4.381   2.325   4.256
 7532SOL     OW23494   5.498   5.417   1.822
 7532SOL    HW123495   5.547   5.349   1.767
 7532SOL    HW223496   5.400   5.412   1.802
 7533SOL     OW23497   1.896   1.495   3.040
 7533SOL    HW123498   1.993   1.520   3.035
 7533SOL    HW223499   1.872   1.437   2.962
 7534SOL     OW23500   3.717   6.467   4.703
 7534SOL    HW123501   3.802   6.491   4.750
 7534SOL    HW223502   3.710   6.368   4.694
 7535SOL     OW23503   2.982   1.245   5.722
 7535SOL    HW123504   3.056   1.296   5.766
 7535SOL    HW223505   2.901   1.303   5.715
 7536SOL     OW23506   5.456   5.045   5.010
 7536SOL    HW123507   5.356   5.051   5.015
 7536SOL    HW223508   5.491   5.004   5.094
 7537SOL     OW23509   1.767   4.386   5.424
 7537SOL    HW123510   1.866   4.396   5.410
 7537SOL    HW223511   1.739   4.294   5.399
 7538SOL     OW23512   3.285   3.384   2.491
 7538SOL    HW123513   3.233   3.322   2.550
 7538SOL    HW223514   3.340   3.445   2.547
 7539SOL     OW23515   2.643   2.526   5.220
 7539SOL    HW123516   2.614   2.619   5.243
 7539SOL    HW223517   2.731   2.506   5.263
 7540SOL     OW23518   3.419   1.153   6.100
 7540SOL    HW123519   3.420   1.065   6.147
 7540SOL    HW223520   3.400   1.139   6.003
 7541SOL     OW23521   0.057   3.986   5.080
 7541SOL    HW123522   0.084   4.001   5.175
 7541SOL    HW223523   6.981   3.977   5.075
 7542SOL     OW23524   0.605   6.573   6.225
 7542SOL    HW123525   0.523   6.547   6.277
 7542SOL    HW223526   0.584   6.570   6.128
 7543SOL     OW23527   4.310   1.878   0.599
 7543SOL    HW123528   4.304   1.905   0.503
 7543SOL    HW223529   4.354   1.951   0.652
 7544SOL     OW23530   0.203   1.730   3.278
 7544SOL    HW123531   0.221   1.679   3.194
 7544SOL    HW223532   0.284   1.729   3.336
 7545SOL     OW23533   4.936   6.697   3.096
 7545SOL    HW123534   4.894   6.708   3.186
 7545SOL    HW223535   4.903   6.768   3.035
 7546SOL     OW23536   4.528   0.599   1.115
 7546SOL    HW123537   4.585   0.611   1.034
 7546SOL    HW223538   4.514   0.688   1.160
 7547SOL     OW23539   3.890   6.585   0.444
 7547SOL    HW123540   3.967   6.633   0.403
 7547SOL    HW223541   3.866   6.506   0.387
 7548SOL     OW23542   2.698   1.902   0.572
 7548SOL    HW123543   2.792   1.897   0.539
 7548SOL    HW223544   2.679   1.823   0.629
 7549SOL     OW23545   5.273   1.795   1.829
 7549SOL    HW123546   5.219   1.790   1.913
 7549SOL    HW223547   5.253   1.881   1.782
 7550SOL     OW23548   2.571   5.406   2.661
 7550SOL    HW123549   2.653   5.348   2.658
 7550SOL    HW223550   2.495   5.358   2.618
 7551SOL     OW23551   4.778   4.044   6.423
 7551SOL    HW123552   4.827   4.062   6.508
 7551SOL    HW223553   4.698   3.986   6.441
 7552SOL     OW23554   2.350   5.605   3.922
 7552SOL    HW123555   2.393   5.680   3.871
 7552SOL    HW223556   2.330   5.529   3.859
 7553SOL     OW23557   3.698   5.031   6.061
 7553SOL    HW123558   3.724   4.938   6.086
 7553SOL    HW223559   3.626   5.064   6.121
 7554SOL     OW23560   5.224   1.246   0.865
 7554SOL    HW123561   5.189   1.337   0.886
 7554SOL    HW223562   5.217   1.188   0.946
 7555SOL     OW23563   1.523   5.449   4.903
 7555SOL    HW123564   1.544   5.444   5.001
 7555SOL    HW223565   1.588   5.393   4.852
 7556SOL     OW23566   0.053   2.190   5.524
 7556SOL    HW123567   6.978   2.195   5.534
 7556SOL    HW223568   0.097   2.201   5.613
 7557SOL     OW23569   5.061   3.792   5.665
 7557SOL    HW123570   5.071   3.872   5.724
 7557SOL    HW223571   4.996   3.813   5.592
 7558SOL     OW23572   2.305   2.822   4.143
 7558SOL    HW123573   2.272   2.916   4.131
 7558SOL    HW223574   2.263   2.782   4.224
 7559SOL     OW23575   6.587   5.301   1.383
 7559SOL    HW123576   6.594   5.376   1.449
 7559SOL    HW223577   6.640   5.325   1.301
 7560SOL     OW23578   5.027   6.528   6.805
 7560SOL    HW123579   5.036   6.429   6.808
 7560SOL    HW223580   5.022   6.558   6.709
 7561SOL     OW23581   0.834   3.279   0.146
 7561SOL    HW123582   0.915   3.227   0.121
 7561SOL    HW223583   0.755   3.245   0.094
 7562SOL     OW23584   4.536   5.992   4.714
 7562SOL    HW123585   4.494   5.988   4.624
 7562SOL    HW223586   4.464   6.004   4.783
 7563SOL     OW23587   2.965   0.026   0.667
 7563SOL    HW123588   2.948   0.018   0.569
 7563SOL    HW223589   2.940   6.964   0.712
 7564SOL     OW23590   5.114   1.309   3.583
 7564SOL    HW123591   5.047   1.366   3.535
 7564SOL    HW223592   5.206   1.329   3.550
 7565SOL     OW23593   5.044   4.307   6.303
 7565SOL    HW123594   5.100   4.277   6.381
 7565SOL    HW223595   4.990   4.229   6.270
 7566SOL     OW23596   1.183   4.719   3.733
 7566SOL    HW123597   1.107   4.654   3.730
 7566SOL    HW223598   1.257   4.680   3.787
 7567SOL     OW23599   1.476   2.899   5.409
 7567SOL    HW123600   1.379   2.921   5.415
 7567SOL    HW223601   1.528   2.964   5.464
 7568SOL     OW23602   6.145   5.829   4.195
 7568SOL    HW123603   6.127   5.762   4.123
 7568SOL    HW223604   6.220   5.796   4.252
 7569SOL     OW23605   4.569   5.625   6.318
 7569SOL    HW123606   4.564   5.558   6.392
 7569SOL    HW223607   4.606   5.711   6.353
 7570SOL     OW23608   5.712   4.914   5.547
 7570SOL    HW123609   5.631   4.891   5.601
 7570SOL    HW223610   5.720   4.851   5.470
 7571SOL     OW23611   5.188   4.749   1.691
 7571SOL    HW123612   5.095   4.774   1.718
 7571SOL    HW223613   5.227   4.685   1.757
 7572SOL     OW23614   5.052   0.648   3.818
 7572SOL    HW123615   4.982   0.581   3.842
 7572SOL    HW223616   5.140   0.621   3.857
 7573SOL     OW23617   5.795   5.506   4.421
 7573SOL    HW123618   5.779   5.457   4.506
 7573SOL    HW223619   5.735   5.468   4.350
 7574SOL     OW23620   6.381   1.568   4.683
 7574SOL    HW123621   6.449   1.572   4.610
 7574SOL    HW223622   6.349   1.660   4.704
 7575SOL     OW23623   4.715   0.805   5.984
 7575SOL    HW123624   4.619   0.792   5.960
 7575SOL    HW223625   4.740   0.901   5.973
 7576SOL     OW23626   6.096   5.388   0.047
 7576SOL    HW123627   6.088   5.486   0.027
 7576SOL    HW223628   6.067   5.336   6.991
 7577SOL     OW23629   6.972   0.160   5.176
 7577SOL    HW123630   6.986   0.219   5.096
 7577SOL    HW223631   6.952   0.067   5.145
 7578SOL     OW23632   1.472   6.591   3.717
 7578SOL    HW123633   1.517   6.675   3.747
 7578SOL    HW223634   1.540   6.528   3.680
 7579SOL     OW23635   4.043   2.050   2.341
 7579SOL    HW123636   4.132   2.012   2.314
 7579SOL    HW223637   3.980   2.046   2.263
 7580SOL     OW23638   1.259   3.792   4.070
 7580SOL    HW123639   1.298   3.883   4.054
 7580SOL    HW223640   1.329   3.723   4.053
 7581SOL     OW23641   4.617   0.870   1.394
 7581SOL    HW123642   4.670   0.946   1.358
 7581SOL    HW223643   4.670   0.785   1.383
 7582SOL     OW23644   3.714   1.381   0.550
 7582SOL    HW123645   3.799   1.368   0.601
 7582SOL    HW223646   3.724   1.346   0.458
 7583SOL     OW23647   6.121   3.926   2.005
 7583SOL    HW123648   6.079   4.014   1.983
 7583SOL    HW223649   6.058   3.852   1.984
 7584SOL     OW23650   2.709   6.652   1.219
 7584SOL    HW123651   2.652   6.639   1.300
 7584SOL    HW223652   2.779   6.580   1.215
 7585SOL     OW23653   1.375   3.045   5.992
 7585SOL    HW123654   1.393   2.958   6.037
 7585SOL    HW223655   1.442   3.113   6.022
 7586SOL     OW23656   3.223   0.860   3.227
 7586SOL    HW123657   3.235   0.762   3.246
 7586SOL    HW223658   3.128   0.886   3.245
 7587SOL     OW23659   3.261   1.477   0.048
 7587SOL    HW123660   3.209   1.508   6.993
 7587SOL    HW223661   3.232   1.527   0.130
 7588SOL     OW23662   0.201   3.780   1.956
 7588SOL    HW123663   0.250   3.793   1.870
 7588SOL    HW223664   0.128   3.848   1.964
 7589SOL     OW23665   5.944   6.533   0.490
 7589SOL    HW123666   5.916   6.461   0.554
 7589SOL    HW223667   5.976   6.612   0.541
 7590SOL     OW23668   2.963   1.764   6.428
 7590SOL    HW123669   2.873   1.794   6.398
 7590SOL    HW223670   3.033   1.803   6.369
 7591SOL     OW23671   0.229   5.436   0.709
 7591SOL    HW123672   0.181   5.523   0.704
 7591SOL    HW223673   0.313   5.440   0.654
 7592SOL     OW23674   0.157   4.634   6.969
 7592SOL    HW123675   0.216   4.691   0.002
 7592SOL    HW223676   0.153   4.673   6.877
 7593SOL     OW23677   6.136   2.534   6.482
 7593SOL    HW123678   6.039   2.556   6.468
 7593SOL    HW223679   6.155   2.445   6.441
 7594SOL     OW23680   0.341   4.432   2.218
 7594SOL    HW123681   0.261   4.482   2.252
 7594SOL    HW223682   0.421   4.456   2.272
 7595SOL     OW23683   0.483   2.607   6.197
 7595SOL    HW123684   0.497   2.614   6.099
 7595SOL    HW223685   0.411   2.670   6.226
 7596SOL     OW23686   4.777   5.442   2.652
 7596SOL    HW123687   4.862   5.393   2.668
 7596SOL    HW223688   4.735   5.466   2.739
 7597SOL     OW23689   2.896   5.706   1.510
 7597SOL    HW123690   2.941   5.669   1.429
 7597SOL    HW223691   2.963   5.720   1.582
 7598SOL     OW23692   6.326   0.878   2.760
 7598SOL    HW123693   6.365   0.956   2.809
 7598SOL    HW223694   6.271   0.823   2.822
 7599SOL     OW23695   5.011   1.105   3.755
 7599SOL    HW123696   5.048   1.159   3.679
 7599SOL    HW223697   4.954   1.031   3.719
 7600SOL     OW23698   1.892   0.647   2.386
 7600SOL    HW123699   1.980   0.680   2.418
 7600SOL    HW223700   1.829   0.638   2.463
 7601SOL     OW23701   1.724   5.392   2.947
 7601SOL    HW123702   1.641   5.379   3.002
 7601SOL    HW223703   1.705   5.370   2.852
 7602SOL     OW23704   1.457   3.683   5.573
 7602SOL    HW123705   1.542   3.696   5.624
 7602SOL    HW223706   1.387   3.745   5.609
 7603SOL     OW23707   1.333   6.173   6.255
 7603SOL    HW123708   1.282   6.122   6.186
 7603SOL    HW223709   1.330   6.271   6.234
 7604SOL     OW23710   2.779   5.485   3.995
 7604SOL    HW123711   2.740   5.480   4.087
 7604SOL    HW223712   2.718   5.439   3.931
 7605SOL     OW23713   1.494   6.308   0.319
 7605SOL    HW123714   1.511   6.218   0.279
 7605SOL    HW223715   1.559   6.374   0.282
 7606SOL     OW23716   0.378   2.246   2.280
 7606SOL    HW123717   0.403   2.308   2.354
 7606SOL    HW223718   0.329   2.167   2.317
 7607SOL     OW23719   4.259   6.455   0.367
 7607SOL    HW123720   4.347   6.453   0.318
 7607SOL    HW223721   4.202   6.528   0.330
 7608SOL     OW23722   3.292   3.613   3.368
 7608SOL    HW123723   3.219   3.585   3.429
 7608SOL    HW223724   3.312   3.539   3.303
 7609SOL     OW23725   6.836   3.812   3.346
 7609SOL    HW123726   6.928   3.836   3.377
 7609SOL    HW223727   6.831   3.819   3.247
 7610SOL     OW23728   5.629   0.709   0.008
 7610SOL    HW123729   5.668   0.620   7.008
 7610SOL    HW223730   5.687   0.782   6.996
 7611SOL     OW23731   0.467   1.934   0.298
 7611SOL    HW123732   0.431   1.855   0.348
 7611SOL    HW223733   0.520   1.903   0.219
 7612SOL     OW23734   4.063   2.214   4.642
 7612SOL    HW123735   3.994   2.263   4.694
 7612SOL    HW223736   4.027   2.126   4.612
 7613SOL     OW23737   4.947   1.842   1.825
 7613SOL    HW123738   4.999   1.886   1.899
 7613SOL    HW223739   4.924   1.748   1.852
 7614SOL     OW23740   4.564   2.832   1.461
 7614SOL    HW123741   4.602   2.820   1.552
 7614SOL    HW223742   4.509   2.752   1.437
 7615SOL     OW23743   4.996   4.667   6.075
 7615SOL    HW123744   4.995   4.766   6.057
 7615SOL    HW223745   4.956   4.650   6.165
 7616SOL     OW23746   0.582   4.548   3.951
 7616SOL    HW123747   0.681   4.549   3.959
 7616SOL    HW223748   0.552   4.465   3.904
 7617SOL     OW23749   2.931   5.702   2.564
 7617SOL    HW123750   2.860   5.644   2.525
 7617SOL    HW223751   2.999   5.645   2.610
 7618SOL     OW23752   0.991   2.139   0.125
 7618SOL    HW123753   1.090   2.140   0.140
 7618SOL    HW223754   0.970   2.177   0.035
 7619SOL     OW23755   5.863   3.321   4.516
 7619SOL    HW123756   5.791   3.379   4.553
 7619SOL    HW223757   5.913   3.278   4.591
 7620SOL     OW23758   4.201   5.675   6.730
 7620SOL    HW123759   4.122   5.691   6.789
 7620SOL    HW223760   4.221   5.757   6.677
 7621SOL     OW23761   0.524   1.557   0.733
 7621SOL    HW123762   0.559   1.541   0.641
 7621SOL    HW223763   0.433   1.517   0.742
 7622SOL     OW23764   5.151   3.990   1.624
 7622SOL    HW123765   5.106   4.043   1.696
 7622SOL    HW223766   5.092   3.987   1.543
 7623SOL     OW23767   4.428   4.799   6.442
 7623SOL    HW123768   4.435   4.898   6.452
 7623SOL    HW223769   4.485   4.769   6.365
 7624SOL     OW23770   0.419   2.709   4.444
 7624SOL    HW123771   0.516   2.694   4.462
 7624SOL    HW223772   0.407   2.789   4.386
 7625SOL     OW23773   4.655   0.390   1.553
 7625SOL    HW123774   4.755   0.395   1.561
 7625SOL    HW223775   4.631   0.369   1.459
 7626SOL     OW23776   6.873   6.477   5.297
 7626SOL    HW123777   6.815   6.491   5.377
 7626SOL    HW223778   6.887   6.379   5.282
 7627SOL     OW23779   5.947   3.525   6.738
 7627SOL    HW123780   5.921   3.504   6.832
 7627SOL    HW223781   5.993   3.614   6.736
 7628SOL     OW23782   3.164   0.370   1.111
 7628SOL    HW123783   3.107   0.293   1.143
 7628SOL    HW223784   3.251   0.335   1.078
 7629SOL     OW23785   6.196   6.793   2.622
 7629SOL    HW123786   6.200   6.800   2.721
 7629SOL    HW223787   6.105   6.765   2.594
 7630SOL     OW23788   5.903   6.133   1.878
 7630SOL    HW123789   5.962   6.061   1.914
 7630SOL    HW223790   5.815   6.131   1.925
 7631SOL     OW23791   0.595   1.754   5.413
 7631SOL    HW123792   0.693   1.761   5.431
 7631SOL    HW223793   0.568   1.826   5.349
 7632SOL     OW23794   3.639   2.225   1.607
 7632SOL    HW123795   3.659   2.288   1.532
 7632SOL    HW223796   3.639   2.275   1.694
 7633SOL     OW23797   5.139   3.016   0.121
 7633SOL    HW123798   5.197   2.939   0.149
 7633SOL    HW223799   5.126   3.013   0.022
 7634SOL     OW23800   1.100   1.376   1.993
 7634SOL    HW123801   1.199   1.377   2.012
 7634SOL    HW223802   1.083   1.327   1.908
 7635SOL     OW23803   2.533   5.180   5.544
 7635SOL    HW123804   2.545   5.225   5.455
 7635SOL    HW223805   2.514   5.083   5.529
 7636SOL     OW23806   0.855   1.200   3.051
 7636SOL    HW123807   0.761   1.225   3.076
 7636SOL    HW223808   0.886   1.258   2.976
 7637SOL     OW23809   2.016   6.452   2.512
 7637SOL    HW123810   2.048   6.358   2.497
 7637SOL    HW223811   2.067   6.514   2.454
 7638SOL     OW23812   4.845   6.047   2.229
 7638SOL    HW123813   4.833   5.949   2.210
 7638SOL    HW223814   4.759   6.085   2.261
 7639SOL     OW23815   1.503   2.243   0.357
 7639SOL    HW123816   1.499   2.275   0.451
 7639SOL    HW223817   1.559   2.161   0.351
 7640SOL     OW23818   2.877   2.363   0.410
 7640SOL    HW123819   2.858   2.349   0.313
 7640SOL    HW223820   2.974   2.350   0.427
 7641SOL     OW23821   0.552   4.491   1.451
 7641SOL    HW123822   0.577   4.421   1.517
 7641SOL    HW223823   0.460   4.524   1.471
 7642SOL     OW23824   2.486   1.611   3.147
 7642SOL    HW123825   2.502   1.550   3.224
 7642SOL    HW223826   2.573   1.637   3.106
 7643SOL     OW23827   4.445   1.642   3.933
 7643SOL    HW123828   4.518   1.626   3.999
 7643SOL    HW223829   4.472   1.605   3.844
 7644SOL     OW23830   6.137   1.971   2.579
 7644SOL    HW123831   6.224   1.992   2.622
 7644SOL    HW223832   6.062   2.010   2.632
 7645SOL     OW23833   4.434   4.326   6.099
 7645SOL    HW123834   4.516   4.358   6.146
 7645SOL    HW223835   4.354   4.344   6.155
 7646SOL     OW23836   1.900   2.598   2.145
 7646SOL    HW123837   1.873   2.674   2.086
 7646SOL    HW223838   1.958   2.633   2.220
 7647SOL     OW23839   1.271   2.779   1.347
 7647SOL    HW123840   1.220   2.700   1.311
 7647SOL    HW223841   1.364   2.778   1.310
 7648SOL     OW23842   3.912   2.196   3.629
 7648SOL    HW123843   3.815   2.175   3.622
 7648SOL    HW223844   3.933   2.235   3.719
 7649SOL     OW23845   1.808   0.878   2.744
 7649SOL    HW123846   1.744   0.804   2.765
 7649SOL    HW223847   1.897   0.857   2.784
 7650SOL     OW23848   5.624   3.492   1.277
 7650SOL    HW123849   5.655   3.487   1.182
 7650SOL    HW223850   5.701   3.474   1.338
 7651SOL     OW23851   2.562   0.106   4.753
 7651SOL    HW123852   2.470   0.074   4.731
 7651SOL    HW223853   2.629   0.058   4.696
 7652SOL     OW23854   0.460   4.185   4.308
 7652SOL    HW123855   0.439   4.236   4.224
 7652SOL    HW223856   0.461   4.249   4.386
 7653SOL     OW23857   2.509   1.665   1.011
 7653SOL    HW123858   2.461   1.665   1.099
 7653SOL    HW223859   2.599   1.623   1.022
 7654SOL     OW23860   5.057   2.934   3.499
 7654SOL    HW123861   5.127   2.900   3.436
 7654SOL    HW223862   5.100   2.991   3.569
 7655SOL     OW23863   3.858   0.359   3.732
 7655SOL    HW123864   3.866   0.404   3.643
 7655SOL    HW223865   3.945   0.365   3.781
 7656SOL     OW23866   1.590   5.549   5.806
 7656SOL    HW123867   1.666   5.528   5.868
 7656SOL    HW223868   1.626   5.567   5.714
 7657SOL     OW23869   2.639   2.481   2.939
 7657SOL    HW123870   2.581   2.401   2.954
 7657SOL    HW223871   2.642   2.536   3.022
 7658SOL     OW23872   4.262   6.692   5.898
 7658SOL    HW123873   4.209   6.613   5.867
 7658SOL    HW223874   4.201   6.771   5.907
 7659SOL     OW23875   5.481   5.736   6.777
 7659SOL    HW123876   5.417   5.722   6.853
 7659SOL    HW223877   5.571   5.761   6.814
 7660SOL     OW23878   6.150   5.380   4.135
 7660SOL    HW123879   6.225   5.444   4.117
 7660SOL    HW223880   6.109   5.400   4.223
 7661SOL     OW23881   6.170   2.151   4.801
 7661SOL    HW123882   6.179   2.213   4.723
 7661SOL    HW223883   6.117   2.071   4.774
 7662SOL     OW23884   1.064   1.968   2.497
 7662SOL    HW123885   0.994   1.973   2.426
 7662SOL    HW223886   1.079   1.873   2.523
 7663SOL     OW23887   6.039   6.716   6.239
 7663SOL    HW123888   6.114   6.650   6.231
 7663SOL    HW223889   6.008   6.719   6.334
 7664SOL     OW23890   3.674   0.968   2.641
 7664SOL    HW123891   3.660   0.885   2.587
 7664SOL    HW223892   3.680   1.047   2.581
 7665SOL     OW23893   4.220   0.423   3.822
 7665SOL    HW123894   4.275   0.365   3.762
 7665SOL    HW223895   4.260   0.515   3.824
 7666SOL     OW23896   0.177   0.254   1.421
 7666SOL    HW123897   0.144   0.277   1.329
 7666SOL    HW223898   0.102   0.261   1.486
 7667SOL     OW23899   4.835   6.003   1.500
 7667SOL    HW123900   4.737   6.021   1.506
 7667SOL    HW223901   4.869   5.975   1.590
 7668SOL     OW23902   2.728   4.489   0.897
 7668SOL    HW123903   2.679   4.573   0.919
 7668SOL    HW223904   2.827   4.507   0.900
 7669SOL     OW23905   5.441   1.744   5.123
 7669SOL    HW123906   5.403   1.663   5.168
 7669SOL    HW223907   5.491   1.716   5.041
 7670SOL     OW23908   1.498   5.981   6.052
 7670SOL    HW123909   1.526   5.899   6.003
 7670SOL    HW223910   1.579   6.034   6.077
 7671SOL     OW23911   4.387   0.856   5.236
 7671SOL    HW123912   4.471   0.862   5.183
 7671SOL    HW223913   4.356   0.947   5.261
 7672SOL     OW23914   5.861   6.187   3.706
 7672SOL    HW123915   5.932   6.116   3.709
 7672SOL    HW223916   5.854   6.222   3.613
 7673SOL     OW23917   2.207   5.388   0.332
 7673SOL    HW123918   2.109   5.370   0.320
 7673SOL    HW223919   2.223   5.487   0.333
 7674SOL     OW23920   6.576   2.449   3.931
 7674SOL    HW123921   6.520   2.423   3.852
 7674SOL    HW223922   6.545   2.398   4.012
 7675SOL     OW23923   5.219   0.800   2.694
 7675SOL    HW123924   5.317   0.794   2.713
 7675SOL    HW223925   5.174   0.716   2.723
 7676SOL     OW23926   1.171   1.906   0.345
 7676SOL    HW123927   1.108   1.948   0.410
 7676SOL    HW223928   1.259   1.889   0.389
 7677SOL     OW23929   0.720   3.763   1.777
 7677SOL    HW123930   0.819   3.753   1.774
 7677SOL    HW223931   0.692   3.794   1.868
 7678SOL     OW23932   1.816   1.586   5.703
 7678SOL    HW123933   1.804   1.590   5.803
 7678SOL    HW223934   1.832   1.491   5.675
 7679SOL     OW23935   1.569   6.530   5.165
 7679SOL    HW123936   1.613   6.599   5.222
 7679SOL    HW223937   1.622   6.517   5.081
 7680SOL     OW23938   1.797   2.433   0.034
 7680SOL    HW123939   1.841   2.438   0.123
 7680SOL    HW223940   1.712   2.380   0.041
 7681SOL     OW23941   2.943   0.015   0.391
 7681SOL    HW123942   3.027   6.984   0.386
 7681SOL    HW223943   2.873   6.997   0.333
 7682SOL     OW23944   2.740   0.187   2.045
 7682SOL    HW123945   2.664   0.135   2.007
 7682SOL    HW223946   2.736   0.282   2.012
 7683SOL     OW23947   6.692   2.130   4.324
 7683SOL    HW123948   6.595   2.132   4.298
 7683SOL    HW223949   6.700   2.110   4.421
 7684SOL     OW23950   5.524   1.961   0.537
 7684SOL    HW123951   5.551   1.907   0.617
 7684SOL    HW223952   5.462   2.034   0.566
 7685SOL     OW23953   3.391   3.548   0.042
 7685SOL    HW123954   3.442   3.505   6.992
 7685SOL    HW223955   3.335   3.622   0.005
 7686SOL     OW23956   4.876   0.328   3.462
 7686SOL    HW123957   4.790   0.281   3.441
 7686SOL    HW223958   4.897   0.317   3.560
 7687SOL     OW23959   5.878   5.416   5.670
 7687SOL    HW123960   5.817   5.340   5.652
 7687SOL    HW223961   5.928   5.440   5.586
 7688SOL     OW23962   0.333   0.626   6.194
 7688SOL    HW123963   0.277   0.633   6.112
 7688SOL    HW223964   0.367   0.717   6.219
 7689SOL     OW23965   5.359   5.736   3.361
 7689SOL    HW123966   5.314   5.814   3.406
 7689SOL    HW223967   5.397   5.675   3.430
 7690SOL     OW23968   5.940   5.123   1.145
 7690SOL    HW123969   5.859   5.168   1.107
 7690SOL    HW223970   6.018   5.185   1.140
 7691SOL     OW23971   4.973   2.590   4.471
 7691SOL    HW123972   4.901   2.582   4.402
 7691SOL    HW223973   5.050   2.641   4.432
 7692SOL     OW23974   0.663   6.910   1.502
 7692SOL    HW123975   0.675   6.861   1.589
 7692SOL    HW223976   0.748   6.905   1.450
 7693SOL     OW23977   4.445   6.760   0.830
 7693SOL    HW123978   4.400   6.693   0.771
 7693SOL    HW223979   4.497   6.712   0.902
 7694SOL     OW23980   0.410   4.411   4.151
 7694SOL    HW123981   0.401   4.498   4.200
 7694SOL    HW223982   0.487   4.417   4.088
 7695SOL     OW23983   3.946   6.839   0.525
 7695SOL    HW123984   3.915   6.894   0.603
 7695SOL    HW223985   3.888   6.759   0.515
 7696SOL     OW23986   6.800   1.931   4.958
 7696SOL    HW123987   6.820   2.028   4.972
 7696SOL    HW223988   6.724   1.922   4.893
 7697SOL     OW23989   3.113   0.571   2.575
 7697SOL    HW123990   3.112   0.667   2.603
 7697SOL    HW223991   3.189   0.557   2.512
 7698SOL     OW23992   0.403   2.884   4.736
 7698SOL    HW123993   0.401   2.786   4.754
 7698SOL    HW223994   0.351   2.903   4.653
 7699SOL     OW23995   3.858   5.874   6.654
 7699SOL    HW123996   3.766   5.836   6.654
 7699SOL    HW223997   3.908   5.841   6.734
 7700SOL     OW23998   4.561   6.136   5.377
 7700SOL    HW123999   4.466   6.123   5.347
 7700SOL    HW224000   4.568   6.219   5.431
 7701SOL     OW24001   6.314   1.870   6.697
 7701SOL    HW124002   6.246   1.940   6.678
 7701SOL    HW224003   6.334   1.867   6.795
 7702SOL     OW24004   3.165   6.249   5.729
 7702SOL    HW124005   3.165   6.310   5.650
 7702SOL    HW224006   3.175   6.303   5.813
 7703SOL     OW24007   6.756   1.412   4.843
 7703SOL    HW124008   6.773   1.505   4.810
 7703SOL    HW224009   6.840   1.377   4.885
 7704SOL     OW24010   4.767   4.713   5.526
 7704SOL    HW124011   4.813   4.625   5.535
 7704SOL    HW224012   4.774   4.745   5.431
 7705SOL     OW24013   3.715   5.072   6.492
 7705SOL    HW124014   3.631   5.114   6.459
 7705SOL    HW224015   3.698   5.027   6.580
 7706SOL     OW24016   4.894   1.425   5.762
 7706SOL    HW124017   4.839   1.343   5.780
 7706SOL    HW224018   4.981   1.418   5.813
 7707SOL     OW24019   1.036   6.071   6.760
 7707SOL    HW124020   1.096   6.101   6.686
 7707SOL    HW224021   0.965   6.139   6.775
 7708SOL     OW24022   4.898   6.097   5.413
 7708SOL    HW124023   4.908   6.002   5.444
 7708SOL    HW224024   4.831   6.101   5.339
 7709SOL     OW24025   5.138   3.688   1.991
 7709SOL    HW124026   5.136   3.644   1.901
 7709SOL    HW224027   5.232   3.695   2.023
 7710SOL     OW24028   2.702   0.693   0.984
 7710SOL    HW124029   2.749   0.666   1.067
 7710SOL    HW224030   2.740   0.780   0.951
 7711SOL     OW24031   6.253   6.096   5.042
 7711SOL    HW124032   6.342   6.052   5.029
 7711SOL    HW224033   6.264   6.195   5.032
 7712SOL     OW24034   6.340   4.150   1.372
 7712SOL    HW124035   6.388   4.189   1.293
 7712SOL    HW224036   6.282   4.220   1.414
 7713SOL     OW24037   1.699   4.219   0.275
 7713SOL    HW124038   1.763   4.206   0.199
 7713SOL    HW224039   1.614   4.170   0.255
 7714SOL     OW24040   6.417   5.617   5.057
 7714SOL    HW124041   6.502   5.659   5.090
 7714SOL    HW224042   6.431   5.518   5.049
 7715SOL     OW24043   4.606   1.367   1.192
 7715SOL    HW124044   4.684   1.413   1.235
 7715SOL    HW224045   4.637   1.318   1.111
 7716SOL     OW24046   6.114   3.503   3.188
 7716SOL    HW124047   6.188   3.570   3.184
 7716SOL    HW224048   6.026   3.550   3.195
 7717SOL     OW24049   2.655   1.262   4.812
 7717SOL    HW124050   2.638   1.182   4.870
 7717SOL    HW224051   2.658   1.344   4.869
 7718SOL     OW24052   2.052   2.197   2.371
 7718SOL    HW124053   2.074   2.289   2.405
 7718SOL    HW224054   2.136   2.145   2.360
 7719SOL     OW24055   6.909   3.709   3.629
 7719SOL    HW124056   6.834   3.647   3.604
 7719SOL    HW224057   6.991   3.684   3.578
 7720SOL     OW24058   0.116   6.952   0.379
 7720SOL    HW124059   0.191   6.926   0.440
 7720SOL    HW224060   0.029   6.929   0.422
 7721SOL     OW24061   1.528   4.342   2.822
 7721SOL    HW124062   1.526   4.245   2.801
 7721SOL    HW224063   1.566   4.356   2.914
 7722SOL     OW24064   0.669   5.410   2.308
 7722SOL    HW124065   0.629   5.445   2.393
 7722SOL    HW224066   0.669   5.310   2.310
 7723SOL     OW24067   6.484   4.194   0.315
 7723SOL    HW124068   6.399   4.222   0.359
 7723SOL    HW224069   6.486   4.229   0.221
 7724SOL     OW24070   2.294   4.218   2.057
 7724SOL    HW124071   2.212   4.237   2.003
 7724SOL    HW224072   2.337   4.304   2.084
 7725SOL     OW24073   5.539   2.580   3.131
 7725SOL    HW124074   5.594   2.508   3.087
 7725SOL    HW224075   5.493   2.635   3.061
 7726SOL     OW24076   0.329   5.683   3.999
 7726SOL    HW124077   0.236   5.647   3.996
 7726SOL    HW224078   0.377   5.644   4.077
 7727SOL     OW24079   6.599   1.647   3.172
 7727SOL    HW124080   6.526   1.713   3.150
 7727SOL    HW224081   6.599   1.629   3.270
 7728SOL     OW24082   1.095   3.823   3.515
 7728SOL    HW124083   0.998   3.809   3.538
 7728SOL    HW224084   1.118   3.920   3.529
 7729SOL     OW24085   6.071   2.658   1.435
 7729SOL    HW124086   6.063   2.741   1.490
 7729SOL    HW224087   6.155   2.661   1.381
 7730SOL     OW24088   6.086   5.275   2.021
 7730SOL    HW124089   6.063   5.365   1.983
 7730SOL    HW224090   6.184   5.270   2.038
 7731SOL     OW24091   6.105   1.215   1.085
 7731SOL    HW124092   6.126   1.283   1.155
 7731SOL    HW224093   6.029   1.247   1.029
 7732SOL     OW24094   4.488   6.098   0.829
 7732SOL    HW124095   4.565   6.163   0.837
 7732SOL    HW224096   4.413   6.142   0.780
 7733SOL     OW24097   4.557   6.251   1.938
 7733SOL    HW124098   4.458   6.252   1.946
 7733SOL    HW224099   4.592   6.160   1.961
 7734SOL     OW24100   1.852   4.242   3.763
 7734SOL    HW124101   1.932   4.299   3.743
 7734SOL    HW224102   1.840   4.174   3.690
 7735SOL     OW24103   3.686   5.908   6.134
 7735SOL    HW124104   3.772   5.859   6.148
 7735SOL    HW224105   3.704   6.006   6.128
 7736SOL     OW24106   5.224   4.525   6.706
 7736SOL    HW124107   5.301   4.463   6.721
 7736SOL    HW224108   5.147   4.495   6.762
 7737SOL     OW24109   4.284   0.758   1.215
 7737SOL    HW124110   4.326   0.750   1.305
 7737SOL    HW224111   4.267   0.667   1.177
 7738SOL     OW24112   1.750   5.737   6.715
 7738SOL    HW124113   1.701   5.815   6.676
 7738SOL    HW224114   1.689   5.685   6.774
 7739SOL     OW24115   0.512   1.127   1.724
 7739SOL    HW124116   0.450   1.052   1.746
 7739SOL    HW224117   0.604   1.105   1.758
 7740SOL     OW24118   0.856   0.473   3.021
 7740SOL    HW124119   0.809   0.390   2.991
 7740SOL    HW224120   0.927   0.449   3.087
 7741SOL     OW24121   1.305   5.935   4.456
 7741SOL    HW124122   1.305   5.960   4.359
 7741SOL    HW224123   1.393   5.892   4.479
 7742SOL     OW24124   6.450   2.245   3.520
 7742SOL    HW124125   6.369   2.283   3.476
 7742SOL    HW224126   6.439   2.146   3.529
 7743SOL     OW24127   4.473   2.287   6.352
 7743SOL    HW124128   4.528   2.249   6.278
 7743SOL    HW224129   4.449   2.214   6.416
 7744SOL     OW24130   0.281   6.139   4.247
 7744SOL    HW124131   0.276   6.044   4.278
 7744SOL    HW224132   0.209   6.192   4.292
 7745SOL     OW24133   3.289   2.044   5.693
 7745SOL    HW124134   3.220   2.109   5.726
 7745SOL    HW224135   3.358   2.031   5.764
 7746SOL     OW24136   2.583   6.783   0.049
 7746SOL    HW124137   2.492   6.793   0.090
 7746SOL    HW224138   2.583   6.825   6.982
 7747SOL     OW24139   4.180   5.909   1.346
 7747SOL    HW124140   4.169   5.986   1.410
 7747SOL    HW224141   4.274   5.907   1.312
 7748SOL     OW24142   3.164   3.759   5.763
 7748SOL    HW124143   3.161   3.841   5.820
 7748SOL    HW224144   3.146   3.678   5.820
 7749SOL     OW24145   3.867   3.495   5.872
 7749SOL    HW124146   3.895   3.591   5.864
 7749SOL    HW224147   3.769   3.491   5.892
 7750SOL     OW24148   0.160   6.103   1.546
 7750SOL    HW124149   0.237   6.045   1.517
 7750SOL    HW224150   0.085   6.045   1.578
 7751SOL     OW24151   1.085   1.387   2.476
 7751SOL    HW124152   1.161   1.352   2.530
 7751SOL    HW224153   1.001   1.341   2.501
 7752SOL     OW24154   5.058   0.036   5.488
 7752SOL    HW124155   5.009   0.123   5.496
 7752SOL    HW224156   5.039   7.020   5.398
 7753SOL     OW24157   2.101   1.493   4.901
 7753SOL    HW124158   2.027   1.549   4.863
 7753SOL    HW224159   2.174   1.483   4.833
 7754SOL     OW24160   3.855   5.915   1.570
 7754SOL    HW124161   3.802   5.960   1.498
 7754SOL    HW224162   3.926   5.977   1.603
 7755SOL     OW24163   1.225   3.156   6.325
 7755SOL    HW124164   1.159   3.171   6.251
 7755SOL    HW224165   1.177   3.156   6.413
 7756SOL     OW24166   2.958   6.419   1.944
 7756SOL    HW124167   2.937   6.515   1.924
 7756SOL    HW224168   2.906   6.360   1.881
 7757SOL     OW24169   6.673   4.396   1.359
 7757SOL    HW124170   6.711   4.343   1.435
 7757SOL    HW224171   6.744   4.453   1.319
 7758SOL     OW24172   1.839   6.690   6.295
 7758SOL    HW124173   1.892   6.614   6.258
 7758SOL    HW224174   1.774   6.722   6.226
 7759SOL     OW24175   3.164   2.288   5.851
 7759SOL    HW124176   3.105   2.352   5.899
 7759SOL    HW224177   3.211   2.229   5.917
 7760SOL     OW24178   5.020   2.000   2.085
 7760SOL    HW124179   5.046   1.904   2.096
 7760SOL    HW224180   4.996   2.038   2.175
 7761SOL     OW24181   5.657   6.186   4.822
 7761SOL    HW124182   5.723   6.256   4.851
 7761SOL    HW224183   5.592   6.227   4.758
 7762SOL     OW24184   1.803   0.488   3.590
 7762SOL    HW124185   1.705   0.504   3.600
 7762SOL    HW224186   1.852   0.575   3.601
 7763SOL     OW24187   2.150   0.052   5.500
 7763SOL    HW124188   2.197   6.988   5.504
 7763SOL    HW224189   2.146   0.093   5.591
 7764SOL     OW24190   3.218   4.097   5.610
 7764SOL    HW124191   3.249   4.053   5.694
 7764SOL    HW224192   3.132   4.056   5.581
 7765SOL     OW24193   6.433   3.577   4.315
 7765SOL    HW124194   6.459   3.647   4.249
 7765SOL    HW224195   6.413   3.492   4.266
 7766SOL     OW24196   0.745   3.869   0.493
 7766SOL    HW124197   0.728   3.872   0.394
 7766SOL    HW224198   0.837   3.833   0.509
 7767SOL     OW24199   4.368   6.942   2.642
 7767SOL    HW124200   4.377   6.920   2.739
 7767SOL    HW224201   4.411   0.006   2.623
 7768SOL     OW24202   5.068   4.400   3.716
 7768SOL    HW124203   4.976   4.361   3.715
 7768SOL    HW224204   5.124   4.353   3.648
 7769SOL     OW24205   3.687   1.914   5.242
 7769SOL    HW124206   3.626   1.959   5.176
 7769SOL    HW224207   3.781   1.914   5.206
 7770SOL     OW24208   0.158   3.560   4.704
 7770SOL    HW124209   0.184   3.625   4.775
 7770SOL    HW224210   0.218   3.480   4.708
 7771SOL     OW24211   2.877   2.140   6.493
 7771SOL    HW124212   2.944   2.193   6.442
 7771SOL    HW224213   2.801   2.115   6.433
 7772SOL     OW24214   4.934   1.035   0.916
 7772SOL    HW124215   4.889   1.097   0.851
 7772SOL    HW224216   4.872   1.016   0.992
 7773SOL     OW24217   2.374   5.843   6.804
 7773SOL    HW124218   2.437   5.835   6.727
 7773SOL    HW224219   2.293   5.785   6.788
 7774SOL     OW24220   4.532   2.537   4.118
 7774SOL    HW124221   4.557   2.603   4.047
 7774SOL    HW224222   4.532   2.445   4.078
 7775SOL     OW24223   4.024   0.499   6.869
 7775SOL    HW124224   3.977   0.540   6.947
 7775SOL    HW224225   4.108   0.454   6.900
 7776SOL     OW24226   7.013   6.518   6.108
 7776SOL    HW124227   0.001   6.429   6.153
 7776SOL    HW224228   7.018   6.590   6.177
 7777SOL     OW24229   6.337   5.692   4.383
 7777SOL    HW124230   6.355   5.594   4.394
 7777SOL    HW224231   6.318   5.733   4.472
 7778SOL     OW24232   5.985   4.246   2.506
 7778SOL    HW124233   5.983   4.221   2.603
 7778SOL    HW224234   6.047   4.185   2.457
 7779SOL     OW24235   3.643   0.515   2.746
 7779SOL    HW124236   3.614   0.456   2.671
 7779SOL    HW224237   3.586   0.497   2.827
 7780SOL     OW24238   0.008   6.301   6.246
 7780SOL    HW124239   0.078   6.249   6.199
 7780SOL    HW224240   6.948   6.247   6.252
 7781SOL     OW24241   1.690   3.894   0.151
 7781SOL    HW124242   1.761   3.920   0.085
 7781SOL    HW224243   1.625   3.970   0.161
 7782SOL     OW24244   5.885   4.482   3.114
 7782SOL    HW124245   5.868   4.560   3.174
 7782SOL    HW224246   5.827   4.489   3.033
 7783SOL     OW24247   0.414   0.136   5.570
 7783SOL    HW124248   0.359   0.192   5.632
 7783SOL    HW224249   0.470   0.073   5.623
 7784SOL     OW24250   2.937   2.326   1.624
 7784SOL    HW124251   2.959   2.343   1.720
 7784SOL    HW224252   2.995   2.383   1.566
 7785SOL     OW24253   1.409   6.427   3.417
 7785SOL    HW124254   1.453   6.424   3.327
 7785SOL    HW224255   1.470   6.384   3.484
 7786SOL     OW24256   4.649   1.008   6.822
 7786SOL    HW124257   4.672   0.939   6.890
 7786SOL    HW224258   4.552   1.002   6.799
 7787SOL     OW24259   2.330   3.208   1.170
 7787SOL    HW124260   2.275   3.285   1.137
 7787SOL    HW224261   2.316   3.197   1.269
 7788SOL     OW24262   1.337   6.087   1.797
 7788SOL    HW124263   1.252   6.070   1.748
 7788SOL    HW224264   1.401   6.137   1.738
 7789SOL     OW24265   3.290   6.850   6.182
 7789SOL    HW124266   3.292   6.833   6.281
 7789SOL    HW224267   3.195   6.867   6.153
 7790SOL     OW24268   6.705   5.127   2.530
 7790SOL    HW124269   6.763   5.188   2.476
 7790SOL    HW224270   6.757   5.046   2.556
 7791SOL     OW24271   1.758   5.297   1.753
 7791SOL    HW124272   1.803   5.222   1.705
 7791SOL    HW224273   1.665   5.270   1.778
 7792SOL     OW24274   0.338   1.042   2.791
 7792SOL    HW124275   0.404   1.033   2.716
 7792SOL    HW224276   0.348   0.964   2.853
 7793SOL     OW24277   5.018   1.591   6.420
 7793SOL    HW124278   4.932   1.585   6.369
 7793SOL    HW224279   5.032   1.685   6.451
 7794SOL     OW24280   0.509   5.411   2.083
 7794SOL    HW124281   0.530   5.432   2.178
 7794SOL    HW224282   0.526   5.491   2.026
 7795SOL     OW24283   3.233   4.982   5.688
 7795SOL    HW124284   3.195   4.907   5.742
 7795SOL    HW224285   3.248   4.952   5.594
 7796SOL     OW24286   3.715   3.495   5.559
 7796SOL    HW124287   3.685   3.584   5.591
 7796SOL    HW224288   3.815   3.494   5.550
 7797SOL     OW24289   1.274   5.141   2.002
 7797SOL    HW124290   1.336   5.063   1.995
 7797SOL    HW224291   1.211   5.128   2.078
 7798SOL     OW24292   1.006   1.232   1.753
 7798SOL    HW124293   0.920   1.281   1.742
 7798SOL    HW224294   1.034   1.193   1.665
 7799SOL     OW24295   2.803   5.889   2.886
 7799SOL    HW124296   2.756   5.867   2.801
 7799SOL    HW224297   2.755   5.965   2.932
 7800SOL     OW24298   0.645   5.881   1.558
 7800SOL    HW124299   0.598   5.844   1.639
 7800SOL    HW224300   0.697   5.808   1.514
 7801SOL     OW24301   1.641   2.087   2.576
 7801SOL    HW124302   1.636   2.134   2.664
 7801SOL    HW224303   1.562   2.027   2.565
 7802SOL     OW24304   6.980   4.548   6.508
 7802SOL    HW124305   0.047   4.585   6.490
 7802SOL    HW224306   6.982   4.498   6.595
 7803SOL     OW24307   5.497   2.232   6.992
 7803SOL    HW124308   5.550   2.317   6.984
 7803SOL    HW224309   5.439   2.237   0.049
 7804SOL     OW24310   3.229   1.748   3.809
 7804SOL    HW124311   3.190   1.803   3.735
 7804SOL    HW224312   3.156   1.699   3.856
 7805SOL     OW24313   5.050   2.723   1.714
 7805SOL    HW124314   5.031   2.625   1.710
 7805SOL    HW224315   5.001   2.763   1.791
 7806SOL     OW24316   6.726   2.388   6.376
 7806SOL    HW124317   6.659   2.316   6.397
 7806SOL    HW224318   6.787   2.356   6.304
 7807SOL     OW24319   1.430   4.397   6.315
 7807SOL    HW124320   1.400   4.304   6.294
 7807SOL    HW224321   1.528   4.396   6.338
 7808SOL     OW24322   4.674   4.259   2.549
 7808SOL    HW124323   4.733   4.199   2.604
 7808SOL    HW224324   4.680   4.233   2.453
 7809SOL     OW24325   4.971   5.027   4.595
 7809SOL    HW124326   4.885   4.992   4.558
 7809SOL    HW224327   4.974   5.011   4.693
 7810SOL     OW24328   3.797   7.019   4.499
 7810SOL    HW124329   3.857   0.066   4.536
 7810SOL    HW224330   3.810   6.934   4.550
 7811SOL     OW24331   1.038   5.728   2.871
 7811SOL    HW124332   1.114   5.705   2.811
 7811SOL    HW224333   1.069   5.731   2.966
 7812SOL     OW24334   2.397   3.189   5.397
 7812SOL    HW124335   2.332   3.252   5.354
 7812SOL    HW224336   2.440   3.133   5.326
 7813SOL     OW24337   4.453   2.601   1.361
 7813SOL    HW124338   4.433   2.542   1.439
 7813SOL    HW224339   4.520   2.556   1.302
 7814SOL     OW24340   6.525   3.233   2.503
 7814SOL    HW124341   6.591   3.158   2.509
 7814SOL    HW224342   6.548   3.290   2.424
 7815SOL     OW24343   5.498   2.254   5.175
 7815SOL    HW124344   5.577   2.269   5.235
 7815SOL    HW224345   5.449   2.173   5.205
 7816SOL     OW24346   0.327   1.562   5.933
 7816SOL    HW124347   0.358   1.488   5.873
 7816SOL    HW224348   0.282   1.524   6.013
 7817SOL     OW24349   3.805   3.970   5.698
 7817SOL    HW124350   3.737   4.035   5.731
 7817SOL    HW224351   3.873   4.018   5.642
 7818SOL     OW24352   4.553   1.241   2.391
 7818SOL    HW124353   4.469   1.246   2.445
 7818SOL    HW224354   4.574   1.330   2.352
 7819SOL     OW24355   0.399   3.724   4.050
 7819SOL    HW124356   0.463   3.785   4.096
 7819SOL    HW224357   0.310   3.769   4.041
 7820SOL     OW24358   2.129   1.144   5.466
 7820SOL    HW124359   2.217   1.100   5.452
 7820SOL    HW224360   2.122   1.223   5.405
 7821SOL     OW24361   6.091   5.863   0.105
 7821SOL    HW124362   6.026   5.906   0.168
 7821SOL    HW224363   6.101   5.921   0.024
 7822SOL     OW24364   1.176   1.638   5.479
 7822SOL    HW124365   1.133   1.591   5.402
 7822SOL    HW224366   1.225   1.572   5.536
 7823SOL     OW24367   1.314   4.144   6.275
 7823SOL    HW124368   1.397   4.099   6.309
 7823SOL    HW224369   1.235   4.113   6.329
 7824SOL     OW24370   5.643   0.966   4.187
 7824SOL    HW124371   5.648   0.990   4.090
 7824SOL    HW224372   5.672   0.871   4.199
 7825SOL     OW24373   2.580   2.950   1.666
 7825SOL    HW124374   2.502   2.938   1.729
 7825SOL    HW224375   2.645   2.875   1.680
 7826SOL     OW24376   5.525   1.562   6.877
 7826SOL    HW124377   5.621   1.551   6.902
 7826SOL    HW224378   5.510   1.655   6.844
 7827SOL     OW24379   3.715   4.535   1.453
 7827SOL    HW124380   3.801   4.570   1.416
 7827SOL    HW224381   3.639   4.569   1.397
 7828SOL     OW24382   0.629   5.928   0.881
 7828SOL    HW124383   0.661   5.835   0.896
 7828SOL    HW224384   0.561   5.952   0.950
 7829SOL     OW24385   2.629   3.570   1.529
 7829SOL    HW124386   2.541   3.580   1.574
 7829SOL    HW224387   2.644   3.647   1.467
 7830SOL     OW24388   5.713   3.897   5.976
 7830SOL    HW124389   5.719   3.811   5.925
 7830SOL    HW224390   5.711   3.877   6.074
 7831SOL     OW24391   1.411   4.372   0.111
 7831SOL    HW124392   1.435   4.446   0.173
 7831SOL    HW224393   1.429   4.401   0.016
 7832SOL     OW24394   3.209   1.603   5.044
 7832SOL    HW124395   3.265   1.686   5.048
 7832SOL    HW224396   3.192   1.570   5.136
 7833SOL     OW24397   1.168   0.698   0.713
 7833SOL    HW124398   1.161   0.779   0.655
 7833SOL    HW224399   1.077   0.675   0.749
 7834SOL     OW24400   0.123   1.465   2.268
 7834SOL    HW124401   0.132   1.375   2.223
 7834SOL    HW224402   0.075   1.454   2.355
 7835SOL     OW24403   2.262   2.951   4.777
 7835SOL    HW124404   2.313   2.946   4.863
 7835SOL    HW224405   2.209   3.036   4.776
 7836SOL     OW24406   3.103   0.269   6.624
 7836SOL    HW124407   3.079   0.258   6.528
 7836SOL    HW224408   3.019   0.285   6.677
 7837SOL     OW24409   5.868   6.657   1.963
 7837SOL    HW124410   5.951   6.606   1.982
 7837SOL    HW224411   5.806   6.651   2.041
 7838SOL     OW24412   4.611   6.295   5.931
 7838SOL    HW124413   4.547   6.370   5.920
 7838SOL    HW224414   4.670   6.288   5.851
 7839SOL     OW24415   6.221   4.052   4.381
 7839SOL    HW124416   6.293   3.983   4.384
 7839SOL    HW224417   6.210   4.084   4.287
 7840SOL     OW24418   5.001   2.073   4.153
 7840SOL    HW124419   5.000   2.084   4.252
 7840SOL    HW224420   5.073   2.008   4.128
 7841SOL     OW24421   5.389   2.304   6.537
 7841SOL    HW124422   5.457   2.291   6.466
 7841SOL    HW224423   5.380   2.402   6.558
 7842SOL     OW24424   1.311   1.412   3.444
 7842SOL    HW124425   1.389   1.471   3.423
 7842SOL    HW224426   1.311   1.333   3.383
 7843SOL     OW24427   5.616   4.013   1.160
 7843SOL    HW124428   5.679   4.083   1.126
 7843SOL    HW224429   5.592   4.034   1.255
 7844SOL     OW24430   4.487   0.580   3.540
 7844SOL    HW124431   4.392   0.588   3.510
 7844SOL    HW224432   4.509   0.657   3.600
 7845SOL     OW24433   0.998   0.728   3.862
 7845SOL    HW124434   0.967   0.637   3.835
 7845SOL    HW224435   0.919   0.787   3.880
 7846SOL     OW24436   2.565   1.057   1.223
 7846SOL    HW124437   2.542   1.082   1.318
 7846SOL    HW224438   2.661   1.077   1.205
 7847SOL     OW24439   0.379   1.133   0.922
 7847SOL    HW124440   0.428   1.145   0.835
 7847SOL    HW224441   0.436   1.083   0.986
 7848SOL     OW24442   3.592   4.558   1.136
 7848SOL    HW124443   3.658   4.485   1.157
 7848SOL    HW224444   3.501   4.530   1.166
 7849SOL     OW24445   5.218   3.924   3.662
 7849SOL    HW124446   5.230   3.825   3.652
 7849SOL    HW224447   5.283   3.971   3.603
 7850SOL     OW24448   6.961   0.783   3.942
 7850SOL    HW124449   6.987   0.869   3.899
 7850SOL    HW224450   6.920   0.722   3.875
 7851SOL     OW24451   6.047   6.601   0.247
 7851SOL    HW124452   6.113   6.529   0.223
 7851SOL    HW224453   5.987   6.567   0.320
 7852SOL     OW24454   3.039   6.240   6.798
 7852SOL    HW124455   2.999   6.151   6.821
 7852SOL    HW224456   3.128   6.226   6.755
 7853SOL     OW24457   3.054   1.301   0.174
 7853SOL    HW124458   2.961   1.338   0.182
 7853SOL    HW224459   3.121   1.373   0.192
 7854SOL     OW24460   3.705   3.729   1.007
 7854SOL    HW124461   3.663   3.645   0.972
 7854SOL    HW224462   3.688   3.737   1.105
 7855SOL     OW24463   4.181   5.918   6.089
 7855SOL    HW124464   4.231   5.991   6.135
 7855SOL    HW224465   4.086   5.946   6.075
 7856SOL     OW24466   6.308   4.525   4.610
 7856SOL    HW124467   6.329   4.447   4.551
 7856SOL    HW224468   6.260   4.492   4.692
 7857SOL     OW24469   6.469   2.626   5.692
 7857SOL    HW124470   6.531   2.700   5.719
 7857SOL    HW224471   6.489   2.545   5.747
 7858SOL     OW24472   4.968   4.576   3.076
 7858SOL    HW124473   4.948   4.606   3.170
 7858SOL    HW224474   5.011   4.486   3.079
 7859SOL     OW24475   0.396   4.013   6.523
 7859SOL    HW124476   0.311   4.065   6.516
 7859SOL    HW224477   0.462   4.065   6.578
 7860SOL     OW24478   3.947   6.295   2.671
 7860SOL    HW124479   3.960   6.367   2.739
 7860SOL    HW224480   3.849   6.278   2.660
 7861SOL     OW24481   4.182   5.356   1.652
 7861SOL    HW124482   4.256   5.406   1.698
 7861SOL    HW224483   4.206   5.343   1.556
 7862SOL     OW24484   2.992   4.278   1.631
 7862SOL    HW124485   2.961   4.343   1.700
 7862SOL    HW224486   2.963   4.186   1.657
 7863SOL     OW24487   6.509   6.170   3.317
 7863SOL    HW124488   6.451   6.243   3.280
 7863SOL    HW224489   6.451   6.097   3.352
 7864SOL     OW24490   0.009   6.229   5.596
 7864SOL    HW124491   0.083   6.209   5.533
 7864SOL    HW224492   6.948   6.244   5.545
 7865SOL     OW24493   4.170   6.441   3.784
 7865SOL    HW124494   4.261   6.481   3.793
 7865SOL    HW224495   4.153   6.377   3.859
 7866SOL     OW24496   2.309   1.367   2.287
 7866SOL    HW124497   2.305   1.283   2.234
 7866SOL    HW224498   2.337   1.442   2.227
 7867SOL     OW24499   5.428   5.399   2.293
 7867SOL    HW124500   5.447   5.335   2.219
 7867SOL    HW224501   5.422   5.349   2.380
 7868SOL     OW24502   5.295   6.482   1.787
 7868SOL    HW124503   5.261   6.453   1.877
 7868SOL    HW224504   5.343   6.407   1.743
 7869SOL     OW24505   6.403   3.708   0.928
 7869SOL    HW124506   6.316   3.659   0.932
 7869SOL    HW224507   6.405   3.778   0.999
 7870SOL     OW24508   6.081   4.925   3.360
 7870SOL    HW124509   6.037   4.992   3.420
 7870SOL    HW224510   6.175   4.954   3.342
 7871SOL     OW24511   5.869   3.592   3.222
 7871SOL    HW124512   5.843   3.496   3.227
 7871SOL    HW224513   5.787   3.649   3.217
 7872SOL     OW24514   1.313   4.372   2.346
 7872SOL    HW124515   1.278   4.452   2.394
 7872SOL    HW224516   1.297   4.381   2.248
 7873SOL     OW24517   6.664   0.505   5.525
 7873SOL    HW124518   6.734   0.434   5.526
 7873SOL    HW224519   6.573   0.462   5.525
 7874SOL     OW24520   6.397   1.219   6.810
 7874SOL    HW124521   6.334   1.212   6.732
 7874SOL    HW224522   6.424   1.128   6.839
 7875SOL     OW24523   4.531   4.052   6.847
 7875SOL    HW124524   4.434   4.045   6.824
 7875SOL    HW224525   4.585   4.013   6.772
 7876SOL     OW24526   6.575   0.449   4.889
 7876SOL    HW124527   6.643   0.400   4.944
 7876SOL    HW224528   6.608   0.541   4.870
 7877SOL     OW24529   0.091   2.636   2.450
 7877SOL    HW124530   0.117   2.544   2.420
 7877SOL    HW224531   0.150   2.703   2.405
 7878SOL     OW24532   4.858   4.667   2.852
 7878SOL    HW124533   4.891   4.605   2.923
 7878SOL    HW224534   4.804   4.616   2.786
 7879SOL     OW24535   4.284   6.031   3.396
 7879SOL    HW124536   4.340   6.088   3.335
 7879SOL    HW224537   4.343   5.973   3.451
 7880SOL     OW24538   0.513   6.349   0.564
 7880SOL    HW124539   0.541   6.284   0.636
 7880SOL    HW224540   0.535   6.442   0.593
 7881SOL     OW24541   0.321   4.059   4.549
 7881SOL    HW124542   0.370   4.103   4.624
 7881SOL    HW224543   0.371   3.977   4.520
 7882SOL     OW24544   1.589   2.661   2.492
 7882SOL    HW124545   1.594   2.631   2.397
 7882SOL    HW224546   1.545   2.750   2.497
 7883SOL     OW24547   1.901   0.608   1.360
 7883SOL    HW124548   1.992   0.577   1.387
 7883SOL    HW224549   1.909   0.679   1.290
 7884SOL     OW24550   1.522   4.321   3.556
 7884SOL    HW124551   1.556   4.377   3.632
 7884SOL    HW224552   1.436   4.359   3.523
 7885SOL     OW24553   5.818   5.693   3.153
 7885SOL    HW124554   5.791   5.773   3.205
 7885SOL    HW224555   5.738   5.637   3.134
 7886SOL     OW24556   5.644   3.860   1.548
 7886SOL    HW124557   5.736   3.851   1.511
 7886SOL    HW224558   5.577   3.848   1.474
 7887SOL     OW24559   3.115   2.867   5.437
 7887SOL    HW124560   3.133   2.880   5.535
 7887SOL    HW224561   3.157   2.781   5.407
 7888SOL     OW24562   6.894   1.753   4.181
 7888SOL    HW124563   6.980   1.736   4.135
 7888SOL    HW224564   6.820   1.705   4.134
 7889SOL     OW24565   0.423   5.316   0.118
 7889SOL    HW124566   0.444   5.311   0.020
 7889SOL    HW224567   0.474   5.391   0.159
 7890SOL     OW24568   1.446   2.652   4.005
 7890SOL    HW124569   1.541   2.662   4.034
 7890SOL    HW224570   1.397   2.737   4.021
 7891SOL     OW24571   0.621   3.237   4.210
 7891SOL    HW124572   0.556   3.312   4.197
 7891SOL    HW224573   0.675   3.225   4.127
 7892SOL     OW24574   1.353   1.999   4.256
 7892SOL    HW124575   1.309   2.004   4.346
 7892SOL    HW224576   1.449   2.026   4.265
 7893SOL     OW24577   6.151   6.201   1.504
 7893SOL    HW124578   6.088   6.233   1.576
 7893SOL    HW224579   6.205   6.124   1.539
 7894SOL     OW24580   2.265   1.431   0.204
 7894SOL    HW124581   2.229   1.397   0.291
 7894SOL    HW224582   2.344   1.490   0.220
 7895SOL     OW24583   3.606   6.146   4.406
 7895SOL    HW124584   3.668   6.223   4.395
 7895SOL    HW224585   3.621   6.105   4.496
 7896SOL     OW24586   5.019   3.343   1.504
 7896SOL    HW124587   4.961   3.383   1.575
 7896SOL    HW224588   4.997   3.384   1.416
 7897SOL     OW24589   3.555   4.187   6.722
 7897SOL    HW124590   3.525   4.219   6.632
 7897SOL    HW224591   3.477   4.153   6.774
 7898SOL     OW24592   4.851   0.184   4.348
 7898SOL    HW124593   4.769   0.161   4.295
 7898SOL    HW224594   4.890   0.101   4.387
 7899SOL     OW24595   5.475   6.048   1.414
 7899SOL    HW124596   5.560   6.009   1.451
 7899SOL    HW224597   5.400   5.984   1.428
 7900SOL     OW24598   0.378   4.094   0.780
 7900SOL    HW124599   0.462   4.079   0.728
 7900SOL    HW224600   0.328   4.008   0.788
 7901SOL     OW24601   5.115   1.234   5.661
 7901SOL    HW124602   5.133   1.187   5.748
 7901SOL    HW224603   5.059   1.315   5.678
 7902SOL     OW24604   0.063   6.274   3.286
 7902SOL    HW124605   0.012   6.360   3.288
 7902SOL    HW224606   0.132   6.278   3.213
 7903SOL     OW24607   4.163   1.650   3.978
 7903SOL    HW124608   4.120   1.738   3.958
 7903SOL    HW224609   4.260   1.653   3.955
 7904SOL     OW24610   5.948   0.245   3.265
 7904SOL    HW124611   5.973   0.195   3.182
 7904SOL    HW224612   5.887   0.321   3.240
 7905SOL     OW24613   5.343   0.873   0.712
 7905SOL    HW124614   5.288   0.790   0.722
 7905SOL    HW224615   5.284   0.950   0.692
 7906SOL     OW24616   1.345   4.970   1.286
 7906SOL    HW124617   1.279   4.945   1.215
 7906SOL    HW224618   1.296   4.992   1.371
 7907SOL     OW24619   5.993   0.658   3.099
 7907SOL    HW124620   6.032   0.601   3.171
 7907SOL    HW224621   5.894   0.652   3.101
 7908SOL     OW24622   1.045   2.245   6.560
 7908SOL    HW124623   1.071   2.272   6.652
 7908SOL    HW224624   0.985   2.315   6.520
 7909SOL     OW24625   5.035   4.314   3.108
 7909SOL    HW124626   5.125   4.270   3.105
 7909SOL    HW224627   5.004   4.322   3.202
 7910SOL     OW24628   1.338   3.284   1.232
 7910SOL    HW124629   1.340   3.332   1.320
 7910SOL    HW224630   1.248   3.244   1.217
 7911SOL     OW24631   0.672   4.009   1.104
 7911SOL    HW124632   0.656   4.105   1.127
 7911SOL    HW224633   0.742   3.971   1.164
 7912SOL     OW24634   5.389   5.037   0.521
 7912SOL    HW124635   5.297   5.028   0.486
 7912SOL    HW224636   5.392   5.110   0.589
 7913SOL     OW24637   2.212   3.998   0.936
 7913SOL    HW124638   2.255   3.947   0.862
 7913SOL    HW224639   2.175   4.084   0.901
 7914SOL     OW24640   0.122   5.495   6.669
 7914SOL    HW124641   0.187   5.507   6.744
 7914SOL    HW224642   0.126   5.575   6.609
 7915SOL     OW24643   4.143   1.068   2.898
 7915SOL    HW124644   4.044   1.070   2.909
 7915SOL    HW224645   4.169   1.119   2.816
 7916SOL     OW24646   0.479   0.731   4.560
 7916SOL    HW124647   0.528   0.673   4.494
 7916SOL    HW224648   0.398   0.683   4.593
 7917SOL     OW24649   4.035   2.411   6.056
 7917SOL    HW124650   4.132   2.431   6.040
 7917SOL    HW224651   3.981   2.494   6.042
 7918SOL     OW24652   1.193   1.352   5.143
 7918SOL    HW124653   1.209   1.430   5.082
 7918SOL    HW224654   1.221   1.267   5.098
 7919SOL     OW24655   1.033   4.955   2.848
 7919SOL    HW124656   1.019   5.053   2.840
 7919SOL    HW224657   1.065   4.932   2.940
 7920SOL     OW24658   5.054   1.196   1.986
 7920SOL    HW124659   5.081   1.273   2.044
 7920SOL    HW224660   4.955   1.184   1.991
 7921SOL     OW24661   5.668   1.761   1.470
 7921SOL    HW124662   5.668   1.715   1.559
 7921SOL    HW224663   5.753   1.813   1.460
 7922SOL     OW24664   0.505   6.581   6.571
 7922SOL    HW124665   0.452   6.593   6.655
 7922SOL    HW224666   0.574   6.652   6.564
 7923SOL     OW24667   2.975   2.601   6.561
 7923SOL    HW124668   3.031   2.600   6.478
 7923SOL    HW224669   3.032   2.580   6.640
 7924SOL     OW24670   5.247   6.678   1.140
 7924SOL    HW124671   5.329   6.701   1.087
 7924SOL    HW224672   5.170   6.668   1.078
 7925SOL     OW24673   1.870   6.522   0.832
 7925SOL    HW124674   1.921   6.551   0.913
 7925SOL    HW224675   1.773   6.514   0.854
 7926SOL     OW24676   5.526   0.920   6.614
 7926SOL    HW124677   5.453   0.868   6.657
 7926SOL    HW224678   5.488   1.001   6.571
 7927SOL     OW24679   5.487   0.308   1.914
 7927SOL    HW124680   5.470   0.228   1.856
 7927SOL    HW224681   5.414   0.375   1.901
 7928SOL     OW24682   6.789   0.942   3.178
 7928SOL    HW124683   6.739   1.019   3.218
 7928SOL    HW224684   6.887   0.956   3.192
 7929SOL     OW24685   4.577   3.690   6.393
 7929SOL    HW124686   4.542   3.759   6.330
 7929SOL    HW224687   4.540   3.600   6.369
 7930SOL     OW24688   3.251   5.485   5.783
 7930SOL    HW124689   3.333   5.494   5.839
 7930SOL    HW224690   3.277   5.481   5.686
 7931SOL     OW24691   3.267   2.731   0.788
 7931SOL    HW124692   3.207   2.660   0.752
 7931SOL    HW224693   3.234   2.821   0.758
 7932SOL     OW24694   6.990   4.897   1.122
 7932SOL    HW124695   6.904   4.887   1.172
 7932SOL    HW224696   0.036   4.839   1.163
 7933SOL     OW24697   6.679   0.591   6.010
 7933SOL    HW124698   6.738   0.608   6.090
 7933SOL    HW224699   6.694   0.664   5.943
 7934SOL     OW24700   1.449   4.670   0.612
 7934SOL    HW124701   1.500   4.636   0.532
 7934SOL    HW224702   1.514   4.705   0.680
 7935SOL     OW24703   5.014   4.306   2.535
 7935SOL    HW124704   4.940   4.261   2.486
 7935SOL    HW224705   5.004   4.288   2.633
 7936SOL     OW24706   2.625   5.845   3.296
 7936SOL    HW124707   2.562   5.846   3.374
 7936SOL    HW224708   2.713   5.882   3.324
 7937SOL     OW24709   2.058   5.320   4.322
 7937SOL    HW124710   2.096   5.238   4.280
 7937SOL    HW224711   1.980   5.295   4.380
 7938SOL     OW24712   5.308   6.726   5.458
 7938SOL    HW124713   5.241   6.771   5.518
 7938SOL    HW224714   5.319   6.780   5.374
 7939SOL     OW24715   0.467   1.869   5.654
 7939SOL    HW124716   0.490   1.845   5.748
 7939SOL    HW224717   0.494   1.795   5.592
 7940SOL     OW24718   3.422   1.744   2.011
 7940SOL    HW124719   3.322   1.751   2.008
 7940SOL    HW224720   3.460   1.834   2.032
 7941SOL     OW24721   4.690   6.446   3.311
 7941SOL    HW124722   4.704   6.347   3.301
 7941SOL    HW224723   4.779   6.491   3.313
 7942SOL     OW24724   0.730   2.250   2.534
 7942SOL    HW124725   0.801   2.245   2.464
 7942SOL    HW224726   0.773   2.263   2.623
 7943SOL     OW24727   1.113   4.913   5.948
 7943SOL    HW124728   1.189   4.972   5.921
 7943SOL    HW224729   1.052   4.901   5.870
 7944SOL     OW24730   0.865   2.081   1.886
 7944SOL    HW124731   0.856   2.127   1.974
 7944SOL    HW224732   0.775   2.055   1.852
 7945SOL     OW24733   6.585   5.117   2.966
 7945SOL    HW124734   6.569   5.159   2.877
 7945SOL    HW224735   6.651   5.042   2.956
 7946SOL     OW24736   3.874   0.221   5.735
 7946SOL    HW124737   3.887   0.241   5.638
 7946SOL    HW224738   3.839   0.128   5.745
 7947SOL     OW24739   2.373   2.258   5.022
 7947SOL    HW124740   2.314   2.230   4.947
 7947SOL    HW224741   2.334   2.339   5.066
 7948SOL     OW24742   1.109   4.879   1.168
 7948SOL    HW124743   1.016   4.873   1.206
 7948SOL    HW224744   1.109   4.841   1.075
 7949SOL     OW24745   4.318   4.259   5.632
 7949SOL    HW124746   4.393   4.295   5.688
 7949SOL    HW224747   4.267   4.335   5.592
 7950SOL     OW24748   5.354   6.198   5.262
 7950SOL    HW124749   5.438   6.171   5.309
 7950SOL    HW224750   5.338   6.296   5.274
 7951SOL     OW24751   1.806   4.682   2.937
 7951SOL    HW124752   1.743   4.740   2.885
 7951SOL    HW224753   1.882   4.655   2.878
 7952SOL     OW24754   6.516   3.218   6.756
 7952SOL    HW124755   6.564   3.195   6.671
 7952SOL    HW224756   6.562   3.295   6.800
 7953SOL     OW24757   4.568   1.909   1.533
 7953SOL    HW124758   4.476   1.871   1.524
 7953SOL    HW224759   4.564   2.009   1.526
 7954SOL     OW24760   4.123   3.743   6.066
 7954SOL    HW124761   4.036   3.760   6.020
 7954SOL    HW224762   4.198   3.779   6.011
 7955SOL     OW24763   2.351   1.780   6.372
 7955SOL    HW124764   2.340   1.701   6.431
 7955SOL    HW224765   2.390   1.751   6.284
 7956SOL     OW24766   5.772   1.687   1.729
 7956SOL    HW124767   5.769   1.660   1.826
 7956SOL    HW224768   5.847   1.752   1.716
 7957SOL     OW24769   3.462   0.893   6.186
 7957SOL    HW124770   3.389   0.827   6.166
 7957SOL    HW224771   3.487   0.888   6.282
 7958SOL     OW24772   5.699   4.243   6.174
 7958SOL    HW124773   5.737   4.300   6.101
 7958SOL    HW224774   5.603   4.225   6.156
 7959SOL     OW24775   4.904   0.796   6.544
 7959SOL    HW124776   4.953   0.883   6.538
 7959SOL    HW224777   4.910   0.761   6.638
 7960SOL     OW24778   0.801   1.824   6.290
 7960SOL    HW124779   0.733   1.884   6.333
 7960SOL    HW224780   0.761   1.733   6.277
 7961SOL     OW24781   6.734   0.032   0.838
 7961SOL    HW124782   6.691   6.966   0.828
 7961SOL    HW224783   6.832   0.023   0.821
 7962SOL     OW24784   0.061   1.719   5.744
 7962SOL    HW124785   0.088   1.771   5.662
 7962SOL    HW224786   0.139   1.714   5.807
 7963SOL     OW24787   6.487   5.070   3.799
 7963SOL    HW124788   6.406   5.072   3.741
 7963SOL    HW224789   6.566   5.042   3.745
 7964SOL     OW24790   6.551   2.498   2.005
 7964SOL    HW124791   6.510   2.418   1.961
 7964SOL    HW224792   6.629   2.530   1.950
 7965SOL     OW24793   4.310   2.641   0.021
 7965SOL    HW124794   4.320   2.739   0.001
 7965SOL    HW224795   4.386   2.591   7.003
 7966SOL     OW24796   3.893   3.777   5.887
 7966SOL    HW124797   3.828   3.794   5.962
 7966SOL    HW224798   3.869   3.835   5.809
 7967SOL     OW24799   2.172   5.247   2.288
 7967SOL    HW124800   2.264   5.286   2.293
 7967SOL    HW224801   2.111   5.297   2.349
 7968SOL     OW24802   6.202   2.146   5.497
 7968SOL    HW124803   6.185   2.106   5.587
 7968SOL    HW224804   6.272   2.092   5.450
 7969SOL     OW24805   4.845   6.332   0.385
 7969SOL    HW124806   4.751   6.308   0.412
 7969SOL    HW224807   4.902   6.340   0.466
 7970SOL     OW24808   5.990   2.589   2.515
 7970SOL    HW124809   5.989   2.490   2.532
 7970SOL    HW224810   5.919   2.632   2.571
 7971SOL     OW24811   2.824   0.972   1.419
 7971SOL    HW124812   2.829   0.975   1.319
 7971SOL    HW224813   2.914   0.996   1.457
 7972SOL     OW24814   3.266   3.605   1.911
 7972SOL    HW124815   3.279   3.694   1.866
 7972SOL    HW224816   3.341   3.545   1.886
 7973SOL     OW24817   5.298   4.300   4.406
 7973SOL    HW124818   5.252   4.263   4.324
 7973SOL    HW224819   5.335   4.390   4.385
 7974SOL     OW24820   6.086   1.117   5.238
 7974SOL    HW124821   6.151   1.178   5.282
 7974SOL    HW224822   5.993   1.153   5.251
 7975SOL     OW24823   4.640   0.532   0.692
 7975SOL    HW124824   4.607   0.463   0.755
 7975SOL    HW224825   4.726   0.570   0.726
 7976SOL     OW24826   0.852   6.999   5.793
 7976SOL    HW124827   0.884   6.977   5.885
 7976SOL    HW224828   0.904   0.052   5.757
 7977SOL     OW24829   5.685   5.907   2.302
 7977SOL    HW124830   5.623   5.841   2.259
 7977SOL    HW224831   5.755   5.934   2.235
 7978SOL     OW24832   0.337   3.099   6.689
 7978SOL    HW124833   0.409   3.049   6.737
 7978SOL    HW224834   0.378   3.168   6.629
 7979SOL     OW24835   1.974   4.546   6.068
 7979SOL    HW124836   2.028   4.465   6.046
 7979SOL    HW224837   1.907   4.563   5.995
 7980SOL     OW24838   3.176   5.580   6.299
 7980SOL    HW124839   3.193   5.515   6.374
 7980SOL    HW224840   3.215   5.544   6.214
 7981SOL     OW24841   1.009   5.029   1.959
 7981SOL    HW124842   1.102   4.993   1.970
 7981SOL    HW224843   0.981   5.020   1.863
 7982SOL     OW24844   1.838   1.682   5.950
 7982SOL    HW124845   1.887   1.767   5.967
 7982SOL    HW224846   1.746   1.688   5.988
 7983SOL     OW24847   5.868   1.400   1.536
 7983SOL    HW124848   5.930   1.465   1.579
 7983SOL    HW224849   5.781   1.445   1.514
 7984SOL     OW24850   0.736   1.543   0.938
 7984SOL    HW124851   0.782   1.630   0.956
 7984SOL    HW224852   0.664   1.556   0.870
 7985SOL     OW24853   2.555   2.102   4.596
 7985SOL    HW124854   2.574   2.125   4.501
 7985SOL    HW224855   2.531   2.005   4.603
 7986SOL     OW24856   3.878   1.554   5.448
 7986SOL    HW124857   3.791   1.595   5.420
 7986SOL    HW224858   3.907   1.487   5.380
 7987SOL     OW24859   2.539   3.758   0.784
 7987SOL    HW124860   2.497   3.725   0.869
 7987SOL    HW224861   2.536   3.686   0.715
 7988SOL     OW24862   0.761   1.007   1.661
 7988SOL    HW124863   0.846   0.963   1.629
 7988SOL    HW224864   0.683   0.949   1.639
 7989SOL     OW24865   2.107   4.174   0.085
 7989SOL    HW124866   2.084   4.271   0.088
 7989SOL    HW224867   2.061   4.132   0.007
 7990SOL     OW24868   2.852   6.005   4.407
 7990SOL    HW124869   2.806   5.919   4.428
 7990SOL    HW224870   2.874   6.052   4.492
 7991SOL     OW24871   5.668   1.519   4.628
 7991SOL    HW124872   5.766   1.510   4.611
 7991SOL    HW224873   5.624   1.430   4.616
 7992SOL     OW24874   1.965   0.108   0.243
 7992SOL    HW124875   1.944   0.087   0.339
 7992SOL    HW224876   2.019   0.192   0.239
 7993SOL     OW24877   0.308   0.080   1.725
 7993SOL    HW124878   0.327   0.055   1.630
 7993SOL    HW224879   0.254   0.009   1.768
 7994SOL     OW24880   5.078   0.601   2.868
 7994SOL    HW124881   5.126   0.648   2.942
 7994SOL    HW224882   5.120   0.512   2.852
 7995SOL     OW24883   5.381   4.585   3.219
 7995SOL    HW124884   5.451   4.553   3.156
 7995SOL    HW224885   5.402   4.552   3.311
 7996SOL     OW24886   4.066   6.715   3.970
 7996SOL    HW124887   4.156   6.759   3.963
 7996SOL    HW224888   4.078   6.622   4.007
 7997SOL     OW24889   0.161   1.847   0.655
 7997SOL    HW124890   0.118   1.758   0.669
 7997SOL    HW224891   0.092   1.919   0.660
 7998SOL     OW24892   2.912   6.351   7.015
 7998SOL    HW124893   2.858   6.432   6.991
 7998SOL    HW224894   2.974   6.328   6.940
 7999SOL     OW24895   1.254   1.846   6.147
 7999SOL    HW124896   1.249   1.822   6.244
 7999SOL    HW224897   1.325   1.915   6.134
 8000SOL     OW24898   5.836   0.057   6.238
 8000SOL    HW124899   5.795   0.105   6.315
 8000SOL    HW224900   5.814   0.105   6.153
 8001SOL     OW24901   4.252   6.242   1.675
 8001SOL    HW124902   4.267   6.320   1.735
 8001SOL    HW224903   4.329   6.234   1.610
 8002SOL     OW24904   0.703   1.566   5.790
 8002SOL    HW124905   0.652   1.652   5.796
 8002SOL    HW224906   0.664   1.500   5.855
 8003SOL     OW24907   1.465   5.854   1.875
 8003SOL    HW124908   1.434   5.839   1.969
 8003SOL    HW224909   1.433   5.942   1.842
 8004SOL     OW24910   1.864   3.072   3.452
 8004SOL    HW124911   1.891   2.979   3.425
 8004SOL    HW224912   1.938   3.135   3.433
 8005SOL     OW24913   2.720   0.343   3.616
 8005SOL    HW124914   2.628   0.343   3.656
 8005SOL    HW224915   2.716   0.385   3.525
 8006SOL     OW24916   2.818   5.614   5.625
 8006SOL    HW124917   2.885   5.581   5.559
 8006SOL    HW224918   2.726   5.584   5.599
 8007SOL     OW24919   5.600   2.231   6.393
 8007SOL    HW124920   5.635   2.187   6.476
 8007SOL    HW224921   5.626   2.176   6.314
 8008SOL     OW24922   3.330   5.960   0.109
 8008SOL    HW124923   3.390   6.039   0.122
 8008SOL    HW224924   3.237   5.992   0.092
 8009SOL     OW24925   4.340   1.354   1.051
 8009SOL    HW124926   4.249   1.346   1.092
 8009SOL    HW224927   4.400   1.402   1.115
 8010SOL     OW24928   2.914   2.435   5.330
 8010SOL    HW124929   2.999   2.449   5.279
 8010SOL    HW224930   2.905   2.338   5.353
 8011SOL     OW24931   3.494   1.945   1.539
 8011SOL    HW124932   3.461   1.926   1.632
 8011SOL    HW224933   3.538   2.035   1.538
 8012SOL     OW24934   0.983   2.784   6.425
 8012SOL    HW124935   1.060   2.804   6.364
 8012SOL    HW224936   0.898   2.787   6.374
 8013SOL     OW24937   0.917   3.305   3.596
 8013SOL    HW124938   0.991   3.372   3.595
 8013SOL    HW224939   0.949   3.221   3.641
 8014SOL     OW24940   1.713   0.343   4.236
 8014SOL    HW124941   1.646   0.272   4.256
 8014SOL    HW224942   1.672   0.412   4.177
 8015SOL     OW24943   2.310   6.995   5.824
 8015SOL    HW124944   2.388   6.979   5.764
 8015SOL    HW224945   2.254   6.913   5.829
 8016SOL     OW24946   4.003   1.662   5.133
 8016SOL    HW124947   3.959   1.600   5.198
 8016SOL    HW224948   4.066   1.722   5.182
 8017SOL     OW24949   6.525   0.050   6.929
 8017SOL    HW124950   6.438   0.050   6.881
 8017SOL    HW224951   6.512   0.020   7.023
 8018SOL     OW24952   3.614   2.580   0.046
 8018SOL    HW124953   3.627   2.572   0.145
 8018SOL    HW224954   3.548   2.653   0.027
 8019SOL     OW24955   2.171   3.614   0.845
 8019SOL    HW124956   2.158   3.521   0.812
 8019SOL    HW224957   2.253   3.619   0.901
 8020SOL     OW24958   6.005   0.779   6.009
 8020SOL    HW124959   6.032   0.724   5.930
 8020SOL    HW224960   5.954   0.722   6.073
 8021SOL     OW24961   1.977   2.654   1.109
 8021SOL    HW124962   1.962   2.613   1.199
 8021SOL    HW224963   2.054   2.609   1.064
 8022SOL     OW24964   6.197   0.470   1.826
 8022SOL    HW124965   6.193   0.477   1.926
 8022SOL    HW224966   6.195   0.374   1.799
 8023SOL     OW24967   5.980   5.066   2.640
 8023SOL    HW124968   5.941   5.153   2.673
 8023SOL    HW224969   5.921   5.029   2.568
 8024SOL     OW24970   1.388   5.784   5.863
 8024SOL    HW124971   1.464   5.724   5.839
 8024SOL    HW224972   1.358   5.834   5.782
 8025SOL     OW24973   1.676   4.953   0.959
 8025SOL    HW124974   1.656   5.051   0.957
 8025SOL    HW224975   1.688   4.924   1.054
 8026SOL     OW24976   0.084   4.436   0.742
 8026SOL    HW124977   0.050   4.530   0.749
 8026SOL    HW224978   0.018   4.380   0.693
 8027SOL     OW24979   3.395   6.568   5.289
 8027SOL    HW124980   3.355   6.516   5.214
 8027SOL    HW224981   3.322   6.606   5.347
 8028SOL     OW24982   2.334   5.966   4.448
 8028SOL    HW124983   2.279   5.883   4.440
 8028SOL    HW224984   2.273   6.044   4.466
 8029SOL     OW24985   5.000   2.240   1.880
 8029SOL    HW124986   5.040   2.331   1.870
 8029SOL    HW224987   5.030   2.200   1.967
 8030SOL     OW24988   6.109   5.410   0.535
 8030SOL    HW124989   6.086   5.499   0.495
 8030SOL    HW224990   6.027   5.353   0.539
 8031SOL     OW24991   6.271   6.600   3.186
 8031SOL    HW124992   6.295   6.685   3.139
 8031SOL    HW224993   6.204   6.619   3.258
 8032SOL     OW24994   5.136   3.736   1.544
 8032SOL    HW124995   5.132   3.820   1.599
 8032SOL    HW224996   5.052   3.727   1.490
 8033SOL     OW24997   4.537   3.527   0.186
 8033SOL    HW124998   4.490   3.482   0.109
 8033SOL    HW224999   4.514   3.624   0.187
 8034SOL     OW25000   5.598   0.271   5.671
 8034SOL    HW125001   5.621   0.306   5.580
 8034SOL    HW225002   5.603   0.171   5.671
 8035SOL     OW25003   4.490   1.166   2.121
 8035SOL    HW125004   4.584   1.135   2.105
 8035SOL    HW225005   4.478   1.189   2.217
 8036SOL     OW25006   6.992   3.340   3.658
 8036SOL    HW125007   0.038   3.279   3.618
 8036SOL    HW225008   6.962   3.406   3.589
 8037SOL     OW25009   1.583   3.515   6.983
 8037SOL    HW125010   1.582   3.463   0.045
 8037SOL    HW225011   1.639   3.466   6.915
 8038SOL     OW25012   5.030   6.142   2.063
 8038SOL    HW125013   4.974   6.091   2.127
 8038SOL    HW225014   5.101   6.083   2.026
 8039SOL     OW25015   0.091   2.418   4.903
 8039SOL    HW125016   0.054   2.425   4.811
 8039SOL    HW225017   0.187   2.392   4.899
 8040SOL     OW25018   1.849   6.230   6.846
 8040SOL    HW125019   1.791   6.301   6.888
 8040SOL    HW225020   1.903   6.271   6.773
 8041SOL     OW25021   3.370   0.996   2.643
 8041SOL    HW125022   3.427   0.972   2.723
 8041SOL    HW225023   3.429   1.023   2.567
 8042SOL     OW25024   4.472   4.258   5.268
 8042SOL    HW125025   4.412   4.277   5.189
 8042SOL    HW225026   4.416   4.253   5.351
 8043SOL     OW25027   3.796   4.468   0.358
 8043SOL    HW125028   3.864   4.541   0.356
 8043SOL    HW225029   3.842   4.381   0.379
 8044SOL     OW25030   3.120   3.013   0.823
 8044SOL    HW125031   3.130   3.109   0.847
 8044SOL    HW225032   3.117   2.958   0.907
 8045SOL     OW25033   0.007   2.010   2.599
 8045SOL    HW125034   6.949   2.066   2.591
 8045SOL    HW225035   0.057   2.035   2.682
 8046SOL     OW25036   0.577   4.757   2.286
 8046SOL    HW125037   0.615   4.753   2.194
 8046SOL    HW225038   0.594   4.670   2.332
 8047SOL     OW25039   4.222   6.835   6.858
 8047SOL    HW125040   4.208   6.804   6.764
 8047SOL    HW225041   4.245   6.932   6.857
 8048SOL     OW25042   3.365   3.041   6.655
 8048SOL    HW125043   3.385   3.135   6.626
 8048SOL    HW225044   3.280   3.010   6.612
 8049SOL     OW25045   1.149   6.807   0.080
 8049SOL    HW125046   1.209   6.789   0.002
 8049SOL    HW225047   1.204   6.817   0.163
 8050SOL     OW25048   2.124   3.553   4.468
 8050SOL    HW125049   2.170   3.469   4.440
 8050SOL    HW225050   2.184   3.632   4.452
 8051SOL     OW25051   4.714   5.587   4.462
 8051SOL    HW125052   4.801   5.568   4.507
 8051SOL    HW225053   4.730   5.610   4.366
 8052SOL     OW25054   2.332   2.039   2.120
 8052SOL    HW125055   2.279   1.983   2.056
 8052SOL    HW225056   2.345   2.130   2.080
 8053SOL     OW25057   2.836   2.887   5.476
 8053SOL    HW125058   2.931   2.871   5.450
 8053SOL    HW225059   2.809   2.980   5.451
 8054SOL     OW25060   6.237   3.816   4.769
 8054SOL    HW125061   6.310   3.757   4.735
 8054SOL    HW225062   6.170   3.762   4.819
 8055SOL     OW25063   0.150   1.015   5.743
 8055SOL    HW125064   0.113   0.925   5.717
 8055SOL    HW225065   0.247   1.019   5.719
 8056SOL     OW25066   3.683   0.005   3.413
 8056SOL    HW125067   3.694   6.992   3.321
 8056SOL    HW225068   3.754   6.990   3.473
 8057SOL     OW25069   2.845   2.104   2.369
 8057SOL    HW125070   2.768   2.041   2.383
 8057SOL    HW225071   2.896   2.113   2.455
 8058SOL     OW25072   3.280   6.162   3.286
 8058SOL    HW125073   3.232   6.217   3.354
 8058SOL    HW225074   3.325   6.222   3.220
 8059SOL     OW25075   3.220   0.850   5.780
 8059SOL    HW125076   3.121   0.856   5.766
 8059SOL    HW225077   3.240   0.861   5.878
 8060SOL     OW25078   0.098   1.861   6.177
 8060SOL    HW125079   0.179   1.884   6.122
 8060SOL    HW225080   0.114   1.773   6.223
 8061SOL     OW25081   0.345   0.480   3.003
 8061SOL    HW125082   0.294   0.439   2.927
 8061SOL    HW225083   0.442   0.461   2.993
 8062SOL     OW25084   4.041   5.733   4.825
 8062SOL    HW125085   3.959   5.746   4.771
 8062SOL    HW225086   4.030   5.777   4.914
 8063SOL     OW25087   2.940   1.189   3.201
 8063SOL    HW125088   3.030   1.193   3.158
 8063SOL    HW225089   2.901   1.281   3.206
 8064SOL     OW25090   6.142   3.251   7.018
 8064SOL    HW125091   6.236   3.264   6.988
 8064SOL    HW225092   6.141   3.210   0.085
 8065SOL     OW25093   3.455   6.817   4.248
 8065SOL    HW125094   3.543   6.772   4.258
 8065SOL    HW225095   3.463   6.893   4.183
 8066SOL     OW25096   6.367   0.601   4.289
 8066SOL    HW125097   6.346   0.526   4.226
 8066SOL    HW225098   6.451   0.579   4.339
 8067SOL     OW25099   4.892   2.557   3.880
 8067SOL    HW125100   4.925   2.651   3.871
 8067SOL    HW225101   4.923   2.502   3.802
 8068SOL     OW25102   0.386   4.538   0.592
 8068SOL    HW125103   0.418   4.534   0.686
 8068SOL    HW225104   0.287   4.520   0.589
 8069SOL     OW25105   2.204   4.923   1.994
 8069SOL    HW125106   2.286   4.900   1.942
 8069SOL    HW225107   2.226   4.993   2.061
 8070SOL     OW25108   4.321   3.047   0.719
 8070SOL    HW125109   4.278   3.002   0.797
 8070SOL    HW225110   4.410   3.082   0.746
 8071SOL     OW25111   3.476   6.862   4.966
 8071SOL    HW125112   3.472   6.956   5.000
 8071SOL    HW225113   3.490   6.863   4.867
 8072SOL     OW25114   3.267   2.329   0.917
 8072SOL    HW125115   3.191   2.285   0.966
 8072SOL    HW225116   3.335   2.259   0.892
 8073SOL     OW25117   2.707   5.836   5.132
 8073SOL    HW125118   2.674   5.881   5.049
 8073SOL    HW225119   2.737   5.906   5.198
 8074SOL     OW25120   2.860   0.911   0.918
 8074SOL    HW125121   2.807   0.990   0.889
 8074SOL    HW225122   2.945   0.907   0.865
 8075SOL     OW25123   0.292   0.239   0.455
 8075SOL    HW125124   0.297   0.140   0.444
 8075SOL    HW225125   0.381   0.280   0.433
 8076SOL     OW25126   6.893   0.304   5.529
 8076SOL    HW125127   6.941   0.361   5.596
 8076SOL    HW225128   6.935   0.317   5.439
 8077SOL     OW25129   4.093   6.370   2.440
 8077SOL    HW125130   4.017   6.372   2.374
 8077SOL    HW225131   4.061   6.333   2.527
 8078SOL     OW25132   1.160   1.786   0.937
 8078SOL    HW125133   1.064   1.763   0.955
 8078SOL    HW225134   1.207   1.806   1.023
 8079SOL     OW25135   6.885   1.498   3.553
 8079SOL    HW125136   6.812   1.435   3.528
 8079SOL    HW225137   6.920   1.475   3.644
 8080SOL     OW25138   1.566   2.391   2.035
 8080SOL    HW125139   1.639   2.325   2.016
 8080SOL    HW225140   1.490   2.376   1.971
 8081SOL     OW25141   6.436   5.299   5.814
 8081SOL    HW125142   6.523   5.251   5.826
 8081SOL    HW225143   6.375   5.244   5.758
 8082SOL     OW25144   3.549   0.641   2.226
 8082SOL    HW125145   3.467   0.654   2.282
 8082SOL    HW225146   3.529   0.574   2.154
 8083SOL     OW25147   5.101   2.811   4.364
 8083SOL    HW125148   5.123   2.903   4.396
 8083SOL    HW225149   5.138   2.798   4.272
 8084SOL     OW25150   2.928   0.632   6.558
 8084SOL    HW125151   2.870   0.635   6.477
 8084SOL    HW225152   2.934   0.724   6.598
 8085SOL     OW25153   6.213   6.215   2.966
 8085SOL    HW125154   6.140   6.183   2.906
 8085SOL    HW225155   6.295   6.159   2.951
 8086SOL     OW25156   0.306   1.373   1.031
 8086SOL    HW125157   0.301   1.367   1.130
 8086SOL    HW225158   0.328   1.283   0.993
 8087SOL     OW25159   1.913   0.426   6.200
 8087SOL    HW125160   1.931   0.484   6.280
 8087SOL    HW225161   1.998   0.410   6.151
 8088SOL     OW25162   5.803   0.496   0.066
 8088SOL    HW125163   5.862   0.577   0.070
 8088SOL    HW225164   5.854   0.416   0.095
 8089SOL     OW25165   5.986   2.977   6.377
 8089SOL    HW125166   5.935   3.013   6.456
 8089SOL    HW225167   5.988   3.045   6.305
 8090SOL     OW25168   3.951   1.338   6.214
 8090SOL    HW125169   3.872   1.299   6.168
 8090SOL    HW225170   3.973   1.283   6.295
 8091SOL     OW25171   1.299   4.420   5.184
 8091SOL    HW125172   1.370   4.402   5.251
 8091SOL    HW225173   1.229   4.348   5.189
 8092SOL     OW25174   4.930   1.930   5.363
 8092SOL    HW125175   5.013   1.973   5.327
 8092SOL    HW225176   4.879   1.889   5.287
 8093SOL     OW25177   3.034   5.365   3.351
 8093SOL    HW125178   3.099   5.341   3.279
 8093SOL    HW225179   2.954   5.408   3.310
 8094SOL     OW25180   0.350   3.223   5.744
 8094SOL    HW125181   0.417   3.152   5.765
 8094SOL    HW225182   0.358   3.249   5.648
 8095SOL     OW25183   0.841   4.621   4.780
 8095SOL    HW125184   0.826   4.523   4.787
 8095SOL    HW225185   0.937   4.641   4.800
 8096SOL     OW25186   2.222   0.453   2.640
 8096SOL    HW125187   2.299   0.396   2.669
 8096SOL    HW225188   2.162   0.399   2.580
 8097SOL     OW25189   4.200   0.180   4.474
 8097SOL    HW125190   4.197   0.157   4.377
 8097SOL    HW225191   4.280   0.237   4.491
 8098SOL     OW25192   2.806   6.137   3.832
 8098SOL    HW125193   2.830   6.233   3.843
 8098SOL    HW225194   2.711   6.122   3.861
 8099SOL     OW25195   4.581   6.430   4.510
 8099SOL    HW125196   4.607   6.370   4.585
 8099SOL    HW225197   4.580   6.379   4.424
 8100SOL     OW25198   6.540   1.373   6.985
 8100SOL    HW125199   6.601   1.418   6.920
 8100SOL    HW225200   6.468   1.325   6.936
 8101SOL     OW25201   1.097   5.412   0.659
 8101SOL    HW125202   1.096   5.511   0.670
 8101SOL    HW225203   1.177   5.384   0.606
 8102SOL     OW25204   0.459   3.940   3.282
 8102SOL    HW125205   0.509   3.879   3.221
 8102SOL    HW225206   0.375   3.970   3.237
 8103SOL     OW25207   3.802   0.372   2.130
 8103SOL    HW125208   3.865   0.435   2.176
 8103SOL    HW225209   3.812   0.382   2.031
 8104SOL     OW25210   1.719   0.495   5.617
 8104SOL    HW125211   1.711   0.594   5.620
 8104SOL    HW225212   1.659   0.454   5.685
 8105SOL     OW25213   0.102   2.526   2.046
 8105SOL    HW125214   0.172   2.471   2.001
 8105SOL    HW225215   0.025   2.468   2.073
 8106SOL     OW25216   2.878   6.370   2.833
 8106SOL    HW125217   2.814   6.400   2.905
 8106SOL    HW225218   2.831   6.370   2.745
 8107SOL     OW25219   1.448   5.738   4.062
 8107SOL    HW125220   1.536   5.696   4.040
 8107SOL    HW225221   1.461   5.804   4.135
 8108SOL     OW25222   6.627   1.948   6.672
 8108SOL    HW125223   6.557   1.900   6.619
 8108SOL    HW225224   6.712   1.952   6.619
 8109SOL     OW25225   0.462   3.679   6.734
 8109SOL    HW125226   0.492   3.635   6.818
 8109SOL    HW225227   0.363   3.692   6.736
 8110SOL     OW25228   3.899   5.264   2.027
 8110SOL    HW125229   3.955   5.184   2.048
 8110SOL    HW225230   3.928   5.303   1.939
 8111SOL     OW25231   5.000   0.852   4.411
 8111SOL    HW125232   5.060   0.832   4.334
 8111SOL    HW225233   4.994   0.950   4.425
 8112SOL     OW25234   2.396   2.531   4.626
 8112SOL    HW125235   2.486   2.503   4.591
 8112SOL    HW225236   2.399   2.532   4.726
 8113SOL     OW25237   6.831   3.911   1.198
 8113SOL    HW125238   6.830   4.011   1.193
 8113SOL    HW225239   6.773   3.874   1.125
 8114SOL     OW25240   1.712   3.624   2.294
 8114SOL    HW125241   1.732   3.536   2.251
 8114SOL    HW225242   1.783   3.690   2.267
 8115SOL     OW25243   3.028   6.309   6.017
 8115SOL    HW125244   2.978   6.223   6.029
 8115SOL    HW225245   3.049   6.348   6.106
 8116SOL     OW25246   3.991   4.659   0.263
 8116SOL    HW125247   4.006   4.616   0.174
 8116SOL    HW225248   4.072   4.711   0.289
 8117SOL     OW25249   2.123   0.136   3.347
 8117SOL    HW125250   2.060   0.183   3.409
 8117SOL    HW225251   2.213   0.178   3.352
 8118SOL     OW25252   5.397   4.302   6.157
 8118SOL    HW125253   5.325   4.367   6.135
 8118SOL    HW225254   5.357   4.211   6.173
 8119SOL     OW25255   5.221   6.666   6.342
 8119SOL    HW125256   5.285   6.590   6.336
 8119SOL    HW225257   5.197   6.697   6.251
 8120SOL     OW25258   3.057   5.129   0.979
 8120SOL    HW125259   3.044   5.113   1.077
 8120SOL    HW225260   2.986   5.082   0.928
 8121SOL     OW25261   0.675   4.839   1.093
 8121SOL    HW125262   0.725   4.834   1.006
 8121SOL    HW225263   0.587   4.794   1.084
 8122SOL     OW25264   0.825   4.375   3.243
 8122SOL    HW125265   0.788   4.407   3.330
 8122SOL    HW225266   0.757   4.387   3.171
 8123SOL     OW25267   0.109   2.063   0.085
 8123SOL    HW125268   0.082   2.023   0.172
 8123SOL    HW225269   0.036   2.051   0.017
 8124SOL     OW25270   5.383   5.965   3.181
 8124SOL    HW125271   5.348   5.885   3.230
 8124SOL    HW225272   5.356   6.048   3.230
 8125SOL     OW25273   1.318   1.072   2.971
 8125SOL    HW125274   1.284   1.033   3.057
 8125SOL    HW225275   1.281   1.164   2.960
 8126SOL     OW25276   5.363   4.837   3.309
 8126SOL    HW125277   5.269   4.866   3.326
 8126SOL    HW225278   5.363   4.746   3.268
 8127SOL     OW25279   2.742   3.494   6.516
 8127SOL    HW125280   2.691   3.441   6.583
 8127SOL    HW225281   2.829   3.448   6.497
 8128SOL     OW25282   2.969   2.150   2.121
 8128SOL    HW125283   2.912   2.121   2.198
 8128SOL    HW225284   2.927   2.229   2.076
 8129SOL     OW25285   3.979   2.004   6.448
 8129SOL    HW125286   3.975   2.059   6.531
 8129SOL    HW225287   3.915   2.040   6.381
 8130SOL     OW25288   0.416   6.022   6.682
 8130SOL    HW125289   0.352   5.960   6.727
 8130SOL    HW225290   0.443   6.094   6.747
 8131SOL     OW25291   2.956   1.592   1.759
 8131SOL    HW125292   2.966   1.666   1.692
 8131SOL    HW225293   3.045   1.573   1.801
 8132SOL     OW25294   5.711   6.934   4.876
 8132SOL    HW125295   5.622   6.917   4.832
 8132SOL    HW225296   5.752   6.847   4.903
 8133SOL     OW25297   3.679   5.387   2.414
 8133SOL    HW125298   3.664   5.412   2.318
 8133SOL    HW225299   3.592   5.357   2.454
 8134SOL     OW25300   0.181   1.637   6.327
 8134SOL    HW125301   0.118   1.576   6.376
 8134SOL    HW225302   0.234   1.691   6.393
 8135SOL     OW25303   2.234   0.924   1.520
 8135SOL    HW125304   2.218   1.010   1.570
 8135SOL    HW225305   2.237   0.943   1.422
 8136SOL     OW25306   5.224   5.093   2.354
 8136SOL    HW125307   5.189   5.162   2.290
 8136SOL    HW225308   5.156   5.020   2.365
 8137SOL     OW25309   3.319   1.177   5.225
 8137SOL    HW125310   3.304   1.163   5.323
 8137SOL    HW225311   3.371   1.262   5.211
 8138SOL     OW25312   5.485   1.237   1.476
 8138SOL    HW125313   5.506   1.275   1.385
 8138SOL    HW225314   5.539   1.284   1.545
 8139SOL     OW25315   0.026   0.944   2.096
 8139SOL    HW125316   7.003   0.900   2.019
 8139SOL    HW225317   0.083   0.877   2.143
 8140SOL     OW25318   5.644   0.503   5.424
 8140SOL    HW125319   5.601   0.479   5.337
 8140SOL    HW225320   5.743   0.491   5.416
 8141SOL     OW25321   4.695   5.286   5.792
 8141SOL    HW125322   4.635   5.349   5.742
 8141SOL    HW225323   4.727   5.214   5.730
 8142SOL     OW25324   6.757   5.099   0.704
 8142SOL    HW125325   6.836   5.085   0.763
 8142SOL    HW225326   6.716   5.188   0.725
 8143SOL     OW25327   6.398   4.517   0.521
 8143SOL    HW125328   6.497   4.534   0.519
 8143SOL    HW225329   6.365   4.524   0.615
 8144SOL     OW25330   5.720   6.297   6.954
 8144SOL    HW125331   5.640   6.239   6.967
 8144SOL    HW225332   5.737   6.309   6.856
 8145SOL     OW25333   5.683   5.846   1.829
 8145SOL    HW125334   5.651   5.926   1.879
 8145SOL    HW225335   5.668   5.764   1.884
 8146SOL     OW25336   3.893   1.378   5.237
 8146SOL    HW125337   3.866   1.405   5.144
 8146SOL    HW225338   3.824   1.318   5.276
 8147SOL     OW25339   5.947   2.302   3.259
 8147SOL    HW125340   6.020   2.310   3.327
 8147SOL    HW225341   5.859   2.319   3.302
 8148SOL     OW25342   5.154   4.017   1.992
 8148SOL    HW125343   5.128   4.073   1.914
 8148SOL    HW225344   5.081   4.019   2.061
 8149SOL     OW25345   2.526   5.531   2.031
 8149SOL    HW125346   2.537   5.491   1.939
 8149SOL    HW225347   2.602   5.594   2.048
 8150SOL     OW25348   0.202   5.347   0.284
 8150SOL    HW125349   0.177   5.306   0.372
 8150SOL    HW225350   0.295   5.321   0.260
 8151SOL     OW25351   0.082   2.321   2.835
 8151SOL    HW125352   0.143   2.371   2.897
 8151SOL    HW225353   0.002   2.378   2.814
 8152SOL     OW25354   0.518   2.060   2.569
 8152SOL    HW125355   0.522   2.037   2.666
 8152SOL    HW225356   0.610   2.083   2.537
 8153SOL     OW25357   3.472   0.345   3.525
 8153SOL    HW125358   3.526   0.394   3.593
 8153SOL    HW225359   3.376   0.342   3.553
 8154SOL     OW25360   2.289   6.206   3.705
 8154SOL    HW125361   2.367   6.216   3.644
 8154SOL    HW225362   2.268   6.109   3.717
 8155SOL     OW25363   2.801   3.460   1.860
 8155SOL    HW125364   2.760   3.393   1.797
 8155SOL    HW225365   2.746   3.467   1.943
 8156SOL     OW25366   5.439   6.918   6.118
 8156SOL    HW125367   5.364   6.963   6.166
 8156SOL    HW225368   5.429   6.932   6.020
 8157SOL     OW25369   5.991   5.717   6.273
 8157SOL    HW125370   5.930   5.638   6.271
 8157SOL    HW225371   6.081   5.689   6.307
 8158SOL     OW25372   0.666   5.487   0.737
 8158SOL    HW125373   0.571   5.458   0.731
 8158SOL    HW225374   0.718   5.421   0.790
 8159SOL     OW25375   2.538   5.710   2.331
 8159SOL    HW125376   2.439   5.697   2.321
 8159SOL    HW225377   2.574   5.762   2.253
 8160SOL     OW25378   4.423   1.637   1.712
 8160SOL    HW125379   4.466   1.639   1.621
 8160SOL    HW225380   4.372   1.722   1.726
 8161SOL     OW25381   5.212   0.652   0.807
 8161SOL    HW125382   5.166   0.578   0.758
 8161SOL    HW225383   5.240   0.620   0.897
 8162SOL     OW25384   6.212   6.911   6.109
 8162SOL    HW125385   6.199   6.981   6.179
 8162SOL    HW225386   6.162   6.828   6.134
 8163SOL     OW25387   2.297   4.083   6.009
 8163SOL    HW125388   2.375   4.140   5.987
 8163SOL    HW225389   2.275   4.024   5.931
 8164SOL     OW25390   5.802   3.845   0.317
 8164SOL    HW125391   5.794   3.772   0.248
 8164SOL    HW225392   5.872   3.911   0.288
 8165SOL     OW25393   1.470   4.628   0.205
 8165SOL    HW125394   1.374   4.655   0.208
 8165SOL    HW225395   1.522   4.682   0.270
 8166SOL     OW25396   2.398   1.187   2.110
 8166SOL    HW125397   2.392   1.218   2.015
 8166SOL    HW225398   2.489   1.208   2.147
 8167SOL     OW25399   5.431   1.379   4.387
 8167SOL    HW125400   5.397   1.361   4.479
 8167SOL    HW225401   5.520   1.424   4.393
 8168SOL     OW25402   3.428   1.600   2.605
 8168SOL    HW125403   3.472   1.528   2.552
 8168SOL    HW225404   3.368   1.559   2.674
 8169SOL     OW25405   4.850   3.377   0.996
 8169SOL    HW125406   4.803   3.296   1.032
 8169SOL    HW225407   4.947   3.357   0.986
 8170SOL     OW25408   1.775   5.931   3.470
 8170SOL    HW125409   1.698   5.995   3.460
 8170SOL    HW225410   1.860   5.978   3.446
 8171SOL     OW25411   0.895   1.975   6.791
 8171SOL    HW125412   0.941   1.909   6.850
 8171SOL    HW225413   0.932   1.968   6.699
 8172SOL     OW25414   0.295   0.728   1.268
 8172SOL    HW125415   0.263   0.709   1.175
 8172SOL    HW225416   0.395   0.725   1.269
 8173SOL     OW25417   3.500   2.408   0.450
 8173SOL    HW125418   3.549   2.427   0.365
 8173SOL    HW225419   3.451   2.321   0.441
 8174SOL     OW25420   5.344   1.905   1.180
 8174SOL    HW125421   5.255   1.865   1.162
 8174SOL    HW225422   5.412   1.832   1.189
 8175SOL     OW25423   0.323   2.820   6.315
 8175SOL    HW125424   0.288   2.819   6.409
 8175SOL    HW225425   0.364   2.909   6.296
 8176SOL     OW25426   2.622   5.863   2.073
 8176SOL    HW125427   2.652   5.882   1.979
 8176SOL    HW225428   2.526   5.892   2.084
 8177SOL     OW25429   1.661   6.005   3.973
 8177SOL    HW125430   1.602   6.063   3.916
 8177SOL    HW225431   1.657   5.911   3.939
 8178SOL     OW25432   1.741   0.363   5.966
 8178SOL    HW125433   1.787   0.405   6.044
 8178SOL    HW225434   1.735   0.264   5.979
 8179SOL     OW25435   3.676   3.416   0.194
 8179SOL    HW125436   3.675   3.363   0.110
 8179SOL    HW225437   3.582   3.426   0.229
 8180SOL     OW25438   6.343   6.714   3.898
 8180SOL    HW125439   6.357   6.690   3.802
 8180SOL    HW225440   6.412   6.781   3.926
 8181SOL     OW25441   2.387   1.775   2.883
 8181SOL    HW125442   2.366   1.696   2.942
 8181SOL    HW225443   2.424   1.743   2.796
 8182SOL     OW25444   3.587   1.550   6.814
 8182SOL    HW125445   3.607   1.481   6.884
 8182SOL    HW225446   3.584   1.506   6.725
 8183SOL     OW25447   0.412   2.902   5.095
 8183SOL    HW125448   0.481   2.941   5.156
 8183SOL    HW225449   0.344   2.851   5.149
 8184SOL     OW25450   5.962   1.395   5.963
 8184SOL    HW125451   6.030   1.400   5.890
 8184SOL    HW225452   5.981   1.315   6.020
 8185SOL     OW25453   2.716   0.551   0.468
 8185SOL    HW125454   2.785   0.503   0.413
 8185SOL    HW225455   2.647   0.486   0.498
 8186SOL     OW25456   3.275   6.007   5.834
 8186SOL    HW125457   3.306   6.018   5.928
 8186SOL    HW225458   3.242   6.095   5.799
 8187SOL     OW25459   1.233   1.597   5.042
 8187SOL    HW125460   1.243   1.665   4.969
 8187SOL    HW225461   1.267   1.636   5.128
 8188SOL     OW25462   4.560   1.689   2.594
 8188SOL    HW125463   4.604   1.726   2.676
 8188SOL    HW225464   4.602   1.729   2.513
 8189SOL     OW25465   4.941   4.093   2.333
 8189SOL    HW125466   5.003   4.016   2.326
 8189SOL    HW225467   4.867   4.083   2.266
 8190SOL     OW25468   5.395   4.531   4.293
 8190SOL    HW125469   5.328   4.605   4.307
 8190SOL    HW225470   5.434   4.538   4.201
 8191SOL     OW25471   1.959   5.349   3.789
 8191SOL    HW125472   1.926   5.328   3.881
 8191SOL    HW225473   1.881   5.364   3.728
 8192SOL     OW25474   2.920   5.722   0.522
 8192SOL    HW125475   2.856   5.758   0.590
 8192SOL    HW225476   2.945   5.628   0.547
 8193SOL     OW25477   5.911   6.251   5.124
 8193SOL    HW125478   5.945   6.160   5.147
 8193SOL    HW225479   5.939   6.275   5.031
 8194SOL     OW25480   6.498   2.713   6.780
 8194SOL    HW125481   6.415   2.663   6.757
 8194SOL    HW225482   6.521   2.776   6.706
 8195SOL     OW25483   0.226   0.618   1.028
 8195SOL    HW125484   0.296   0.594   0.961
 8195SOL    HW225485   0.137   0.586   0.996
 8196SOL     OW25486   4.069   6.650   5.504
 8196SOL    HW125487   4.023   6.720   5.449
 8196SOL    HW225488   4.154   6.687   5.541
 8197SOL     OW25489   5.925   1.350   6.385
 8197SOL    HW125490   5.949   1.437   6.427
 8197SOL    HW225491   5.947   1.353   6.287
 8198SOL     OW25492   3.123   6.434   2.718
 8198SOL    HW125493   3.146   6.444   2.621
 8198SOL    HW225494   3.024   6.425   2.727
 8199SOL     OW25495   6.949   3.900   0.264
 8199SOL    HW125496   7.006   3.850   0.198
 8199SOL    HW225497   6.909   3.980   0.220
 8200SOL     OW25498   4.306   5.037   1.215
 8200SOL    HW125499   4.300   4.938   1.229
 8200SOL    HW225500   4.379   5.056   1.149
 8201SOL     OW25501   5.239   0.633   4.430
 8201SOL    HW125502   5.282   0.618   4.519
 8201SOL    HW225503   5.251   0.729   4.403
 8202SOL     OW25504   1.609   4.931   4.350
 8202SOL    HW125505   1.699   4.935   4.306
 8202SOL    HW225506   1.594   4.839   4.386
 8203SOL     OW25507   4.723   3.585   0.904
 8203SOL    HW125508   4.698   3.577   0.807
 8203SOL    HW225509   4.786   3.511   0.928
 8204SOL     OW25510   3.457   6.612   1.512
 8204SOL    HW125511   3.500   6.671   1.580
 8204SOL    HW225512   3.510   6.612   1.428
 8205SOL     OW25513   5.361   5.133   1.420
 8205SOL    HW125514   5.414   5.105   1.340
 8205SOL    HW225515   5.414   5.114   1.503
 8206SOL     OW25516   3.379   2.575   6.237
 8206SOL    HW125517   3.424   2.507   6.295
 8206SOL    HW225518   3.428   2.583   6.150
 8207SOL     OW25519   3.198   4.564   5.472
 8207SOL    HW125520   3.132   4.631   5.439
 8207SOL    HW225521   3.283   4.571   5.420
 8208SOL     OW25522   2.785   5.958   1.664
 8208SOL    HW125523   2.723   5.947   1.586
 8208SOL    HW225524   2.867   6.008   1.635
 8209SOL     OW25525   1.616   0.924   5.872
 8209SOL    HW125526   1.520   0.946   5.885
 8209SOL    HW225527   1.672   0.980   5.933
 8210SOL     OW25528   2.555   0.771   0.358
 8210SOL    HW125529   2.602   0.683   0.352
 8210SOL    HW225530   2.610   0.842   0.315
 8211SOL     OW25531   3.557   4.187   4.650
 8211SOL    HW125532   3.584   4.091   4.642
 8211SOL    HW225533   3.597   4.227   4.733
 8212SOL     OW25534   2.560   0.142   0.740
 8212SOL    HW125535   2.624   0.074   0.704
 8212SOL    HW225536   2.610   0.211   0.792
 8213SOL     OW25537   4.451   5.329   3.188
 8213SOL    HW125538   4.381   5.315   3.258
 8213SOL    HW225539   4.430   5.272   3.109
 8214SOL     OW25540   2.655   5.795   4.163
 8214SOL    HW125541   2.689   5.785   4.257
 8214SOL    HW225542   2.555   5.806   4.166
 8215SOL     OW25543   4.162   6.536   6.967
 8215SOL    HW125544   4.236   6.470   6.978
 8215SOL    HW225545   4.193   6.627   6.995
 8216SOL     OW25546   5.095   6.293   2.832
 8216SOL    HW125547   5.168   6.315   2.898
 8216SOL    HW225548   5.050   6.208   2.859
 8217SOL     OW25549   2.131   4.375   2.822
 8217SOL    HW125550   2.129   4.386   2.723
 8217SOL    HW225551   2.213   4.421   2.859
 8218SOL     OW25552   1.800   0.534   4.752
 8218SOL    HW125553   1.838   0.448   4.788
 8218SOL    HW225554   1.804   0.533   4.652
 8219SOL     OW25555   3.075   4.105   1.920
 8219SOL    HW125556   2.995   4.163   1.934
 8219SOL    HW225557   3.046   4.010   1.911
 8220SOL     OW25558   3.489   4.265   5.157
 8220SOL    HW125559   3.449   4.281   5.247
 8220SOL    HW225560   3.436   4.195   5.109
 8221SOL     OW25561   6.050   4.220   3.052
 8221SOL    HW125562   5.957   4.248   3.076
 8221SOL    HW225563   6.062   4.124   3.077
 8222SOL     OW25564   5.990   3.031   0.961
 8222SOL    HW125565   6.085   3.011   0.939
 8222SOL    HW225566   5.958   2.966   1.031
 8223SOL     OW25567   6.688   5.331   4.872
 8223SOL    HW125568   6.780   5.352   4.904
 8223SOL    HW225569   6.693   5.294   4.779
 8224SOL     OW25570   4.820   1.562   0.858
 8224SOL    HW125571   4.875   1.609   0.789
 8224SOL    HW225572   4.786   1.628   0.924
 8225SOL     OW25573   4.072   0.363   0.351
 8225SOL    HW125574   4.055   0.461   0.366
 8225SOL    HW225575   4.158   0.337   0.395
 8226SOL     OW25576   3.853   0.594   0.110
 8226SOL    HW125577   3.874   0.497   0.127
 8226SOL    HW225578   3.787   0.626   0.178
 8227SOL     OW25579   5.524   1.579   3.179
 8227SOL    HW125580   5.470   1.591   3.096
 8227SOL    HW225581   5.612   1.626   3.168
 8228SOL     OW25582   0.668   1.379   4.812
 8228SOL    HW125583   0.690   1.428   4.896
 8228SOL    HW225584   0.609   1.436   4.755
 8229SOL     OW25585   3.670   4.804   0.997
 8229SOL    HW125586   3.671   4.799   0.897
 8229SOL    HW225587   3.629   4.721   1.034
 8230SOL     OW25588   4.395   0.105   5.393
 8230SOL    HW125589   4.417   0.142   5.483
 8230SOL    HW225590   4.358   0.178   5.335
 8231SOL     OW25591   3.273   1.347   2.062
 8231SOL    HW125592   3.274   1.248   2.051
 8231SOL    HW225593   3.179   1.378   2.077
 8232SOL     OW25594   4.215   1.355   2.329
 8232SOL    HW125595   4.269   1.422   2.278
 8232SOL    HW225596   4.118   1.370   2.311
 8233SOL     OW25597   0.710   1.087   5.824
 8233SOL    HW125598   0.788   1.061   5.881
 8233SOL    HW225599   0.738   1.158   5.759
 8234SOL     OW25600   3.039   3.609   0.018
 8234SOL    HW125601   3.007   3.515   0.005
 8234SOL    HW225602   3.016   3.664   6.962
 8235SOL     OW25603   0.033   5.039   6.667
 8235SOL    HW125604   0.093   4.999   6.736
 8235SOL    HW225605   0.079   5.117   6.624
 8236SOL     OW25606   0.279   6.043   5.922
 8236SOL    HW125607   0.234   5.954   5.923
 8236SOL    HW225608   0.374   6.033   5.952
 8237SOL     OW25609   4.582   5.703   6.673
 8237SOL    HW125610   4.639   5.773   6.630
 8237SOL    HW225611   4.613   5.613   6.643
 8238SOL     OW25612   2.079   5.773   0.577
 8238SOL    HW125613   2.174   5.766   0.607
 8238SOL    HW225614   2.069   5.848   0.512
 8239SOL     OW25615   0.679   1.989   4.726
 8239SOL    HW125616   0.765   2.036   4.707
 8239SOL    HW225617   0.683   1.896   4.688
 8240SOL     OW25618   3.448   3.109   3.785
 8240SOL    HW125619   3.534   3.065   3.761
 8240SOL    HW225620   3.404   3.059   3.861
 8241SOL     OW25621   1.654   3.092   6.599
 8241SOL    HW125622   1.634   3.187   6.578
 8241SOL    HW225623   1.607   3.032   6.534
 8242SOL     OW25624   1.152   3.685   4.538
 8242SOL    HW125625   1.205   3.720   4.461
 8242SOL    HW225626   1.055   3.706   4.524
 8243SOL     OW25627   0.625   5.163   6.208
 8243SOL    HW125628   0.593   5.252   6.176
 8243SOL    HW225629   0.593   5.092   6.145
 8244SOL     OW25630   0.621   0.471   3.503
 8244SOL    HW125631   0.589   0.468   3.409
 8244SOL    HW225632   0.715   0.437   3.508
 8245SOL     OW25633   4.967   1.336   3.948
 8245SOL    HW125634   4.947   1.405   3.879
 8245SOL    HW225635   4.996   1.251   3.903
 8246SOL     OW25636   1.222   4.087   6.669
 8246SOL    HW125637   1.212   4.001   6.720
 8246SOL    HW225638   1.318   4.101   6.647
 8247SOL     OW25639   2.981   4.813   3.481
 8247SOL    HW125640   2.908   4.880   3.492
 8247SOL    HW225641   2.947   4.733   3.433
 8248SOL     OW25642   0.495   5.527   3.166
 8248SOL    HW125643   0.445   5.611   3.146
 8248SOL    HW225644   0.545   5.497   3.085
 8249SOL     OW25645   2.464   2.468   5.693
 8249SOL    HW125646   2.487   2.380   5.650
 8249SOL    HW225647   2.366   2.471   5.711
 8250SOL     OW25648   2.191   1.733   0.284
 8250SOL    HW125649   2.194   1.798   0.208
 8250SOL    HW225650   2.282   1.694   0.298
 8251SOL     OW25651   0.064   2.697   4.611
 8251SOL    HW125652   0.059   2.797   4.604
 8251SOL    HW225653   0.158   2.670   4.633
 8252SOL     OW25654   2.451   2.263   6.870
 8252SOL    HW125655   2.415   2.240   6.779
 8252SOL    HW225656   2.375   2.268   6.935
 8253SOL     OW25657   3.346   5.754   6.147
 8253SOL    HW125658   3.299   5.717   6.227
 8253SOL    HW225659   3.297   5.727   6.064
 8254SOL     OW25660   6.071   4.937   0.213
 8254SOL    HW125661   6.118   4.981   0.290
 8254SOL    HW225662   5.972   4.943   0.226
 8255SOL     OW25663   0.309   0.293   5.970
 8255SOL    HW125664   0.290   0.214   6.029
 8255SOL    HW225665   0.367   0.358   6.019
 8256SOL     OW25666   1.397   6.114   2.448
 8256SOL    HW125667   1.495   6.097   2.442
 8256SOL    HW225668   1.353   6.088   2.362
 8257SOL     OW25669   5.495   4.144   4.285
 8257SOL    HW125670   5.587   4.159   4.323
 8257SOL    HW225671   5.429   4.200   4.335
 8258SOL     OW25672   5.632   2.880   1.632
 8258SOL    HW125673   5.558   2.814   1.645
 8258SOL    HW225674   5.612   2.937   1.552
 8259SOL     OW25675   4.319   2.220   4.545
 8259SOL    HW125676   4.343   2.286   4.474
 8259SOL    HW225677   4.224   2.233   4.572
 8260SOL     OW25678   2.655   6.962   0.352
 8260SOL    HW125679   2.580   6.915   0.305
 8260SOL    HW225680   2.637   0.036   0.354
 8261SOL     OW25681   5.673   6.151   2.972
 8261SOL    HW125682   5.641   6.059   2.997
 8261SOL    HW225683   5.652   6.169   2.876
 8262SOL     OW25684   0.238   4.826   0.425
 8262SOL    HW125685   0.226   4.925   0.413
 8262SOL    HW225686   0.322   4.809   0.476
 8263SOL     OW25687   0.121   2.279   6.679
 8263SOL    HW125688   0.177   2.361   6.669
 8263SOL    HW225689   0.025   2.303   6.664
 8264SOL     OW25690   2.131   0.008   1.802
 8264SOL    HW125691   2.169   6.939   1.812
 8264SOL    HW225692   2.061   0.023   1.871
 8265SOL     OW25693   4.564   0.091   1.510
 8265SOL    HW125694   4.481   0.146   1.509
 8265SOL    HW225695   4.587   0.067   1.605
 8266SOL     OW25696   2.686   0.173   4.075
 8266SOL    HW125697   2.760   0.126   4.028
 8266SOL    HW225698   2.720   0.211   4.161
 8267SOL     OW25699   1.315   4.468   2.704
 8267SOL    HW125700   1.386   4.423   2.759
 8267SOL    HW225701   1.254   4.399   2.665
 8268SOL     OW25702   3.076   3.643   6.497
 8268SOL    HW125703   3.043   3.630   6.591
 8268SOL    HW225704   3.054   3.736   6.466
 8269SOL     OW25705   4.389   2.348   3.292
 8269SOL    HW125706   4.370   2.377   3.386
 8269SOL    HW225707   4.412   2.251   3.291
 8270SOL     OW25708   3.629   0.053   5.903
 8270SOL    HW125709   3.531   0.065   5.885
 8270SOL    HW225710   3.660   0.125   5.966
 8271SOL     OW25711   5.061   6.075   4.454
 8271SOL    HW125712   4.999   6.130   4.510
 8271SOL    HW225713   5.056   5.979   4.483
 8272SOL     OW25714   0.676   0.703   2.127
 8272SOL    HW125715   0.719   0.761   2.058
 8272SOL    HW225716   0.669   0.752   2.214
 8273SOL     OW25717   2.353   6.464   6.882
 8273SOL    HW125718   2.400   6.387   6.838
 8273SOL    HW225719   2.370   6.548   6.830
 8274SOL     OW25720   4.927   5.471   0.017
 8274SOL    HW125721   4.865   5.398   0.047
 8274SOL    HW225722   4.875   5.538   6.987
 8275SOL     OW25723   6.796   0.434   4.280
 8275SOL    HW125724   6.801   0.338   4.253
 8275SOL    HW225725   6.884   0.478   4.262
 8276SOL     OW25726   7.006   2.567   5.838
 8276SOL    HW125727   6.972   2.472   5.837
 8276SOL    HW225728   6.951   2.621   5.902
 8277SOL     OW25729   1.432   6.067   5.423
 8277SOL    HW125730   1.505   6.058   5.356
 8277SOL    HW225731   1.386   6.155   5.412
 8278SOL     OW25732   3.642   2.109   6.560
 8278SOL    HW125733   3.610   2.055   6.638
 8278SOL    HW225734   3.676   2.198   6.593
 8279SOL     OW25735   4.726   5.854   6.495
 8279SOL    HW125736   4.809   5.805   6.469
 8279SOL    HW225737   4.742   5.953   6.488
 8280SOL     OW25738   5.317   2.536   0.462
 8280SOL    HW125739   5.228   2.554   0.422
 8280SOL    HW225740   5.364   2.622   0.481
 8281SOL     OW25741   1.334   5.128   0.589
 8281SOL    HW125742   1.372   5.092   0.675
 8281SOL    HW225743   1.397   5.196   0.550
 8282SOL     OW25744   2.676   2.630   1.377
 8282SOL    HW125745   2.588   2.619   1.423
 8282SOL    HW225746   2.662   2.664   1.284
 8283SOL     OW25747   0.613   4.773   4.110
 8283SOL    HW125748   0.582   4.705   4.044
 8283SOL    HW225749   0.698   4.815   4.078
 8284SOL     OW25750   2.789   2.322   2.757
 8284SOL    HW125751   2.721   2.269   2.707
 8284SOL    HW225752   2.745   2.401   2.801
 8285SOL     OW25753   3.110   3.984   5.954
 8285SOL    HW125754   3.144   3.968   6.047
 8285SOL    HW225755   3.127   4.079   5.928
 8286SOL     OW25756   5.527   0.949   4.864
 8286SOL    HW125757   5.548   0.975   4.959
 8286SOL    HW225758   5.584   0.871   4.838
 8287SOL     OW25759   1.160   0.073   3.727
 8287SOL    HW125760   1.199   0.158   3.690
 8287SOL    HW225761   1.192   7.020   3.671
 8288SOL     OW25762   2.227   1.829   2.330
 8288SOL    HW125763   2.217   1.779   2.416
 8288SOL    HW225764   2.282   1.912   2.346
 8289SOL     OW25765   5.809   2.271   5.239
 8289SOL    HW125766   5.871   2.241   5.166
 8289SOL    HW225767   5.809   2.202   5.312
 8290SOL     OW25768   3.652   2.630   1.755
 8290SOL    HW125769   3.639   2.535   1.782
 8290SOL    HW225770   3.566   2.680   1.762
 8291SOL     OW25771   5.517   6.627   6.772
 8291SOL    HW125772   5.548   6.570   6.696
 8291SOL    HW225773   5.465   6.572   6.836
 8292SOL     OW25774   1.019   5.126   5.712
 8292SOL    HW125775   0.930   5.090   5.683
 8292SOL    HW225776   1.009   5.174   5.799
 8293SOL     OW25777   2.332   5.001   2.237
 8293SOL    HW125778   2.429   5.020   2.253
 8293SOL    HW225779   2.276   5.057   2.298
 8294SOL     OW25780   0.254   3.968   6.228
 8294SOL    HW125781   0.283   3.935   6.138
 8294SOL    HW225782   0.326   4.025   6.268
 8295SOL     OW25783   5.088   4.029   2.940
 8295SOL    HW125784   5.157   3.990   2.879
 8295SOL    HW225785   4.996   4.006   2.906
 8296SOL     OW25786   3.049   5.992   0.431
 8296SOL    HW125787   2.996   5.935   0.494
 8296SOL    HW225788   3.005   6.081   0.421
 8297SOL     OW25789   0.110   4.575   2.660
 8297SOL    HW125790   0.040   4.544   2.595
 8297SOL    HW225791   0.100   4.526   2.746
 8298SOL     OW25792   0.644   1.223   6.913
 8298SOL    HW125793   0.642   1.309   6.863
 8298SOL    HW225794   0.738   1.189   6.916
 8299SOL     OW25795   7.017   3.951   1.986
 8299SOL    HW125796   6.961   3.947   1.904
 8299SOL    HW225797   6.963   3.987   2.062
 8300SOL     OW25798   6.424   5.472   4.099
 8300SOL    HW125799   6.400   5.501   4.006
 8300SOL    HW225800   6.423   5.372   4.103
 8301SOL     OW25801   3.735   7.015   0.218
 8301SOL    HW125802   3.799   6.941   0.200
 8301SOL    HW225803   3.641   6.980   0.218
 8302SOL     OW25804   3.335   6.341   4.127
 8302SOL    HW125805   3.363   6.429   4.088
 8302SOL    HW225806   3.415   6.282   4.134
 8303SOL     OW25807   6.091   0.289   2.194
 8303SOL    HW125808   6.148   0.365   2.162
 8303SOL    HW225809   6.122   0.260   2.285
 8304SOL     OW25810   5.873   3.177   3.590
 8304SOL    HW125811   5.928   3.250   3.549
 8304SOL    HW225812   5.825   3.213   3.670
 8305SOL     OW25813   4.485   5.531   4.031
 8305SOL    HW125814   4.429   5.473   4.089
 8305SOL    HW225815   4.496   5.621   4.074
 8306SOL     OW25816   6.347   0.776   2.113
 8306SOL    HW125817   6.339   0.852   2.177
 8306SOL    HW225818   6.320   0.807   2.022
 8307SOL     OW25819   1.534   4.958   2.280
 8307SOL    HW125820   1.441   4.991   2.265
 8307SOL    HW225821   1.551   4.880   2.220
 8308SOL     OW25822   1.120   4.519   7.002
 8308SOL    HW125823   1.070   4.606   7.012
 8308SOL    HW225824   1.061   4.444   0.008
 8309SOL     OW25825   6.553   4.756   4.919
 8309SOL    HW125826   6.622   4.686   4.934
 8309SOL    HW225827   6.518   4.788   5.007
 8310SOL     OW25828   0.444   0.006   0.594
 8310SOL    HW125829   0.512   0.015   0.521
 8310SOL    HW225830   0.464   0.073   0.666
 8311SOL     OW25831   5.632   6.454   4.045
 8311SOL    HW125832   5.581   6.377   4.082
 8311SOL    HW225833   5.681   6.426   3.962
 8312SOL     OW25834   4.932   0.124   6.871
 8312SOL    HW125835   4.983   0.045   6.905
 8312SOL    HW225836   4.974   0.208   6.905
 8313SOL     OW25837   4.124   0.258   5.452
 8313SOL    HW125838   4.037   0.214   5.475
 8313SOL    HW225839   4.111   0.317   5.372
 8314SOL     OW25840   5.278   6.433   6.100
 8314SOL    HW125841   5.221   6.365   6.147
 8314SOL    HW225842   5.348   6.386   6.046
 8315SOL     OW25843   3.660   3.333   4.517
 8315SOL    HW125844   3.636   3.251   4.464
 8315SOL    HW225845   3.731   3.310   4.584
 8316SOL     OW25846   0.908   3.007   0.426
 8316SOL    HW125847   0.880   2.931   0.484
 8316SOL    HW225848   0.898   2.982   0.330
 8317SOL     OW25849   2.196   1.891   4.661
 8317SOL    HW125850   2.131   1.922   4.730
 8317SOL    HW225851   2.152   1.828   4.598
 8318SOL     OW25852   3.902   0.442   6.644
 8318SOL    HW125853   3.942   0.474   6.730
 8318SOL    HW225854   3.934   0.500   6.569
 8319SOL     OW25855   1.456   0.406   6.268
 8319SOL    HW125856   1.550   0.375   6.251
 8319SOL    HW225857   1.439   0.410   6.366
 8320SOL     OW25858   3.547   4.081   4.110
 8320SOL    HW125859   3.578   3.986   4.102
 8320SOL    HW225860   3.515   4.098   4.203
 8321SOL     OW25861   0.188   0.391   0.096
 8321SOL    HW125862   0.131   0.371   0.175
 8321SOL    HW225863   0.263   0.451   0.124
 8322SOL     OW25864   6.877   1.013   0.483
 8322SOL    HW125865   6.795   1.065   0.459
 8322SOL    HW225866   6.850   0.925   0.523
 8323SOL     OW25867   4.868   4.612   0.732
 8323SOL    HW125868   4.788   4.556   0.755
 8323SOL    HW225869   4.846   4.708   0.746
 8324SOL     OW25870   6.194   0.367   6.458
 8324SOL    HW125871   6.208   0.329   6.367
 8324SOL    HW225872   6.158   0.295   6.518
 8325SOL     OW25873   1.857   5.705   4.640
 8325SOL    HW125874   1.906   5.633   4.591
 8325SOL    HW225875   1.796   5.663   4.708
 8326SOL     OW25876   2.660   3.844   0.246
 8326SOL    HW125877   2.567   3.849   0.283
 8326SOL    HW225878   2.664   3.896   0.160
 8327SOL     OW25879   0.563   0.785   5.230
 8327SOL    HW125880   0.576   0.693   5.268
 8327SOL    HW225881   0.653   0.825   5.210
 8328SOL     OW25882   0.633   6.128   5.825
 8328SOL    HW125883   0.610   6.170   5.912
 8328SOL    HW225884   0.554   6.132   5.763
 8329SOL     OW25885   0.736   2.631   4.978
 8329SOL    HW125886   0.757   2.547   4.928
 8329SOL    HW225887   0.640   2.631   5.005
 8330SOL     OW25888   3.893   1.106   6.648
 8330SOL    HW125889   3.804   1.150   6.637
 8330SOL    HW225890   3.955   1.166   6.698
 8331SOL     OW25891   2.003   1.878   0.429
 8331SOL    HW125892   1.988   1.846   0.522
 8331SOL    HW225893   2.057   1.810   0.379
 8332SOL     OW25894   5.642   5.011   1.642
 8332SOL    HW125895   5.704   4.937   1.617
 8332SOL    HW225896   5.547   4.978   1.636
 8333SOL     OW25897   2.192   4.778   1.009
 8333SOL    HW125898   2.200   4.701   0.946
 8333SOL    HW225899   2.148   4.747   1.094
 8334SOL     OW25900   3.269   2.373   6.828
 8334SOL    HW125901   3.198   2.313   6.865
 8334SOL    HW225902   3.233   2.467   6.822
 8335SOL     OW25903   4.910   3.205   6.570
 8335SOL    HW125904   4.913   3.108   6.595
 8335SOL    HW225905   4.845   3.253   6.629
 8336SOL     OW25906   1.417   3.559   2.888
 8336SOL    HW125907   1.372   3.648   2.888
 8336SOL    HW225908   1.486   3.557   2.816
 8337SOL     OW25909   0.759   1.723   4.653
 8337SOL    HW125910   0.679   1.677   4.615
 8337SOL    HW225911   0.839   1.701   4.598
 8338SOL     OW25912   3.785   4.907   2.158
 8338SOL    HW125913   3.724   4.946   2.226
 8338SOL    HW225914   3.733   4.844   2.100
 8339SOL     OW25915   0.214   0.797   0.333
 8339SOL    HW125916   0.213   0.835   0.426
 8339SOL    HW225917   0.305   0.760   0.313
 8340SOL     OW25918   5.367   2.360   0.675
 8340SOL    HW125919   5.351   2.417   0.594
 8340SOL    HW225920   5.357   2.264   0.650
 8341SOL     OW25921   3.423   0.260   7.007
 8341SOL    HW125922   3.514   0.219   7.011
 8341SOL    HW225923   3.424   0.338   6.944
 8342SOL     OW25924   3.477   6.516   6.842
 8342SOL    HW125925   3.554   6.554   6.791
 8342SOL    HW225926   3.476   6.555   6.934
 8343SOL     OW25927   6.501   4.477   3.701
 8343SOL    HW125928   6.553   4.397   3.731
 8343SOL    HW225929   6.510   4.487   3.601
 8344SOL     OW25930   0.814   4.976   4.454
 8344SOL    HW125931   0.741   4.985   4.385
 8344SOL    HW225932   0.774   4.984   4.545
 8345SOL     OW25933   5.229   0.771   3.058
 8345SOL    HW125934   5.312   0.820   3.082
 8345SOL    HW225935   5.150   0.829   3.075
 8346SOL     OW25936   4.596   3.136   5.946
 8346SOL    HW125937   4.519   3.195   5.971
 8346SOL    HW225938   4.581   3.100   5.854
 8347SOL     OW25939   2.464   6.933   6.071
 8347SOL    HW125940   2.411   6.946   5.988
 8347SOL    HW225941   2.411   6.963   6.150
 8348SOL     OW25942   3.676   6.609   1.067
 8348SOL    HW125943   3.657   6.611   0.969
 8348SOL    HW225944   3.649   6.696   1.109
 8349SOL     OW25945   0.688   6.449   2.189
 8349SOL    HW125946   0.758   6.512   2.224
 8349SOL    HW225947   0.612   6.502   2.152
 8350SOL     OW25948   2.767   6.914   6.237
 8350SOL    HW125949   2.778   6.982   6.311
 8350SOL    HW225950   2.673   6.881   6.236
 8351SOL     OW25951   6.595   4.915   4.457
 8351SOL    HW125952   6.632   4.991   4.403
 8351SOL    HW225953   6.557   4.846   4.395
 8352SOL     OW25954   2.656   6.365   1.802
 8352SOL    HW125955   2.732   6.330   1.747
 8352SOL    HW225956   2.674   6.345   1.899
 8353SOL     OW25957   1.233   3.918   1.833
 8353SOL    HW125958   1.179   3.943   1.913
 8353SOL    HW225959   1.282   3.998   1.798
 8354SOL     OW25960   3.614   6.463   3.872
 8354SOL    HW125961   3.552   6.508   3.935
 8354SOL    HW225962   3.666   6.393   3.921
 8355SOL     OW25963   1.210   6.743   6.395
 8355SOL    HW125964   1.176   6.744   6.300
 8355SOL    HW225965   1.253   6.832   6.415
 8356SOL     OW25966   1.703   5.542   1.631
 8356SOL    HW125967   1.699   5.609   1.706
 8356SOL    HW225968   1.742   5.457   1.664
 8357SOL     OW25969   3.996   5.499   5.996
 8357SOL    HW125970   3.933   5.572   5.969
 8357SOL    HW225971   4.017   5.443   5.917
 8358SOL     OW25972   1.270   2.513   5.522
 8358SOL    HW125973   1.246   2.435   5.464
 8358SOL    HW225974   1.198   2.528   5.589
 8359SOL     OW25975   2.901   0.780   4.694
 8359SOL    HW125976   2.938   0.735   4.775
 8359SOL    HW225977   2.894   0.878   4.710
 8360SOL     OW25978   4.550   6.447   0.630
 8360SOL    HW125979   4.468   6.500   0.609
 8360SOL    HW225980   4.631   6.504   0.615
 8361SOL     OW25981   2.180   0.055   6.660
 8361SOL    HW125982   2.145   7.002   6.713
 8361SOL    HW225983   2.269   0.030   6.621
 8362SOL     OW25984   6.580   3.001   0.256
 8362SOL    HW125985   6.641   3.053   0.195
 8362SOL    HW225986   6.588   2.903   0.235
 8363SOL     OW25987   4.055   2.402   0.703
 8363SOL    HW125988   3.988   2.418   0.630
 8363SOL    HW225989   4.146   2.392   0.662
 8364SOL     OW25990   0.429   2.799   3.576
 8364SOL    HW125991   0.365   2.856   3.627
 8364SOL    HW225992   0.387   2.711   3.555
 8365SOL     OW25993   1.826   2.559   1.775
 8365SOL    HW125994   1.923   2.574   1.793
 8365SOL    HW225995   1.814   2.474   1.724
 8366SOL     OW25996   4.172   5.582   1.064
 8366SOL    HW125997   4.190   5.580   0.966
 8366SOL    HW225998   4.119   5.501   1.090
 8367SOL     OW25999   3.369   5.235   4.924
 8367SOL    HW126000   3.398   5.152   4.876
 8367SOL    HW226001   3.271   5.231   4.940
 8368SOL     OW26002   0.801   6.441   0.163
 8368SOL    HW126003   0.708   6.476   0.152
 8368SOL    HW226004   0.824   6.382   0.085
 8369SOL     OW26005   1.313   1.537   0.997
 8369SOL    HW126006   1.241   1.605   1.006
 8369SOL    HW226007   1.273   1.448   0.976
 8370SOL     OW26008   3.041   1.877   6.811
 8370SOL    HW126009   3.057   1.805   6.744
 8370SOL    HW226010   2.989   1.951   6.768
 8371SOL     OW26011   1.211   2.989   5.454
 8371SOL    HW126012   1.146   3.028   5.389
 8371SOL    HW226013   1.164   2.963   5.537
 8372SOL     OW26014   2.471   6.428   2.158
 8372SOL    HW126015   2.514   6.517   2.142
 8372SOL    HW226016   2.539   6.355   2.143
 8373SOL     OW26017   1.009   1.826   4.339
 8373SOL    HW126018   1.012   1.761   4.414
 8373SOL    HW226019   1.087   1.811   4.278
 8374SOL     OW26020   1.255   0.668   3.981
 8374SOL    HW126021   1.256   0.724   4.063
 8374SOL    HW226022   1.164   0.667   3.942
 8375SOL     OW26023   4.447   0.817   5.937
 8375SOL    HW126024   4.367   0.763   5.912
 8375SOL    HW226025   4.423   0.914   5.934
 8376SOL     OW26026   1.619   1.025   3.614
 8376SOL    HW126027   1.585   1.037   3.521
 8376SOL    HW226028   1.551   1.060   3.679
 8377SOL     OW26029   5.693   5.178   6.925
 8377SOL    HW126030   5.641   5.218   6.850
 8377SOL    HW226031   5.632   5.121   6.980
 8378SOL     OW26032   5.376   5.403   3.375
 8378SOL    HW126033   5.279   5.384   3.389
 8378SOL    HW226034   5.410   5.350   3.298
 8379SOL     OW26035   4.827   1.812   1.531
 8379SOL    HW126036   4.729   1.829   1.526
 8379SOL    HW226037   4.864   1.854   1.614
 8380SOL     OW26038   0.136   6.293   6.784
 8380SOL    HW126039   0.160   6.280   6.688
 8380SOL    HW226040   0.077   6.218   6.814
 8381SOL     OW26041   0.453   2.304   2.713
 8381SOL    HW126042   0.460   2.250   2.629
 8381SOL    HW226043   0.397   2.385   2.696
 8382SOL     OW26044   2.529   6.954   6.813
 8382SOL    HW126045   2.489   6.950   6.722
 8382SOL    HW226046   2.569   0.020   6.828
 8383SOL     OW26047   2.535   0.370   4.802
 8383SOL    HW126048   2.537   0.272   4.779
 8383SOL    HW226049   2.611   0.392   4.862
 8384SOL     OW26050   6.271   1.740   1.037
 8384SOL    HW126051   6.279   1.834   1.069
 8384SOL    HW226052   6.269   1.678   1.115
 8385SOL     OW26053   4.492   3.601   1.062
 8385SOL    HW126054   4.580   3.589   1.015
 8385SOL    HW226055   4.494   3.549   1.148
 8386SOL     OW26056   2.075   6.502   1.438
 8386SOL    HW126057   2.019   6.512   1.521
 8386SOL    HW226058   2.087   6.405   1.417
 8387SOL     OW26059   2.618   1.425   1.543
 8387SOL    HW126060   2.600   1.508   1.490
 8387SOL    HW226061   2.649   1.450   1.634
 8388SOL     OW26062   1.480   6.688   0.489
 8388SOL    HW126063   1.525   6.613   0.537
 8388SOL    HW226064   1.536   6.718   0.412
 8389SOL     OW26065   1.658   3.274   4.366
 8389SOL    HW126066   1.744   3.322   4.383
 8389SOL    HW226067   1.666   3.179   4.395
 8390SOL     OW26068   2.917   0.744   5.976
 8390SOL    HW126069   3.003   0.777   6.014
 8390SOL    HW226070   2.845   0.812   5.989
 8391SOL     OW26071   5.023   5.522   1.646
 8391SOL    HW126072   5.060   5.600   1.595
 8391SOL    HW226073   5.097   5.476   1.694
 8392SOL     OW26074   6.266   5.726   4.657
 8392SOL    HW126075   6.332   5.751   4.728
 8392SOL    HW226076   6.180   5.775   4.672
 8393SOL     OW26077   6.545   6.908   3.919
 8393SOL    HW126078   6.585   7.000   3.923
 8393SOL    HW226079   6.615   6.842   3.892
 8394SOL     OW26080   0.870   1.531   2.611
 8394SOL    HW126081   0.962   1.539   2.573
 8394SOL    HW226082   0.808   1.495   2.542
 8395SOL     OW26083   0.149   6.295   4.447
 8395SOL    HW126084   0.066   6.328   4.403
 8395SOL    HW226085   0.210   6.372   4.467
 8396SOL     OW26086   4.227   4.746   2.740
 8396SOL    HW126087   4.222   4.669   2.677
 8396SOL    HW226088   4.150   4.808   2.723
 8397SOL     OW26089   2.226   6.656   2.454
 8397SOL    HW126090   2.184   6.631   2.541
 8397SOL    HW226091   2.240   6.755   2.451
 8398SOL     OW26092   3.985   1.785   0.626
 8398SOL    HW126093   3.976   1.696   0.671
 8398SOL    HW226094   4.080   1.799   0.599
 8399SOL     OW26095   5.781   5.843   0.822
 8399SOL    HW126096   5.686   5.834   0.794
 8399SOL    HW226097   5.824   5.919   0.772
 8400SOL     OW26098   6.796   0.131   2.847
 8400SOL    HW126099   6.822   0.095   2.937
 8400SOL    HW226100   6.701   0.107   2.827
 8401SOL     OW26101   4.526   3.011   5.699
 8401SOL    HW126102   4.480   3.015   5.611
 8401SOL    HW226103   4.571   2.922   5.709
 8402SOL     OW26104   3.799   2.371   5.663
 8402SOL    HW126105   3.770   2.409   5.576
 8402SOL    HW226106   3.789   2.272   5.661
 8403SOL     OW26107   0.592   1.223   3.161
 8403SOL    HW126108   0.500   1.212   3.125
 8403SOL    HW226109   0.593   1.201   3.259
 8404SOL     OW26110   5.748   6.893   6.587
 8404SOL    HW126111   5.666   6.887   6.643
 8404SOL    HW226112   5.723   6.884   6.491
 8405SOL     OW26113   1.877   2.127   6.808
 8405SOL    HW126114   1.812   2.050   6.805
 8405SOL    HW226115   1.831   2.210   6.777
 8406SOL     OW26116   4.434   1.702   0.965
 8406SOL    HW126117   4.479   1.699   0.875
 8406SOL    HW226118   4.342   1.663   0.958
 8407SOL     OW26119   6.008   4.538   4.870
 8407SOL    HW126120   6.107   4.531   4.864
 8407SOL    HW226121   5.972   4.463   4.925
 8408SOL     OW26122   5.178   0.268   3.911
 8408SOL    HW126123   5.213   0.347   3.962
 8408SOL    HW226124   5.207   0.184   3.956
 8409SOL     OW26125   0.805   1.934   3.789
 8409SOL    HW126126   0.731   1.992   3.755
 8409SOL    HW226127   0.893   1.974   3.762
 8410SOL     OW26128   4.944   0.917   1.678
 8410SOL    HW126129   4.985   0.833   1.643
 8410SOL    HW226130   4.902   0.968   1.603
 8411SOL     OW26131   1.459   5.057   3.757
 8411SOL    HW126132   1.557   5.052   3.740
 8411SOL    HW226133   1.438   5.138   3.810
 8412SOL     OW26134   4.421   1.948   1.077
 8412SOL    HW126135   4.428   2.017   1.005
 8412SOL    HW226136   4.442   1.858   1.039
 8413SOL     OW26137   4.124   5.288   0.455
 8413SOL    HW126138   4.069   5.362   0.493
 8413SOL    HW226139   4.214   5.323   0.429
 8414SOL     OW26140   3.698   0.256   2.366
 8414SOL    HW126141   3.711   0.307   2.281
 8414SOL    HW226142   3.624   0.190   2.353
 8415SOL     OW26143   6.881   4.819   3.852
 8415SOL    HW126144   6.807   4.803   3.918
 8415SOL    HW226145   6.912   4.914   3.860
 8416SOL     OW26146   5.284   3.975   2.745
 8416SOL    HW126147   5.194   4.006   2.715
 8416SOL    HW226148   5.341   3.954   2.665
 8417SOL     OW26149   2.762   6.436   5.363
 8417SOL    HW126150   2.774   6.343   5.400
 8417SOL    HW226151   2.755   6.431   5.263
 8418SOL     OW26152   5.225   5.394   1.835
 8418SOL    HW126153   5.213   5.301   1.801
 8418SOL    HW226154   5.173   5.406   1.919
 8419SOL     OW26155   4.742   1.111   2.126
 8419SOL    HW126156   4.767   1.032   2.069
 8419SOL    HW226157   4.787   1.102   2.215
 8420SOL     OW26158   4.056   7.010   0.319
 8420SOL    HW126159   4.005   6.969   0.395
 8420SOL    HW226160   4.113   0.060   0.354
 8421SOL     OW26161   2.385   6.396   1.319
 8421SOL    HW126162   2.394   6.492   1.294
 8421SOL    HW226163   2.338   6.347   1.246
 8422SOL     OW26164   5.612   6.190   0.866
 8422SOL    HW126165   5.541   6.136   0.911
 8422SOL    HW226166   5.693   6.194   0.924
 8423SOL     OW26167   4.124   4.929   6.838
 8423SOL    HW126168   4.146   4.916   6.742
 8423SOL    HW226169   4.042   4.986   6.847
 8424SOL     OW26170   3.248   2.148   2.531
 8424SOL    HW126171   3.295   2.196   2.457
 8424SOL    HW226172   3.305   2.073   2.564
 8425SOL     OW26173   6.767   5.261   1.113
 8425SOL    HW126174   6.843   5.291   1.170
 8425SOL    HW226175   6.781   5.292   1.019
 8426SOL     OW26176   3.911   3.062   3.692
 8426SOL    HW126177   3.915   3.151   3.646
 8426SOL    HW226178   3.883   3.075   3.787
 8427SOL     OW26179   1.634   4.069   5.708
 8427SOL    HW126180   1.654   4.167   5.713
 8427SOL    HW226181   1.695   4.026   5.641
 8428SOL     OW26182   6.696   4.672   1.976
 8428SOL    HW126183   6.691   4.682   2.076
 8428SOL    HW226184   6.611   4.703   1.935
 8429SOL     OW26185   2.552   4.822   4.486
 8429SOL    HW126186   2.504   4.736   4.468
 8429SOL    HW226187   2.646   4.801   4.514
 8430SOL     OW26188   4.582   5.390   2.892
 8430SOL    HW126189   4.547   5.298   2.907
 8430SOL    HW226190   4.651   5.411   2.962
 8431SOL     OW26191   2.349   5.330   1.456
 8431SOL    HW126192   2.378   5.386   1.378
 8431SOL    HW226193   2.338   5.235   1.426
 8432SOL     OW26194   4.229   5.209   6.057
 8432SOL    HW126195   4.208   5.112   6.065
 8432SOL    HW226196   4.148   5.263   6.081
 8433SOL     OW26197   0.819   2.738   6.694
 8433SOL    HW126198   0.763   2.757   6.613
 8433SOL    HW226199   0.761   2.742   6.776
 8434SOL     OW26200   3.465   0.090   5.087
 8434SOL    HW126201   3.505   0.169   5.041
 8434SOL    HW226202   3.416   0.121   5.169
 8435SOL     OW26203   4.918   1.526   1.647
 8435SOL    HW126204   4.832   1.474   1.651
 8435SOL    HW226205   4.907   1.603   1.585
 8436SOL     OW26206   3.896   5.873   3.412
 8436SOL    HW126207   3.804   5.910   3.425
 8436SOL    HW226208   3.903   5.835   3.320
 8437SOL     OW26209   0.879   0.242   1.663
 8437SOL    HW126210   0.797   0.186   1.673
 8437SOL    HW226211   0.910   0.271   1.754
 8438SOL     OW26212   2.884   4.786   2.772
 8438SOL    HW126213   2.931   4.773   2.684
 8438SOL    HW226214   2.951   4.812   2.841
 8439SOL     OW26215   6.445   5.689   1.905
 8439SOL    HW126216   6.382   5.679   1.981
 8439SOL    HW226217   6.456   5.786   1.882
 8440SOL     OW26218   6.696   1.011   2.627
 8440SOL    HW126219   6.659   1.020   2.535
 8440SOL    HW226220   6.787   1.052   2.631
 8441SOL     OW26221   5.985   6.041   0.746
 8441SOL    HW126222   6.008   6.111   0.679
 8441SOL    HW226223   5.970   6.083   0.835
 8442SOL     OW26224   3.691   3.397   6.734
 8442SOL    HW126225   3.714   3.424   6.640
 8442SOL    HW226226   3.690   3.298   6.741
 8443SOL     OW26227   1.381   0.043   2.625
 8443SOL    HW126228   1.351   6.988   2.572
 8443SOL    HW226229   1.398   0.120   2.563
 8444SOL     OW26230   3.156   6.374   3.425
 8444SOL    HW126231   3.235   6.420   3.466
 8444SOL    HW226232   3.102   6.330   3.497
 8445SOL     OW26233   3.000   4.891   2.475
 8445SOL    HW126234   3.100   4.885   2.486
 8445SOL    HW226235   2.973   4.987   2.470
 8446SOL     OW26236   5.136   5.745   2.147
 8446SOL    HW126237   5.037   5.746   2.158
 8446SOL    HW226238   5.174   5.832   2.178
 8447SOL     OW26239   5.741   2.386   2.551
 8447SOL    HW126240   5.754   2.451   2.475
 8447SOL    HW226241   5.659   2.412   2.603
 8448SOL     OW26242   0.442   4.424   5.696
 8448SOL    HW126243   0.425   4.325   5.702
 8448SOL    HW226244   0.534   4.444   5.730
 8449SOL     OW26245   0.288   3.364   4.409
 8449SOL    HW126246   0.276   3.296   4.337
 8449SOL    HW226247   0.214   3.356   4.475
 8450SOL     OW26248   2.012   5.640   2.424
 8450SOL    HW126249   1.964   5.655   2.510
 8450SOL    HW226250   1.947   5.608   2.354
 8451SOL     OW26251   3.688   2.629   1.268
 8451SOL    HW126252   3.626   2.688   1.217
 8451SOL    HW226253   3.730   2.563   1.206
 8452SOL     OW26254   6.947   0.030   1.183
 8452SOL    HW126255   6.945   0.033   1.283
 8452SOL    HW226256   0.004   7.003   1.153
 8453SOL     OW26257   6.825   4.821   6.197
 8453SOL    HW126258   6.814   4.723   6.212
 8453SOL    HW226259   6.879   4.860   6.272
 8454SOL     OW26260   1.562   6.019   2.204
 8454SOL    HW126261   1.487   6.078   2.175
 8454SOL    HW226262   1.640   6.075   2.232
 8455SOL     OW26263   4.846   1.511   1.334
 8455SOL    HW126264   4.914   1.573   1.296
 8455SOL    HW226265   4.802   1.553   1.414
 8456SOL     OW26266   5.818   5.535   3.486
 8456SOL    HW126267   5.794   5.632   3.492
 8456SOL    HW226268   5.769   5.493   3.409
 8457SOL     OW26269   6.802   6.800   5.586
 8457SOL    HW126270   6.807   6.700   5.593
 8457SOL    HW226271   6.781   6.825   5.491
 8458SOL     OW26272   1.804   1.083   6.745
 8458SOL    HW126273   1.813   1.155   6.677
 8458SOL    HW226274   1.771   0.999   6.701
 8459SOL     OW26275   3.597   6.610   1.803
 8459SOL    HW126276   3.573   6.534   1.863
 8459SOL    HW226277   3.678   6.656   1.839
 8460SOL     OW26278   3.857   2.906   6.760
 8460SOL    HW126279   3.883   2.889   6.855
 8460SOL    HW226280   3.919   2.973   6.720
 8461SOL     OW26281   0.600   3.332   1.550
 8461SOL    HW126282   0.690   3.299   1.580
 8461SOL    HW226283   0.531   3.264   1.571
 8462SOL     OW26284   3.779   3.174   7.003
 8462SOL    HW126285   3.739   3.113   0.049
 8462SOL    HW226286   3.732   3.160   6.916
 8463SOL     OW26287   0.471   2.176   0.165
 8463SOL    HW126288   0.456   2.103   0.232
 8463SOL    HW226289   0.400   2.172   0.095
 8464SOL     OW26290   0.244   4.181   5.431
 8464SOL    HW126291   0.220   4.086   5.412
 8464SOL    HW226292   0.163   4.230   5.464
 8465SOL     OW26293   2.530   2.117   1.077
 8465SOL    HW126294   2.534   2.214   1.056
 8465SOL    HW226295   2.599   2.068   1.024
 8466SOL     OW26296   6.602   0.151   5.477
 8466SOL    HW126297   6.549   0.172   5.559
 8466SOL    HW226298   6.697   0.132   5.502
 8467SOL     OW26299   3.948   0.807   0.736
 8467SOL    HW126300   3.879   0.776   0.801
 8467SOL    HW226301   3.950   0.907   0.735
 8468SOL     OW26302   6.107   3.768   6.247
 8468SOL    HW126303   6.052   3.753   6.329
 8468SOL    HW226304   6.170   3.692   6.235
 8469SOL     OW26305   2.877   2.899   5.784
 8469SOL    HW126306   2.825   2.905   5.698
 8469SOL    HW226307   2.971   2.872   5.763
 8470SOL     OW26308   1.027   4.861   0.516
 8470SOL    HW126309   1.042   4.952   0.554
 8470SOL    HW226310   0.968   4.867   0.436
 8471SOL     OW26311   3.486   0.508   5.243
 8471SOL    HW126312   3.562   0.451   5.274
 8471SOL    HW226313   3.468   0.579   5.310
 8472SOL     OW26314   5.634   1.670   5.528
 8472SOL    HW126315   5.597   1.679   5.621
 8472SOL    HW226316   5.634   1.760   5.484
 8473SOL     OW26317   4.403   4.462   0.585
 8473SOL    HW126318   4.391   4.486   0.681
 8473SOL    HW226319   4.360   4.374   0.567
 8474SOL     OW26320   3.098   3.623   2.724
 8474SOL    HW126321   3.122   3.644   2.629
 8474SOL    HW226322   3.041   3.540   2.726
 8475SOL     OW26323   0.042   3.244   1.853
 8475SOL    HW126324   0.130   3.260   1.808
 8475SOL    HW226325   0.031   3.145   1.869
 8476SOL     OW26326   0.272   0.956   1.709
 8476SOL    HW126327   0.258   0.981   1.613
 8476SOL    HW226328   0.233   0.866   1.726
 8477SOL     OW26329   5.416   5.914   1.977
 8477SOL    HW126330   5.340   5.901   1.913
 8477SOL    HW226331   5.472   5.830   1.979
 8478SOL     OW26332   1.083   1.237   5.885
 8478SOL    HW126333   1.016   1.297   5.842
 8478SOL    HW226334   1.054   1.142   5.875
 8479SOL     OW26335   1.039   2.715   1.740
 8479SOL    HW126336   1.074   2.649   1.674
 8479SOL    HW226337   0.961   2.764   1.700
 8480SOL     OW26338   4.859   2.976   6.765
 8480SOL    HW126339   4.847   3.034   6.845
 8480SOL    HW226340   4.770   2.945   6.732
 8481SOL     OW26341   4.312   2.168   5.163
 8481SOL    HW126342   4.214   2.162   5.144
 8481SOL    HW226343   4.361   2.185   5.078
 8482SOL     OW26344   4.680   0.020   1.262
 8482SOL    HW126345   4.681   0.066   1.351
 8482SOL    HW226346   4.758   6.981   1.256
 8483SOL     OW26347   2.349   5.564   3.287
 8483SOL    HW126348   2.270   5.534   3.233
 8483SOL    HW226349   2.316   5.623   3.362
 8484SOL     OW26350   0.140   5.887   4.666
 8484SOL    HW126351   0.078   5.950   4.619
 8484SOL    HW226352   0.192   5.936   4.735
 8485SOL     OW26353   3.832   2.358   0.559
 8485SOL    HW126354   3.833   2.400   0.468
 8485SOL    HW226355   3.740   2.362   0.596
 8486SOL     OW26356   1.712   1.135   2.789
 8486SOL    HW126357   1.627   1.117   2.740
 8486SOL    HW226358   1.777   1.061   2.772
 8487SOL     OW26359   5.378   1.921   6.281
 8487SOL    HW126360   5.457   1.969   6.243
 8487SOL    HW226361   5.407   1.860   6.355
 8488SOL     OW26362   5.542   5.600   3.126
 8488SOL    HW126363   5.489   5.587   3.042
 8488SOL    HW226364   5.496   5.667   3.184
 8489SOL     OW26365   7.022   0.233   1.907
 8489SOL    HW126366   7.013   0.289   1.825
 8489SOL    HW226367   0.003   0.292   1.987
 8490SOL     OW26368   3.468   6.848   5.639
 8490SOL    HW126369   3.388   6.801   5.602
 8490SOL    HW226370   3.530   6.782   5.681
 8491SOL     OW26371   2.104   5.899   2.736
 8491SOL    HW126372   2.193   5.923   2.697
 8491SOL    HW226373   2.060   5.831   2.678
 8492SOL     OW26374   6.042   4.636   3.841
 8492SOL    HW126375   6.048   4.701   3.917
 8492SOL    HW226376   5.999   4.681   3.763
 8493SOL     OW26377   2.459   1.190   0.428
 8493SOL    HW126378   2.391   1.142   0.371
 8493SOL    HW226379   2.534   1.127   0.449
 8494SOL     OW26380   4.678   4.925   2.049
 8494SOL    HW126381   4.767   4.919   2.004
 8494SOL    HW226382   4.655   5.022   2.062
 8495SOL     OW26383   0.161   5.708   0.683
 8495SOL    HW126384   0.069   5.727   0.720
 8495SOL    HW226385   0.228   5.764   0.732
 8496SOL     OW26386   5.175   1.376   2.178
 8496SOL    HW126387   5.163   1.454   2.239
 8496SOL    HW226388   5.271   1.371   2.149
 8497SOL     OW26389   0.562   0.110   3.836
 8497SOL    HW126390   0.595   0.023   3.799
 8497SOL    HW226391   0.607   0.186   3.787
 8498SOL     OW26392   5.910   6.587   3.149
 8498SOL    HW126393   5.949   6.624   3.065
 8498SOL    HW226394   5.979   6.592   3.222
 8499SOL     OW26395   1.010   4.797   7.007
 8499SOL    HW126396   0.934   4.828   6.951
 8499SOL    HW226397   1.086   4.862   7.001
 8500SOL     OW26398   1.918   6.452   6.189
 8500SOL    HW126399   1.977   6.376   6.218
 8500SOL    HW226400   1.923   6.462   6.090
 8501SOL     OW26401   0.761   2.542   0.055
 8501SOL    HW126402   0.844   2.516   0.105
 8501SOL    HW226403   0.684   2.488   0.088
 8502SOL     OW26404   0.738   2.566   0.782
 8502SOL    HW126405   0.765   2.639   0.844
 8502SOL    HW226406   0.647   2.533   0.805
 8503SOL     OW26407   6.186   5.846   5.421
 8503SOL    HW126408   6.278   5.865   5.387
 8503SOL    HW226409   6.173   5.747   5.429
 8504SOL     OW26410   1.694   5.185   2.186
 8504SOL    HW126411   1.648   5.123   2.250
 8504SOL    HW226412   1.773   5.138   2.146
 8505SOL     OW26413   5.568   3.604   2.943
 8505SOL    HW126414   5.637   3.532   2.952
 8505SOL    HW226415   5.499   3.575   2.876
 8506SOL     OW26416   0.917   1.050   6.986
 8506SOL    HW126417   0.983   0.974   6.987
 8506SOL    HW226418   0.935   1.109   6.907
 8507SOL     OW26419   3.992   0.194   4.631
 8507SOL    HW126420   4.079   0.179   4.584
 8507SOL    HW226421   4.008   0.229   4.723
 8508SOL     OW26422   3.849   1.776   5.649
 8508SOL    HW126423   3.932   1.747   5.602
 8508SOL    HW226424   3.787   1.699   5.659
 8509SOL     OW26425   5.970   6.532   4.024
 8509SOL    HW126426   5.923   6.582   3.951
 8509SOL    HW226427   6.051   6.584   4.052
 8510SOL     OW26428   5.500   3.393   3.635
 8510SOL    HW126429   5.552   3.309   3.620
 8510SOL    HW226430   5.470   3.430   3.547
 8511SOL     OW26431   6.725   3.040   2.451
 8511SOL    HW126432   6.655   2.975   2.483
 8511SOL    HW226433   6.786   2.993   2.386
 8512SOL     OW26434   2.707   0.017   2.611
 8512SOL    HW126435   2.659   0.070   2.540
 8512SOL    HW226436   2.712   6.945   2.583
 8513SOL     OW26437   6.674   5.977   0.831
 8513SOL    HW126438   6.650   6.000   0.925
 8513SOL    HW226439   6.647   5.882   0.813
 8514SOL     OW26440   3.675   0.110   3.071
 8514SOL    HW126441   3.628   0.197   3.061
 8514SOL    HW226442   3.614   0.036   3.043
 8515SOL     OW26443   4.568   2.148   0.897
 8515SOL    HW126444   4.525   2.237   0.915
 8515SOL    HW226445   4.571   2.096   0.982
 8516SOL     OW26446   6.595   1.728   2.488
 8516SOL    HW126447   6.501   1.691   2.487
 8516SOL    HW226448   6.650   1.675   2.553
 8517SOL     OW26449   1.336   2.724   6.289
 8517SOL    HW126450   1.293   2.791   6.229
 8517SOL    HW226451   1.336   2.634   6.244
 8518SOL     OW26452   4.330   4.634   0.187
 8518SOL    HW126453   4.240   4.676   0.173
 8518SOL    HW226454   4.367   4.604   0.100
 8519SOL     OW26455   2.031   5.434   1.936
 8519SOL    HW126456   1.948   5.429   1.992
 8519SOL    HW226457   2.061   5.342   1.912
 8520SOL     OW26458   4.182   1.033   0.437
 8520SOL    HW126459   4.148   1.024   0.344
 8520SOL    HW226460   4.125   1.098   0.488
 8521SOL     OW26461   1.307   6.160   5.726
 8521SOL    HW126462   1.348   6.072   5.703
 8521SOL    HW226463   1.223   6.173   5.674
 8522SOL     OW26464   1.792   5.567   2.281
 8522SOL    HW126465   1.751   5.502   2.217
 8522SOL    HW226466   1.731   5.645   2.293
 8523SOL     OW26467   2.384   0.368   5.629
 8523SOL    HW126468   2.301   0.333   5.671
 8523SOL    HW226469   2.372   0.465   5.606
 8524SOL     OW26470   1.195   3.288   4.462
 8524SOL    HW126471   1.129   3.308   4.535
 8524SOL    HW226472   1.287   3.292   4.499
 8525SOL     OW26473   6.133   3.673   2.707
 8525SOL    HW126474   6.177   3.618   2.635
 8525SOL    HW226475   6.198   3.689   2.781
 8526SOL     OW26476   3.083   3.456   1.755
 8526SOL    HW126477   2.994   3.460   1.800
 8526SOL    HW226478   3.151   3.505   1.809
 8527SOL     OW26479   4.433   0.783   4.086
 8527SOL    HW126480   4.525   0.757   4.057
 8527SOL    HW226481   4.438   0.836   4.170
 8528SOL     OW26482   4.925   4.077   6.209
 8528SOL    HW126483   4.951   3.986   6.178
 8528SOL    HW226484   4.854   4.070   6.280
 8529SOL     OW26485   1.084   6.208   0.161
 8529SOL    HW126486   1.150   6.260   0.215
 8529SOL    HW226487   1.132   6.150   0.096
 8530SOL     OW26488   1.418   5.295   5.196
 8530SOL    HW126489   1.331   5.266   5.237
 8530SOL    HW226490   1.489   5.297   5.265
 8531SOL     OW26491   5.537   4.481   3.034
 8531SOL    HW126492   5.601   4.512   2.964
 8531SOL    HW226493   5.514   4.385   3.019
 8532SOL     OW26494   4.445   5.049   4.727
 8532SOL    HW126495   4.535   5.079   4.695
 8532SOL    HW226496   4.449   5.025   4.824
 8533SOL     OW26497   2.149   1.370   5.314
 8533SOL    HW126498   2.146   1.431   5.394
 8533SOL    HW226499   2.211   1.408   5.245
 8534SOL     OW26500   0.743   4.647   2.687
 8534SOL    HW126501   0.821   4.709   2.681
 8534SOL    HW226502   0.758   4.569   2.627
 8535SOL     OW26503   0.932   2.174   4.727
 8535SOL    HW126504   0.987   2.233   4.668
 8535SOL    HW226505   0.944   2.079   4.699
 8536SOL     OW26506   6.442   2.868   4.848
 8536SOL    HW126507   6.520   2.838   4.902
 8536SOL    HW226508   6.369   2.799   4.853
 8537SOL     OW26509   6.215   1.367   0.825
 8537SOL    HW126510   6.119   1.393   0.816
 8537SOL    HW226511   6.230   1.327   0.916
 8538SOL     OW26512   0.424   0.704   4.973
 8538SOL    HW126513   0.442   0.778   4.909
 8538SOL    HW226514   0.466   0.725   5.061
 8539SOL     OW26515   6.506   2.290   2.624
 8539SOL    HW126516   6.452   2.227   2.681
 8539SOL    HW226517   6.598   2.252   2.611
 8540SOL     OW26518   3.329   1.011   0.893
 8540SOL    HW126519   3.258   0.956   0.849
 8540SOL    HW226520   3.419   0.981   0.863
 8541SOL     OW26521   3.129   1.483   5.286
 8541SOL    HW126522   3.180   1.403   5.317
 8541SOL    HW226523   3.031   1.464   5.291
 8542SOL     OW26524   3.013   4.613   6.600
 8542SOL    HW126525   3.002   4.586   6.504
 8542SOL    HW226526   3.082   4.555   6.643
 8543SOL     OW26527   2.416   2.202   5.627
 8543SOL    HW126528   2.344   2.179   5.560
 8543SOL    HW226529   2.398   2.153   5.712
 8544SOL     OW26530   5.097   3.616   5.244
 8544SOL    HW126531   5.147   3.648   5.325
 8544SOL    HW226532   5.011   3.574   5.273
 8545SOL     OW26533   3.363   6.682   4.719
 8545SOL    HW126534   3.430   6.750   4.692
 8545SOL    HW226535   3.366   6.604   4.656
 8546SOL     OW26536   5.586   0.454   1.029
 8546SOL    HW126537   5.493   0.419   1.045
 8546SOL    HW226538   5.602   0.535   1.085
 8547SOL     OW26539   6.936   0.412   5.283
 8547SOL    HW126540   7.021   0.463   5.276
 8547SOL    HW226541   6.952   0.317   5.255
 8548SOL     OW26542   0.424   2.884   5.446
 8548SOL    HW126543   0.425   2.935   5.531
 8548SOL    HW226544   0.329   2.863   5.420
 8549SOL     OW26545   1.546   2.090   3.747
 8549SOL    HW126546   1.511   2.049   3.662
 8549SOL    HW226547   1.545   2.190   3.739
 8550SOL     OW26548   0.703   4.190   6.431
 8550SOL    HW126549   0.757   4.228   6.357
 8550SOL    HW226550   0.747   4.108   6.467
 8551SOL     OW26551   2.072   2.280   6.352
 8551SOL    HW126552   2.112   2.332   6.276
 8551SOL    HW226553   2.108   2.315   6.439
 8552SOL     OW26554   3.312   0.482   1.882
 8552SOL    HW126555   3.245   0.542   1.838
 8552SOL    HW226556   3.401   0.494   1.837
 8553SOL     OW26557   3.837   3.292   0.933
 8553SOL    HW126558   3.811   3.301   1.030
 8553SOL    HW226559   3.918   3.234   0.926
 8554SOL     OW26560   0.979   6.786   1.145
 8554SOL    HW126561   0.981   6.714   1.214
 8554SOL    HW226562   1.057   6.847   1.159
 8555SOL     OW26563   4.065   1.263   3.786
 8555SOL    HW126564   4.119   1.207   3.849
 8555SOL    HW226565   3.976   1.220   3.772
 8556SOL     OW26566   1.924   6.367   5.856
 8556SOL    HW126567   1.901   6.449   5.803
 8556SOL    HW226568   1.841   6.313   5.869
 8557SOL     OW26569   6.557   0.880   0.673
 8557SOL    HW126570   6.647   0.905   0.709
 8557SOL    HW226571   6.496   0.959   0.676
 8558SOL     OW26572   2.367   4.414   3.463
 8558SOL    HW126573   2.340   4.351   3.390
 8558SOL    HW226574   2.355   4.508   3.432
 8559SOL     OW26575   0.502   6.503   2.641
 8559SOL    HW126576   0.433   6.509   2.568
 8559SOL    HW226577   0.548   6.591   2.651
 8560SOL     OW26578   1.757   5.338   1.287
 8560SOL    HW126579   1.769   5.426   1.333
 8560SOL    HW226580   1.723   5.353   1.194
 8561SOL     OW26581   3.825   0.611   2.958
 8561SOL    HW126582   3.780   0.617   3.047
 8561SOL    HW226583   3.755   0.609   2.886
 8562SOL     OW26584   3.867   1.475   0.132
 8562SOL    HW126585   3.837   1.402   0.194
 8562SOL    HW226586   3.795   1.543   0.123
 8563SOL     OW26587   1.277   5.722   2.728
 8563SOL    HW126588   1.294   5.675   2.641
 8563SOL    HW226589   1.363   5.762   2.760
 8564SOL     OW26590   3.824   6.339   6.811
 8564SOL    HW126591   3.734   6.295   6.812
 8564SOL    HW226592   3.894   6.272   6.785
 8565SOL     OW26593   3.304   5.369   1.528
 8565SOL    HW126594   3.368   5.416   1.589
 8565SOL    HW226595   3.217   5.355   1.575
 8566SOL     OW26596   2.734   0.697   2.555
 8566SOL    HW126597   2.807   0.690   2.623
 8566SOL    HW226598   2.649   0.661   2.593
 8567SOL     OW26599   1.420   1.698   1.687
 8567SOL    HW126600   1.370   1.649   1.758
 8567SOL    HW226601   1.441   1.636   1.612
 8568SOL     OW26602   6.869   1.380   0.699
 8568SOL    HW126603   6.819   1.397   0.614
 8568SOL    HW226604   6.875   1.281   0.715
 8569SOL     OW26605   5.131   2.344   5.834
 8569SOL    HW126606   5.174   2.276   5.894
 8569SOL    HW226607   5.187   2.356   5.752
 8570SOL     OW26608   1.707   1.655   4.537
 8570SOL    HW126609   1.744   1.748   4.528
 8570SOL    HW226610   1.677   1.623   4.448
 8571SOL     OW26611   1.690   1.408   4.756
 8571SOL    HW126612   1.701   1.473   4.680
 8571SOL    HW226613   1.608   1.353   4.742
 8572SOL     OW26614   2.819   4.250   5.576
 8572SOL    HW126615   2.873   4.275   5.496
 8572SOL    HW226616   2.845   4.158   5.606
 8573SOL     OW26617   2.914   5.998   6.843
 8573SOL    HW126618   2.816   6.012   6.834
 8573SOL    HW226619   2.948   5.946   6.764
 8574SOL     OW26620   6.667   6.869   6.010
 8574SOL    HW126621   6.753   6.838   6.050
 8574SOL    HW226622   6.591   6.829   6.061
 8575SOL     OW26623   3.689   0.777   2.439
 8575SOL    HW126624   3.647   0.763   2.349
 8575SOL    HW226625   3.754   0.704   2.457
 8576SOL     OW26626   0.931   4.137   4.221
 8576SOL    HW126627   0.888   4.227   4.233
 8576SOL    HW226628   0.861   4.069   4.202
 8577SOL     OW26629   1.781   1.012   6.077
 8577SOL    HW126630   1.784   1.065   6.162
 8577SOL    HW226631   1.826   0.923   6.092
 8578SOL     OW26632   6.513   6.470   5.623
 8578SOL    HW126633   6.461   6.399   5.671
 8578SOL    HW226634   6.487   6.469   5.526
 8579SOL     OW26635   2.117   6.228   2.291
 8579SOL    HW126636   2.136   6.210   2.387
 8579SOL    HW226637   2.093   6.143   2.245
 8580SOL     OW26638   0.901   6.478   1.101
 8580SOL    HW126639   0.853   6.549   1.153
 8580SOL    HW226640   0.914   6.398   1.160
 8581SOL     OW26641   3.586   5.303   1.722
 8581SOL    HW126642   3.651   5.256   1.782
 8581SOL    HW226643   3.530   5.235   1.675
 8582SOL     OW26644   3.904   4.760   5.686
 8582SOL    HW126645   3.905   4.819   5.605
 8582SOL    HW226646   3.937   4.812   5.765
 8583SOL     OW26647   4.255   0.390   3.102
 8583SOL    HW126648   4.183   0.402   3.034
 8583SOL    HW226649   4.320   0.466   3.095
 8584SOL     OW26650   0.034   1.179   4.626
 8584SOL    HW126651   0.082   1.232   4.556
 8584SOL    HW226652   6.960   1.182   4.609
 8585SOL     OW26653   5.651   2.122   1.129
 8585SOL    HW126654   5.681   2.040   1.080
 8585SOL    HW226655   5.674   2.113   1.226
 8586SOL     OW26656   5.446   6.624   1.316
 8586SOL    HW126657   5.460   6.527   1.336
 8586SOL    HW226658   5.375   6.634   1.246
 8587SOL     OW26659   0.969   1.918   4.683
 8587SOL    HW126660   0.904   1.846   4.706
 8587SOL    HW226661   1.023   1.942   4.764
 8588SOL     OW26662   4.066   1.342   7.019
 8588SOL    HW126663   4.008   1.411   0.040
 8588SOL    HW226664   4.092   1.272   0.061
 8589SOL     OW26665   6.676   2.901   5.030
 8589SOL    HW126666   6.751   2.967   5.041
 8589SOL    HW226667   6.710   2.820   4.983
 8590SOL     OW26668   6.866   0.088   3.101
 8590SOL    HW126669   6.897   7.017   3.113
 8590SOL    HW226670   6.919   0.149   3.159
 8591SOL     OW26671   6.299   4.683   0.321
 8591SOL    HW126672   6.338   4.611   0.379
 8591SOL    HW226673   6.201   4.689   0.338
 8592SOL     OW26674   0.501   2.459   0.131
 8592SOL    HW126675   0.451   2.504   0.205
 8592SOL    HW226676   0.482   2.361   0.131
 8593SOL     OW26677   3.209   0.818   6.727
 8593SOL    HW126678   3.253   0.867   6.802
 8593SOL    HW226679   3.110   0.824   6.737
 8594SOL     OW26680   6.019   2.569   5.526
 8594SOL    HW126681   6.075   2.550   5.607
 8594SOL    HW226682   5.939   2.622   5.553
 8595SOL     OW26683   5.189   0.075   3.519
 8595SOL    HW126684   5.188   0.171   3.547
 8595SOL    HW226685   5.269   0.057   3.462
 8596SOL     OW26686   1.536   3.816   3.240
 8596SOL    HW126687   1.540   3.721   3.211
 8596SOL    HW226688   1.442   3.841   3.262
 8597SOL     OW26689   6.166   2.791   0.463
 8597SOL    HW126690   6.117   2.761   0.382
 8597SOL    HW226691   6.232   2.862   0.438
 8598SOL     OW26692   5.631   0.554   4.896
 8598SOL    HW126693   5.640   0.602   4.983
 8598SOL    HW226694   5.720   0.549   4.851
 8599SOL     OW26695   1.520   2.936   3.753
 8599SOL    HW126696   1.511   2.995   3.834
 8599SOL    HW226697   1.617   2.920   3.734
 8600SOL     OW26698   5.056   3.788   1.134
 8600SOL    HW126699   4.977   3.728   1.123
 8600SOL    HW226700   5.139   3.737   1.113
 8601SOL     OW26701   0.320   0.901   3.608
 8601SOL    HW126702   0.300   0.860   3.697
 8601SOL    HW226703   0.403   0.956   3.615
 8602SOL     OW26704   2.396   6.676   3.206
 8602SOL    HW126705   2.495   6.688   3.205
 8602SOL    HW226706   2.354   6.743   3.144
 8603SOL     OW26707   5.883   1.153   6.601
 8603SOL    HW126708   5.874   1.204   6.515
 8603SOL    HW226709   5.876   1.055   6.583
 8604SOL     OW26710   0.768   2.697   6.229
 8604SOL    HW126711   0.720   2.650   6.155
 8604SOL    HW226712   0.702   2.750   6.283
 8605SOL     OW26713   0.935   4.444   4.268
 8605SOL    HW126714   0.970   4.424   4.360
 8605SOL    HW226715   0.929   4.543   4.255
 8606SOL     OW26716   3.069   2.196   6.891
 8606SOL    HW126717   3.001   2.217   6.821
 8606SOL    HW226718   3.026   2.145   6.965
 8607SOL     OW26719   1.895   4.835   0.232
 8607SOL    HW126720   1.955   4.897   0.180
 8607SOL    HW226721   1.805   4.832   0.188
 8608SOL     OW26722   1.964   4.631   2.731
 8608SOL    HW126723   1.932   4.615   2.638
 8608SOL    HW226724   2.039   4.569   2.752
 8609SOL     OW26725   4.846   0.826   3.758
 8609SOL    HW126726   4.924   0.764   3.756
 8609SOL    HW226727   4.826   0.852   3.853
 8610SOL     OW26728   6.873   6.608   3.215
 8610SOL    HW126729   6.972   6.614   3.225
 8610SOL    HW226730   6.837   6.544   3.283
 8611SOL     OW26731   2.862   0.804   4.204
 8611SOL    HW126732   2.807   0.747   4.264
 8611SOL    HW226733   2.838   0.900   4.218
 8612SOL     OW26734   3.176   3.192   2.666
 8612SOL    HW126735   3.206   3.167   2.758
 8612SOL    HW226736   3.194   3.116   2.603
 8613SOL     OW26737   2.460   2.618   1.546
 8613SOL    HW126738   2.522   2.633   1.623
 8613SOL    HW226739   2.402   2.699   1.533
 8614SOL     OW26740   0.918   2.775   2.596
 8614SOL    HW126741   0.979   2.720   2.540
 8614SOL    HW226742   0.958   2.788   2.687
 8615SOL     OW26743   4.825   1.881   4.707
 8615SOL    HW126744   4.811   1.799   4.763
 8615SOL    HW226745   4.749   1.889   4.642
 8616SOL     OW26746   2.746   4.797   2.403
 8616SOL    HW126747   2.827   4.831   2.451
 8616SOL    HW226748   2.766   4.789   2.306
 8617SOL     OW26749   5.401   0.111   3.772
 8617SOL    HW126750   5.317   0.069   3.738
 8617SOL    HW226751   5.388   0.210   3.780
 8618SOL     OW26752   6.408   3.676   0.652
 8618SOL    HW126753   6.414   3.702   0.748
 8618SOL    HW226754   6.491   3.705   0.604
 8619SOL     OW26755   4.418   5.161   2.961
 8619SOL    HW126756   4.353   5.091   2.989
 8619SOL    HW226757   4.502   5.118   2.927
 8620SOL     OW26758   1.422   0.267   4.249
 8620SOL    HW126759   1.374   0.235   4.330
 8620SOL    HW226760   1.412   0.199   4.176
 8621SOL     OW26761   4.707   2.813   2.305
 8621SOL    HW126762   4.634   2.854   2.359
 8621SOL    HW226763   4.718   2.865   2.220
 8622SOL     OW26764   6.402   5.001   1.904
 8622SOL    HW126765   6.375   5.009   1.808
 8622SOL    HW226766   6.420   5.092   1.941
 8623SOL     OW26767   6.984   3.273   4.802
 8623SOL    HW126768   6.938   3.185   4.800
 8623SOL    HW226769   6.921   3.343   4.836
 8624SOL     OW26770   3.540   3.481   6.237
 8624SOL    HW126771   3.500   3.416   6.172
 8624SOL    HW226772   3.638   3.490   6.220
 8625SOL     OW26773   4.440   1.276   6.077
 8625SOL    HW126774   4.389   1.224   6.145
 8625SOL    HW226775   4.526   1.310   6.116
 8626SOL     OW26776   3.697   2.864   0.618
 8626SOL    HW126777   3.742   2.891   0.532
 8626SOL    HW226778   3.767   2.840   0.685
 8627SOL     OW26779   2.064   1.523   2.311
 8627SOL    HW126780   2.146   1.475   2.340
 8627SOL    HW226781   2.088   1.595   2.246
 8628SOL     OW26782   6.719   6.846   0.316
 8628SOL    HW126783   6.737   6.877   0.222
 8628SOL    HW226784   6.641   6.897   0.353
 8629SOL     OW26785   0.859   6.818   4.571
 8629SOL    HW126786   0.868   6.741   4.507
 8629SOL    HW226787   0.763   6.845   4.578
 8630SOL     OW26788   5.031   3.563   3.737
 8630SOL    HW126789   5.120   3.609   3.737
 8630SOL    HW226790   4.967   3.613   3.796
 8631SOL     OW26791   2.174   6.338   6.289
 8631SOL    HW126792   2.210   6.337   6.196
 8631SOL    HW226793   2.136   6.248   6.311
 8632SOL     OW26794   4.194   4.405   5.431
 8632SOL    HW126795   4.127   4.473   5.461
 8632SOL    HW226796   4.230   4.430   5.342
 8633SOL     OW26797   5.811   3.701   5.813
 8633SOL    HW126798   5.757   3.696   5.729
 8633SOL    HW226799   5.908   3.702   5.790
 8634SOL     OW26800   5.304   4.774   0.341
 8634SOL    HW126801   5.208   4.792   0.319
 8634SOL    HW226802   5.361   4.847   0.303
 8635SOL     OW26803   6.247   2.539   6.730
 8635SOL    HW126804   6.173   2.532   6.797
 8635SOL    HW226805   6.209   2.537   6.638
 8636SOL     OW26806   3.901   5.427   0.215
 8636SOL    HW126807   3.996   5.399   0.203
 8636SOL    HW226808   3.896   5.527   0.223
 8637SOL     OW26809   2.320   1.401   6.076
 8637SOL    HW126810   2.372   1.368   6.155
 8637SOL    HW226811   2.226   1.421   6.104
 8638SOL     OW26812   3.976   2.657   5.376
 8638SOL    HW126813   4.054   2.656   5.313
 8638SOL    HW226814   3.960   2.751   5.407
 8639SOL     OW26815   4.893   3.493   6.823
 8639SOL    HW126816   4.917   3.558   6.751
 8639SOL    HW226817   4.960   3.419   6.824
 8640SOL     OW26818   3.873   3.178   1.410
 8640SOL    HW126819   3.966   3.143   1.417
 8640SOL    HW226820   3.810   3.114   1.453
 8641SOL     OW26821   4.449   4.939   3.639
 8641SOL    HW126822   4.376   4.931   3.707
 8641SOL    HW226823   4.531   4.977   3.682
 8642SOL     OW26824   6.879   6.879   3.679
 8642SOL    HW126825   6.889   6.966   3.632
 8642SOL    HW226826   6.968   6.834   3.687
 8643SOL     OW26827   1.819   6.850   0.478
 8643SOL    HW126828   1.918   6.837   0.478
 8643SOL    HW226829   1.794   6.922   0.543
 8644SOL     OW26830   6.523   2.193   6.417
 8644SOL    HW126831   6.458   2.200   6.493
 8644SOL    HW226832   6.564   2.102   6.417
 8645SOL     OW26833   4.848   5.018   1.538
 8645SOL    HW126834   4.931   5.018   1.483
 8645SOL    HW226835   4.812   4.925   1.543
 8646SOL     OW26836   0.602   1.938   6.715
 8646SOL    HW126837   0.695   1.939   6.752
 8646SOL    HW226838   0.536   1.944   6.790
 8647SOL     OW26839   2.906   5.859   1.137
 8647SOL    HW126840   2.836   5.796   1.172
 8647SOL    HW226841   2.919   5.934   1.202
 8648SOL     OW26842   5.705   6.718   1.032
 8648SOL    HW126843   5.738   6.624   1.035
 8648SOL    HW226844   5.771   6.778   1.077
 8649SOL     OW26845   4.620   6.471   6.926
 8649SOL    HW126846   4.679   6.470   6.845
 8649SOL    HW226847   4.572   6.558   6.931
 8650SOL     OW26848   1.619   6.544   4.116
 8650SOL    HW126849   1.658   6.636   4.122
 8650SOL    HW226850   1.546   6.535   4.184
 8651SOL     OW26851   3.067   1.718   0.935
 8651SOL    HW126852   3.142   1.651   0.943
 8651SOL    HW226853   3.099   1.807   0.968
 8652SOL     OW26854   0.923   4.724   4.214
 8652SOL    HW126855   0.984   4.781   4.268
 8652SOL    HW226856   0.891   4.776   4.134
 8653SOL     OW26857   6.204   1.502   5.488
 8653SOL    HW126858   6.134   1.498   5.560
 8653SOL    HW226859   6.274   1.569   5.514
 8654SOL     OW26860   0.846   4.839   1.331
 8654SOL    HW126861   0.794   4.786   1.398
 8654SOL    HW226862   0.803   4.831   1.242
 8655SOL     OW26863   6.464   1.151   5.058
 8655SOL    HW126864   6.426   1.125   4.969
 8655SOL    HW226865   6.404   1.218   5.101
 8656SOL     OW26866   5.445   0.445   2.188
 8656SOL    HW126867   5.415   0.536   2.159
 8656SOL    HW226868   5.433   0.380   2.113
 8657SOL     OW26869   6.098   6.236   0.358
 8657SOL    HW126870   6.149   6.150   0.346
 8657SOL    HW226871   6.133   6.304   0.293
 8658SOL     OW26872   5.560   5.452   0.434
 8658SOL    HW126873   5.515   5.372   0.394
 8658SOL    HW226874   5.508   5.534   0.411
 8659SOL     OW26875   4.523   2.451   3.070
 8659SOL    HW126876   4.618   2.473   3.094
 8659SOL    HW226877   4.471   2.434   3.154
 8660SOL     OW26878   0.577   2.210   1.904
 8660SOL    HW126879   0.596   2.308   1.899
 8660SOL    HW226880   0.587   2.179   1.999
 8661SOL     OW26881   5.896   3.480   2.696
 8661SOL    HW126882   5.966   3.540   2.658
 8661SOL    HW226883   5.853   3.428   2.622
 8662SOL     OW26884   3.328   6.168   2.205
 8662SOL    HW126885   3.305   6.199   2.297
 8662SOL    HW226886   3.427   6.167   2.193
 8663SOL     OW26887   2.494   5.496   2.913
 8663SOL    HW126888   2.494   5.428   2.986
 8663SOL    HW226889   2.524   5.453   2.828
 8664SOL     OW26890   2.456   5.772   3.102
 8664SOL    HW126891   2.429   5.676   3.108
 8664SOL    HW226892   2.497   5.800   3.189
 8665SOL     OW26893   6.700   5.480   5.418
 8665SOL    HW126894   6.670   5.425   5.340
 8665SOL    HW226895   6.730   5.419   5.492
 8666SOL     OW26896   5.558   6.958   4.323
 8666SOL    HW126897   5.656   6.972   4.311
 8666SOL    HW226898   5.541   6.910   4.410
 8667SOL     OW26899   5.019   0.800   4.689
 8667SOL    HW126900   4.929   0.827   4.723
 8667SOL    HW226901   5.022   0.810   4.590
 8668SOL     OW26902   5.203   3.019   4.686
 8668SOL    HW126903   5.223   3.029   4.589
 8668SOL    HW226904   5.133   2.949   4.699
 8669SOL     OW26905   6.762   6.560   6.639
 8669SOL    HW126906   6.749   6.625   6.714
 8669SOL    HW226907   6.795   6.609   6.559
 8670SOL     OW26908   5.599   5.109   6.027
 8670SOL    HW126909   5.524   5.153   6.078
 8670SOL    HW226910   5.586   5.126   5.929
 8671SOL     OW26911   0.477   1.586   2.332
 8671SOL    HW126912   0.431   1.591   2.421
 8671SOL    HW226913   0.434   1.651   2.269
 8672SOL     OW26914   0.243   6.985   3.717
 8672SOL    HW126915   0.314   7.000   3.649
 8672SOL    HW226916   0.283   6.987   3.809
 8673SOL     OW26917   6.904   1.595   0.250
 8673SOL    HW126918   6.873   1.690   0.240
 8673SOL    HW226919   6.825   1.534   0.249
 8674SOL     OW26920   6.804   4.130   2.848
 8674SOL    HW126921   6.729   4.067   2.866
 8674SOL    HW226922   6.817   4.190   2.927
 8675SOL     OW26923   4.336   1.068   5.902
 8675SOL    HW126924   4.343   1.162   5.934
 8675SOL    HW226925   4.242   1.051   5.871
 8676SOL     OW26926   5.574   1.028   1.295
 8676SOL    HW126927   5.526   1.087   1.359
 8676SOL    HW226928   5.508   0.973   1.244
 8677SOL     OW26929   1.700   6.120   5.824
 8677SOL    HW126930   1.689   6.040   5.765
 8677SOL    HW226931   1.756   6.095   5.903
 8678SOL     OW26932   0.831   7.016   0.516
 8678SOL    HW126933   0.830   6.918   0.494
 8678SOL    HW226934   0.748   0.035   0.480
 8679SOL     OW26935   1.736   1.527   4.177
 8679SOL    HW126936   1.658   1.515   4.238
 8679SOL    HW226937   1.703   1.528   4.082
 8680SOL     OW26938   6.644   2.646   6.300
 8680SOL    HW126939   6.674   2.551   6.296
 8680SOL    HW226940   6.685   2.691   6.380
 8681SOL     OW26941   4.493   5.311   1.287
 8681SOL    HW126942   4.539   5.391   1.249
 8681SOL    HW226943   4.545   5.277   1.365
 8682SOL     OW26944   6.958   0.300   1.101
 8682SOL    HW126945   6.945   0.373   1.168
 8682SOL    HW226946   6.939   0.212   1.145
 8683SOL     OW26947   1.440   3.411   4.506
 8683SOL    HW126948   1.463   3.449   4.595
 8683SOL    HW226949   1.519   3.362   4.469
 8684SOL     OW26950   0.171   3.708   4.462
 8684SOL    HW126951   0.142   3.647   4.535
 8684SOL    HW226952   0.266   3.734   4.476
 8685SOL     OW26953   5.596   2.702   6.695
 8685SOL    HW126954   5.570   2.798   6.684
 8685SOL    HW226955   5.533   2.644   6.642
 8686SOL     OW26956   5.993   6.690   2.929
 8686SOL    HW126957   5.950   6.778   2.952
 8686SOL    HW226958   5.991   6.678   2.829
 8687SOL     OW26959   6.288   4.278   2.749
 8687SOL    HW126960   6.196   4.243   2.735
 8687SOL    HW226961   6.307   4.351   2.682
 8688SOL     OW26962   1.989   4.386   6.524
 8688SOL    HW126963   2.087   4.369   6.533
 8688SOL    HW226964   1.967   4.402   6.427
 8689SOL     OW26965   4.694   3.206   0.608
 8689SOL    HW126966   4.611   3.217   0.663
 8689SOL    HW226967   4.757   3.145   0.657
 8690SOL     OW26968   1.047   2.568   2.911
 8690SOL    HW126969   0.989   2.512   2.852
 8690SOL    HW226970   1.022   2.665   2.901
 8691SOL     OW26971   3.588   1.701   5.385
 8691SOL    HW126972   3.558   1.711   5.480
 8691SOL    HW226973   3.611   1.790   5.347
 8692SOL     OW26974   3.851   1.972   5.481
 8692SOL    HW126975   3.832   1.903   5.551
 8692SOL    HW226976   3.799   1.950   5.399
 8693SOL     OW26977   6.630   1.142   6.502
 8693SOL    HW126978   6.716   1.123   6.549
 8693SOL    HW226979   6.638   1.114   6.406
 8694SOL     OW26980   5.944   2.167   5.013
 8694SOL    HW126981   5.895   2.120   4.941
 8694SOL    HW226982   6.012   2.105   5.054
 8695SOL     OW26983   4.487   3.103   6.409
 8695SOL    HW126984   4.562   3.168   6.408
 8695SOL    HW226985   4.462   3.080   6.503
 8696SOL     OW26986   2.259   6.143   4.826
 8696SOL    HW126987   2.194   6.084   4.779
 8696SOL    HW226988   2.215   6.230   4.849
 8697SOL     OW26989   1.285   4.681   5.953
 8697SOL    HW126990   1.227   4.762   5.952
 8697SOL    HW226991   1.304   4.654   6.047
 8698SOL     OW26992   5.329   5.715   5.923
 8698SOL    HW126993   5.352   5.809   5.945
 8698SOL    HW226994   5.234   5.710   5.891
 8699SOL     OW26995   2.184   3.463   6.285
 8699SOL    HW126996   2.137   3.377   6.304
 8699SOL    HW226997   2.215   3.503   6.371
 8700SOL     OW26998   1.373   1.079   5.562
 8700SOL    HW126999   1.406   1.073   5.468
 8700SOL    HW227000   1.273   1.084   5.562
 8701SOL     OW27001   1.722   1.421   6.826
 8701SOL    HW127002   1.763   1.512   6.816
 8701SOL    HW227003   1.731   1.372   6.739
 8702SOL     OW27004   4.946   5.134   2.045
 8702SOL    HW127005   4.996   5.220   2.051
 8702SOL    HW227006   4.929   5.112   1.949
 8703SOL     OW27007   3.143   4.732   6.822
 8703SOL    HW127008   3.194   4.808   6.780
 8703SOL    HW227009   3.114   4.668   6.751
 8704SOL     OW27010   0.025   2.923   3.850
 8704SOL    HW127011   0.077   2.975   3.918
 8704SOL    HW227012   0.015   2.829   3.880
 8705SOL     OW27013   4.678   2.139   6.666
 8705SOL    HW127014   4.749   2.189   6.616
 8705SOL    HW227015   4.697   2.143   6.764
 8706SOL     OW27016   5.801   2.712   0.319
 8706SOL    HW127017   5.794   2.794   0.376
 8706SOL    HW227018   5.893   2.705   0.281
 8707SOL     OW27019   0.997   2.096   3.685
 8707SOL    HW127020   1.016   2.053   3.597
 8707SOL    HW227021   1.016   2.194   3.679
 8708SOL     OW27022   4.538   1.874   4.216
 8708SOL    HW127023   4.627   1.913   4.193
 8708SOL    HW227024   4.529   1.783   4.175
 8709SOL     OW27025   6.984   0.136   6.809
 8709SOL    HW127026   6.907   0.137   6.873
 8709SOL    HW227027   6.950   0.121   6.716
 8710SOL     OW27028   2.079   2.017   3.459
 8710SOL    HW127029   2.149   1.961   3.502
 8710SOL    HW227030   2.036   2.075   3.528
 8711SOL     OW27031   0.993   0.861   1.503
 8711SOL    HW127032   1.062   0.791   1.524
 8711SOL    HW227033   0.911   0.817   1.468
 8712SOL     OW27034   2.982   1.671   4.928
 8712SOL    HW127035   2.915   1.677   5.002
 8712SOL    HW227036   3.072   1.647   4.965
 8713SOL     OW27037   0.558   4.074   1.451
 8713SOL    HW127038   0.477   4.060   1.394
 8713SOL    HW227039   0.553   4.013   1.530
 8714SOL     OW27040   0.625   6.821   0.200
 8714SOL    HW127041   0.593   6.755   0.268
 8714SOL    HW227042   0.715   6.794   0.167
 8715SOL     OW27043   3.324   1.890   0.119
 8715SOL    HW127044   3.410   1.840   0.118
 8715SOL    HW227045   3.327   1.963   0.050
 8716SOL     OW27046   0.114   6.657   1.107
 8716SOL    HW127047   0.074   6.603   1.033
 8716SOL    HW227048   0.187   6.604   1.152
 8717SOL     OW27049   2.132   3.119   6.192
 8717SOL    HW127050   2.188   3.045   6.228
 8717SOL    HW227051   2.173   3.153   6.107
 8718SOL     OW27052   1.521   2.957   6.324
 8718SOL    HW127053   1.548   2.893   6.253
 8718SOL    HW227054   1.503   3.047   6.283
 8719SOL     OW27055   4.471   1.310   0.078
 8719SOL    HW127056   4.385   1.328   0.125
 8719SOL    HW227057   4.524   1.243   0.130
 8720SOL     OW27058   0.061   5.510   5.615
 8720SOL    HW127059   7.012   5.572   5.644
 8720SOL    HW227060   0.096   5.459   5.694
 8721SOL     OW27061   6.419   6.718   6.845
 8721SOL    HW127062   6.491   6.780   6.812
 8721SOL    HW227063   6.399   6.739   6.941
 8722SOL     OW27064   3.151   0.721   0.548
 8722SOL    HW127065   3.208   0.639   0.553
 8722SOL    HW227066   3.096   0.719   0.465
 8723SOL     OW27067   5.522   6.489   2.091
 8723SOL    HW127068   5.497   6.577   2.129
 8723SOL    HW227069   5.609   6.458   2.130
 8724SOL     OW27070   5.296   0.006   4.286
 8724SOL    HW127071   5.389   6.994   4.290
 8724SOL    HW227072   5.257   0.008   4.378
 8725SOL     OW27073   0.066   6.157   4.673
 8725SOL    HW127074   0.096   6.197   4.587
 8725SOL    HW227075   0.144   6.146   4.734
 8726SOL     OW27076   6.672   1.180   0.427
 8726SOL    HW127077   6.608   1.180   0.350
 8726SOL    HW227078   6.621   1.186   0.513
 8727SOL     OW27079   5.976   0.047   0.046
 8727SOL    HW127080   5.994   6.998   0.113
 8727SOL    HW227081   5.882   0.040   0.014
 8728SOL     OW27082   5.313   1.443   2.528
 8728SOL    HW127083   5.234   1.394   2.491
 8728SOL    HW227084   5.397   1.397   2.501
 8729SOL     OW27085   3.199   5.258   5.240
 8729SOL    HW127086   3.159   5.262   5.149
 8729SOL    HW227087   3.246   5.171   5.252
 8730SOL     OW27088   5.384   4.236   3.351
 8730SOL    HW127089   5.333   4.249   3.266
 8730SOL    HW227090   5.435   4.320   3.371
 8731SOL     OW27091   0.276   2.834   2.691
 8731SOL    HW127092   0.316   2.899   2.756
 8731SOL    HW227093   0.177   2.840   2.695
 8732SOL     OW27094   4.851   4.709   1.133
 8732SOL    HW127095   4.841   4.806   1.113
 8732SOL    HW227096   4.923   4.696   1.202
 8733SOL     OW27097   0.642   5.496   1.179
 8733SOL    HW127098   0.596   5.407   1.176
 8733SOL    HW227099   0.732   5.486   1.221
 8734SOL     OW27100   6.901   3.338   2.075
 8734SOL    HW127101   6.944   3.427   2.092
 8734SOL    HW227102   6.936   3.300   1.990
 8735SOL     OW27103   1.417   3.664   5.184
 8735SOL    HW127104   1.341   3.704   5.236
 8735SOL    HW227105   1.391   3.656   5.088
 8736SOL     OW27106   0.669   5.613   1.944
 8736SOL    HW127107   0.614   5.661   1.875
 8736SOL    HW227108   0.766   5.620   1.919
 8737SOL     OW27109   2.914   5.672   6.296
 8737SOL    HW127110   2.833   5.617   6.320
 8737SOL    HW227111   2.988   5.611   6.268
 8738SOL     OW27112   1.510   4.051   3.631
 8738SOL    HW127113   1.535   4.045   3.727
 8738SOL    HW227114   1.538   4.139   3.594
 8739SOL     OW27115   5.119   4.252   5.011
 8739SOL    HW127116   5.215   4.227   4.997
 8739SOL    HW227117   5.085   4.301   4.930
 8740SOL     OW27118   3.851   2.177   2.791
 8740SOL    HW127119   3.929   2.145   2.737
 8740SOL    HW227120   3.767   2.165   2.738
 8741SOL     OW27121   2.239   7.000   2.347
 8741SOL    HW127122   2.164   6.972   2.408
 8741SOL    HW227123   2.320   6.944   2.366
 8742SOL     OW27124   3.954   0.992   2.605
 8742SOL    HW127125   3.873   0.949   2.646
 8742SOL    HW227126   3.943   1.091   2.608
 8743SOL     OW27127   2.051   1.067   1.752
 8743SOL    HW127128   2.021   0.992   1.693
 8743SOL    HW227129   2.089   1.030   1.837
 8744SOL     OW27130   4.701   3.088   0.179
 8744SOL    HW127131   4.714   3.129   0.089
 8744SOL    HW227132   4.753   3.140   0.247
 8745SOL     OW27133   6.837   2.048   6.555
 8745SOL    HW127134   6.910   1.986   6.526
 8745SOL    HW227135   6.869   2.142   6.549
 8746SOL     OW27136   5.100   5.236   4.088
 8746SOL    HW127137   5.132   5.173   4.159
 8746SOL    HW227138   5.177   5.290   4.054
 8747SOL     OW27139   6.421   1.312   2.577
 8747SOL    HW127140   6.517   1.320   2.605
 8747SOL    HW227141   6.410   1.350   2.485
 8748SOL     OW27142   1.141   1.402   3.836
 8748SOL    HW127143   1.117   1.332   3.770
 8748SOL    HW227144   1.217   1.457   3.800
 8749SOL     OW27145   2.552   1.239   5.585
 8749SOL    HW127146   2.460   1.266   5.612
 8749SOL    HW227147   2.565   1.142   5.604
 8750SOL     OW27148   4.040   2.763   5.844
 8750SOL    HW127149   3.951   2.752   5.799
 8750SOL    HW227150   4.032   2.735   5.940
 8751SOL     OW27151   6.604   0.214   0.326
 8751SOL    HW127152   6.651   0.243   0.243
 8751SOL    HW227153   6.586   0.116   0.322
 8752SOL     OW27154   5.463   3.061   6.956
 8752SOL    HW127155   5.470   3.089   0.028
 8752SOL    HW227156   5.376   3.015   6.941
 8753SOL     OW27157   2.232   3.390   6.873
 8753SOL    HW127158   2.305   3.430   6.929
 8753SOL    HW227159   2.171   3.337   6.931
 8754SOL     OW27160   2.836   4.951   6.219
 8754SOL    HW127161   2.816   4.955   6.121
 8754SOL    HW227162   2.778   4.882   6.262
 8755SOL     OW27163   0.937   0.982   0.848
 8755SOL    HW127164   1.036   0.977   0.853
 8755SOL    HW227165   0.907   0.952   0.757
 8756SOL     OW27166   1.938   3.114   3.739
 8756SOL    HW127167   1.901   3.056   3.812
 8756SOL    HW227168   1.897   3.088   3.652
 8757SOL     OW27169   4.901   6.219   5.963
 8757SOL    HW127170   4.992   6.198   5.997
 8757SOL    HW227171   4.866   6.301   6.008
 8758SOL     OW27172   4.407   0.057   3.388
 8758SOL    HW127173   4.336   0.010   3.440
 8758SOL    HW227174   4.373   0.079   3.297
 8759SOL     OW27175   6.264   1.875   7.012
 8759SOL    HW127176   6.307   1.929   0.061
 8759SOL    HW227177   6.176   1.841   0.019
 8760SOL     OW27178   2.392   2.110   3.720
 8760SOL    HW127179   2.343   2.052   3.785
 8760SOL    HW227180   2.377   2.077   3.627
 8761SOL     OW27181   5.154   1.718   2.063
 8761SOL    HW127182   5.210   1.689   2.141
 8761SOL    HW227183   5.087   1.647   2.042
 8762SOL     OW27184   1.928   6.070   3.931
 8762SOL    HW127185   1.981   5.989   3.904
 8762SOL    HW227186   1.836   6.041   3.957
 8763SOL     OW27187   6.823   0.935   4.736
 8763SOL    HW127188   6.859   0.944   4.643
 8763SOL    HW227189   6.773   1.018   4.760
 8764SOL     OW27190   4.311   6.150   6.148
 8764SOL    HW127191   4.330   6.246   6.170
 8764SOL    HW227192   4.341   6.131   6.054
 8765SOL     OW27193   5.859   0.890   5.241
 8765SOL    HW127194   5.766   0.904   5.274
 8765SOL    HW227195   5.902   0.978   5.223
 8766SOL     OW27196   4.580   4.053   5.712
 8766SOL    HW127197   4.524   4.135   5.718
 8766SOL    HW227198   4.659   4.071   5.654
 8767SOL     OW27199   3.241   0.229   3.875
 8767SOL    HW127200   3.262   0.134   3.855
 8767SOL    HW227201   3.260   0.247   3.972
 8768SOL     OW27202   0.839   2.194   6.927
 8768SOL    HW127203   0.754   2.160   6.967
 8768SOL    HW227204   0.879   2.122   6.870
 8769SOL     OW27205   6.525   1.311   1.752
 8769SOL    HW127206   6.594   1.300   1.824
 8769SOL    HW227207   6.497   1.221   1.720
 8770SOL     OW27208   5.263   4.186   2.174
 8770SOL    HW127209   5.231   4.116   2.110
 8770SOL    HW227210   5.220   4.172   2.263
 8771SOL     OW27211   0.582   3.297   6.515
 8771SOL    HW127212   0.648   3.232   6.553
 8771SOL    HW227213   0.618   3.390   6.524
 8772SOL     OW27214   5.304   0.580   4.699
 8772SOL    HW127215   5.330   0.608   4.791
 8772SOL    HW227216   5.228   0.516   4.703
 8773SOL     OW27217   5.954   2.454   3.512
 8773SOL    HW127218   5.859   2.425   3.516
 8773SOL    HW227219   5.959   2.553   3.499
 8774SOL     OW27220   0.694   0.058   6.680
 8774SOL    HW127221   0.670   0.093   6.590
 8774SOL    HW227222   0.681   6.982   6.682
 8775SOL     OW27223   5.790   1.823   5.214
 8775SOL    HW127224   5.822   1.917   5.203
 8775SOL    HW227225   5.825   1.767   5.138
 8776SOL     OW27226   4.824   3.598   1.202
 8776SOL    HW127227   4.853   3.519   1.148
 8776SOL    HW227228   4.725   3.594   1.215
 8777SOL     OW27229   0.875   3.410   2.666
 8777SOL    HW127230   0.862   3.311   2.670
 8777SOL    HW227231   0.883   3.447   2.758
 8778SOL     OW27232   4.322   4.106   5.958
 8778SOL    HW127233   4.328   4.011   5.927
 8778SOL    HW227234   4.400   4.127   6.016
 8779SOL     OW27235   2.935   5.160   2.392
 8779SOL    HW127236   3.015   5.217   2.409
 8779SOL    HW227237   2.905   5.172   2.297
 8780SOL     OW27238   0.285   5.761   2.351
 8780SOL    HW127239   0.208   5.824   2.355
 8780SOL    HW227240   0.302   5.723   2.441
 8781SOL     OW27241   4.749   0.315   2.826
 8781SOL    HW127242   4.727   0.362   2.911
 8781SOL    HW227243   4.668   0.312   2.767
 8782SOL     OW27244   5.763   1.423   1.923
 8782SOL    HW127245   5.816   1.494   1.971
 8782SOL    HW227246   5.783   1.334   1.963
 8783SOL     OW27247   5.645   2.702   4.054
 8783SOL    HW127248   5.699   2.707   4.138
 8783SOL    HW227249   5.672   2.775   3.992
 8784SOL     OW27250   6.271   5.980   0.818
 8784SOL    HW127251   6.335   6.037   0.766
 8784SOL    HW227252   6.178   6.007   0.796
 8785SOL     OW27253   0.557   5.426   6.075
 8785SOL    HW127254   0.496   5.503   6.062
 8785SOL    HW227255   0.645   5.458   6.110
 8786SOL     OW27256   3.933   1.939   2.575
 8786SOL    HW127257   3.976   1.974   2.492
 8786SOL    HW227258   3.834   1.949   2.569
 8787SOL     OW27259   3.539   0.498   1.356
 8787SOL    HW127260   3.579   0.565   1.419
 8787SOL    HW227261   3.568   0.406   1.383
 8788SOL     OW27262   6.877   1.024   5.300
 8788SOL    HW127263   6.790   1.013   5.251
 8788SOL    HW227264   6.952   0.994   5.243
 8789SOL     OW27265   0.146   3.943   5.336
 8789SOL    HW127266   0.079   3.883   5.380
 8789SOL    HW227267   0.236   3.900   5.340
 8790SOL     OW27268   6.412   2.042   0.212
 8790SOL    HW127269   6.497   1.992   0.231
 8790SOL    HW227270   6.336   1.998   0.259
 8791SOL     OW27271   4.682   5.922   4.966
 8791SOL    HW127272   4.775   5.884   4.960
 8791SOL    HW227273   4.658   5.965   4.879
 8792SOL     OW27274   3.974   5.539   2.312
 8792SOL    HW127275   3.877   5.539   2.289
 8792SOL    HW227276   4.013   5.449   2.294
 8793SOL     OW27277   1.083   5.071   4.476
 8793SOL    HW127278   1.103   5.139   4.405
 8793SOL    HW227279   0.987   5.043   4.469
 8794SOL     OW27280   6.055   1.163   3.373
 8794SOL    HW127281   6.100   1.133   3.458
 8794SOL    HW227282   5.958   1.177   3.390
 8795SOL     OW27283   1.159   5.228   5.304
 8795SOL    HW127284   1.160   5.133   5.335
 8795SOL    HW227285   1.085   5.241   5.238
 8796SOL     OW27286   6.319   3.727   2.884
 8796SOL    HW127287   6.401   3.670   2.894
 8796SOL    HW227288   6.306   3.781   2.967
 8797SOL     OW27289   0.193   0.103   4.122
 8797SOL    HW127290   0.137   0.122   4.202
 8797SOL    HW227291   0.262   0.174   4.112
 8798SOL     OW27292   4.537   6.445   5.448
 8798SOL    HW127293   4.636   6.443   5.431
 8798SOL    HW227294   4.515   6.520   5.509
 8799SOL     OW27295   1.934   4.860   2.276
 8799SOL    HW127296   1.989   4.777   2.278
 8799SOL    HW227297   1.842   4.838   2.245
 8800SOL     OW27298   6.447   6.135   5.307
 8800SOL    HW127299   6.456   6.036   5.305
 8800SOL    HW227300   6.530   6.177   5.270
 8801SOL     OW27301   5.974   2.058   5.333
 8801SOL    HW127302   6.013   1.980   5.284
 8801SOL    HW227303   6.047   2.109   5.378
 8802SOL     OW27304   1.350   5.905   5.606
 8802SOL    HW127305   1.348   5.815   5.563
 8802SOL    HW227306   1.376   5.973   5.538
 8803SOL     OW27307   6.559   0.808   0.212
 8803SOL    HW127308   6.499   0.769   0.282
 8803SOL    HW227309   6.550   0.907   0.211
 8804SOL     OW27310   1.929   5.843   1.565
 8804SOL    HW127311   1.931   5.820   1.467
 8804SOL    HW227312   1.952   5.762   1.619
 8805SOL     OW27313   4.344   5.549   3.787
 8805SOL    HW127314   4.377   5.482   3.721
 8805SOL    HW227315   4.405   5.551   3.866
 8806SOL     OW27316   2.416   6.179   0.477
 8806SOL    HW127317   2.341   6.131   0.431
 8806SOL    HW227318   2.390   6.274   0.492
 8807SOL     OW27319   4.860   2.113   0.292
 8807SOL    HW127320   4.790   2.050   0.259
 8807SOL    HW227321   4.829   2.208   0.279
 8808SOL     OW27322   1.460   2.370   0.628
 8808SOL    HW127323   1.532   2.415   0.574
 8808SOL    HW227324   1.501   2.332   0.711
 8809SOL     OW27325   2.216   3.981   3.419
 8809SOL    HW127326   2.251   4.066   3.380
 8809SOL    HW227327   2.248   3.972   3.513
 8810SOL     OW27328   5.891   1.426   5.121
 8810SOL    HW127329   5.968   1.478   5.158
 8810SOL    HW227330   5.888   1.439   5.021
 8811SOL     OW27331   4.502   0.154   2.486
 8811SOL    HW127332   4.457   0.239   2.511
 8811SOL    HW227333   4.586   0.144   2.538
 8812SOL     OW27334   3.214   0.502   6.723
 8812SOL    HW127335   3.177   0.417   6.686
 8812SOL    HW227336   3.185   0.578   6.665
 8813SOL     OW27337   2.158   4.444   2.573
 8813SOL    HW127338   2.067   4.446   2.532
 8813SOL    HW227339   2.217   4.512   2.530
 8814SOL     OW27340   5.828   6.951   0.652
 8814SOL    HW127341   5.759   7.022   0.634
 8814SOL    HW227342   5.783   6.862   0.657
 8815SOL     OW27343   5.774   0.947   0.779
 8815SOL    HW127344   5.776   0.876   0.709
 8815SOL    HW227345   5.781   1.037   0.735
 8816SOL     OW27346   0.004   6.347   6.500
 8816SOL    HW127347   0.020   6.356   6.402
 8816SOL    HW227348   6.947   6.291   6.516
 8817SOL     OW27349   0.853   3.740   4.539
 8817SOL    HW127350   0.818   3.726   4.447
 8817SOL    HW227351   0.800   3.685   4.604
 8818SOL     OW27352   1.665   6.790   3.247
 8818SOL    HW127353   1.700   6.808   3.339
 8818SOL    HW227354   1.583   6.844   3.231
 8819SOL     OW27355   5.663   4.211   5.214
 8819SOL    HW127356   5.614   4.263   5.284
 8819SOL    HW227357   5.635   4.115   5.217
 8820SOL     OW27358   3.530   0.972   4.625
 8820SOL    HW127359   3.545   1.068   4.602
 8820SOL    HW227360   3.447   0.963   4.679
 8821SOL     OW27361   0.843   4.902   0.326
 8821SOL    HW127362   0.873   4.987   0.283
 8821SOL    HW227363   0.743   4.895   0.320
 8822SOL     OW27364   6.967   0.046   3.513
 8822SOL    HW127365   6.878   0.084   3.538
 8822SOL    HW227366   0.016   0.103   3.551
 8823SOL     OW27367   2.799   0.643   2.807
 8823SOL    HW127368   2.700   0.631   2.806
 8823SOL    HW227369   2.843   0.553   2.806
 8824SOL     OW27370   1.501   0.279   1.677
 8824SOL    HW127371   1.597   0.261   1.660
 8824SOL    HW227372   1.445   0.242   1.602
 8825SOL     OW27373   0.594   0.779   1.712
 8825SOL    HW127374   0.537   0.816   1.785
 8825SOL    HW227375   0.562   0.688   1.687
 8826SOL     OW27376   0.931   3.434   0.763
 8826SOL    HW127377   1.024   3.420   0.730
 8826SOL    HW227378   0.866   3.390   0.702
 8827SOL     OW27379   3.959   0.551   2.274
 8827SOL    HW127380   3.914   0.576   2.360
 8827SOL    HW227381   4.057   0.571   2.281
 8828SOL     OW27382   4.026   4.435   6.414
 8828SOL    HW127383   3.988   4.425   6.506
 8828SOL    HW227384   3.958   4.405   6.347
 8829SOL     OW27385   6.341   1.782   1.929
 8829SOL    HW127386   6.382   1.804   2.018
 8829SOL    HW227387   6.336   1.865   1.873
 8830SOL     OW27388   2.225   1.385   1.879
 8830SOL    HW127389   2.198   1.429   1.794
 8830SOL    HW227390   2.296   1.317   1.861
 8831SOL     OW27391   0.197   2.889   2.162
 8831SOL    HW127392   0.116   2.830   2.163
 8831SOL    HW227393   0.252   2.870   2.244
 8832SOL     OW27394   6.875   6.357   4.426
 8832SOL    HW127395   6.839   6.352   4.333
 8832SOL    HW227396   6.836   6.283   4.481
 8833SOL     OW27397   3.790   3.338   1.216
 8833SOL    HW127398   3.744   3.410   1.269
 8833SOL    HW227399   3.829   3.271   1.279
 8834SOL     OW27400   6.011   3.723   4.882
 8834SOL    HW127401   5.916   3.718   4.850
 8834SOL    HW227402   6.031   3.816   4.912
 8835SOL     OW27403   5.957   1.025   5.962
 8835SOL    HW127404   6.021   1.042   5.887
 8835SOL    HW227405   5.963   0.929   5.990
 8836SOL     OW27406   6.071   2.696   0.232
 8836SOL    HW127407   6.114   2.609   0.212
 8836SOL    HW227408   6.082   2.758   0.154
 8837SOL     OW27409   0.151   6.776   1.896
 8837SOL    HW127410   0.104   6.722   1.966
 8837SOL    HW227411   0.120   6.747   1.806
 8838SOL     OW27412   0.991   3.907   2.675
 8838SOL    HW127413   0.903   3.871   2.644
 8838SOL    HW227414   1.004   3.999   2.636
 8839SOL     OW27415   4.832   5.182   2.445
 8839SOL    HW127416   4.885   5.220   2.521
 8839SOL    HW227417   4.763   5.247   2.416
 8840SOL     OW27418   6.195   0.521   2.096
 8840SOL    HW127419   6.100   0.549   2.084
 8840SOL    HW227420   6.255   0.598   2.076
 8841SOL     OW27421   3.996   0.946   2.086
 8841SOL    HW127422   3.918   0.894   2.051
 8841SOL    HW227423   3.971   0.990   2.172
 8842SOL     OW27424   3.262   4.033   3.935
 8842SOL    HW127425   3.341   4.025   3.995
 8842SOL    HW227426   3.180   4.001   3.982
 8843SOL     OW27427   1.939   3.214   4.933
 8843SOL    HW127428   1.959   3.282   5.003
 8843SOL    HW227429   1.984   3.128   4.956
 8844SOL     OW27430   6.539   2.130   5.598
 8844SOL    HW127431   6.594   2.129   5.681
 8844SOL    HW227432   6.596   2.104   5.520
 8845SOL     OW27433   2.170   5.205   1.128
 8845SOL    HW127434   2.245   5.157   1.083
 8845SOL    HW227435   2.195   5.301   1.142
 8846SOL     OW27436   5.891   4.757   4.365
 8846SOL    HW127437   5.890   4.679   4.302
 8846SOL    HW227438   5.815   4.818   4.344
 8847SOL     OW27439   1.363   1.202   2.277
 8847SOL    HW127440   1.332   1.297   2.279
 8847SOL    HW227441   1.463   1.200   2.276
 8848SOL     OW27442   3.147   1.736   1.964
 8848SOL    HW127443   3.133   1.834   1.948
 8848SOL    HW227444   3.074   1.701   2.023
 8849SOL     OW27445   2.617   5.328   3.800
 8849SOL    HW127446   2.557   5.280   3.864
 8849SOL    HW227447   2.569   5.343   3.714
 8850SOL     OW27448   2.602   1.429   0.453
 8850SOL    HW127449   2.555   1.346   0.424
 8850SOL    HW227450   2.697   1.408   0.477
 8851SOL     OW27451   0.765   4.408   2.848
 8851SOL    HW127452   0.692   4.420   2.916
 8851SOL    HW227453   0.765   4.485   2.785
 8852SOL     OW27454   5.142   2.954   6.425
 8852SOL    HW127455   5.062   2.904   6.456
 8852SOL    HW227456   5.117   3.013   6.348
 8853SOL     OW27457   3.353   0.831   4.955
 8853SOL    HW127458   3.438   0.780   4.961
 8853SOL    HW227459   3.372   0.929   4.960
 8854SOL     OW27460   2.190   0.260   5.796
 8854SOL    HW127461   2.232   0.170   5.805
 8854SOL    HW227462   2.187   0.304   5.886
 8855SOL     OW27463   6.001   5.631   6.713
 8855SOL    HW127464   5.945   5.548   6.715
 8855SOL    HW227465   6.094   5.608   6.687
 8856SOL     OW27466   6.664   0.357   4.649
 8856SOL    HW127467   6.642   0.403   4.735
 8856SOL    HW227468   6.689   0.262   4.668
 8857SOL     OW27469   6.204   1.974   3.167
 8857SOL    HW127470   6.263   2.055   3.161
 8857SOL    HW227471   6.189   1.951   3.264
 8858SOL     OW27472   1.465   3.530   6.081
 8858SOL    HW127473   1.393   3.595   6.055
 8858SOL    HW227474   1.552   3.579   6.090
 8859SOL     OW27475   0.948   0.078   5.107
 8859SOL    HW127476   1.016   0.061   5.036
 8859SOL    HW227477   0.907   0.168   5.093
 8860SOL     OW27478   1.559   3.794   2.433
 8860SOL    HW127479   1.486   3.752   2.486
 8860SOL    HW227480   1.617   3.723   2.392
 8861SOL     OW27481   3.473   2.794   6.370
 8861SOL    HW127482   3.439   2.883   6.340
 8861SOL    HW227483   3.434   2.722   6.313
 8862SOL     OW27484   6.005   1.574   4.319
 8862SOL    HW127485   5.909   1.593   4.296
 8862SOL    HW227486   6.048   1.525   4.243
 8863SOL     OW27487   2.198   5.727   4.575
 8863SOL    HW127488   2.134   5.652   4.591
 8863SOL    HW227489   2.171   5.806   4.630
 8864SOL     OW27490   2.054   2.956   6.564
 8864SOL    HW127491   2.009   3.045   6.567
 8864SOL    HW227492   1.989   2.887   6.530
 8865SOL     OW27493   3.043   0.728   4.401
 8865SOL    HW127494   2.996   0.743   4.314
 8865SOL    HW227495   2.998   0.782   4.472
 8866SOL     OW27496   4.325   6.720   3.183
 8866SOL    HW127497   4.380   6.719   3.266
 8866SOL    HW227498   4.349   6.640   3.127
 8867SOL     OW27499   5.716   2.605   2.865
 8867SOL    HW127500   5.766   2.645   2.788
 8867SOL    HW227501   5.623   2.640   2.865
 8868SOL     OW27502   5.090   3.509   0.376
 8868SOL    HW127503   5.014   3.525   0.439
 8868SOL    HW227504   5.140   3.595   0.362
 8869SOL     OW27505   4.708   4.461   3.192
 8869SOL    HW127506   4.805   4.485   3.196
 8869SOL    HW227507   4.673   4.481   3.100
 8870SOL     OW27508   3.417   0.296   1.009
 8870SOL    HW127509   3.411   0.202   0.974
 8870SOL    HW227510   3.470   0.352   0.946
 8871SOL     OW27511   2.943   1.695   3.659
 8871SOL    HW127512   2.946   1.661   3.753
 8871SOL    HW227513   2.965   1.621   3.595
 8872SOL     OW27514   1.735   4.071   4.369
 8872SOL    HW127515   1.743   4.044   4.465
 8872SOL    HW227516   1.697   3.996   4.316
 8873SOL     OW27517   6.528   5.975   2.349
 8873SOL    HW127518   6.562   6.048   2.409
 8873SOL    HW227519   6.526   6.007   2.255
 8874SOL     OW27520   2.182   6.973   1.317
 8874SOL    HW127521   2.184   6.896   1.380
 8874SOL    HW227522   2.087   6.998   1.297
 8875SOL     OW27523   1.152   2.803   4.591
 8875SOL    HW127524   1.178   2.763   4.679
 8875SOL    HW227525   1.132   2.900   4.603
 8876SOL     OW27526   6.888   0.014   4.565
 8876SOL    HW127527   6.922   7.021   4.473
 8876SOL    HW227528   6.963   0.042   4.624
 8877SOL     OW27529   2.718   0.625   4.349
 8877SOL    HW127530   2.724   0.538   4.300
 8877SOL    HW227531   2.704   0.607   4.447
 8878SOL     OW27532   0.336   5.021   0.981
 8878SOL    HW127533   0.289   5.072   1.053
 8878SOL    HW227534   0.416   5.073   0.950
 8879SOL     OW27535   5.183   5.199   1.188
 8879SOL    HW127536   5.276   5.196   1.151
 8879SOL    HW227537   5.172   5.281   1.244
 8880SOL     OW27538   0.597   5.385   4.903
 8880SOL    HW127539   0.536   5.434   4.966
 8880SOL    HW227540   0.688   5.377   4.945
 8881SOL     OW27541   5.741   0.655   3.424
 8881SOL    HW127542   5.749   0.596   3.504
 8881SOL    HW227543   5.796   0.738   3.439
 8882SOL     OW27544   5.211   0.762   0.107
 8882SOL    HW127545   5.298   0.805   0.129
 8882SOL    HW227546   5.140   0.833   0.098
 8883SOL     OW27547   0.507   1.307   6.288
 8883SOL    HW127548   0.581   1.268   6.233
 8883SOL    HW227549   0.420   1.265   6.261
 8884SOL     OW27550   5.600   6.430   6.579
 8884SOL    HW127551   5.643   6.344   6.608
 8884SOL    HW227552   5.564   6.419   6.487
 8885SOL     OW27553   6.127   3.715   1.150
 8885SOL    HW127554   6.190   3.766   1.210
 8885SOL    HW227555   6.034   3.749   1.163
 8886SOL     OW27556   3.008   5.854   5.298
 8886SOL    HW127557   3.051   5.904   5.373
 8886SOL    HW227558   2.913   5.884   5.289
 8887SOL     OW27559   3.125   0.910   0.734
 8887SOL    HW127560   3.128   0.996   0.683
 8887SOL    HW227561   3.137   0.834   0.670
 8888SOL     OW27562   1.557   2.075   1.095
 8888SOL    HW127563   1.499   1.994   1.091
 8888SOL    HW227564   1.535   2.127   1.178
 8889SOL     OW27565   4.944   6.477   5.733
 8889SOL    HW127566   4.921   6.452   5.827
 8889SOL    HW227567   5.042   6.489   5.724
 8890SOL     OW27568   6.508   6.007   4.987
 8890SOL    HW127569   6.557   6.073   4.929
 8890SOL    HW227570   6.573   5.965   5.050
 8891SOL     OW27571   5.870   3.003   5.706
 8891SOL    HW127572   5.775   2.971   5.707
 8891SOL    HW227573   5.910   2.990   5.797
 8892SOL     OW27574   2.883   6.779   3.600
 8892SOL    HW127575   2.855   6.819   3.513
 8892SOL    HW227576   2.822   6.703   3.623
 8893SOL     OW27577   0.436   0.934   2.318
 8893SOL    HW127578   0.500   0.989   2.263
 8893SOL    HW227579   0.474   0.922   2.409
 8894SOL     OW27580   4.375   2.976   6.168
 8894SOL    HW127581   4.421   3.017   6.247
 8894SOL    HW227582   4.441   2.926   6.113
 8895SOL     OW27583   0.249   0.817   2.184
 8895SOL    HW127584   0.309   0.865   2.249
 8895SOL    HW227585   0.258   0.718   2.198
 8896SOL     OW27586   1.092   3.586   4.801
 8896SOL    HW127587   1.143   3.502   4.818
 8896SOL    HW227588   1.136   3.638   4.728
 8897SOL     OW27589   1.634   1.476   1.946
 8897SOL    HW127590   1.618   1.477   2.045
 8897SOL    HW227591   1.687   1.557   1.921
 8898SOL     OW27592   6.307   3.313   4.545
 8898SOL    HW127593   6.250   3.240   4.584
 8898SOL    HW227594   6.328   3.380   4.616
 8899SOL     OW27595   1.783   4.210   6.563
 8899SOL    HW127596   1.855   4.279   6.556
 8899SOL    HW227597   1.759   4.196   6.659
 8900SOL     OW27598   5.653   3.360   3.180
 8900SOL    HW127599   5.683   3.415   3.102
 8900SOL    HW227600   5.575   3.304   3.152
 8901SOL     OW27601   2.431   0.751   3.655
 8901SOL    HW127602   2.335   0.764   3.678
 8901SOL    HW227603   2.472   0.839   3.632
 8902SOL     OW27604   2.881   5.752   6.013
 8902SOL    HW127605   2.874   5.754   6.113
 8902SOL    HW227606   2.803   5.702   5.976
 8903SOL     OW27607   2.313   1.624   3.932
 8903SOL    HW127608   2.259   1.650   4.012
 8903SOL    HW227609   2.410   1.633   3.953
 8904SOL     OW27610   6.739   4.709   3.498
 8904SOL    HW127611   6.746   4.751   3.588
 8904SOL    HW227612   6.654   4.738   3.454
 8905SOL     OW27613   1.782   4.419   4.847
 8905SOL    HW127614   1.766   4.407   4.749
 8905SOL    HW227615   1.839   4.500   4.862
 8906SOL     OW27616   6.751   0.157   6.628
 8906SOL    HW127617   6.709   0.176   6.539
 8906SOL    HW227618   6.680   0.126   6.692
 8907SOL     OW27619   3.395   2.106   5.137
 8907SOL    HW127620   3.396   2.072   5.231
 8907SOL    HW227621   3.303   2.139   5.115
 8908SOL     OW27622   1.626   2.762   0.569
 8908SOL    HW127623   1.578   2.847   0.591
 8908SOL    HW227624   1.565   2.702   0.518
 8909SOL     OW27625   2.064   0.753   5.277
 8909SOL    HW127626   2.091   0.660   5.250
 8909SOL    HW227627   2.115   0.820   5.223
 8910SOL     OW27628   1.979   2.994   5.923
 8910SOL    HW127629   1.955   2.963   6.015
 8910SOL    HW227630   2.020   3.085   5.928
 8911SOL     OW27631   3.544   2.113   4.552
 8911SOL    HW127632   3.466   2.133   4.611
 8911SOL    HW227633   3.612   2.061   4.603
 8912SOL     OW27634   4.049   1.310   6.752
 8912SOL    HW127635   4.131   1.263   6.717
 8912SOL    HW227636   4.061   1.328   6.849
 8913SOL     OW27637   5.033   4.351   1.584
 8913SOL    HW127638   5.128   4.382   1.582
 8913SOL    HW227639   4.999   4.341   1.490
 8914SOL     OW27640   4.685   1.241   5.824
 8914SOL    HW127641   4.659   1.169   5.889
 8914SOL    HW227642   4.659   1.214   5.732
 8915SOL     OW27643   1.369   2.396   3.946
 8915SOL    HW127644   1.304   2.343   4.000
 8915SOL    HW227645   1.373   2.490   3.981
 8916SOL     OW27646   0.181   3.538   1.829
 8916SOL    HW127647   0.177   3.635   1.855
 8916SOL    HW227648   0.158   3.481   1.908
 8917SOL     OW27649   5.863   4.772   6.193
 8917SOL    HW127650   5.939   4.712   6.167
 8917SOL    HW227651   5.892   4.868   6.183
 8918SOL     OW27652   6.728   6.142   0.164
 8918SOL    HW127653   6.811   6.194   0.185
 8918SOL    HW227654   6.733   6.108   0.070
 8919SOL     OW27655   4.216   3.680   0.682
 8919SOL    HW127656   4.224   3.582   0.704
 8919SOL    HW227657   4.196   3.690   0.585
 8920SOL     OW27658   6.780   6.214   6.525
 8920SOL    HW127659   6.696   6.262   6.500
 8920SOL    HW227660   6.804   6.149   6.453
 8921SOL     OW27661   1.686   1.616   2.795
 8921SOL    HW127662   1.721   1.696   2.746
 8921SOL    HW227663   1.760   1.550   2.807
 8922SOL     OW27664   2.320   5.305   0.621
 8922SOL    HW127665   2.241   5.297   0.560
 8922SOL    HW227666   2.399   5.260   0.579
 8923SOL     OW27667   2.289   3.825   6.278
 8923SOL    HW127668   2.252   3.883   6.351
 8923SOL    HW227669   2.223   3.821   6.202
 8924SOL     OW27670   3.068   5.634   5.500
 8924SOL    HW127671   3.045   5.713   5.444
 8924SOL    HW227672   3.120   5.664   5.580
 8925SOL     OW27673   0.884   1.048   2.220
 8925SOL    HW127674   0.880   1.020   2.124
 8925SOL    HW227675   0.878   1.148   2.226
 8926SOL     OW27676   5.495   2.669   1.009
 8926SOL    HW127677   5.517   2.764   0.987
 8926SOL    HW227678   5.527   2.648   1.101
 8927SOL     OW27679   2.658   2.352   4.712
 8927SOL    HW127680   2.657   2.358   4.812
 8927SOL    HW227681   2.622   2.263   4.684
 8928SOL     OW27682   0.093   0.991   5.166
 8928SOL    HW127683   0.183   0.996   5.208
 8928SOL    HW227684   0.102   0.992   5.066
 8929SOL     OW27685   0.330   3.495   3.879
 8929SOL    HW127686   0.411   3.547   3.907
 8929SOL    HW227687   0.265   3.556   3.834
 8930SOL     OW27688   1.824   4.946   4.884
 8930SOL    HW127689   1.922   4.961   4.893
 8930SOL    HW227690   1.779   4.971   4.970
 8931SOL     OW27691   4.273   2.683   0.803
 8931SOL    HW127692   4.228   2.613   0.859
 8931SOL    HW227693   4.208   2.719   0.735
 8932SOL     OW27694   5.230   6.963   6.750
 8932SOL    HW127695   5.322   6.934   6.776
 8932SOL    HW227696   5.205   6.922   6.662
 8933SOL     OW27697   0.882   1.767   5.493
 8933SOL    HW127698   0.899   1.799   5.586
 8933SOL    HW227699   0.946   1.694   5.470
 8934SOL     OW27700   2.779   5.362   3.024
 8934SOL    HW127701   2.784   5.452   2.980
 8934SOL    HW227702   2.778   5.373   3.123
 8935SOL     OW27703   4.939   3.389   2.327
 8935SOL    HW127704   4.890   3.303   2.337
 8935SOL    HW227705   4.920   3.429   2.237
 8936SOL     OW27706   0.554   3.498   0.864
 8936SOL    HW127707   0.589   3.426   0.805
 8936SOL    HW227708   0.595   3.490   0.955
 8937SOL     OW27709   0.532   0.797   3.927
 8937SOL    HW127710   0.554   0.756   3.838
 8937SOL    HW227711   0.608   0.853   3.957
 8938SOL     OW27712   6.074   1.310   0.547
 8938SOL    HW127713   5.999   1.260   0.505
 8938SOL    HW227714   6.111   1.258   0.624
 8939SOL     OW27715   6.446   3.193   4.811
 8939SOL    HW127716   6.372   3.126   4.815
 8939SOL    HW227717   6.527   3.150   4.771
 8940SOL     OW27718   6.150   2.821   7.008
 8940SOL    HW127719   6.224   2.768   6.967
 8940SOL    HW227720   6.132   2.903   6.953
 8941SOL     OW27721   5.201   2.052   1.797
 8941SOL    HW127722   5.128   2.120   1.791
 8941SOL    HW227723   5.233   2.029   1.705
 8942SOL     OW27724   0.221   4.828   4.009
 8942SOL    HW127725   0.216   4.762   4.084
 8942SOL    HW227726   0.156   4.902   4.025
 8943SOL     OW27727   4.369   4.245   0.245
 8943SOL    HW127728   4.425   4.167   0.217
 8943SOL    HW227729   4.347   4.238   0.342
 8944SOL     OW27730   4.859   4.965   4.012
 8944SOL    HW127731   4.785   5.021   4.048
 8944SOL    HW227732   4.945   4.993   4.054
 8945SOL     OW27733   6.599   3.311   5.004
 8945SOL    HW127734   6.552   3.262   4.931
 8945SOL    HW227735   6.671   3.369   4.966
 8946SOL     OW27736   4.445   0.393   4.801
 8946SOL    HW127737   4.471   0.489   4.800
 8946SOL    HW227738   4.498   0.344   4.732
 8947SOL     OW27739   1.408   4.385   6.610
 8947SOL    HW127740   1.350   4.402   6.531
 8947SOL    HW227741   1.410   4.287   6.629
 8948SOL     OW27742   6.675   6.048   4.184
 8948SOL    HW127743   6.758   6.057   4.239
 8948SOL    HW227744   6.603   6.104   4.225
 8949SOL     OW27745   3.975   5.879   0.074
 8949SOL    HW127746   3.994   5.974   0.098
 8949SOL    HW227747   3.900   5.845   0.131
 8950SOL     OW27748   4.771   3.883   1.009
 8950SOL    HW127749   4.741   3.937   1.088
 8950SOL    HW227750   4.733   3.791   1.015
 8951SOL     OW27751   1.991   0.948   3.807
 8951SOL    HW127752   1.915   0.924   3.868
 8951SOL    HW227753   2.074   0.962   3.861
 8952SOL     OW27754   2.235   4.325   3.688
 8952SOL    HW127755   2.294   4.362   3.617
 8952SOL    HW227756   2.141   4.317   3.653
 8953SOL     OW27757   2.598   5.219   1.529
 8953SOL    HW127758   2.615   5.138   1.473
 8953SOL    HW227759   2.512   5.261   1.501
 8954SOL     OW27760   1.048   5.888   4.127
 8954SOL    HW127761   1.092   5.804   4.098
 8954SOL    HW227762   1.012   5.937   4.047
 8955SOL     OW27763   6.525   2.882   2.580
 8955SOL    HW127764   6.426   2.869   2.569
 8955SOL    HW227765   6.548   2.880   2.677
 8956SOL     OW27766   0.456   6.876   6.766
 8956SOL    HW127767   0.477   6.845   6.673
 8956SOL    HW227768   0.422   6.970   6.763
 8957SOL     OW27769   1.460   5.346   1.746
 8957SOL    HW127770   1.419   5.400   1.673
 8957SOL    HW227771   1.411   5.259   1.754
 8958SOL     OW27772   1.346   3.383   5.123
 8958SOL    HW127773   1.359   3.481   5.106
 8958SOL    HW227774   1.346   3.367   5.222
 8959SOL     OW27775   1.080   3.469   2.080
 8959SOL    HW127776   1.000   3.528   2.082
 8959SOL    HW227777   1.060   3.383   2.128
 8960SOL     OW27778   6.672   4.263   3.985
 8960SOL    HW127779   6.743   4.284   3.919
 8960SOL    HW227780   6.582   4.283   3.945
 8961SOL     OW27781   2.996   0.106   4.207
 8961SOL    HW127782   2.964   0.085   4.115
 8961SOL    HW227783   3.031   0.023   4.250
 8962SOL     OW27784   0.953   6.063   1.554
 8962SOL    HW127785   0.980   5.967   1.550
 8962SOL    HW227786   0.864   6.075   1.509
 8963SOL     OW27787   3.438   5.689   4.696
 8963SOL    HW127788   3.443   5.590   4.685
 8963SOL    HW227789   3.342   5.718   4.702
 8964SOL     OW27790   5.759   3.997   2.932
 8964SOL    HW127791   5.764   3.921   2.867
 8964SOL    HW227792   5.664   4.029   2.938
 8965SOL     OW27793   3.430   4.809   0.369
 8965SOL    HW127794   3.382   4.763   0.294
 8965SOL    HW227795   3.491   4.745   0.415
 8966SOL     OW27796   6.522   5.533   6.015
 8966SOL    HW127797   6.443   5.499   6.066
 8966SOL    HW227798   6.605   5.489   6.050
 8967SOL     OW27799   3.732   0.603   3.767
 8967SOL    HW127800   3.736   0.507   3.794
 8967SOL    HW227801   3.676   0.612   3.685
 8968SOL     OW27802   2.401   4.782   1.776
 8968SOL    HW127803   2.458   4.737   1.844
 8968SOL    HW227804   2.332   4.717   1.742
 8969SOL     OW27805   0.139   6.923   3.366
 8969SOL    HW127806   0.069   6.978   3.410
 8969SOL    HW227807   0.229   6.945   3.406
 8970SOL     OW27808   1.592   2.414   5.917
 8970SOL    HW127809   1.556   2.464   5.838
 8970SOL    HW227810   1.612   2.479   5.990
 8971SOL     OW27811   4.391   6.691   1.200
 8971SOL    HW127812   4.424   6.785   1.201
 8971SOL    HW227813   4.336   6.675   1.119
 8972SOL     OW27814   5.474   4.835   0.081
 8972SOL    HW127815   5.546   4.867   0.143
 8972SOL    HW227816   5.460   4.903   0.009
 8973SOL     OW27817   0.490   2.611   2.053
 8973SOL    HW127818   0.408   2.555   2.038
 8973SOL    HW227819   0.561   2.584   1.989
 8974SOL     OW27820   2.110   3.591   4.063
 8974SOL    HW127821   2.050   3.661   4.102
 8974SOL    HW227822   2.102   3.507   4.117
 8975SOL     OW27823   0.333   6.541   6.342
 8975SOL    HW127824   0.363   6.531   6.437
 8975SOL    HW227825   0.246   6.590   6.341
 8976SOL     OW27826   6.065   6.316   1.140
 8976SOL    HW127827   6.090   6.330   1.236
 8976SOL    HW227828   6.112   6.383   1.083
 8977SOL     OW27829   6.952   5.334   6.295
 8977SOL    HW127830   0.011   5.387   6.274
 8977SOL    HW227831   6.897   5.384   6.361
 8978SOL     OW27832   5.600   6.179   5.361
 8978SOL    HW127833   5.678   6.120   5.380
 8978SOL    HW227834   5.583   6.238   5.439
 8979SOL     OW27835   1.057   5.503   6.272
 8979SOL    HW127836   1.146   5.517   6.230
 8979SOL    HW227837   1.051   5.409   6.307
 8980SOL     OW27838   4.534   2.021   5.997
 8980SOL    HW127839   4.463   2.091   6.000
 8980SOL    HW227840   4.509   1.945   6.056
 8981SOL     OW27841   4.751   1.953   5.853
 8981SOL    HW127842   4.761   1.994   5.763
 8981SOL    HW227843   4.685   2.006   5.907
 8982SOL     OW27844   6.051   1.532   1.686
 8982SOL    HW127845   6.068   1.621   1.644
 8982SOL    HW227846   6.136   1.495   1.722
 8983SOL     OW27847   1.236   5.115   2.285
 8983SOL    HW127848   1.235   5.212   2.310
 8983SOL    HW227849   1.252   5.060   2.367
 8984SOL     OW27850   5.585   0.276   4.382
 8984SOL    HW127851   5.511   0.263   4.317
 8984SOL    HW227852   5.563   0.350   4.445
 8985SOL     OW27853   4.823   1.776   1.015
 8985SOL    HW127854   4.744   1.799   1.071
 8985SOL    HW227855   4.860   1.859   0.973
 8986SOL     OW27856   5.294   4.431   1.577
 8986SOL    HW127857   5.316   4.344   1.533
 8986SOL    HW227858   5.303   4.420   1.676
 8987SOL     OW27859   2.842   0.386   1.094
 8987SOL    HW127860   2.927   0.389   1.042
 8987SOL    HW227861   2.849   0.448   1.173
 8988SOL     OW27862   1.824   5.487   1.008
 8988SOL    HW127863   1.902   5.536   1.048
 8988SOL    HW227864   1.744   5.547   1.009
 8989SOL     OW27865   5.221   2.898   3.079
 8989SOL    HW127866   5.304   2.929   3.032
 8989SOL    HW227867   5.177   2.827   3.024
 8990SOL     OW27868   2.882   6.235   0.421
 8990SOL    HW127869   2.813   6.162   0.413
 8990SOL    HW227870   2.838   6.318   0.457
 8991SOL     OW27871   2.290   2.878   0.719
 8991SOL    HW127872   2.341   2.911   0.798
 8991SOL    HW227873   2.193   2.897   0.731
 8992SOL     OW27874   0.289   3.251   0.675
 8992SOL    HW127875   0.380   3.283   0.648
 8992SOL    HW227876   0.220   3.300   0.622
 8993SOL     OW27877   4.741   1.996   4.031
 8993SOL    HW127878   4.776   1.910   3.993
 8993SOL    HW227879   4.814   2.046   4.076
 8994SOL     OW27880   1.587   5.135   4.536
 8994SOL    HW127881   1.605   5.072   4.461
 8994SOL    HW227882   1.489   5.141   4.553
 8995SOL     OW27883   1.043   2.712   5.108
 8995SOL    HW127884   1.031   2.807   5.137
 8995SOL    HW227885   0.964   2.683   5.055
 8996SOL     OW27886   0.379   3.967   1.120
 8996SOL    HW127887   0.342   3.926   1.036
 8996SOL    HW227888   0.478   3.972   1.114
 8997SOL     OW27889   5.226   1.048   5.854
 8997SOL    HW127890   5.322   1.049   5.826
 8997SOL    HW227891   5.191   0.954   5.850
 8998SOL     OW27892   0.063   2.457   5.166
 8998SOL    HW127893   0.075   2.454   5.067
 8998SOL    HW227894   0.016   2.542   5.191
 8999SOL     OW27895   5.018   1.159   6.206
 8999SOL    HW127896   4.937   1.170   6.148
 8999SOL    HW227897   5.100   1.183   6.154
 9000SOL     OW27898   3.205   3.898   6.750
 9000SOL    HW127899   3.185   3.920   6.845
 9000SOL    HW227900   3.267   3.819   6.747
 9001SOL     OW27901   1.715   4.823   3.448
 9001SOL    HW127902   1.742   4.753   3.514
 9001SOL    HW227903   1.644   4.787   3.387
 9002SOL     OW27904   6.683   5.251   5.603
 9002SOL    HW127905   6.682   5.230   5.701
 9002SOL    HW227906   6.767   5.215   5.562
 9003SOL     OW27907   6.608   2.390   0.324
 9003SOL    HW127908   6.566   2.346   0.245
 9003SOL    HW227909   6.690   2.440   0.296
 9004SOL     OW27910   5.221   6.642   1.556
 9004SOL    HW127911   5.256   6.585   1.630
 9004SOL    HW227912   5.271   6.621   1.472
 9005SOL     OW27913   5.217   1.847   4.345
 9005SOL    HW127914   5.303   1.804   4.373
 9005SOL    HW227915   5.187   1.808   4.258
 9006SOL     OW27916   1.431   5.371   1.232
 9006SOL    HW127917   1.420   5.290   1.291
 9006SOL    HW227918   1.434   5.343   1.136
 9007SOL     OW27919   2.802   5.005   3.516
 9007SOL    HW127920   2.808   5.066   3.595
 9007SOL    HW227921   2.777   5.057   3.435
 9008SOL     OW27922   6.977   4.445   2.430
 9008SOL    HW127923   6.978   4.351   2.397
 9008SOL    HW227924   6.919   4.451   2.511
 9009SOL     OW27925   2.644   6.984   0.984
 9009SOL    HW127926   2.674   0.051   1.012
 9009SOL    HW227927   2.631   6.982   0.885
 9010SOL     OW27928   1.083   6.288   4.696
 9010SOL    HW127929   1.140   6.261   4.774
 9010SOL    HW227930   1.098   6.225   4.620
 9011SOL     OW27931   4.008   1.922   1.369
 9011SOL    HW127932   4.065   1.930   1.450
 9011SOL    HW227933   3.923   1.972   1.383
 9012SOL     OW27934   1.432   4.986   0.806
 9012SOL    HW127935   1.366   4.910   0.807
 9012SOL    HW227936   1.516   4.958   0.853
 9013SOL     OW27937   6.725   5.795   4.436
 9013SOL    HW127938   6.766   5.870   4.382
 9013SOL    HW227939   6.735   5.709   4.386
 9014SOL     OW27940   1.492   1.325   6.967
 9014SOL    HW127941   1.566   1.342   6.902
 9014SOL    HW227942   1.460   1.412   7.005
 9015SOL     OW27943   0.257   1.250   6.528
 9015SOL    HW127944   0.320   1.203   6.590
 9015SOL    HW227945   0.296   1.338   6.502
 9016SOL     OW27946   6.581   6.542   5.884
 9016SOL    HW127947   6.544   6.552   5.791
 9016SOL    HW227948   6.509   6.564   5.950
 9017SOL     OW27949   6.126   1.920   4.216
 9017SOL    HW127950   6.110   1.930   4.314
 9017SOL    HW227951   6.055   1.861   4.177
 9018SOL     OW27952   3.705   0.975   5.014
 9018SOL    HW127953   3.789   1.018   4.980
 9018SOL    HW227954   3.627   1.010   4.963
 9019SOL     OW27955   2.619   6.348   6.762
 9019SOL    HW127956   2.552   6.357   6.688
 9019SOL    HW227957   2.637   6.251   6.779
 9020SOL     OW27958   1.583   4.588   2.313
 9020SOL    HW127959   1.649   4.514   2.321
 9020SOL    HW227960   1.526   4.592   2.395
 9021SOL     OW27961   6.743   6.719   3.952
 9021SOL    HW127962   6.679   6.644   3.965
 9021SOL    HW227963   6.831   6.683   3.921
 9022SOL     OW27964   2.527   0.200   0.369
 9022SOL    HW127965   2.440   0.189   0.322
 9022SOL    HW227966   2.510   0.234   0.462
 9023SOL     OW27967   3.137   3.478   3.705
 9023SOL    HW127968   3.235   3.496   3.693
 9023SOL    HW227969   3.089   3.565   3.719
 9024SOL     OW27970   1.732   6.024   6.186
 9024SOL    HW127971   1.730   5.927   6.212
 9024SOL    HW227972   1.814   6.043   6.132
 9025SOL     OW27973   6.314   5.222   1.344
 9025SOL    HW127974   6.402   5.264   1.365
 9025SOL    HW227975   6.241   5.290   1.355
 9026SOL     OW27976   4.026   3.282   4.430
 9026SOL    HW127977   3.969   3.231   4.365
 9026SOL    HW227978   4.018   3.240   4.520
 9027SOL     OW27979   3.093   2.082   3.048
 9027SOL    HW127980   3.019   2.148   3.035
 9027SOL    HW227981   3.180   2.132   3.059
 9028SOL     OW27982   2.040   4.661   6.319
 9028SOL    HW127983   2.117   4.630   6.375
 9028SOL    HW227984   2.039   4.610   6.233
 9029SOL     OW27985   4.196   4.813   4.840
 9029SOL    HW127986   4.254   4.872   4.896
 9029SOL    HW227987   4.205   4.718   4.872
 9030SOL     OW27988   2.327   0.816   2.689
 9030SOL    HW127989   2.259   0.887   2.667
 9030SOL    HW227990   2.415   0.841   2.648
 9031SOL     OW27991   2.770   5.998   5.333
 9031SOL    HW127992   2.758   5.973   5.429
 9031SOL    HW227993   2.829   6.078   5.326
 9032SOL     OW27994   3.085   2.525   1.484
 9032SOL    HW127995   3.122   2.548   1.574
 9032SOL    HW227996   3.054   2.608   1.439
 9033SOL     OW27997   2.159   3.239   4.350
 9033SOL    HW127998   2.162   3.145   4.318
 9033SOL    HW227999   2.094   3.291   4.294
 9034SOL     OW28000   2.747   6.714   5.062
 9034SOL    HW128001   2.684   6.753   5.128
 9034SOL    HW228002   2.718   6.739   4.969
 9035SOL     OW28003   0.166   6.836   5.188
 9035SOL    HW128004   0.133   6.742   5.196
 9035SOL    HW228005   0.185   6.873   5.279
 9036SOL     OW28006   2.279   2.464   5.184
 9036SOL    HW128007   2.311   2.555   5.160
 9036SOL    HW228008   2.209   2.472   5.255
 9037SOL     OW28009   2.143   3.979   6.454
 9037SOL    HW128010   2.044   3.992   6.447
 9037SOL    HW228011   2.178   4.034   6.531
 9038SOL     OW28012   5.446   1.164   6.477
 9038SOL    HW128013   5.395   1.249   6.468
 9038SOL    HW228014   5.398   1.091   6.427
 9039SOL     OW28015   1.445   4.467   5.421
 9039SOL    HW128016   1.540   4.456   5.451
 9039SOL    HW228017   1.399   4.532   5.482
 9040SOL     OW28018   2.950   0.828   2.994
 9040SOL    HW128019   2.893   0.754   2.959
 9040SOL    HW228020   2.967   0.894   2.921
 9041SOL     OW28021   0.566   1.913   1.854
 9041SOL    HW128022   0.560   2.013   1.857
 9041SOL    HW228023   0.506   1.874   1.925
 9042SOL     OW28024   2.678   6.629   3.223
 9042SOL    HW128025   2.646   6.664   3.311
 9042SOL    HW228026   2.707   6.534   3.233
 9043SOL     OW28027   1.810   2.104   5.796
 9043SOL    HW128028   1.877   2.097   5.723
 9043SOL    HW228029   1.731   2.157   5.764
 9044SOL     OW28030   5.872   0.696   0.573
 9044SOL    HW128031   5.954   0.723   0.522
 9044SOL    HW228032   5.804   0.659   0.510
 9045SOL     OW28033   3.697   0.586   3.199
 9045SOL    HW128034   3.722   0.652   3.270
 9045SOL    HW228035   3.633   0.519   3.236
 9046SOL     OW28036   3.301   4.290   5.404
 9046SOL    HW128037   3.264   4.201   5.430
 9046SOL    HW228038   3.255   4.362   5.457
 9047SOL     OW28039   1.950   4.069   5.210
 9047SOL    HW128040   2.013   3.992   5.219
 9047SOL    HW228041   1.917   4.074   5.116
 9048SOL     OW28042   1.732   3.622   6.128
 9048SOL    HW128043   1.812   3.564   6.110
 9048SOL    HW228044   1.742   3.708   6.078
 9049SOL     OW28045   5.159   6.179   6.288
 9049SOL    HW128046   5.153   6.106   6.356
 9049SOL    HW228047   5.096   6.253   6.312
 9050SOL     OW28048   0.900   5.170   0.218
 9050SOL    HW128049   0.900   5.250   0.158
 9050SOL    HW228050   0.988   5.165   0.266
 9051SOL     OW28051   4.287   6.186   0.682
 9051SOL    HW128052   4.275   6.260   0.748
 9051SOL    HW228053   4.219   6.194   0.609
 9052SOL     OW28054   2.796   4.737   4.579
 9052SOL    HW128055   2.886   4.738   4.622
 9052SOL    HW228056   2.727   4.707   4.646
 9053SOL     OW28057   2.435   2.607   4.033
 9053SOL    HW128058   2.492   2.555   4.097
 9053SOL    HW228059   2.393   2.684   4.082
 9054SOL     OW28060   1.987   0.385   1.977
 9054SOL    HW128061   1.992   0.469   1.924
 9054SOL    HW228062   1.894   0.348   1.972
 9055SOL     OW28063   0.678   3.281   3.726
 9055SOL    HW128064   0.704   3.272   3.822
 9055SOL    HW228065   0.760   3.294   3.670
 9056SOL     OW28066   5.327   0.656   1.616
 9056SOL    HW128067   5.351   0.583   1.551
 9056SOL    HW228068   5.405   0.718   1.626
 9057SOL     OW28069   5.997   4.939   6.739
 9057SOL    HW128070   6.003   4.881   6.658
 9057SOL    HW228071   6.031   4.889   6.819
 9058SOL     OW28072   1.821   1.898   4.558
 9058SOL    HW128073   1.749   1.932   4.619
 9058SOL    HW228074   1.872   1.975   4.521
 9059SOL     OW28075   6.134   0.828   3.264
 9059SOL    HW128076   6.080   0.774   3.200
 9059SOL    HW228077   6.155   0.917   3.224
 9060SOL     OW28078   6.545   3.557   2.070
 9060SOL    HW128079   6.630   3.611   2.071
 9060SOL    HW228080   6.479   3.601   2.009
 9061SOL     OW28081   4.699   5.251   3.341
 9061SOL    HW128082   4.746   5.333   3.373
 9061SOL    HW228083   4.629   5.275   3.274
 9062SOL     OW28084   1.136   4.895   2.162
 9062SOL    HW128085   1.170   4.974   2.213
 9062SOL    HW228086   1.207   4.824   2.161
 9063SOL     OW28087   2.931   1.470   2.500
 9063SOL    HW128088   2.933   1.384   2.448
 9063SOL    HW228089   2.907   1.450   2.595
 9064SOL     OW28090   6.724   4.492   4.236
 9064SOL    HW128091   6.817   4.502   4.201
 9064SOL    HW228092   6.674   4.428   4.178
 9065SOL     OW28093   2.498   6.034   5.234
 9065SOL    HW128094   2.444   6.062   5.313
 9065SOL    HW228095   2.587   5.999   5.263
 9066SOL     OW28096   6.460   0.113   6.156
 9066SOL    HW128097   6.394   0.057   6.106
 9066SOL    HW228098   6.479   0.196   6.104
 9067SOL     OW28099   6.651   6.182   4.846
 9067SOL    HW128100   6.689   6.155   4.757
 9067SOL    HW228101   6.670   6.279   4.862
 9068SOL     OW28102   4.207   0.268   4.804
 9068SOL    HW128103   4.159   0.344   4.846
 9068SOL    HW228104   4.297   0.299   4.772
 9069SOL     OW28105   5.282   2.470   2.449
 9069SOL    HW128106   5.254   2.374   2.447
 9069SOL    HW228107   5.205   2.528   2.473
 9070SOL     OW28108   1.706   2.126   6.237
 9070SOL    HW128109   1.693   2.216   6.277
 9070SOL    HW228110   1.804   2.104   6.236
 9071SOL     OW28111   5.170   0.768   6.157
 9071SOL    HW128112   5.188   0.808   6.068
 9071SOL    HW228113   5.204   0.829   6.229
 9072SOL     OW28114   4.891   6.986   1.825
 9072SOL    HW128115   4.837   0.031   1.874
 9072SOL    HW228116   4.988   7.005   1.836
 9073SOL     OW28117   4.284   6.936   0.513
 9073SOL    HW128118   4.185   6.944   0.528
 9073SOL    HW228119   4.333   6.976   0.590
 9074SOL     OW28120   1.664   0.678   1.080
 9074SOL    HW128121   1.568   0.702   1.067
 9074SOL    HW228122   1.712   0.754   1.126
 9075SOL     OW28123   6.796   0.804   2.373
 9075SOL    HW128124   6.835   0.805   2.464
 9075SOL    HW228125   6.853   0.747   2.313
 9076SOL     OW28126   4.842   1.495   3.781
 9076SOL    HW128127   4.746   1.474   3.798
 9076SOL    HW228128   4.867   1.464   3.689
 9077SOL     OW28129   4.714   1.297   6.203
 9077SOL    HW128130   4.768   1.379   6.216
 9077SOL    HW228131   4.663   1.276   6.287
 9078SOL     OW28132   5.455   5.214   6.396
 9078SOL    HW128133   5.487   5.296   6.443
 9078SOL    HW228134   5.425   5.238   6.304
 9079SOL     OW28135   1.335   0.358   5.076
 9079SOL    HW128136   1.298   0.266   5.088
 9079SOL    HW228137   1.435   0.354   5.072
 9080SOL     OW28138   6.326   3.014   6.740
 9080SOL    HW128139   6.367   2.934   6.695
 9080SOL    HW228140   6.393   3.088   6.744
 9081SOL     OW28141   3.486   1.670   1.527
 9081SOL    HW128142   3.470   1.767   1.506
 9081SOL    HW228143   3.405   1.616   1.501
 9082SOL     OW28144   2.629   6.566   4.677
 9082SOL    HW128145   2.611   6.591   4.583
 9082SOL    HW228146   2.570   6.490   4.704
 9083SOL     OW28147   4.537   4.687   6.186
 9083SOL    HW128148   4.593   4.604   6.182
 9083SOL    HW228149   4.548   4.739   6.101
 9084SOL     OW28150   0.492   2.219   6.102
 9084SOL    HW128151   0.487   2.258   6.194
 9084SOL    HW228152   0.565   2.265   6.050
 9085SOL     OW28153   2.651   5.722   1.173
 9085SOL    HW128154   2.657   5.747   1.270
 9085SOL    HW228155   2.570   5.762   1.132
 9086SOL     OW28156   6.212   4.117   0.900
 9086SOL    HW128157   6.145   4.063   0.851
 9086SOL    HW228158   6.304   4.094   0.867
 9087SOL     OW28159   5.662   3.117   2.767
 9087SOL    HW128160   5.659   3.179   2.845
 9087SOL    HW228161   5.646   3.024   2.798
 9088SOL     OW28162   5.748   6.851   1.816
 9088SOL    HW128163   5.782   6.769   1.861
 9088SOL    HW228164   5.701   6.908   1.883
 9089SOL     OW28165   4.461   5.760   4.477
 9089SOL    HW128166   4.417   5.741   4.564
 9089SOL    HW228167   4.548   5.709   4.472
 9090SOL     OW28168   5.086   6.308   4.808
 9090SOL    HW128169   5.182   6.291   4.785
 9090SOL    HW228170   5.032   6.227   4.785
 9091SOL     OW28171   2.990   2.486   0.846
 9091SOL    HW128172   3.041   2.449   0.768
 9091SOL    HW228173   3.053   2.512   0.918
 9092SOL     OW28174   1.512   0.775   6.335
 9092SOL    HW128175   1.459   0.725   6.267
 9092SOL    HW228176   1.490   0.872   6.330
 9093SOL     OW28177   1.702   6.438   6.987
 9093SOL    HW128178   1.712   6.504   6.912
 9093SOL    HW228179   1.611   6.397   6.983
 9094SOL     OW28180   0.679   5.427   2.932
 9094SOL    HW128181   0.651   5.520   2.906
 9094SOL    HW228182   0.762   5.402   2.881
 9095SOL     OW28183   5.463   3.998   6.261
 9095SOL    HW128184   5.475   4.007   6.162
 9095SOL    HW228185   5.371   4.028   6.286
 9096SOL     OW28186   4.893   3.284   2.798
 9096SOL    HW128187   4.918   3.329   2.884
 9096SOL    HW228188   4.951   3.317   2.724
 9097SOL     OW28189   0.393   3.319   0.213
 9097SOL    HW128190   0.345   3.378   0.279
 9097SOL    HW228191   0.346   3.322   0.125
 9098SOL     OW28192   3.539   3.138   0.732
 9098SOL    HW128193   3.588   3.053   0.753
 9098SOL    HW228194   3.605   3.212   0.721
 9099SOL     OW28195   3.295   3.262   0.687
 9099SOL    HW128196   3.249   3.215   0.612
 9099SOL    HW228197   3.374   3.207   0.716
 9100SOL     OW28198   0.644   2.788   2.545
 9100SOL    HW128199   0.741   2.808   2.558
 9100SOL    HW228200   0.630   2.743   2.457
 9101SOL     OW28201   2.228   2.960   2.461
 9101SOL    HW128202   2.281   2.909   2.393
 9101SOL    HW228203   2.204   3.049   2.424
 9102SOL     OW28204   3.506   6.194   1.840
 9102SOL    HW128205   3.581   6.154   1.788
 9102SOL    HW228206   3.465   6.269   1.787
 9103SOL     OW28207   6.728   3.748   0.305
 9103SOL    HW128208   6.748   3.703   0.392
 9103SOL    HW228209   6.810   3.793   0.270
 9104SOL     OW28210   3.875   6.192   2.150
 9104SOL    HW128211   3.881   6.207   2.052
 9104SOL    HW228212   3.899   6.276   2.199
 9105SOL     OW28213   1.458   0.828   0.441
 9105SOL    HW128214   1.469   0.820   0.342
 9105SOL    HW228215   1.380   0.888   0.462
 9106SOL     OW28216   5.472   3.987   6.626
 9106SOL    HW128217   5.512   4.053   6.563
 9106SOL    HW228218   5.398   4.030   6.677
 9107SOL     OW28219   4.304   0.339   6.536
 9107SOL    HW128220   4.255   0.317   6.451
 9107SOL    HW228221   4.251   0.305   6.614
 9108SOL     OW28222   4.561   4.597   5.643
 9108SOL    HW128223   4.640   4.586   5.582
 9108SOL    HW228224   4.543   4.512   5.691
 9109SOL     OW28225   1.302   2.574   2.796
 9109SOL    HW128226   1.362   2.645   2.832
 9109SOL    HW228227   1.214   2.578   2.843
 9110SOL     OW28228   2.069   4.278   4.170
 9110SOL    HW128229   2.114   4.280   4.081
 9110SOL    HW228230   2.111   4.347   4.230
 9111SOL     OW28231   4.495   3.687   0.532
 9111SOL    HW128232   4.514   3.748   0.454
 9111SOL    HW228233   4.396   3.683   0.547
 9112SOL     OW28234   0.549   4.844   4.566
 9112SOL    HW128235   0.530   4.940   4.546
 9112SOL    HW228236   0.565   4.794   4.481
 9113SOL     OW28237   4.286   6.401   0.857
 9113SOL    HW128238   4.333   6.404   0.945
 9113SOL    HW228239   4.271   6.494   0.824
 9114SOL     OW28240   1.889   5.072   1.647
 9114SOL    HW128241   1.925   5.012   1.719
 9114SOL    HW228242   1.852   5.017   1.572
 9115SOL     OW28243   1.033   5.796   5.838
 9115SOL    HW128244   1.011   5.839   5.750
 9115SOL    HW228245   1.103   5.850   5.885
 9116SOL     OW28246   6.372   2.422   0.665
 9116SOL    HW128247   6.312   2.501   0.657
 9116SOL    HW228248   6.318   2.339   0.678
 9117SOL     OW28249   5.817   3.003   6.982
 9117SOL    HW128250   5.903   3.021   6.933
 9117SOL    HW228251   5.789   3.086   0.007
 9118SOL     OW28252   6.554   5.695   0.774
 9118SOL    HW128253   6.497   5.665   0.850
 9118SOL    HW228254   6.498   5.743   0.707
 9119SOL     OW28255   5.195   1.529   2.771
 9119SOL    HW128256   5.246   1.488   2.696
 9119SOL    HW228257   5.149   1.612   2.739
 9120SOL     OW28258   5.599   3.390   5.522
 9120SOL    HW128259   5.611   3.318   5.590
 9120SOL    HW228260   5.502   3.395   5.497
 9121SOL     OW28261   1.817   2.860   6.841
 9121SOL    HW128262   1.915   2.865   6.857
 9121SOL    HW228263   1.788   2.764   6.838
 9122SOL     OW28264   1.556   3.006   1.996
 9122SOL    HW128265   1.614   3.084   1.975
 9122SOL    HW228266   1.550   2.946   1.917
 9123SOL     OW28267   3.820   0.382   4.484
 9123SOL    HW128268   3.907   0.338   4.507
 9123SOL    HW228269   3.752   0.360   4.555
 9124SOL     OW28270   5.546   6.977   5.571
 9124SOL    HW128271   5.551   7.014   5.479
 9124SOL    HW228272   5.451   6.979   5.603
 9125SOL     OW28273   5.211   3.469   2.302
 9125SOL    HW128274   5.114   3.443   2.303
 9125SOL    HW228275   5.251   3.443   2.215
 9126SOL     OW28276   5.643   2.105   2.288
 9126SOL    HW128277   5.684   2.045   2.357
 9126SOL    HW228278   5.629   2.054   2.203
 9127SOL     OW28279   6.466   1.212   5.925
 9127SOL    HW128280   6.444   1.306   5.899
 9127SOL    HW228281   6.542   1.178   5.869
 9128SOL     OW28282   4.181   1.380   5.162
 9128SOL    HW128283   4.081   1.371   5.161
 9128SOL    HW228284   4.206   1.469   5.200
 9129SOL     OW28285   0.639   3.001   1.492
 9129SOL    HW128286   0.546   2.966   1.507
 9129SOL    HW228287   0.660   2.998   1.394
 9130SOL     OW28288   6.828   3.283   0.731
 9130SOL    HW128289   6.832   3.227   0.649
 9130SOL    HW228290   6.920   3.313   0.756
 9131SOL     OW28291   0.051   3.114   6.242
 9131SOL    HW128292   0.096   3.190   6.290
 9131SOL    HW228293   0.105   3.089   6.161
 9132SOL     OW28294   0.205   5.029   4.617
 9132SOL    HW128295   0.190   4.946   4.563
 9132SOL    HW228296   0.299   5.061   4.603
 9133SOL     OW28297   3.589   6.268   1.393
 9133SOL    HW128298   3.607   6.312   1.480
 9133SOL    HW228299   3.658   6.197   1.376
 9134SOL     OW28300   4.241   5.778   0.197
 9134SOL    HW128301   4.157   5.819   0.162
 9134SOL    HW228302   4.288   5.843   0.258
 9135SOL     OW28303   6.444   5.975   1.902
 9135SOL    HW128304   6.498   6.055   1.929
 9135SOL    HW228305   6.397   5.938   1.982
 9136SOL     OW28306   5.517   5.142   5.774
 9136SOL    HW128307   5.581   5.183   5.708
 9136SOL    HW228308   5.436   5.200   5.783
 9137SOL     OW28309   4.920   2.390   1.262
 9137SOL    HW128310   5.003   2.423   1.217
 9137SOL    HW228311   4.934   2.295   1.290
 9138SOL     OW28312   6.392   5.565   5.774
 9138SOL    HW128313   6.407   5.475   5.813
 9138SOL    HW228314   6.294   5.588   5.779
 9139SOL     OW28315   2.438   1.863   4.553
 9139SOL    HW128316   2.447   1.765   4.531
 9139SOL    HW228317   2.346   1.881   4.587
 9140SOL     OW28318   6.154   2.779   2.665
 9140SOL    HW128319   6.172   2.861   2.611
 9140SOL    HW228320   6.164   2.698   2.607
 9141SOL     OW28321   5.812   0.350   6.677
 9141SOL    HW128322   5.757   0.363   6.594
 9141SOL    HW228323   5.756   0.307   6.747
 9142SOL     OW28324   1.003   2.228   1.013
 9142SOL    HW128325   1.037   2.283   0.936
 9142SOL    HW228326   0.903   2.221   1.006
 9143SOL     OW28327   5.335   2.943   1.116
 9143SOL    HW128328   5.375   2.968   1.027
 9143SOL    HW228329   5.280   2.861   1.106
 9144SOL     OW28330   2.547   5.459   5.611
 9144SOL    HW128331   2.485   5.470   5.688
 9144SOL    HW228332   2.536   5.367   5.573
 9145SOL     OW28333   6.566   5.437   0.069
 9145SOL    HW128334   6.565   5.491   0.153
 9145SOL    HW228335   6.497   5.364   0.076
 9146SOL     OW28336   5.189   2.743   2.876
 9146SOL    HW128337   5.176   2.644   2.876
 9146SOL    HW228338   5.142   2.784   2.798
 9147SOL     OW28339   6.081   0.033   3.867
 9147SOL    HW128340   6.123   0.060   3.780
 9147SOL    HW228341   5.999   0.087   3.882
 9148SOL     OW28342   5.042   6.329   0.590
 9148SOL    HW128343   5.024   6.279   0.675
 9148SOL    HW228344   5.120   6.390   0.604
 9149SOL     OW28345   5.335   3.107   3.506
 9149SOL    HW128346   5.427   3.119   3.546
 9149SOL    HW228347   5.337   3.032   3.440
 9150SOL     OW28348   2.815   5.252   2.635
 9150SOL    HW128349   2.858   5.184   2.694
 9150SOL    HW228350   2.832   5.229   2.539
 9151SOL     OW28351   1.804   4.504   3.870
 9151SOL    HW128352   1.808   4.432   3.939
 9151SOL    HW228353   1.786   4.592   3.914
 9152SOL     OW28354   2.414   4.823   4.984
 9152SOL    HW128355   2.332   4.791   5.033
 9152SOL    HW228356   2.469   4.879   5.045
 9153SOL     OW28357   0.877   3.087   1.074
 9153SOL    HW128358   0.947   3.080   1.145
 9153SOL    HW228359   0.844   3.181   1.068
 9154SOL     OW28360   4.490   5.206   6.204
 9154SOL    HW128361   4.398   5.232   6.176
 9154SOL    HW228362   4.486   5.150   6.287
 9155SOL     OW28363   1.282   3.429   1.707
 9155SOL    HW128364   1.182   3.435   1.707
 9155SOL    HW228365   1.317   3.461   1.619
 9156SOL     OW28366   1.353   2.608   1.035
 9156SOL    HW128367   1.317   2.664   1.109
 9156SOL    HW228368   1.425   2.659   0.987
 9157SOL     OW28369   6.807   4.551   6.265
 9157SOL    HW128370   6.837   4.574   6.357
 9157SOL    HW228371   6.789   4.452   6.259
 9158SOL     OW28372   5.674   3.566   4.516
 9158SOL    HW128373   5.596   3.512   4.545
 9158SOL    HW228374   5.694   3.548   4.420
 9159SOL     OW28375   1.990   0.094   2.238
 9159SOL    HW128376   2.065   0.033   2.266
 9159SOL    HW228377   2.023   0.188   2.237
 9160SOL     OW28378   6.352   0.637   5.046
 9160SOL    HW128379   6.430   0.583   5.013
 9160SOL    HW228380   6.336   0.618   5.142
 9161SOL     OW28381   4.562   4.422   4.818
 9161SOL    HW128382   4.580   4.427   4.719
 9161SOL    HW228383   4.466   4.441   4.835
 9162SOL     OW28384   4.545   0.658   4.762
 9162SOL    HW128385   4.532   0.634   4.666
 9162SOL    HW228386   4.582   0.751   4.768
 9163SOL     OW28387   1.659   2.994   4.392
 9163SOL    HW128388   1.599   2.916   4.408
 9163SOL    HW228389   1.723   2.972   4.318
 9164SOL     OW28390   2.585   1.005   6.667
 9164SOL    HW128391   2.679   1.039   6.680
 9164SOL    HW228392   2.521   1.081   6.681
 9165SOL     OW28393   5.778   1.996   5.574
 9165SOL    HW128394   5.843   2.027   5.505
 9165SOL    HW228395   5.691   2.045   5.563
 9166SOL     OW28396   3.967   6.035   0.941
 9166SOL    HW128397   3.953   6.076   0.851
 9166SOL    HW228398   3.992   5.939   0.931
 9167SOL     OW28399   2.228   2.487   6.823
 9167SOL    HW128400   2.300   2.556   6.822
 9167SOL    HW228401   2.149   2.522   6.875
 9168SOL     OW28402   6.988   0.021   6.545
 9168SOL    HW128403   6.979   6.953   6.583
 9168SOL    HW228404   6.897   0.059   6.530
 9169SOL     OW28405   5.914   1.221   4.510
 9169SOL    HW128406   6.006   1.198   4.478
 9169SOL    HW228407   5.854   1.142   4.498
 9170SOL     OW28408   1.386   5.588   6.779
 9170SOL    HW128409   1.373   5.578   6.681
 9170SOL    HW228410   1.474   5.551   6.806
 9171SOL     OW28411   3.966   5.219   0.904
 9171SOL    HW128412   3.895   5.257   0.844
 9171SOL    HW228413   4.039   5.178   0.849
 9172SOL     OW28414   3.501   1.002   3.921
 9172SOL    HW128415   3.427   1.004   3.853
 9172SOL    HW228416   3.462   1.005   4.013
 9173SOL     OW28417   6.557   3.747   4.747
 9173SOL    HW128418   6.633   3.742   4.683
 9173SOL    HW228419   6.576   3.817   4.816
 9174SOL     OW28420   5.517   3.360   1.628
 9174SOL    HW128421   5.493   3.306   1.709
 9174SOL    HW228422   5.450   3.432   1.614
 9175SOL     OW28423   0.492   0.463   4.886
 9175SOL    HW128424   0.588   0.443   4.867
 9175SOL    HW228425   0.484   0.554   4.927
 9176SOL     OW28426   2.871   1.096   5.359
 9176SOL    HW128427   2.934   1.173   5.367
 9176SOL    HW228428   2.855   1.056   5.449
 9177SOL     OW28429   0.749   5.109   4.981
 9177SOL    HW128430   0.755   5.010   4.996
 9177SOL    HW228431   0.654   5.135   4.967
 9178SOL     OW28432   1.676   5.370   0.315
 9178SOL    HW128433   1.623   5.344   0.234
 9178SOL    HW228434   1.763   5.321   0.314
 9179SOL     OW28435   2.903   5.054   4.570
 9179SOL    HW128436   2.823   5.007   4.608
 9179SOL    HW228437   2.907   5.147   4.606
 9180SOL     OW28438   6.260   2.480   2.994
 9180SOL    HW128439   6.335   2.541   2.971
 9180SOL    HW228440   6.226   2.436   2.911
 9181SOL     OW28441   4.378   1.917   5.267
 9181SOL    HW128442   4.365   1.991   5.202
 9181SOL    HW228443   4.394   1.954   5.358
 9182SOL     OW28444   2.581   6.674   2.138
 9182SOL    HW128445   2.565   6.762   2.183
 9182SOL    HW228446   2.676   6.647   2.152
 9183SOL     OW28447   4.792   5.809   0.732
 9183SOL    HW128448   4.795   5.898   0.687
 9183SOL    HW228449   4.880   5.792   0.776
 9184SOL     OW28450   4.784   1.321   0.988
 9184SOL    HW128451   4.857   1.316   1.056
 9184SOL    HW228452   4.781   1.413   0.949
 9185SOL     OW28453   4.179   6.804   4.326
 9185SOL    HW128454   4.135   6.763   4.406
 9185SOL    HW228455   4.216   6.731   4.268
 9186SOL     OW28456   5.848   5.901   4.184
 9186SOL    HW128457   5.806   5.989   4.205
 9186SOL    HW228458   5.942   5.899   4.220
 9187SOL     OW28459   2.575   1.717   0.733
 9187SOL    HW128460   2.662   1.684   0.770
 9187SOL    HW228461   2.521   1.756   0.808
 9188SOL     OW28462   1.311   6.486   1.555
 9188SOL    HW128463   1.409   6.484   1.532
 9188SOL    HW228464   1.277   6.579   1.546
 9189SOL     OW28465   4.475   5.818   1.652
 9189SOL    HW128466   4.506   5.913   1.651
 9189SOL    HW228467   4.376   5.815   1.663
 9190SOL     OW28468   2.979   4.497   6.328
 9190SOL    HW128469   3.058   4.451   6.288
 9190SOL    HW228470   2.916   4.525   6.256
 9191SOL     OW28471   6.551   2.768   5.980
 9191SOL    HW128472   6.567   2.839   6.048
 9191SOL    HW228473   6.503   2.691   6.023
 9192SOL     OW28474   0.828   3.202   6.281
 9192SOL    HW128475   0.760   3.262   6.238
 9192SOL    HW228476   0.847   3.124   6.221
 9193SOL     OW28477   4.708   4.278   6.923
 9193SOL    HW128478   4.656   4.194   6.912
 9193SOL    HW228479   4.663   4.337   6.991
 9194SOL     OW28480   3.055   0.567   3.494
 9194SOL    HW128481   3.131   0.571   3.429
 9194SOL    HW228482   2.983   0.508   3.458
 9195SOL     OW28483   1.625   1.783   3.823
 9195SOL    HW128484   1.579   1.811   3.908
 9195SOL    HW228485   1.568   1.808   3.745
 9196SOL     OW28486   5.254   6.905   2.447
 9196SOL    HW128487   5.242   6.932   2.542
 9196SOL    HW228488   5.173   6.929   2.394
 9197SOL     OW28489   1.604   5.153   1.471
 9197SOL    HW128490   1.587   5.237   1.523
 9197SOL    HW228491   1.666   5.173   1.395
 9198SOL     OW28492   6.619   5.136   6.860
 9198SOL    HW128493   6.589   5.231   6.849
 9198SOL    HW228494   6.549   5.075   6.823
 9199SOL     OW28495   0.862   4.157   6.089
 9199SOL    HW128496   0.890   4.082   6.149
 9199SOL    HW228497   0.937   4.222   6.081
 9200SOL     OW28498   2.713   6.530   6.978
 9200SOL    HW128499   2.649   6.496   6.910
 9200SOL    HW228500   2.666   6.596   0.014
 9201SOL     OW28501   0.096   2.544   0.460
 9201SOL    HW128502   0.102   2.495   0.373
 9201SOL    HW228503   0.014   2.515   0.509
 9202SOL     OW28504   1.554   6.462   2.350
 9202SOL    HW128505   1.632   6.465   2.412
 9202SOL    HW228506   1.512   6.553   2.344
 9203SOL     OW28507   0.568   4.187   6.674
 9203SOL    HW128508   0.549   4.275   6.718
 9203SOL    HW228509   0.636   4.200   6.602
 9204SOL     OW28510   4.956   2.776   6.072
 9204SOL    HW128511   4.978   2.764   5.975
 9204SOL    HW228512   4.919   2.867   6.087
 9205SOL     OW28513   5.987   4.446   3.579
 9205SOL    HW128514   5.933   4.406   3.505
 9205SOL    HW228515   5.943   4.425   3.667
 9206SOL     OW28516   3.826   5.887   2.827
 9206SOL    HW128517   3.808   5.968   2.883
 9206SOL    HW228518   3.742   5.857   2.782
 9207SOL     OW28519   5.119   3.734   5.943
 9207SOL    HW128520   5.088   3.680   5.864
 9207SOL    HW228521   5.215   3.758   5.930
 9208SOL     OW28522   5.798   4.153   3.698
 9208SOL    HW128523   5.832   4.243   3.724
 9208SOL    HW228524   5.717   4.131   3.752
 9209SOL     OW28525   4.214   0.698   6.824
 9209SOL    HW128526   4.152   0.769   6.791
 9209SOL    HW228527   4.166   0.610   6.829
 9210SOL     OW28528   6.885   0.786   2.643
 9210SOL    HW128529   6.899   0.702   2.696
 9210SOL    HW228530   6.797   0.826   2.667
 9211SOL     OW28531   0.746   2.193   5.942
 9211SOL    HW128532   0.688   2.171   5.863
 9211SOL    HW228533   0.798   2.112   5.968
 9212SOL     OW28534   5.464   5.576   4.315
 9212SOL    HW128535   5.514   5.515   4.253
 9212SOL    HW228536   5.471   5.670   4.282
 9213SOL     OW28537   5.434   3.539   5.205
 9213SOL    HW128538   5.371   3.470   5.168
 9213SOL    HW228539   5.521   3.533   5.157
 9214SOL     OW28540   6.703   3.658   6.560
 9214SOL    HW128541   6.634   3.695   6.621
 9214SOL    HW228542   6.659   3.601   6.490
 9215SOL     OW28543   0.898   2.465   1.321
 9215SOL    HW128544   0.824   2.441   1.258
 9215SOL    HW228545   0.861   2.516   1.399
 9216SOL     OW28546   3.259   0.439   2.135
 9216SOL    HW128547   3.286   0.462   2.042
 9216SOL    HW228548   3.286   0.345   2.155
 9217SOL     OW28549   0.204   2.280   0.276
 9217SOL    HW128550   0.254   2.284   0.363
 9217SOL    HW228551   0.195   2.184   0.248
 9218SOL     OW28552   1.788   0.023   0.001
 9218SOL    HW128553   1.855   0.031   0.075
 9218SOL    HW228554   1.736   0.108   7.018
 9219SOL     OW28555   6.404   3.071   0.949
 9219SOL    HW128556   6.497   3.099   0.926
 9219SOL    HW228557   6.384   3.095   1.044
 9220SOL     OW28558   1.221   6.223   1.555
 9220SOL    HW128559   1.223   6.323   1.561
 9220SOL    HW228560   1.135   6.190   1.594
 9221SOL     OW28561   3.305   0.672   2.836
 9221SOL    HW128562   3.369   0.596   2.838
 9221SOL    HW228563   3.241   0.660   2.761
 9222SOL     OW28564   2.467   6.615   6.090
 9222SOL    HW128565   2.492   6.700   6.043
 9222SOL    HW228566   2.368   6.602   6.084
 9223SOL     OW28567   0.928   1.171   3.998
 9223SOL    HW128568   0.983   1.196   3.919
 9223SOL    HW228569   0.931   1.245   4.065
 9224SOL     OW28570   1.398   5.081   5.031
 9224SOL    HW128571   1.406   5.169   5.079
 9224SOL    HW228572   1.304   5.048   5.038
 9225SOL     OW28573   2.906   6.673   6.037
 9225SOL    HW128574   2.864   6.725   6.111
 9225SOL    HW228575   3.002   6.654   6.060
 9226SOL     OW28576   5.963   6.468   0.820
 9226SOL    HW128577   6.036   6.407   0.848
 9226SOL    HW228578   5.996   6.563   0.822
 9227SOL     OW28579   1.014   5.550   0.303
 9227SOL    HW128580   0.931   5.552   0.358
 9227SOL    HW228581   1.074   5.625   0.330
 9228SOL     OW28582   0.993   2.094   5.463
 9228SOL    HW128583   1.044   2.066   5.544
 9228SOL    HW228584   0.947   2.014   5.424
 9229SOL     OW28585   0.847   5.628   5.036
 9229SOL    HW128586   0.859   5.726   5.017
 9229SOL    HW228587   0.899   5.575   4.970
 9230SOL     OW28588   4.613   1.192   3.442
 9230SOL    HW128589   4.665   1.110   3.466
 9230SOL    HW228590   4.517   1.167   3.426
 9231SOL     OW28591   0.451   4.568   4.574
 9231SOL    HW128592   0.514   4.571   4.496
 9231SOL    HW228593   0.481   4.633   4.644
 9232SOL     OW28594   3.845   5.162   0.325
 9232SOL    HW128595   3.921   5.227   0.333
 9232SOL    HW228596   3.802   5.150   0.414
 9233SOL     OW28597   5.511   5.199   2.065
 9233SOL    HW128598   5.512   5.267   1.991
 9233SOL    HW228599   5.433   5.138   2.053
 9234SOL     OW28600   3.597   5.932   5.887
 9234SOL    HW128601   3.634   5.896   5.973
 9234SOL    HW228602   3.508   5.890   5.870
 9235SOL     OW28603   1.563   2.968   3.316
 9235SOL    HW128604   1.477   2.963   3.367
 9235SOL    HW228605   1.610   3.053   3.338
 9236SOL     OW28606   2.806   4.517   5.682
 9236SOL    HW128607   2.800   4.429   5.634
 9236SOL    HW228608   2.880   4.572   5.642
 9237SOL     OW28609   2.000   5.505   4.528
 9237SOL    HW128610   2.049   5.479   4.444
 9237SOL    HW228611   2.019   5.436   4.599
 9238SOL     OW28612   3.510   1.512   0.144
 9238SOL    HW128613   3.570   1.588   0.118
 9238SOL    HW228614   3.434   1.506   0.080
 9239SOL     OW28615   6.844   4.480   0.437
 9239SOL    HW128616   6.933   4.513   0.471
 9239SOL    HW228617   6.824   4.391   0.478
 9240SOL     OW28618   5.235   1.523   1.371
 9240SOL    HW128619   5.198   1.483   1.455
 9240SOL    HW228620   5.160   1.543   1.308
 9241SOL     OW28621   0.597   5.081   5.654
 9241SOL    HW128622   0.675   5.020   5.644
 9241SOL    HW228623   0.626   5.162   5.706
 9242SOL     OW28624   0.432   5.548   0.555
 9242SOL    HW128625   0.501   5.482   0.522
 9242SOL    HW228626   0.476   5.612   0.617
 9243SOL     OW28627   5.678   6.853   1.349
 9243SOL    HW128628   5.612   6.804   1.292
 9243SOL    HW228629   5.644   6.856   1.444
 9244SOL     OW28630   4.244   5.765   6.302
 9244SOL    HW128631   4.247   5.836   6.232
 9244SOL    HW228632   4.248   5.675   6.258
 9245SOL     OW28633   1.190   4.790   3.299
 9245SOL    HW128634   1.131   4.713   3.324
 9245SOL    HW228635   1.236   4.824   3.380
 9246SOL     OW28636   0.374   5.145   2.562
 9246SOL    HW128637   0.294   5.129   2.503
 9246SOL    HW228638   0.443   5.076   2.544
 9247SOL     OW28639   1.304   6.533   2.704
 9247SOL    HW128640   1.343   6.624   2.714
 9247SOL    HW228641   1.332   6.494   2.616
 9248SOL     OW28642   1.631   2.311   4.863
 9248SOL    HW128643   1.602   2.402   4.891
 9248SOL    HW228644   1.649   2.255   4.943
 9249SOL     OW28645   4.544   4.064   0.131
 9249SOL    HW128646   4.622   4.006   0.154
 9249SOL    HW228647   4.524   4.055   0.034
 9250SOL     OW28648   5.615   2.908   4.429
 9250SOL    HW128649   5.708   2.944   4.419
 9250SOL    HW228650   5.559   2.976   4.478
 9251SOL     OW28651   4.172   2.289   3.112
 9251SOL    HW128652   4.252   2.320   3.163
 9251SOL    HW228653   4.141   2.201   3.148
 9252SOL     OW28654   5.810   0.515   4.531
 9252SOL    HW128655   5.712   0.523   4.549
 9252SOL    HW228656   5.824   0.490   4.435
 9253SOL     OW28657   5.714   6.329   5.780
 9253SOL    HW128658   5.655   6.280   5.716
 9253SOL    HW228659   5.798   6.357   5.733
 9254SOL     OW28660   6.537   4.337   2.802
 9254SOL    HW128661   6.581   4.323   2.713
 9254SOL    HW228662   6.440   4.315   2.796
 9255SOL     OW28663   4.749   3.895   0.178
 9255SOL    HW128664   4.786   3.818   0.127
 9255SOL    HW228665   4.798   3.904   0.265
 9256SOL     OW28666   4.238   6.772   2.433
 9256SOL    HW128667   4.258   6.853   2.489
 9256SOL    HW228668   4.234   6.692   2.492
 9257SOL     OW28669   0.957   3.851   2.944
 9257SOL    HW128670   0.913   3.935   2.975
 9257SOL    HW228671   0.993   3.865   2.851
 9258SOL     OW28672   3.417   3.556   3.717
 9258SOL    HW128673   3.418   3.650   3.752
 9258SOL    HW228674   3.469   3.498   3.779
 9259SOL     OW28675   1.452   2.607   6.829
 9259SOL    HW128676   1.401   2.692   6.817
 9259SOL    HW228677   1.468   2.591   6.927
 9260SOL     OW28678   5.126   1.654   4.958
 9260SOL    HW128679   5.208   1.600   4.940
 9260SOL    HW228680   5.147   1.751   4.951
 9261SOL     OW28681   4.685   0.531   6.660
 9261SOL    HW128682   4.639   0.498   6.742
 9261SOL    HW228683   4.617   0.566   6.596
 9262SOL     OW28684   0.244   3.535   5.678
 9262SOL    HW128685   0.265   3.485   5.762
 9262SOL    HW228686   0.173   3.487   5.627
 9263SOL     OW28687   5.696   5.277   1.666
 9263SOL    HW128688   5.687   5.182   1.695
 9263SOL    HW228689   5.764   5.283   1.593
 9264SOL     OW28690   5.663   4.225   0.310
 9264SOL    HW128691   5.666   4.199   0.407
 9264SOL    HW228692   5.582   4.185   0.267
 9265SOL     OW28693   3.696   1.710   0.109
 9265SOL    HW128694   3.751   1.735   0.188
 9265SOL    HW228695   3.695   1.785   0.043
 9266SOL     OW28696   2.506   6.662   1.862
 9266SOL    HW128697   2.529   6.698   1.952
 9266SOL    HW228698   2.580   6.604   1.829
 9267SOL     OW28699   0.518   3.911   5.579
 9267SOL    HW128700   0.558   3.999   5.553
 9267SOL    HW228701   0.590   3.841   5.579
 9268SOL     OW28702   1.444   4.978   1.654
 9268SOL    HW128703   1.509   4.949   1.724
 9268SOL    HW228704   1.491   5.034   1.586
 9269SOL     OW28705   2.989   1.863   5.944
 9269SOL    HW128706   2.957   1.903   5.858
 9269SOL    HW228707   3.087   1.877   5.953
 9270SOL     OW28708   4.483   6.559   6.015
 9270SOL    HW128709   4.567   6.589   5.969
 9270SOL    HW228710   4.404   6.605   5.975
 9271SOL     OW28711   1.196   6.592   6.845
 9271SOL    HW128712   1.196   6.690   6.823
 9271SOL    HW228713   1.219   6.540   6.763
 9272SOL     OW28714   1.865   5.308   5.044
 9272SOL    HW128715   1.835   5.260   4.962
 9272SOL    HW228716   1.952   5.271   5.075
 9273SOL     OW28717   5.518   6.230   3.607
 9273SOL    HW128718   5.483   6.209   3.698
 9273SOL    HW228719   5.545   6.327   3.602
 9274SOL     OW28720   6.644   2.683   0.278
 9274SOL    HW128721   6.663   2.650   0.185
 9274SOL    HW228722   6.593   2.613   0.328
 9275SOL     OW28723   6.912   2.085   6.935
 9275SOL    HW128724   6.814   2.104   6.942
 9275SOL    HW228725   6.933   2.052   6.843
 9276SOL     OW28726   1.869   4.495   2.507
 9276SOL    HW128727   1.799   4.488   2.579
 9276SOL    HW228728   1.844   4.435   2.431
 9277SOL     OW28729   5.396   3.222   0.600
 9277SOL    HW128730   5.434   3.181   0.682
 9277SOL    HW228731   5.470   3.262   0.545
 9278SOL     OW28732   1.119   0.570   5.663
 9278SOL    HW128733   1.096   0.479   5.628
 9278SOL    HW228734   1.035   0.619   5.685
 9279SOL     OW28735   5.211   1.109   2.248
 9279SOL    HW128736   5.191   1.198   2.207
 9279SOL    HW228737   5.298   1.075   2.212
 9280SOL     OW28738   1.453   1.046   2.731
 9280SOL    HW128739   1.429   1.019   2.824
 9280SOL    HW228740   1.405   1.131   2.708
 9281SOL     OW28741   2.986   4.537   0.971
 9281SOL    HW128742   3.065   4.576   0.924
 9281SOL    HW228743   2.997   4.547   1.070
 9282SOL     OW28744   5.307   0.986   4.417
 9282SOL    HW128745   5.216   1.024   4.433
 9282SOL    HW228746   5.364   1.002   4.498
 9283SOL     OW28747   5.838   0.349   3.946
 9283SOL    HW128748   5.825   0.295   4.029
 9283SOL    HW228749   5.899   0.426   3.965
 9284SOL     OW28750   3.432   4.800   6.538
 9284SOL    HW128751   3.508   4.808   6.473
 9284SOL    HW228752   3.442   4.717   6.592
 9285SOL     OW28753   4.935   2.695   1.174
 9285SOL    HW128754   4.885   2.771   1.216
 9285SOL    HW228755   4.869   2.631   1.134
 9286SOL     OW28756   5.063   6.582   6.550
 9286SOL    HW128757   5.133   6.613   6.486
 9286SOL    HW228758   4.983   6.641   6.543
 9287SOL     OW28759   2.979   5.237   6.577
 9287SOL    HW128760   2.888   5.253   6.614
 9287SOL    HW228761   3.006   5.142   6.593
 9288SOL     OW28762   3.682   1.580   4.282
 9288SOL    HW128763   3.634   1.660   4.245
 9288SOL    HW228764   3.685   1.508   4.212
 9289SOL     OW28765   3.561   1.437   2.387
 9289SOL    HW128766   3.540   1.441   2.290
 9289SOL    HW228767   3.653   1.473   2.403
 9290SOL     OW28768   4.890   1.479   3.466
 9290SOL    HW128769   4.819   1.531   3.419
 9290SOL    HW228770   4.893   1.386   3.430
 9291SOL     OW28771   1.952   0.114   4.026
 9291SOL    HW128772   1.858   0.081   4.042
 9291SOL    HW228773   2.004   0.044   3.978
 9292SOL     OW28774   1.130   3.568   6.697
 9292SOL    HW128775   1.193   3.558   6.620
 9292SOL    HW228776   1.086   3.480   6.716
 9293SOL     OW28777   5.247   4.092   6.746
 9293SOL    HW128778   5.246   4.144   6.831
 9293SOL    HW228779   5.171   4.027   6.746
 9294SOL     OW28780   3.104   6.764   4.765
 9294SOL    HW128781   3.197   6.740   4.735
 9294SOL    HW228782   3.039   6.703   4.721
 9295SOL     OW28783   5.454   2.343   4.044
 9295SOL    HW128784   5.398   2.290   4.108
 9295SOL    HW228785   5.432   2.440   4.055
 9296SOL     OW28786   0.858   6.573   6.271
 9296SOL    HW128787   0.760   6.563   6.253
 9296SOL    HW228788   0.872   6.642   6.342
 9297SOL     OW28789   6.472   1.452   0.421
 9297SOL    HW128790   6.384   1.419   0.389
 9297SOL    HW228791   6.477   1.442   0.521
 9298SOL     OW28792   1.605   0.786   4.510
 9298SOL    HW128793   1.602   0.768   4.412
 9298SOL    HW228794   1.695   0.821   4.535
 9299SOL     OW28795   0.968   2.561   3.971
 9299SOL    HW128796   0.875   2.562   3.934
 9299SOL    HW228797   0.963   2.568   4.071
 9300SOL     OW28798   0.969   4.607   5.672
 9300SOL    HW128799   0.888   4.648   5.630
 9300SOL    HW228800   1.037   4.589   5.601
 9301SOL     OW28801   4.818   4.244   3.689
 9301SOL    HW128802   4.747   4.282   3.749
 9301SOL    HW228803   4.780   4.167   3.637
 9302SOL     OW28804   2.226   2.775   4.587
 9302SOL    HW128805   2.240   2.845   4.657
 9302SOL    HW228806   2.301   2.708   4.592
 9303SOL     OW28807   3.217   5.647   0.492
 9303SOL    HW128808   3.158   5.698   0.428
 9303SOL    HW228809   3.165   5.573   0.533
 9304SOL     OW28810   4.676   4.209   2.250
 9304SOL    HW128811   4.588   4.177   2.216
 9304SOL    HW228812   4.735   4.233   2.173
 9305SOL     OW28813   3.692   1.021   1.773
 9305SOL    HW128814   3.607   1.073   1.759
 9305SOL    HW228815   3.746   1.066   1.844
 9306SOL     OW28816   0.199   4.683   4.974
 9306SOL    HW128817   0.267   4.618   4.942
 9306SOL    HW228818   0.236   4.734   5.052
 9307SOL     OW28819   0.923   3.632   1.128
 9307SOL    HW128820   0.892   3.643   1.033
 9307SOL    HW228821   1.022   3.622   1.129
 9308SOL     OW28822   2.096   4.251   0.867
 9308SOL    HW128823   2.072   4.215   0.777
 9308SOL    HW228824   2.026   4.225   0.933
 9309SOL     OW28825   3.455   4.784   5.884
 9309SOL    HW128826   3.361   4.765   5.857
 9309SOL    HW228827   3.463   4.879   5.911
 9310SOL     OW28828   4.440   5.445   5.779
 9310SOL    HW128829   4.504   5.519   5.755
 9310SOL    HW228830   4.454   5.420   5.875
 9311SOL     OW28831   4.068   4.745   2.292
 9311SOL    HW128832   4.115   4.693   2.221
 9311SOL    HW228833   4.039   4.833   2.256
 9312SOL     OW28834   1.054   2.990   1.287
 9312SOL    HW128835   1.072   2.894   1.265
 9312SOL    HW228836   1.057   3.003   1.386
 9313SOL     OW28837   0.208   0.367   1.135
 9313SOL    HW128838   0.241   0.461   1.140
 9313SOL    HW228839   0.119   0.365   1.090
 9314SOL     OW28840   4.654   6.044   6.030
 9314SOL    HW128841   4.640   6.122   5.970
 9314SOL    HW228842   4.749   6.043   6.062
 9315SOL     OW28843   6.634   0.987   5.207
 9315SOL    HW128844   6.647   0.898   5.162
 9315SOL    HW228845   6.564   1.039   5.157
 9316SOL     OW28846   4.161   5.645   5.292
 9316SOL    HW128847   4.074   5.607   5.263
 9316SOL    HW228848   4.155   5.745   5.292
 9317SOL     OW28849   6.564   5.175   3.263
 9317SOL    HW128850   6.645   5.116   3.257
 9317SOL    HW228851   6.540   5.208   3.171
 9318SOL     OW28852   6.543   0.360   6.013
 9318SOL    HW128853   6.448   0.391   6.017
 9318SOL    HW228854   6.604   0.439   6.023
 9319SOL     OW28855   1.505   2.881   0.279
 9319SOL    HW128856   1.424   2.839   0.319
 9319SOL    HW228857   1.479   2.930   0.196
 9320SOL     OW28858   3.782   0.657   5.855
 9320SOL    HW128859   3.866   0.653   5.909
 9320SOL    HW228860   3.767   0.751   5.823
 9321SOL     OW28861   5.992   0.203   3.537
 9321SOL    HW128862   6.083   0.163   3.547
 9321SOL    HW228863   5.970   0.210   3.440
 9322SOL     OW28864   1.250   4.731   6.792
 9322SOL    HW128865   1.243   4.813   6.849
 9322SOL    HW228866   1.265   4.651   6.850
 9323SOL     OW28867   1.217   0.744   5.456
 9323SOL    HW128868   1.130   0.791   5.440
 9323SOL    HW228869   1.212   0.692   5.541
 9324SOL     OW28870   1.217   4.714   0.336
 9324SOL    HW128871   1.134   4.681   0.289
 9324SOL    HW228872   1.196   4.798   0.385
 9325SOL     OW28873   4.804   1.235   6.666
 9325SOL    HW128874   4.732   1.171   6.694
 9325SOL    HW228875   4.863   1.255   6.744
 9326SOL     OW28876   2.193   6.533   0.714
 9326SOL    HW128877   2.113   6.592   0.710
 9326SOL    HW228878   2.233   6.536   0.805
 9327SOL     OW28879   5.299   6.760   2.854
 9327SOL    HW128880   5.251   6.724   2.933
 9327SOL    HW228881   5.391   6.789   2.881
 9328SOL     OW28882   2.969   0.720   5.697
 9328SOL    HW128883   2.926   0.747   5.783
 9328SOL    HW228884   2.902   0.672   5.639
 9329SOL     OW28885   5.986   4.267   1.760
 9329SOL    HW128886   6.014   4.177   1.727
 9329SOL    HW228887   5.904   4.258   1.816
 9330SOL     OW28888   6.161   6.784   6.805
 9330SOL    HW128889   6.253   6.747   6.798
 9330SOL    HW228890   6.114   6.740   6.882
 9331SOL     OW28891   1.531   1.194   6.549
 9331SOL    HW128892   1.501   1.150   6.633
 9331SOL    HW228893   1.503   1.139   6.470
 9332SOL     OW28894   3.987   4.115   1.733
 9332SOL    HW128895   3.949   4.201   1.699
 9332SOL    HW228896   4.087   4.121   1.732
 9333SOL     OW28897   4.123   3.848   1.342
 9333SOL    HW128898   4.084   3.899   1.266
 9333SOL    HW228899   4.054   3.836   1.413
 9334SOL     OW28900   5.410   5.815   3.736
 9334SOL    HW128901   5.434   5.880   3.664
 9334SOL    HW228902   5.485   5.810   3.802
 9335SOL     OW28903   0.855   1.061   6.351
 9335SOL    HW128904   0.899   1.129   6.293
 9335SOL    HW228905   0.789   1.106   6.411
 9336SOL     OW28906   2.769   5.126   5.308
 9336SOL    HW128907   2.813   5.041   5.278
 9336SOL    HW228908   2.828   5.172   5.374
 9337SOL     OW28909   5.117   1.486   4.346
 9337SOL    HW128910   5.070   1.515   4.429
 9337SOL    HW228911   5.216   1.487   4.361
 9338SOL     OW28912   4.196   0.760   1.973
 9338SOL    HW128913   4.276   0.793   2.023
 9338SOL    HW228914   4.118   0.821   1.992
 9339SOL     OW28915   5.809   0.278   1.396
 9339SOL    HW128916   5.832   0.305   1.302
 9339SOL    HW228917   5.771   0.357   1.445
 9340SOL     OW28918   5.735   3.458   4.068
 9340SOL    HW128919   5.708   3.541   4.118
 9340SOL    HW228920   5.684   3.380   4.104
 9341SOL     OW28921   6.769   5.588   0.615
 9341SOL    HW128922   6.775   5.647   0.535
 9341SOL    HW228923   6.712   5.631   0.685
 9342SOL     OW28924   1.851   6.896   3.436
 9342SOL    HW128925   1.907   6.816   3.459
 9342SOL    HW228926   1.856   6.962   3.510
 9343SOL     OW28927   6.149   4.018   2.448
 9343SOL    HW128928   6.227   4.072   2.415
 9343SOL    HW228929   6.164   3.992   2.543
 9344SOL     OW28930   4.518   6.113   2.295
 9344SOL    HW128931   4.501   6.211   2.312
 9344SOL    HW228932   4.560   6.103   2.205
 9345SOL     OW28933   6.215   4.671   2.201
 9345SOL    HW128934   6.269   4.754   2.190
 9345SOL    HW228935   6.148   4.664   2.127
 9346SOL     OW28936   6.362   0.691   0.805
 9346SOL    HW128937   6.345   0.781   0.847
 9346SOL    HW228938   6.447   0.695   0.752
 9347SOL     OW28939   1.408   3.641   0.821
 9347SOL    HW128940   1.402   3.559   0.878
 9347SOL    HW228941   1.495   3.642   0.773
 9348SOL     OW28942   3.548   5.893   2.234
 9348SOL    HW128943   3.491   5.835   2.292
 9348SOL    HW228944   3.561   5.849   2.145
 9349SOL     OW28945   0.369   6.027   3.529
 9349SOL    HW128946   0.464   6.057   3.543
 9349SOL    HW228947   0.362   5.929   3.551
 9350SOL     OW28948   0.729   3.513   5.329
 9350SOL    HW128949   0.777   3.547   5.411
 9350SOL    HW228950   0.776   3.545   5.247
 9351SOL     OW28951   2.592   0.194   6.576
 9351SOL    HW128952   2.572   0.281   6.532
 9351SOL    HW228953   2.609   0.210   6.674
 9352SOL     OW28954   3.320   2.058   6.923
 9352SOL    HW128955   3.310   1.985   6.856
 9352SOL    HW228956   3.236   2.112   6.927
 9353SOL     OW28957   0.463   4.205   0.420
 9353SOL    HW128958   0.528   4.204   0.343
 9353SOL    HW228959   0.371   4.224   0.386
 9354SOL     OW28960   7.018   1.900   6.421
 9354SOL    HW128961   0.086   1.878   6.454
 9354SOL    HW228962   0.000   1.944   6.331
 9355SOL     OW28963   0.417   2.557   4.213
 9355SOL    HW128964   0.509   2.589   4.189
 9355SOL    HW228965   0.394   2.589   4.304
 9356SOL     OW28966   4.780   0.633   1.939
 9356SOL    HW128967   4.693   0.609   1.982
 9356SOL    HW228968   4.855   0.596   1.993
 9357SOL     OW28969   1.127   3.225   6.082
 9357SOL    HW128970   1.039   3.239   6.035
 9357SOL    HW228971   1.198   3.209   6.014
 9358SOL     OW28972   6.547   4.113   2.146
 9358SOL    HW128973   6.467   4.104   2.087
 9358SOL    HW228974   6.561   4.209   2.169
 9359SOL     OW28975   1.495   4.745   6.682
 9359SOL    HW128976   1.410   4.733   6.734
 9359SOL    HW228977   1.562   4.677   6.712
 9360SOL     OW28978   1.122   5.229   6.310
 9360SOL    HW128979   1.043   5.176   6.279
 9360SOL    HW228980   1.201   5.210   6.251
 9361SOL     OW28981   1.727   5.002   3.708
 9361SOL    HW128982   1.825   5.002   3.686
 9361SOL    HW228983   1.677   4.955   3.636
 9362SOL     OW28984   0.917   1.337   2.818
 9362SOL    HW128985   0.908   1.415   2.756
 9362SOL    HW228986   0.946   1.256   2.767
 9363SOL     OW28987   3.162   5.126   2.128
 9363SOL    HW128988   3.168   5.034   2.166
 9363SOL    HW228989   3.174   5.194   2.200
 9364SOL     OW28990   2.468   2.191   0.359
 9364SOL    HW128991   2.426   2.136   0.431
 9364SOL    HW228992   2.497   2.131   0.285
 9365SOL     OW28993   3.240   1.599   3.291
 9365SOL    HW128994   3.304   1.526   3.312
 9365SOL    HW228995   3.282   1.688   3.309
 9366SOL     OW28996   3.145   5.510   0.123
 9366SOL    HW128997   3.242   5.511   0.099
 9366SOL    HW228998   3.118   5.599   0.158
 9367SOL     OW28999   6.400   6.875   1.716
 9367SOL    HW129000   6.450   6.953   1.754
 9367SOL    HW229001   6.303   6.897   1.711
 9368SOL     OW29002   3.153   0.108   2.619
 9368SOL    HW129003   3.238   0.155   2.597
 9368SOL    HW229004   3.171   0.010   2.628
 9369SOL     OW29005   6.577   6.546   4.056
 9369SOL    HW129006   6.508   6.479   4.027
 9369SOL    HW229007   6.549   6.586   4.144
 9370SOL     OW29008   5.273   6.685   4.431
 9370SOL    HW129009   5.326   6.760   4.470
 9370SOL    HW229010   5.291   6.601   4.481
 9371SOL     OW29011   2.606   6.086   0.902
 9371SOL    HW129012   2.606   6.058   0.998
 9371SOL    HW229013   2.696   6.070   0.862
 9372SOL     OW29014   5.358   0.401   1.437
 9372SOL    HW129015   5.429   0.336   1.411
 9372SOL    HW229016   5.295   0.356   1.501
 9373SOL     OW29017   5.287   2.105   0.561
 9373SOL    HW129018   5.220   2.060   0.620
 9373SOL    HW229019   5.239   2.170   0.502
 9374SOL     OW29020   0.610   3.028   6.400
 9374SOL    HW129021   0.527   3.069   6.361
 9374SOL    HW229022   0.688   3.088   6.383
 9375SOL     OW29023   6.946   1.903   0.849
 9375SOL    HW129024   6.928   1.956   0.766
 9375SOL    HW229025   6.938   1.805   0.829
 9376SOL     OW29026   2.592   3.844   1.673
 9376SOL    HW129027   2.608   3.903   1.594
 9376SOL    HW229028   2.528   3.888   1.735
 9377SOL     OW29029   1.431   5.082   3.349
 9377SOL    HW129030   1.377   5.015   3.401
 9377SOL    HW229031   1.487   5.033   3.282
 9378SOL     OW29032   3.792   1.202   3.705
 9378SOL    HW129033   3.712   1.262   3.695
 9378SOL    HW229034   3.761   1.107   3.710
 9379SOL     OW29035   5.107   0.105   4.793
 9379SOL    HW129036   5.039   0.143   4.856
 9379SOL    HW229037   5.198   0.116   4.832
 9380SOL     OW29038   3.558   5.731   5.580
 9380SOL    HW129039   3.555   5.816   5.527
 9380SOL    HW229040   3.505   5.742   5.664
 9381SOL     OW29041   5.306   3.114   4.926
 9381SOL    HW129042   5.290   3.065   4.841
 9381SOL    HW229043   5.276   3.057   5.003
 9382SOL     OW29044   3.961   1.453   3.996
 9382SOL    HW129045   4.005   1.542   4.007
 9382SOL    HW229046   4.003   1.405   3.919
 9383SOL     OW29047   5.606   4.543   4.473
 9383SOL    HW129048   5.531   4.524   4.409
 9383SOL    HW229049   5.622   4.642   4.477
 9384SOL     OW29050   3.368   0.173   2.190
 9384SOL    HW129051   3.391   0.137   2.280
 9384SOL    HW229052   3.451   0.183   2.135
 9385SOL     OW29053   4.416   1.428   4.351
 9385SOL    HW129054   4.335   1.478   4.319
 9385SOL    HW229055   4.451   1.470   4.434
 9386SOL     OW29056   3.322   5.551   4.971
 9386SOL    HW129057   3.389   5.488   4.931
 9386SOL    HW229058   3.294   5.617   4.902
 9387SOL     OW29059   3.126   1.968   1.038
 9387SOL    HW129060   3.203   1.990   1.099
 9387SOL    HW229061   3.046   2.021   1.066
 9388SOL     OW29062   1.756   6.495   3.309
 9388SOL    HW129063   1.774   6.439   3.228
 9388SOL    HW229064   1.716   6.582   3.281
 9389SOL     OW29065   3.086   6.216   2.990
 9389SOL    HW129066   3.009   6.250   2.935
 9389SOL    HW229067   3.107   6.122   2.963
 9390SOL     OW29068   6.259   5.246   6.057
 9390SOL    HW129069   6.209   5.330   6.078
 9390SOL    HW229070   6.326   5.265   5.985
 9391SOL     OW29071   0.357   0.960   5.308
 9391SOL    HW129072   0.437   0.931   5.256
 9391SOL    HW229073   0.295   0.883   5.321
 9392SOL     OW29074   4.961   4.453   4.230
 9392SOL    HW129075   4.984   4.522   4.161
 9392SOL    HW229076   4.886   4.396   4.197
 9393SOL     OW29077   3.028   6.867   5.580
 9393SOL    HW129078   3.085   6.861   5.662
 9393SOL    HW229079   2.944   6.815   5.594
 9394SOL     OW29080   6.364   0.565   1.274
 9394SOL    HW129081   6.370   0.486   1.213
 9394SOL    HW229082   6.300   0.545   1.348
 9395SOL     OW29083   2.393   0.819   0.769
 9395SOL    HW129084   2.353   0.896   0.719
 9395SOL    HW229085   2.493   0.826   0.766
 9396SOL     OW29086   2.025   4.386   5.115
 9396SOL    HW129087   1.996   4.395   5.210
 9396SOL    HW229088   1.995   4.466   5.063
 9397SOL     OW29089   2.817   6.654   5.517
 9397SOL    HW129090   2.880   6.608   5.580
 9397SOL    HW229091   2.792   6.592   5.443
 9398SOL     OW29092   6.051   1.591   5.749
 9398SOL    HW129093   6.003   1.519   5.699
 9398SOL    HW229094   5.993   1.673   5.754
 9399SOL     OW29095   1.025   2.861   4.134
 9399SOL    HW129096   1.065   2.792   4.195
 9399SOL    HW229097   0.970   2.924   4.187
 9400SOL     OW29098   4.602   0.465   0.427
 9400SOL    HW129099   4.576   0.368   0.434
 9400SOL    HW229100   4.626   0.499   0.518
 9401SOL     OW29101   0.244   2.123   2.059
 9401SOL    HW129102   0.295   2.172   2.129
 9401SOL    HW229103   0.258   2.167   1.971
 9402SOL     OW29104   1.342   4.460   3.234
 9402SOL    HW129105   1.420   4.408   3.196
 9402SOL    HW229106   1.268   4.460   3.167
 9403SOL     OW29107   6.591   1.496   2.150
 9403SOL    HW129108   6.630   1.587   2.136
 9403SOL    HW229109   6.653   1.441   2.206
 9404SOL     OW29110   0.031   2.048   1.344
 9404SOL    HW129111   0.061   1.970   1.289
 9404SOL    HW229112   0.033   2.131   1.289
 9405SOL     OW29113   1.350   4.229   4.533
 9405SOL    HW129114   1.424   4.201   4.595
 9405SOL    HW229115   1.334   4.156   4.467
 9406SOL     OW29116   1.441   2.985   0.008
 9406SOL    HW129117   1.367   3.053   0.001
 9406SOL    HW229118   1.442   2.928   6.950
 9407SOL     OW29119   2.668   4.970   4.286
 9407SOL    HW129120   2.593   4.930   4.337
 9407SOL    HW229121   2.752   4.917   4.302
 9408SOL     OW29122   0.386   2.051   6.353
 9408SOL    HW129123   0.316   2.119   6.378
 9408SOL    HW229124   0.373   2.025   6.257
 9409SOL     OW29125   6.607   5.614   2.463
 9409SOL    HW129126   6.623   5.627   2.366
 9409SOL    HW229127   6.657   5.683   2.515
 9410SOL     OW29128   5.264   1.182   1.799
 9410SOL    HW129129   5.184   1.184   1.859
 9410SOL    HW229130   5.269   1.267   1.746
 9411SOL     OW29131   3.163   4.086   2.659
 9411SOL    HW129132   3.224   4.039   2.722
 9411SOL    HW229133   3.068   4.065   2.682
 9412SOL     OW29134   1.415   0.520   2.262
 9412SOL    HW129135   1.346   0.579   2.219
 9412SOL    HW229136   1.399   0.425   2.234
 9413SOL     OW29137   5.217   4.873   4.702
 9413SOL    HW129138   5.164   4.788   4.706
 9413SOL    HW229139   5.195   4.929   4.782
 9414SOL     OW29140   3.135   1.772   4.320
 9414SOL    HW129141   3.160   1.869   4.322
 9414SOL    HW229142   3.218   1.717   4.326
 9415SOL     OW29143   2.546   0.090   1.668
 9415SOL    HW129144   2.567   0.182   1.635
 9415SOL    HW229145   2.589   0.023   1.608
 9416SOL     OW29146   0.517   1.046   5.059
 9416SOL    HW129147   0.438   1.077   5.006
 9416SOL    HW229148   0.580   0.997   4.999
 9417SOL     OW29149   3.688   6.427   1.594
 9417SOL    HW129150   3.770   6.484   1.607
 9417SOL    HW229151   3.606   6.482   1.611
 9418SOL     OW29152   2.397   1.495   2.747
 9418SOL    HW129153   2.308   1.456   2.721
 9418SOL    HW229154   2.447   1.522   2.664
 9419SOL     OW29155   2.528   3.368   6.777
 9419SOL    HW129156   2.582   3.327   6.852
 9419SOL    HW229157   2.433   3.340   6.786
 9420SOL     OW29158   5.484   4.553   0.362
 9420SOL    HW129159   5.549   4.517   0.296
 9420SOL    HW229160   5.430   4.626   0.319
 9421SOL     OW29161   2.805   5.165   4.136
 9421SOL    HW129162   2.884   5.139   4.192
 9421SOL    HW229163   2.731   5.100   4.149
 9422SOL     OW29164   2.950   5.893   3.811
 9422SOL    HW129165   2.925   5.985   3.842
 9422SOL    HW229166   2.868   5.840   3.794
 9423SOL     OW29167   4.264   6.549   2.553
 9423SOL    HW129168   4.188   6.492   2.523
 9423SOL    HW229169   4.323   6.497   2.615
 9424SOL     OW29170   5.293   1.424   4.610
 9424SOL    HW129171   5.332   1.429   4.702
 9424SOL    HW229172   5.195   1.405   4.617
 9425SOL     OW29173   5.444   5.271   1.115
 9425SOL    HW129174   5.496   5.192   1.145
 9425SOL    HW229175   5.439   5.338   1.189
 9426SOL     OW29176   2.102   1.608   6.103
 9426SOL    HW129177   2.149   1.660   6.032
 9426SOL    HW229178   2.007   1.641   6.111
 9427SOL     OW29179   2.318   6.230   3.009
 9427SOL    HW129180   2.376   6.227   3.091
 9427SOL    HW229181   2.342   6.154   2.949
 9428SOL     OW29182   6.489   6.987   0.198
 9428SOL    HW129183   6.445   6.911   0.149
 9428SOL    HW229184   6.421   0.009   0.255
 9429SOL     OW29185   1.559   2.362   3.739
 9429SOL    HW129186   1.569   2.450   3.692
 9429SOL    HW229187   1.490   2.371   3.811
 9430SOL     OW29188   0.645   2.645   4.136
 9430SOL    HW129189   0.737   2.616   4.162
 9430SOL    HW229190   0.641   2.660   4.037
 9431SOL     OW29191   6.326   4.514   1.026
 9431SOL    HW129192   6.299   4.607   1.048
 9431SOL    HW229193   6.415   4.514   0.981
 9432SOL     OW29194   6.339   1.771   4.411
 9432SOL    HW129195   6.356   1.866   4.437
 9432SOL    HW229196   6.304   1.767   4.318
 9433SOL     OW29197   4.036   5.779   3.598
 9433SOL    HW129198   3.975   5.799   3.522
 9433SOL    HW229199   4.015   5.688   3.634
 9434SOL     OW29200   5.883   5.206   3.463
 9434SOL    HW129201   5.864   5.221   3.560
 9434SOL    HW229202   5.825   5.267   3.408
 9435SOL     OW29203   0.201   2.055   2.411
 9435SOL    HW129204   0.272   1.986   2.396
 9435SOL    HW229205   0.136   2.021   2.479
 9436SOL     OW29206   1.323   1.248   2.590
 9436SOL    HW129207   1.299   1.181   2.520
 9436SOL    HW229208   1.387   1.314   2.552
 9437SOL     OW29209   1.130   5.231   3.763
 9437SOL    HW129210   1.067   5.223   3.840
 9437SOL    HW229211   1.079   5.252   3.680
 9438SOL     OW29212   0.760   0.182   1.983
 9438SOL    HW129213   0.807   0.171   2.070
 9438SOL    HW229214   0.674   0.231   1.997
 9439SOL     OW29215   0.378   3.088   0.890
 9439SOL    HW129216   0.442   3.017   0.859
 9439SOL    HW229217   0.362   3.153   0.816
 9440SOL     OW29218   2.707   4.775   3.194
 9440SOL    HW129219   2.647   4.839   3.243
 9440SOL    HW229220   2.738   4.703   3.257
 9441SOL     OW29221   6.345   5.860   5.705
 9441SOL    HW129222   6.366   5.783   5.645
 9441SOL    HW229223   6.255   5.847   5.747
 9442SOL     OW29224   4.664   3.475   1.591
 9442SOL    HW129225   4.633   3.383   1.615
 9442SOL    HW229226   4.606   3.542   1.636
 9443SOL     OW29227   2.607   5.741   1.460
 9443SOL    HW129228   2.676   5.708   1.525
 9443SOL    HW229229   2.533   5.674   1.453
 9444SOL     OW29230   1.905   3.814   0.688
 9444SOL    HW129231   1.823   3.854   0.730
 9444SOL    HW229232   1.983   3.875   0.702
 9445SOL     OW29233   6.715   2.230   3.600
 9445SOL    HW129234   6.734   2.304   3.664
 9445SOL    HW229235   6.623   2.243   3.562
 9446SOL     OW29236   0.055   5.019   4.103
 9446SOL    HW129237   0.029   5.109   4.067
 9446SOL    HW229238   6.998   4.973   4.140
 9447SOL     OW29239   5.124   4.871   3.140
 9447SOL    HW129240   5.057   4.906   3.205
 9447SOL    HW229241   5.111   4.773   3.128
 9448SOL     OW29242   6.181   6.985   5.842
 9448SOL    HW129243   6.149   6.974   5.936
 9448SOL    HW229244   6.103   7.005   5.782
 9449SOL     OW29245   5.328   6.644   0.624
 9449SOL    HW129246   5.347   6.737   0.657
 9449SOL    HW229247   5.230   6.632   0.613
 9450SOL     OW29248   1.618   5.360   3.965
 9450SOL    HW129249   1.685   5.286   3.956
 9450SOL    HW229250   1.526   5.325   3.948
 9451SOL     OW29251   3.954   6.061   6.037
 9451SOL    HW129252   3.953   6.072   5.938
 9451SOL    HW229253   3.929   6.148   6.080
 9452SOL     OW29254   0.402   3.887   0.386
 9452SOL    HW129255   0.427   3.983   0.402
 9452SOL    HW229256   0.409   3.866   0.289
 9453SOL     OW29257   2.173   4.725   3.064
 9453SOL    HW129258   2.191   4.650   3.000
 9453SOL    HW229259   2.203   4.811   3.023
 9454SOL     OW29260   4.269   3.544   0.042
 9454SOL    HW129261   4.190   3.513   0.095
 9454SOL    HW229262   4.318   3.615   0.094
 9455SOL     OW29263   2.586   1.943   2.305
 9455SOL    HW129264   2.503   1.984   2.342
 9455SOL    HW229265   2.584   1.948   2.205
 9456SOL     OW29266   6.071   4.190   2.027
 9456SOL    HW129267   5.998   4.224   2.086
 9456SOL    HW229268   6.063   4.230   1.936
 9457SOL     OW29269   0.608   4.649   4.352
 9457SOL    HW129270   0.691   4.632   4.404
 9457SOL    HW229271   0.629   4.708   4.274
 9458SOL     OW29272   7.021   3.941   0.515
 9458SOL    HW129273   0.073   4.007   0.517
 9458SOL    HW229274   7.004   3.914   0.420
 9459SOL     OW29275   5.382   4.262   3.928
 9459SOL    HW129276   5.437   4.340   3.955
 9459SOL    HW229277   5.332   4.227   4.008
 9460SOL     OW29278   1.994   3.092   4.552
 9460SOL    HW129279   2.010   2.998   4.522
 9460SOL    HW229280   2.075   3.126   4.599
 9461SOL     OW29281   1.017   1.453   0.936
 9461SOL    HW129282   0.924   1.489   0.927
 9461SOL    HW229283   1.061   1.451   0.846
 9462SOL     OW29284   1.754   2.826   3.695
 9462SOL    HW129285   1.768   2.761   3.620
 9462SOL    HW229286   1.828   2.816   3.762
 9463SOL     OW29287   5.281   6.964   1.294
 9463SOL    HW129288   5.263   6.956   1.392
 9463SOL    HW229289   5.307   6.874   1.257
 9464SOL     OW29290   5.946   0.626   1.354
 9464SOL    HW129291   5.916   0.629   1.259
 9464SOL    HW229292   6.004   0.705   1.374
 9465SOL     OW29293   0.233   3.892   1.706
 9465SOL    HW129294   0.212   3.973   1.760
 9465SOL    HW229295   0.192   3.901   1.615
 9466SOL     OW29296   4.112   5.079   6.355
 9466SOL    HW129297   4.033   5.105   6.300
 9466SOL    HW229298   4.157   5.161   6.391
 9467SOL     OW29299   1.558   2.706   0.861
 9467SOL    HW129300   1.612   2.623   0.873
 9467SOL    HW229301   1.557   2.732   0.764
 9468SOL     OW29302   6.558   3.449   6.406
 9468SOL    HW129303   6.516   3.359   6.396
 9468SOL    HW229304   6.646   3.450   6.359
 9469SOL     OW29305   0.049   6.181   0.598
 9469SOL    HW129306   7.005   6.127   0.548
 9469SOL    HW229307   0.012   6.271   0.620
 9470SOL     OW29308   4.613   3.859   6.631
 9470SOL    HW129309   4.567   3.838   6.717
 9470SOL    HW229310   4.581   3.797   6.559
 9471SOL     OW29311   5.560   2.171   5.640
 9471SOL    HW129312   5.641   2.217   5.605
 9471SOL    HW229313   5.531   2.215   5.725
 9472SOL     OW29314   1.084   4.317   6.083
 9472SOL    HW129315   1.067   4.400   6.029
 9472SOL    HW229316   1.134   4.251   6.028
 9473SOL     OW29317   2.982   3.735   6.761
 9473SOL    HW129318   2.892   3.774   6.740
 9473SOL    HW229319   3.052   3.806   6.752
 9474SOL     OW29320   5.883   3.201   1.532
 9474SOL    HW129321   5.968   3.225   1.578
 9474SOL    HW229322   5.867   3.102   1.542
 9475SOL     OW29323   4.763   3.181   6.949
 9475SOL    HW129324   4.850   3.222   6.922
 9475SOL    HW229325   4.688   3.237   6.913
 9476SOL     OW29326   3.431   3.888   5.446
 9476SOL    HW129327   3.341   3.930   5.455
 9476SOL    HW229328   3.421   3.788   5.442
 9477SOL     OW29329   1.631   3.118   1.122
 9477SOL    HW129330   1.646   3.098   1.218
 9477SOL    HW229331   1.558   3.059   1.087
 9478SOL     OW29332   4.430   3.099   1.134
 9478SOL    HW129333   4.406   3.014   1.087
 9478SOL    HW229334   4.404   3.092   1.230
 9479SOL     OW29335   4.112   0.178   1.339
 9479SOL    HW129336   4.030   0.168   1.396
 9479SOL    HW229337   4.085   0.206   1.247
 9480SOL     OW29338   6.178   5.116   0.380
 9480SOL    HW129339   6.166   5.192   0.317
 9480SOL    HW229340   6.257   5.132   0.439
 9481SOL     OW29341   4.947   2.215   2.955
 9481SOL    HW129342   4.976   2.197   3.050
 9481SOL    HW229343   4.855   2.179   2.941
 9482SOL     OW29344   6.416   6.943   2.060
 9482SOL    HW129345   6.427   7.013   2.130
 9482SOL    HW229346   6.503   6.894   2.049
 9483SOL     OW29347   1.640   0.887   6.603
 9483SOL    HW129348   1.576   0.872   6.528
 9483SOL    HW229349   1.611   0.834   6.683
 9484SOL     OW29350   2.530   0.398   4.477
 9484SOL    HW129351   2.507   0.309   4.517
 9484SOL    HW229352   2.530   0.468   4.548
 9485SOL     OW29353   6.007   1.792   1.140
 9485SOL    HW129354   6.085   1.807   1.079
 9485SOL    HW229355   6.011   1.699   1.176
 9486SOL     OW29356   5.051   5.934   0.955
 9486SOL    HW129357   5.094   5.928   0.864
 9486SOL    HW229358   4.970   5.992   0.950
 9487SOL     OW29359   3.318   3.989   4.504
 9487SOL    HW129360   3.342   4.014   4.597
 9487SOL    HW229361   3.366   4.048   4.439
 9488SOL     OW29362   2.245   0.399   1.072
 9488SOL    HW129363   2.178   0.401   0.998
 9488SOL    HW229364   2.198   0.412   1.160
 9489SOL     OW29365   5.142   4.345   1.200
 9489SOL    HW129366   5.046   4.360   1.224
 9489SOL    HW229367   5.166   4.250   1.220
 9490SOL     OW29368   6.805   6.176   3.496
 9490SOL    HW129369   6.775   6.142   3.407
 9490SOL    HW229370   6.866   6.255   3.484
 9491SOL     OW29371   5.906   5.611   4.161
 9491SOL    HW129372   5.871   5.704   4.168
 9491SOL    HW229373   5.885   5.561   4.244
 9492SOL     OW29374   4.358   3.332   5.927
 9492SOL    HW129375   4.376   3.429   5.911
 9492SOL    HW229376   4.325   3.289   5.842
 9493SOL     OW29377   3.382   5.604   3.958
 9493SOL    HW129378   3.299   5.659   3.945
 9493SOL    HW229379   3.381   5.527   3.894
 9494SOL     OW29380   5.810   2.984   2.340
 9494SOL    HW129381   5.827   3.009   2.435
 9494SOL    HW229382   5.842   2.890   2.324
 9495SOL     OW29383   6.691   1.379   2.549
 9495SOL    HW129384   6.746   1.446   2.599
 9495SOL    HW229385   6.752   1.309   2.510
 9496SOL     OW29386   4.741   2.130   1.946
 9496SOL    HW129387   4.833   2.157   1.917
 9496SOL    HW229388   4.680   2.209   1.940
 9497SOL     OW29389   5.491   6.335   5.566
 9497SOL    HW129390   5.456   6.265   5.628
 9497SOL    HW229391   5.445   6.422   5.585
 9498SOL     OW29392   6.782   4.592   5.304
 9498SOL    HW129393   6.829   4.512   5.268
 9498SOL    HW229394   6.690   4.566   5.333
 9499SOL     OW29395   0.287   6.048   5.145
 9499SOL    HW129396   0.316   5.952   5.152
 9499SOL    HW229397   0.213   6.056   5.078
 9500SOL     OW29398   3.897   6.302   0.855
 9500SOL    HW129399   3.802   6.275   0.839
 9500SOL    HW229400   3.951   6.285   0.772
 9501SOL     OW29401   1.527   1.509   4.383
 9501SOL    HW129402   1.524   1.439   4.454
 9501SOL    HW229403   1.437   1.515   4.338
 9502SOL     OW29404   5.956   3.753   4.187
 9502SOL    HW129405   5.988   3.719   4.099
 9502SOL    HW229406   5.974   3.684   4.258
 9503SOL     OW29407   0.055   2.244   0.765
 9503SOL    HW129408   0.111   2.326   0.781
 9503SOL    HW229409   0.085   2.171   0.827
 9504SOL     OW29410   6.618   4.050   1.750
 9504SOL    HW129411   6.566   4.126   1.789
 9504SOL    HW229412   6.580   4.027   1.660
 9505SOL     OW29413   5.218   4.442   5.576
 9505SOL    HW129414   5.262   4.417   5.662
 9505SOL    HW229415   5.251   4.382   5.503
 9506SOL     OW29416   2.188   2.356   0.555
 9506SOL    HW129417   2.240   2.271   0.545
 9506SOL    HW229418   2.249   2.434   0.545
 9507SOL     OW29419   6.629   0.645   1.176
 9507SOL    HW129420   6.684   0.565   1.151
 9507SOL    HW229421   6.544   0.614   1.220
 9508SOL     OW29422   5.709   2.149   2.662
 9508SOL    HW129423   5.712   2.238   2.617
 9508SOL    HW229424   5.794   2.134   2.714
 9509SOL     OW29425   6.744   0.105   3.673
 9509SOL    HW129426   6.680   0.179   3.654
 9509SOL    HW229427   6.693   0.020   3.689
 9510SOL     OW29428   1.182   3.652   3.110
 9510SOL    HW129429   1.255   3.692   3.165
 9510SOL    HW229430   1.136   3.724   3.058
 9511SOL     OW29431   1.161   1.080   1.497
 9511SOL    HW129432   1.096   1.004   1.506
 9511SOL    HW229433   1.254   1.046   1.513
 9512SOL     OW29434   6.535   2.043   1.505
 9512SOL    HW129435   6.596   2.019   1.429
 9512SOL    HW229436   6.448   2.076   1.469
 9513SOL     OW29437   3.011   4.772   6.039
 9513SOL    HW129438   2.943   4.768   5.966
 9513SOL    HW229439   2.967   4.805   6.123
 9514SOL     OW29440   3.123   4.318   6.955
 9514SOL    HW129441   3.153   4.405   6.993
 9514SOL    HW229442   3.043   4.286   7.006
 9515SOL     OW29443   2.128   5.520   3.120
 9515SOL    HW129444   2.137   5.606   3.070
 9515SOL    HW229445   2.096   5.449   3.058
 9516SOL     OW29446   5.522   4.203   0.679
 9516SOL    HW129447   5.491   4.274   0.616
 9516SOL    HW229448   5.596   4.151   0.637
 9517SOL     OW29449   1.502   3.905   0.952
 9517SOL    HW129450   1.464   3.843   0.883
 9517SOL    HW229451   1.534   3.989   0.908
 9518SOL     OW29452   2.445   1.607   0.295
 9518SOL    HW129453   2.520   1.545   0.314
 9518SOL    HW229454   2.478   1.702   0.298
 9519SOL     OW29455   2.456   2.765   5.714
 9519SOL    HW129456   2.514   2.686   5.734
 9519SOL    HW229457   2.510   2.836   5.669
 9520SOL     OW29458   2.957   0.423   2.739
 9520SOL    HW129459   2.934   0.327   2.725
 9520SOL    HW229460   3.005   0.458   2.659
 9521SOL     OW29461   5.660   5.410   3.308
 9521SOL    HW129462   5.618   5.475   3.245
 9521SOL    HW229463   5.588   5.365   3.361
 9522SOL     OW29464   3.551   5.692   1.006
 9522SOL    HW129465   3.463   5.672   1.049
 9522SOL    HW229466   3.625   5.671   1.070
 9523SOL     OW29467   3.313   4.930   4.294
 9523SOL    HW129468   3.366   4.866   4.350
 9523SOL    HW229469   3.306   5.018   4.341
 9524SOL     OW29470   4.332   2.794   1.718
 9524SOL    HW129471   4.266   2.859   1.680
 9524SOL    HW229472   4.313   2.703   1.683
 9525SOL     OW29473   2.288   1.930   6.038
 9525SOL    HW129474   2.253   1.982   6.116
 9525SOL    HW229475   2.354   1.985   5.988
 9526SOL     OW29476   5.905   5.308   2.695
 9526SOL    HW129477   5.809   5.302   2.725
 9526SOL    HW229478   5.937   5.402   2.705
 9527SOL     OW29479   1.224   0.787   1.613
 9527SOL    HW129480   1.230   0.814   1.709
 9527SOL    HW229481   1.281   0.847   1.558
 9528SOL     OW29482   6.955   0.782   0.610
 9528SOL    HW129483   7.000   0.758   0.697
 9528SOL    HW229484   6.971   0.709   0.544
 9529SOL     OW29485   0.864   2.975   5.472
 9529SOL    HW129486   0.911   3.055   5.509
 9529SOL    HW229487   0.868   2.977   5.372
 9530SOL     OW29488   1.844   2.967   3.053
 9530SOL    HW129489   1.932   3.008   3.075
 9530SOL    HW229490   1.819   2.900   3.123
 9531SOL     OW29491   4.223   6.030   3.074
 9531SOL    HW129492   4.275   6.091   3.134
 9531SOL    HW229493   4.243   6.052   2.978
 9532SOL     OW29494   1.167   5.571   1.655
 9532SOL    HW129495   1.160   5.498   1.587
 9532SOL    HW229496   1.262   5.602   1.662
 9533SOL     OW29497   0.211   1.374   5.449
 9533SOL    HW129498   0.120   1.334   5.440
 9533SOL    HW229499   0.275   1.326   5.389
 9534SOL     OW29500   5.164   3.334   5.286
 9534SOL    HW129501   5.080   3.388   5.292
 9534SOL    HW229502   5.187   3.320   5.189
 9535SOL     OW29503   2.334   1.019   5.876
 9535SOL    HW129504   2.302   1.020   5.970
 9535SOL    HW229505   2.372   0.929   5.854
 9536SOL     OW29506   2.198   5.745   5.191
 9536SOL    HW129507   2.222   5.815   5.124
 9536SOL    HW229508   2.247   5.660   5.171
 9537SOL     OW29509   3.129   0.822   2.652
 9537SOL    HW129510   3.216   0.859   2.686
 9537SOL    HW229511   3.053   0.866   2.700
 9538SOL     OW29512   6.733   1.208   4.287
 9538SOL    HW129513   6.635   1.226   4.277
 9538SOL    HW229514   6.776   1.208   4.197
 9539SOL     OW29515   2.269   4.560   6.427
 9539SOL    HW129516   2.299   4.655   6.429
 9539SOL    HW229517   2.317   4.508   6.498
 9540SOL     OW29518   4.688   4.434   5.295
 9540SOL    HW129519   4.735   4.410   5.380
 9540SOL    HW229520   4.623   4.362   5.272
 9541SOL     OW29521   1.785   2.043   5.036
 9541SOL    HW129522   1.709   2.101   5.064
 9541SOL    HW229523   1.866   2.067   5.089
 9542SOL     OW29524   4.878   3.437   5.283
 9542SOL    HW129525   4.803   3.492   5.246
 9542SOL    HW229526   4.849   3.342   5.290
 9543SOL     OW29527   4.413   0.249   5.071
 9543SOL    HW129528   4.425   0.280   4.977
 9543SOL    HW229529   4.360   0.165   5.072
 9544SOL     OW29530   5.676   0.470   1.998
 9544SOL    HW129531   5.607   0.400   1.977
 9544SOL    HW229532   5.725   0.494   1.914
 9545SOL     OW29533   6.463   6.095   2.931
 9545SOL    HW129534   6.553   6.139   2.939
 9545SOL    HW229535   6.466   6.006   2.975
 9546SOL     OW29536   3.025   4.219   6.711
 9546SOL    HW129537   3.060   4.251   6.799
 9546SOL    HW229538   3.036   4.120   6.704
 9547SOL     OW29539   2.339   6.373   3.979
 9547SOL    HW129540   2.340   6.436   4.056
 9547SOL    HW229541   2.244   6.352   3.954
 9548SOL     OW29542   6.420   5.340   4.920
 9548SOL    HW129543   6.393   5.271   4.853
 9548SOL    HW229544   6.520   5.341   4.927
 9549SOL     OW29545   3.189   5.214   1.346
 9549SOL    HW129546   3.239   5.254   1.424
 9549SOL    HW229547   3.224   5.254   1.261
 9550SOL     OW29548   0.149   1.620   6.723
 9550SOL    HW129549   0.134   1.536   6.776
 9550SOL    HW229550   0.238   1.658   6.746
 9551SOL     OW29551   0.227   0.068   4.479
 9551SOL    HW129552   0.327   0.065   4.480
 9551SOL    HW229553   0.192   0.007   4.409
 9552SOL     OW29554   1.772   6.486   2.874
 9552SOL    HW129555   1.757   6.432   2.957
 9552SOL    HW229556   1.695   6.474   2.811
 9553SOL     OW29557   6.335   5.282   6.983
 9553SOL    HW129558   6.246   5.300   0.001
 9553SOL    HW229559   6.322   5.229   6.899
 9554SOL     OW29560   3.087   1.020   1.460
 9554SOL    HW129561   3.146   1.040   1.538
 9554SOL    HW229562   3.110   0.930   1.423
 9555SOL     OW29563   6.392   2.601   1.423
 9555SOL    HW129564   6.369   2.509   1.392
 9555SOL    HW229565   6.439   2.595   1.511
 9556SOL     OW29566   2.801   1.282   1.418
 9556SOL    HW129567   2.732   1.331   1.471
 9556SOL    HW229568   2.808   1.188   1.451
 9557SOL     OW29569   6.071   0.117   2.767
 9557SOL    HW129570   6.005   0.056   2.723
 9557SOL    HW229571   6.164   0.090   2.741
 9558SOL     OW29572   0.008   5.185   2.842
 9558SOL    HW129573   6.991   5.128   2.914
 9558SOL    HW229574   0.101   5.211   2.869
 9559SOL     OW29575   0.691   4.117   2.123
 9559SOL    HW129576   0.659   4.159   2.038
 9559SOL    HW229577   0.731   4.028   2.103
 9560SOL     OW29578   2.477   1.278   2.474
 9560SOL    HW129579   2.408   1.311   2.410
 9560SOL    HW229580   2.561   1.257   2.423
 9561SOL     OW29581   2.774   6.452   0.526
 9561SOL    HW129582   2.771   6.550   0.504
 9561SOL    HW229583   2.715   6.434   0.605
 9562SOL     OW29584   3.518   5.295   4.256
 9562SOL    HW129585   3.597   5.308   4.315
 9562SOL    HW229586   3.443   5.254   4.308
 9563SOL     OW29587   6.215   6.395   0.157
 9563SOL    HW129588   6.243   6.405   0.062
 9563SOL    HW229589   6.293   6.360   0.211
 9564SOL     OW29590   2.712   6.828   6.548
 9564SOL    HW129591   2.765   6.910   6.527
 9564SOL    HW229592   2.761   6.773   6.615
 9565SOL     OW29593   4.101   5.809   4.535
 9565SOL    HW129594   4.194   5.801   4.570
 9565SOL    HW229595   4.096   5.767   4.444
 9566SOL     OW29596   3.930   4.532   6.674
 9566SOL    HW129597   3.873   4.602   6.631
 9566SOL    HW229598   3.871   4.462   6.716
 9567SOL     OW29599   6.430   5.714   6.574
 9567SOL    HW129600   6.367   5.648   6.615
 9567SOL    HW229601   6.509   5.666   6.535
 9568SOL     OW29602   4.966   3.830   6.123
 9568SOL    HW129603   5.039   3.796   6.064
 9568SOL    HW229604   4.882   3.841   6.069
 9569SOL     OW29605   6.514   1.108   0.206
 9569SOL    HW129606   6.438   1.074   0.150
 9569SOL    HW229607   6.576   1.162   0.149
 9570SOL     OW29608   0.349   1.712   1.062
 9570SOL    HW129609   0.329   1.670   0.973
 9570SOL    HW229610   0.388   1.643   1.123
 9571SOL     OW29611   3.117   3.958   7.020
 9571SOL    HW129612   3.184   3.941   0.069
 9571SOL    HW229613   3.043   4.015   0.031
 9572SOL     OW29614   1.245   4.508   1.071
 9572SOL    HW129615   1.249   4.408   1.080
 9572SOL    HW229616   1.149   4.537   1.069
 9573SOL     OW29617   0.655   0.931   6.517
 9573SOL    HW129618   0.610   1.013   6.551
 9573SOL    HW229619   0.713   0.955   6.439
 9574SOL     OW29620   3.402   3.689   6.086
 9574SOL    HW129621   3.461   3.745   6.027
 9574SOL    HW229622   3.458   3.624   6.137
 9575SOL     OW29623   6.132   0.843   1.425
 9575SOL    HW129624   6.117   0.889   1.338
 9575SOL    HW229625   6.230   0.840   1.445
 9576SOL     OW29626   3.704   1.426   4.030
 9576SOL    HW129627   3.801   1.448   4.016
 9576SOL    HW229628   3.653   1.445   3.946
 9577SOL     OW29629   0.796   0.220   2.259
 9577SOL    HW129630   0.868   0.286   2.280
 9577SOL    HW229631   0.713   0.243   2.309
 9578SOL     OW29632   6.124   2.826   2.098
 9578SOL    HW129633   6.168   2.910   2.128
 9578SOL    HW229634   6.073   2.786   2.174
 9579SOL     OW29635   1.138   0.116   1.812
 9579SOL    HW129636   1.235   0.101   1.830
 9579SOL    HW229637   1.106   0.197   1.861
 9580SOL     OW29638   4.842   3.702   0.001
 9580SOL    HW129639   4.857   3.609   6.992
 9580SOL    HW229640   4.930   3.745   0.020
 9581SOL     OW29641   1.636   5.270   6.103
 9581SOL    HW129642   1.671   5.331   6.033
 9581SOL    HW229643   1.700   5.194   6.116
 9582SOL     OW29644   4.420   4.567   4.158
 9582SOL    HW129645   4.344   4.598   4.216
 9582SOL    HW229646   4.504   4.566   4.211
 9583SOL     OW29647   2.132   3.573   1.727
 9583SOL    HW129648   2.160   3.545   1.819
 9583SOL    HW229649   2.207   3.622   1.683
 9584SOL     OW29650   6.508   4.946   6.655
 9584SOL    HW129651   6.601   4.973   6.680
 9584SOL    HW229652   6.512   4.872   6.588
 9585SOL     OW29653   5.561   6.842   2.910
 9585SOL    HW129654   5.519   6.920   2.957
 9585SOL    HW229655   5.661   6.851   2.915
 9586SOL     OW29656   5.302   3.666   3.717
 9586SOL    HW129657   5.374   3.614   3.671
 9586SOL    HW229658   5.323   3.673   3.814
 9587SOL     OW29659   5.720   0.522   1.473
 9587SOL    HW129660   5.643   0.582   1.456
 9587SOL    HW229661   5.802   0.559   1.428
 9588SOL     OW29662   7.002   0.397   1.706
 9588SOL    HW129663   0.022   0.468   1.650
 9588SOL    HW229664   6.907   0.422   1.723
 9589SOL     OW29665   2.209   6.409   5.590
 9589SOL    HW129666   2.272   6.336   5.618
 9589SOL    HW229667   2.261   6.489   5.562
 9590SOL     OW29668   0.591   3.838   2.819
 9590SOL    HW129669   0.677   3.886   2.801
 9590SOL    HW229670   0.568   3.846   2.916
 9591SOL     OW29671   2.467   6.424   0.997
 9591SOL    HW129672   2.390   6.363   1.011
 9591SOL    HW229673   2.436   6.519   0.998
 9592SOL     OW29674   4.425   5.641   2.891
 9592SOL    HW129675   4.382   5.637   2.982
 9592SOL    HW229676   4.479   5.559   2.876
 9593SOL     OW29677   5.811   2.480   4.605
 9593SOL    HW129678   5.769   2.413   4.544
 9593SOL    HW229679   5.836   2.435   4.691
 9594SOL     OW29680   6.653   6.416   2.573
 9594SOL    HW129681   6.736   6.466   2.598
 9594SOL    HW229682   6.584   6.428   2.644
 9595SOL     OW29683   1.347   5.555   4.336
 9595SOL    HW129684   1.304   5.596   4.417
 9595SOL    HW229685   1.442   5.586   4.331
 9596SOL     OW29686   6.728   5.952   5.519
 9596SOL    HW129687   6.663   5.938   5.594
 9596SOL    HW229688   6.753   5.864   5.480
 9597SOL     OW29689   0.628   4.280   1.605
 9597SOL    HW129690   0.660   4.257   1.697
 9597SOL    HW229691   0.636   4.201   1.546
 9598SOL     OW29692   0.362   4.569   6.062
 9598SOL    HW129693   0.453   4.538   6.091
 9598SOL    HW229694   0.371   4.629   5.983
 9599SOL     OW29695   3.324   0.238   5.700
 9599SOL    HW129696   3.239   0.185   5.694
 9599SOL    HW229697   3.334   0.294   5.618
 9600SOL     OW29698   1.328   0.626   5.870
 9600SOL    HW129699   1.256   0.564   5.839
 9600SOL    HW229700   1.395   0.638   5.798
 9601SOL     OW29701   0.394   4.827   6.309
 9601SOL    HW129702   0.481   4.792   6.273
 9601SOL    HW229703   0.412   4.887   6.386
 9602SOL     OW29704   0.240   5.169   6.304
 9602SOL    HW129705   0.186   5.129   6.230
 9602SOL    HW229706   0.294   5.098   6.348
 9603SOL     OW29707   2.467   6.112   4.036
 9603SOL    HW129708   2.406   6.186   4.008
 9603SOL    HW229709   2.517   6.140   4.118
 9604SOL     OW29710   4.994   1.282   6.852
 9604SOL    HW129711   5.088   1.254   6.832
 9604SOL    HW229712   4.973   1.259   6.947
 9605SOL     OW29713   2.201   5.844   5.443
 9605SOL    HW129714   2.209   5.791   5.358
 9605SOL    HW229715   2.256   5.800   5.514
 9606SOL     OW29716   0.476   6.370   3.286
 9606SOL    HW129717   0.398   6.361   3.349
 9606SOL    HW229718   0.551   6.314   3.319
 9607SOL     OW29719   0.556   1.055   2.107
 9607SOL    HW129720   0.646   1.062   2.064
 9607SOL    HW229721   0.496   1.126   2.070
 9608SOL     OW29722   6.577   6.952   2.431
 9608SOL    HW129723   6.577   6.885   2.357
 9608SOL    HW229724   6.655   7.014   2.420
 9609SOL     OW29725   2.200   4.461   4.867
 9609SOL    HW129726   2.182   4.414   4.780
 9609SOL    HW229727   2.228   4.394   4.936
 9610SOL     OW29728   2.015   1.847   5.708
 9610SOL    HW129729   1.944   1.784   5.739
 9610SOL    HW229730   1.974   1.921   5.655
 9611SOL     OW29731   6.893   0.504   1.275
 9611SOL    HW129732   6.820   0.481   1.339
 9611SOL    HW229733   6.931   0.594   1.297
 9612SOL     OW29734   5.803   3.294   0.649
 9612SOL    HW129735   5.900   3.307   0.632
 9612SOL    HW229736   5.785   3.299   0.747
 9613SOL     OW29737   5.991   6.781   5.233
 9613SOL    HW129738   6.013   6.683   5.234
 9613SOL    HW229739   6.068   6.832   5.195
 9614SOL     OW29740   3.592   4.083   2.338
 9614SOL    HW129741   3.610   4.147   2.263
 9614SOL    HW229742   3.496   4.091   2.366
 9615SOL     OW29743   1.525   5.828   2.982
 9615SOL    HW129744   1.623   5.838   2.996
 9615SOL    HW229745   1.481   5.918   2.980
 9616SOL     OW29746   3.485   2.161   0.938
 9616SOL    HW129747   3.515   2.067   0.922
 9616SOL    HW229748   3.480   2.178   1.037
 9617SOL     OW29749   1.337   2.774   3.276
 9617SOL    HW129750   1.298   2.809   3.361
 9617SOL    HW229751   1.317   2.838   3.202
 9618SOL     OW29752   3.520   6.457   6.509
 9618SOL    HW129753   3.432   6.460   6.557
 9618SOL    HW229754   3.589   6.505   6.562
 9619SOL     OW29755   1.807   6.172   0.472
 9619SOL    HW129756   1.840   6.209   0.559
 9619SOL    HW229757   1.822   6.239   0.399
 9620SOL     OW29758   3.060   0.528   6.976
 9620SOL    HW129759   3.124   0.499   6.905
 9620SOL    HW229760   3.077   0.623   7.001
 9621SOL     OW29761   0.123   0.890   2.578
 9621SOL    HW129762   0.102   0.981   2.543
 9621SOL    HW229763   0.038   0.840   2.595
 9622SOL     OW29764   6.046   0.676   7.016
 9622SOL    HW129765   6.041   0.775   7.012
 9622SOL    HW229766   6.003   0.637   6.935
 9623SOL     OW29767   5.095   5.428   6.812
 9623SOL    HW129768   5.048   5.444   6.899
 9623SOL    HW229769   5.067   5.497   6.746
 9624SOL     OW29770   5.130   5.419   5.134
 9624SOL    HW129771   5.101   5.384   5.045
 9624SOL    HW229772   5.054   5.411   5.199
 9625SOL     OW29773   5.160   4.860   6.840
 9625SOL    HW129774   5.170   4.817   6.930
 9625SOL    HW229775   5.132   4.791   6.774
 9626SOL     OW29776   1.731   4.676   5.464
 9626SOL    HW129777   1.636   4.693   5.491
 9626SOL    HW229778   1.740   4.580   5.435
 9627SOL     OW29779   2.005   4.922   5.892
 9627SOL    HW129780   2.070   4.915   5.817
 9627SOL    HW229781   2.033   4.996   5.954
 9628SOL     OW29782   5.824   4.141   6.606
 9628SOL    HW129783   5.919   4.132   6.636
 9628SOL    HW229784   5.766   4.085   6.665
 9629SOL     OW29785   6.679   6.155   2.484
 9629SOL    HW129786   6.671   6.249   2.518
 9629SOL    HW229787   6.728   6.156   2.397
 9630SOL     OW29788   6.467   6.476   5.344
 9630SOL    HW129789   6.374   6.482   5.308
 9630SOL    HW229790   6.528   6.445   5.271
 9631SOL     OW29791   4.449   1.108   1.002
 9631SOL    HW129792   4.364   1.056   1.007
 9631SOL    HW229793   4.433   1.202   1.032
 9632SOL     OW29794   2.383   5.100   1.844
 9632SOL    HW129795   2.399   5.193   1.812
 9632SOL    HW229796   2.467   5.063   1.882
 9633SOL     OW29797   4.067   3.160   2.204
 9633SOL    HW129798   3.970   3.153   2.226
 9633SOL    HW229799   4.120   3.160   2.289
 9634SOL     OW29800   5.199   4.716   2.507
 9634SOL    HW129801   5.157   4.747   2.593
 9634SOL    HW229802   5.139   4.739   2.431
 9635SOL     OW29803   0.729   3.748   4.288
 9635SOL    HW129804   0.759   3.802   4.209
 9635SOL    HW229805   0.738   3.651   4.267
 9636SOL     OW29806   4.201   1.793   5.802
 9636SOL    HW129807   4.168   1.729   5.733
 9636SOL    HW229808   4.156   1.774   5.889
 9637SOL     OW29809   2.410   3.456   1.336
 9637SOL    HW129810   2.509   3.451   1.342
 9637SOL    HW229811   2.369   3.423   1.422
 9638SOL     OW29812   0.310   4.403   6.447
 9638SOL    HW129813   0.372   4.345   6.394
 9638SOL    HW229814   0.251   4.345   6.503
 9639SOL     OW29815   4.570   2.404   1.551
 9639SOL    HW129816   4.538   2.311   1.530
 9639SOL    HW229817   4.665   2.400   1.582
 9640SOL     OW29818   4.059   1.241   2.611
 9640SOL    HW129819   4.151   1.205   2.600
 9640SOL    HW229820   4.061   1.341   2.603
 9641SOL     OW29821   5.549   4.809   2.639
 9641SOL    HW129822   5.584   4.716   2.625
 9641SOL    HW229823   5.499   4.814   2.725
 9642SOL     OW29824   1.519   6.841   3.798
 9642SOL    HW129825   1.423   6.834   3.823
 9642SOL    HW229826   1.531   6.912   3.729
 9643SOL     OW29827   4.813   4.026   4.214
 9643SOL    HW129828   4.807   4.020   4.114
 9643SOL    HW229829   4.882   3.962   4.247
 9644SOL     OW29830   2.155   6.767   5.000
 9644SOL    HW129831   2.080   6.750   4.935
 9644SOL    HW229832   2.239   6.787   4.949
 9645SOL     OW29833   1.479   5.321   5.692
 9645SOL    HW129834   1.531   5.397   5.731
 9645SOL    HW229835   1.385   5.351   5.673
 9646SOL     OW29836   2.912   6.827   4.456
 9646SOL    HW129837   2.918   6.760   4.529
 9646SOL    HW229838   2.997   6.880   4.453
 9647SOL     OW29839   6.400   6.384   3.094
 9647SOL    HW129840   6.338   6.307   3.076
 9647SOL    HW229841   6.348   6.460   3.132
 9648SOL     OW29842   5.276   2.470   1.558
 9648SOL    HW129843   5.346   2.408   1.521
 9648SOL    HW229844   5.262   2.546   1.495
 9649SOL     OW29845   2.148   3.478   6.636
 9649SOL    HW129846   2.163   3.445   6.729
 9649SOL    HW229847   2.217   3.548   6.613
 9650SOL     OW29848   6.445   4.557   3.952
 9650SOL    HW129849   6.481   4.496   4.023
 9650SOL    HW229850   6.446   4.510   3.864
 9651SOL     OW29851   2.574   1.273   0.113
 9651SOL    HW129852   2.487   1.320   0.098
 9651SOL    HW229853   2.558   1.188   0.162
 9652SOL     OW29854   0.568   4.258   1.124
 9652SOL    HW129855   0.521   4.275   1.037
 9652SOL    HW229856   0.500   4.234   1.194
 9653SOL     OW29857   4.538   4.351   5.776
 9653SOL    HW129858   4.629   4.319   5.803
 9653SOL    HW229859   4.474   4.337   5.852
 9654SOL     OW29860   4.069   3.214   3.479
 9654SOL    HW129861   4.144   3.150   3.465
 9654SOL    HW229862   4.009   3.213   3.399
 9655SOL     OW29863   6.430   0.807   1.497
 9655SOL    HW129864   6.431   0.723   1.552
 9655SOL    HW229865   6.518   0.817   1.450
 9656SOL     OW29866   5.130   3.297   0.657
 9656SOL    HW129867   5.202   3.269   0.594
 9656SOL    HW229868   5.051   3.237   0.646
 9657SOL     OW29869   5.119   3.899   4.013
 9657SOL    HW129870   5.219   3.910   4.005
 9657SOL    HW229871   5.074   3.968   3.957
 9658SOL     OW29872   4.692   1.769   2.811
 9658SOL    HW129873   4.650   1.753   2.900
 9658SOL    HW229874   4.736   1.858   2.810
 9659SOL     OW29875   3.321   2.104   0.543
 9659SOL    HW129876   3.420   2.093   0.535
 9659SOL    HW229877   3.290   2.066   0.631
 9660SOL     OW29878   0.617   6.158   0.713
 9660SOL    HW129879   0.619   6.075   0.768
 9660SOL    HW229880   0.603   6.238   0.772
 9661SOL     OW29881   4.604   5.551   1.145
 9661SOL    HW129882   4.702   5.568   1.151
 9661SOL    HW229883   4.581   5.521   1.053
 9662SOL     OW29884   5.753   5.040   6.691
 9662SOL    HW129885   5.851   5.021   6.681
 9662SOL    HW229886   5.732   5.060   6.786
 9663SOL     OW29887   0.968   4.619   3.317
 9663SOL    HW129888   0.946   4.653   3.409
 9663SOL    HW229889   0.941   4.523   3.310
 9664SOL     OW29890   5.471   4.015   3.507
 9664SOL    HW129891   5.559   3.981   3.473
 9664SOL    HW229892   5.440   4.090   3.449
 9665SOL     OW29893   6.327   6.769   5.735
 9665SOL    HW129894   6.291   6.846   5.788
 9665SOL    HW229895   6.421   6.788   5.708
 9666SOL     OW29896   6.157   4.644   1.455
 9666SOL    HW129897   6.145   4.611   1.549
 9666SOL    HW229898   6.175   4.742   1.455
 9667SOL     OW29899   4.565   4.854   0.808
 9667SOL    HW129900   4.641   4.872   0.746
 9667SOL    HW229901   4.565   4.757   0.833
 9668SOL     OW29902   1.168   0.046   5.772
 9668SOL    HW129903   1.199   6.975   5.766
 9668SOL    HW229904   1.207   0.098   5.696
 9669SOL     OW29905   2.680   6.929   0.708
 9669SOL    HW129906   2.769   6.883   0.710
 9669SOL    HW229907   2.608   6.863   0.689
 9670SOL     OW29908   0.585   6.996   5.705
 9670SOL    HW129909   0.658   0.024   5.750
 9670SOL    HW229910   0.614   6.900   5.694
 9671SOL     OW29911   0.973   4.665   0.230
 9671SOL    HW129912   0.893   4.704   0.275
 9671SOL    HW229913   0.989   4.712   0.143
 9672SOL     OW29914   0.983   4.437   3.020
 9672SOL    HW129915   0.910   4.430   2.952
 9672SOL    HW229916   0.943   4.440   3.112
 9673SOL     OW29917   3.286   4.299   1.612
 9673SOL    HW129918   3.305   4.270   1.706
 9673SOL    HW229919   3.194   4.338   1.606
 9674SOL     OW29920   3.971   6.830   2.898
 9674SOL    HW129921   3.922   6.821   2.811
 9674SOL    HW229922   3.934   6.765   2.964
 9675SOL     OW29923   4.888   4.104   0.341
 9675SOL    HW129924   4.811   4.079   0.400
 9675SOL    HW229925   4.955   4.155   0.395
 9676SOL     OW29926   1.597   2.664   6.348
 9676SOL    HW129927   1.509   2.708   6.333
 9676SOL    HW229928   1.592   2.603   6.427
 9677SOL     OW29929   6.397   4.950   0.056
 9677SOL    HW129930   6.355   4.940   0.146
 9677SOL    HW229931   6.398   5.046   0.029
 9678SOL     OW29932   2.957   3.771   4.900
 9678SOL    HW129933   3.002   3.681   4.897
 9678SOL    HW229934   2.945   3.806   4.808
 9679SOL     OW29935   2.968   1.965   4.573
 9679SOL    HW129936   2.917   1.950   4.488
 9679SOL    HW229937   2.971   2.064   4.592
 9680SOL     OW29938   4.884   6.153   4.678
 9680SOL    HW129939   4.804   6.210   4.693
 9680SOL    HW229940   4.860   6.057   4.691
 9681SOL     OW29941   2.953   1.269   1.007
 9681SOL    HW129942   2.919   1.350   1.056
 9681SOL    HW229943   2.968   1.292   0.911
 9682SOL     OW29944   5.814   5.247   4.054
 9682SOL    HW129945   5.910   5.275   4.055
 9682SOL    HW229946   5.808   5.149   4.033
 9683SOL     OW29947   1.757   6.578   0.485
 9683SOL    HW129948   1.789   6.673   0.476
 9683SOL    HW229949   1.794   6.523   0.410
 9684SOL     OW29950   1.042   3.631   5.348
 9684SOL    HW129951   1.100   3.710   5.330
 9684SOL    HW229952   0.994   3.604   5.265
 9685SOL     OW29953   4.663   3.836   0.680
 9685SOL    HW129954   4.603   3.766   0.643
 9685SOL    HW229955   4.757   3.819   0.650
 9686SOL     OW29956   0.251   1.870   6.523
 9686SOL    HW129957   0.231   1.902   6.616
 9686SOL    HW229958   0.320   1.929   6.481
 9687SOL     OW29959   6.318   6.747   1.402
 9687SOL    HW129960   6.234   6.713   1.444
 9687SOL    HW229961   6.391   6.680   1.416
 9688SOL     OW29962   1.154   4.464   0.721
 9688SOL    HW129963   1.188   4.434   0.632
 9688SOL    HW229964   1.171   4.562   0.732
 9689SOL     OW29965   1.037   4.964   6.532
 9689SOL    HW129966   0.958   4.960   6.472
 9689SOL    HW229967   1.118   4.987   6.479
 9690SOL     OW29968   4.913   5.459   5.299
 9690SOL    HW129969   4.921   5.530   5.228
 9690SOL    HW229970   4.877   5.500   5.382
 9691SOL     OW29971   3.478   4.169   2.672
 9691SOL    HW129972   3.397   4.208   2.628
 9691SOL    HW229973   3.521   4.103   2.611
 9692SOL     OW29974   4.817   5.229   0.201
 9692SOL    HW129975   4.743   5.272   0.251
 9692SOL    HW229976   4.896   5.217   0.261
 9693SOL     OW29977   5.950   3.960   4.363
 9693SOL    HW129978   5.952   3.889   4.292
 9693SOL    HW229979   6.043   3.973   4.399
 9694SOL     OW29980   3.019   0.333   1.470
 9694SOL    HW129981   2.948   0.363   1.534
 9694SOL    HW229982   2.990   0.250   1.424
 9695SOL     OW29983   0.148   4.011   2.637
 9695SOL    HW129984   0.127   3.916   2.618
 9695SOL    HW229985   0.111   4.069   2.564
 9696SOL     OW29986   5.945   1.803   2.863
 9696SOL    HW129987   6.007   1.747   2.917
 9696SOL    HW229988   5.899   1.745   2.796
 9697SOL     OW29989   6.659   6.526   0.103
 9697SOL    HW129990   6.681   6.429   0.093
 9697SOL    HW229991   6.606   6.556   0.023
 9698SOL     OW29992   5.801   3.386   6.283
 9698SOL    HW129993   5.776   3.428   6.196
 9698SOL    HW229994   5.725   3.393   6.347
 9699SOL     OW29995   0.756   5.938   6.974
 9699SOL    HW129996   0.846   5.913   7.008
 9699SOL    HW229997   0.708   5.993   0.019
 9700SOL     OW29998   6.990   6.328   3.943
 9700SOL    HW129999   0.043   6.276   3.905
 9700SOL    HW230000   6.936   6.367   3.868
 9701SOL     OW30001   5.028   3.472   6.416
 9701SOL    HW130002   4.949   3.525   6.384
 9701SOL    HW230003   5.060   3.412   6.342
 9702SOL     OW30004   3.422   2.864   0.474
 9702SOL    HW130005   3.376   2.775   0.476
 9702SOL    HW230006   3.509   2.858   0.522
 9703SOL     OW30007   6.039   3.685   3.945
 9703SOL    HW130008   6.090   3.748   3.887
 9703SOL    HW230009   6.094   3.602   3.959
 9704SOL     OW30010   3.168   4.876   2.854
 9704SOL    HW130011   3.258   4.911   2.880
 9704SOL    HW230012   3.104   4.888   2.930
 9705SOL     OW30013   6.260   4.359   5.534
 9705SOL    HW130014   6.260   4.275   5.588
 9705SOL    HW230015   6.233   4.339   5.440
 9706SOL     OW30016   2.080   1.408   1.256
 9706SOL    HW130017   2.156   1.351   1.226
 9706SOL    HW230018   2.006   1.350   1.290
 9707SOL     OW30019   5.732   4.741   1.908
 9707SOL    HW130020   5.675   4.691   1.974
 9707SOL    HW230021   5.711   4.838   1.913
 9708SOL     OW30022   1.312   1.451   2.205
 9708SOL    HW130023   1.245   1.525   2.205
 9708SOL    HW230024   1.404   1.490   2.199
 9709SOL     OW30025   5.337   3.889   1.806
 9709SOL    HW130026   5.288   3.907   1.891
 9709SOL    HW230027   5.275   3.899   1.728
 9710SOL     OW30028   6.320   0.534   6.662
 9710SOL    HW130029   6.303   0.472   6.586
 9710SOL    HW230030   6.373   0.488   6.733
 9711SOL     OW30031   3.934   6.437   5.595
 9711SOL    HW130032   3.977   6.520   5.560
 9711SOL    HW230033   3.859   6.410   5.535
 9712SOL     OW30034   5.943   3.345   0.356
 9712SOL    HW130035   5.862   3.286   0.348
 9712SOL    HW230036   6.026   3.291   0.344
 9713SOL     OW30037   2.424   6.589   2.901
 9713SOL    HW130038   2.388   6.614   2.991
 9713SOL    HW230039   2.350   6.586   2.834
 9714SOL     OW30040   4.320   5.714   4.706
 9714SOL    HW130041   4.222   5.695   4.698
 9714SOL    HW230042   4.350   5.692   4.799
 9715SOL     OW30043   6.480   4.844   0.457
 9715SOL    HW130044   6.412   4.798   0.400
 9715SOL    HW230045   6.515   4.781   0.525
 9716SOL     OW30046   4.329   3.797   6.760
 9716SOL    HW130047   4.322   3.832   6.667
 9716SOL    HW230048   4.314   3.872   6.825
 9717SOL     OW30049   4.952   6.265   6.828
 9717SOL    HW130050   4.882   6.329   6.795
 9717SOL    HW230051   4.973   6.199   6.756
 9718SOL     OW30052   4.561   2.330   0.512
 9718SOL    HW130053   4.589   2.253   0.570
 9718SOL    HW230054   4.532   2.297   0.423
 9719SOL     OW30055   5.266   0.030   5.708
 9719SOL    HW130056   5.184   0.023   5.651
 9719SOL    HW230057   5.262   0.115   5.761
 9720SOL     OW30058   1.601   3.635   2.669
 9720SOL    HW130059   1.637   3.724   2.697
 9720SOL    HW230060   1.663   3.593   2.603
 9721SOL     OW30061   0.343   1.633   0.304
 9721SOL    HW130062   0.443   1.625   0.308
 9721SOL    HW230063   0.314   1.645   0.209
 9722SOL     OW30064   3.631   2.122   4.977
 9722SOL    HW130065   3.538   2.133   5.012
 9722SOL    HW230066   3.695   2.172   5.035
 9723SOL     OW30067   6.140   4.943   4.717
 9723SOL    HW130068   6.213   4.883   4.750
 9723SOL    HW230069   6.174   5.037   4.713
 9724SOL     OW30070   2.240   5.162   6.490
 9724SOL    HW130071   2.325   5.136   6.536
 9724SOL    HW230072   2.174   5.088   6.496
 9725SOL     OW30073   3.933   5.838   5.089
 9725SOL    HW130074   4.017   5.860   5.138
 9725SOL    HW230075   3.866   5.801   5.153
 9726SOL     OW30076   5.377   0.846   4.163
 9726SOL    HW130077   5.316   0.876   4.237
 9726SOL    HW230078   5.470   0.876   4.183
 9727SOL     OW30079   0.609   2.777   6.978
 9727SOL    HW130080   0.539   2.727   6.927
 9727SOL    HW230081   0.683   2.716   7.002
 9728SOL     OW30082   6.544   1.456   6.226
 9728SOL    HW130083   6.457   1.407   6.222
 9728SOL    HW230084   6.558   1.490   6.319
 9729SOL     OW30085   1.453   3.612   4.106
 9729SOL    HW130086   1.499   3.540   4.054
 9729SOL    HW230087   1.510   3.638   4.184
 9730SOL     OW30088   0.976   4.223   3.743
 9730SOL    HW130089   0.998   4.130   3.713
 9730SOL    HW230090   0.882   4.225   3.776
 9731SOL     OW30091   4.944   4.872   1.917
 9731SOL    HW130092   4.898   4.795   1.874
 9731SOL    HW230093   5.029   4.842   1.959
 9732SOL     OW30094   0.253   3.135   2.025
 9732SOL    HW130095   0.204   3.059   2.067
 9732SOL    HW230096   0.189   3.210   2.008
 9733SOL     OW30097   5.919   5.456   1.588
 9733SOL    HW130098   5.870   5.479   1.672
 9733SOL    HW230099   6.001   5.512   1.581
 9734SOL     OW30100   6.467   6.541   0.567
 9734SOL    HW130101   6.387   6.602   0.565
 9734SOL    HW230102   6.516   6.546   0.480
 9735SOL     OW30103   1.520   2.595   3.411
 9735SOL    HW130104   1.481   2.509   3.446
 9735SOL    HW230105   1.458   2.635   3.344
 9736SOL     OW30106   4.719   2.256   5.946
 9736SOL    HW130107   4.743   2.159   5.949
 9736SOL    HW230108   4.802   2.311   5.948
 9737SOL     OW30109   5.798   1.991   3.240
 9737SOL    HW130110   5.848   2.031   3.163
 9737SOL    HW230111   5.789   1.892   3.226
 9738SOL     OW30112   2.108   6.721   0.275
 9738SOL    HW130113   2.110   6.773   0.360
 9738SOL    HW230114   2.078   6.627   0.294
 9739SOL     OW30115   4.986   6.081   0.016
 9739SOL    HW130116   5.048   6.014   6.998
 9739SOL    HW230117   4.966   6.153   6.974
 9740SOL     OW30118   5.233   0.388   2.522
 9740SOL    HW130119   5.280   0.433   2.598
 9740SOL    HW230120   5.154   0.338   2.556
 9741SOL     OW30121   2.348   1.023   3.757
 9741SOL    HW130122   2.272   1.021   3.821
 9741SOL    HW230123   2.397   1.111   3.766
 9742SOL     OW30124   4.840   0.862   0.243
 9742SOL    HW130125   4.781   0.940   0.267
 9742SOL    HW230126   4.876   0.821   0.327
 9743SOL     OW30127   0.272   3.419   3.303
 9743SOL    HW130128   0.239   3.447   3.213
 9743SOL    HW230129   0.366   3.451   3.315
 9744SOL     OW30130   2.243   6.842   3.048
 9744SOL    HW130131   2.153   6.846   3.092
 9744SOL    HW230132   2.231   6.825   2.950
 9745SOL     OW30133   5.361   2.618   6.067
 9745SOL    HW130134   5.301   2.697   6.075
 9745SOL    HW230135   5.454   2.649   6.048
 9746SOL     OW30136   5.275   6.392   6.690
 9746SOL    HW130137   5.347   6.363   6.627
 9746SOL    HW230138   5.233   6.476   6.657
 9747SOL     OW30139   2.483   2.254   1.806
 9747SOL    HW130140   2.433   2.235   1.722
 9747SOL    HW230141   2.507   2.168   1.852
 9748SOL     OW30142   6.938   6.862   3.108
 9748SOL    HW130143   6.914   6.811   3.025
 9748SOL    HW230144   7.017   6.819   3.152
 9749SOL     OW30145   0.671   1.441   2.459
 9749SOL    HW130146   0.630   1.365   2.510
 9749SOL    HW230147   0.599   1.496   2.417
 9750SOL     OW30148   6.380   4.861   3.979
 9750SOL    HW130149   6.406   4.772   3.943
 9750SOL    HW230150   6.395   4.931   3.909
 9751SOL     OW30151   2.304   7.003   0.462
 9751SOL    HW130152   2.284   0.058   0.403
 9751SOL    HW230153   2.314   0.011   0.557
 9752SOL     OW30154   4.017   2.623   6.633
 9752SOL    HW130155   4.002   2.594   6.727
 9752SOL    HW230156   3.929   2.644   6.590
 9753SOL     OW30157   1.241   6.018   5.951
 9753SOL    HW130158   1.329   6.013   5.998
 9753SOL    HW230159   1.238   6.101   5.895
 9754SOL     OW30160   4.145   0.102   0.100
 9754SOL    HW130161   4.121   0.035   0.171
 9754SOL    HW230162   4.244   0.109   0.093
 9755SOL     OW30163   3.211   3.867   4.961
 9755SOL    HW130164   3.111   3.866   4.950
 9755SOL    HW230165   3.236   3.805   5.036
 9756SOL     OW30166   6.033   1.587   6.146
 9756SOL    HW130167   5.949   1.626   6.184
 9756SOL    HW230168   6.010   1.509   6.087
 9757SOL     OW30169   5.441   4.382   4.956
 9757SOL    HW130170   5.525   4.428   4.985
 9757SOL    HW230171   5.461   4.323   4.877
 9758SOL     OW30172   1.198   1.522   6.775
 9758SOL    HW130173   1.206   1.460   6.853
 9758SOL    HW230174   1.286   1.565   6.758
 9759SOL     OW30175   0.996   1.752   6.936
 9759SOL    HW130176   1.077   1.710   6.976
 9759SOL    HW230177   0.967   1.700   6.856
 9760SOL     OW30178   5.108   3.020   6.842
 9760SOL    HW130179   5.024   2.980   6.805
 9760SOL    HW230180   5.171   3.038   6.767
 9761SOL     OW30181   1.245   1.879   2.262
 9761SOL    HW130182   1.182   1.938   2.212
 9761SOL    HW230183   1.198   1.795   2.289
 9762SOL     OW30184   3.560   1.659   4.921
 9762SOL    HW130185   3.511   1.605   4.852
 9762SOL    HW230186   3.503   1.736   4.949
 9763SOL     OW30187   5.921   1.031   2.943
 9763SOL    HW130188   5.989   1.023   3.015
 9763SOL    HW230189   5.953   0.985   2.861
 9764SOL     OW30190   6.458   1.865   3.076
 9764SOL    HW130191   6.537   1.913   3.116
 9764SOL    HW230192   6.374   1.899   3.118
 9765SOL     OW30193   6.366   0.484   2.928
 9765SOL    HW130194   6.434   0.515   2.994
 9765SOL    HW230195   6.305   0.560   2.905
 9766SOL     OW30196   2.112   0.223   3.068
 9766SOL    HW130197   2.124   0.322   3.072
 9766SOL    HW230198   2.110   0.185   3.161
 9767SOL     OW30199   2.094   2.748   4.911
 9767SOL    HW130200   2.124   2.844   4.911
 9767SOL    HW230201   2.159   2.693   4.860
 9768SOL     OW30202   5.068   1.868   1.115
 9768SOL    HW130203   5.108   1.922   1.041
 9768SOL    HW230204   4.969   1.886   1.120
 9769SOL     OW30205   3.594   0.921   5.441
 9769SOL    HW130206   3.640   0.900   5.355
 9769SOL    HW230207   3.641   0.997   5.487
 9770SOL     OW30208   4.135   1.821   5.317
 9770SOL    HW130209   4.132   1.778   5.407
 9770SOL    HW230210   4.225   1.860   5.302
 9771SOL     OW30211   2.679   6.566   1.479
 9771SOL    HW130212   2.678   6.585   1.577
 9771SOL    HW230213   2.652   6.471   1.462
 9772SOL     OW30214   2.114   6.472   1.818
 9772SOL    HW130215   2.052   6.504   1.747
 9772SOL    HW230216   2.125   6.543   1.888
 9773SOL     OW30217   5.851   4.845   3.773
 9773SOL    HW130218   5.890   4.915   3.833
 9773SOL    HW230219   5.790   4.887   3.706
 9774SOL     OW30220   0.499   4.358   3.567
 9774SOL    HW130221   0.574   4.410   3.527
 9774SOL    HW230222   0.447   4.313   3.494
 9775SOL     OW30223   2.803   0.427   3.317
 9775SOL    HW130224   2.735   0.366   3.277
 9775SOL    HW230225   2.839   0.488   3.247
 9776SOL     OW30226   1.343   4.624   6.212
 9776SOL    HW130227   1.405   4.678   6.269
 9776SOL    HW230228   1.345   4.529   6.241
 9777SOL     OW30229   5.406   6.301   0.333
 9777SOL    HW130230   5.474   6.374   0.321
 9777SOL    HW230231   5.399   6.278   0.430
 9778SOL     OW30232   0.141   2.237   4.556
 9778SOL    HW130233   0.160   2.172   4.629
 9778SOL    HW230234   0.051   2.277   4.569
 9779SOL     OW30235   0.324   2.535   3.548
 9779SOL    HW130236   0.340   2.520   3.646
 9779SOL    HW230237   0.229   2.513   3.527
 9780SOL     OW30238   2.320   1.453   0.904
 9780SOL    HW130239   2.317   1.552   0.920
 9780SOL    HW230240   2.395   1.414   0.958
 9781SOL     OW30241   2.138   3.225   4.752
 9781SOL    HW130242   2.069   3.217   4.824
 9781SOL    HW230243   2.189   3.310   4.763
 9782SOL     OW30244   0.853   1.966   0.746
 9782SOL    HW130245   0.843   2.014   0.659
 9782SOL    HW230246   0.940   1.991   0.789
 9783SOL     OW30247   4.451   1.845   3.509
 9783SOL    HW130248   4.480   1.770   3.569
 9783SOL    HW230249   4.413   1.806   3.425
 9784SOL     OW30250   3.709   0.943   5.790
 9784SOL    HW130251   3.753   0.993   5.866
 9784SOL    HW230252   3.738   0.984   5.703
 9785SOL     OW30253   5.752   2.321   5.515
 9785SOL    HW130254   5.770   2.389   5.586
 9785SOL    HW230255   5.735   2.368   5.428
 9786SOL     OW30256   2.447   4.268   0.255
 9786SOL    HW130257   2.493   4.232   0.336
 9786SOL    HW230258   2.400   4.194   0.208
 9787SOL     OW30259   3.559   2.928   4.060
 9787SOL    HW130260   3.618   2.881   3.993
 9787SOL    HW230261   3.463   2.909   4.039
 9788SOL     OW30262   0.879   6.347   2.021
 9788SOL    HW130263   0.888   6.427   1.963
 9788SOL    HW230264   0.815   6.366   2.096
 9789SOL     OW30265   2.427   6.692   6.747
 9789SOL    HW130266   2.371   6.772   6.724
 9789SOL    HW230267   2.523   6.714   6.732
 9790SOL     OW30268   6.223   4.506   6.252
 9790SOL    HW130269   6.158   4.533   6.180
 9790SOL    HW230270   6.172   4.468   6.329
 9791SOL     OW30271   1.071   0.679   0.098
 9791SOL    HW130272   1.119   0.766   0.086
 9791SOL    HW230273   0.976   0.689   0.066
 9792SOL     OW30274   3.595   4.838   1.344
 9792SOL    HW130275   3.603   4.933   1.373
 9792SOL    HW230276   3.607   4.832   1.245
 9793SOL     OW30277   4.176   0.168   2.284
 9793SOL    HW130278   4.124   0.181   2.200
 9793SOL    HW230279   4.118   0.121   2.352
 9794SOL     OW30280   5.692   4.431   5.048
 9794SOL    HW130281   5.665   4.349   5.098
 9794SOL    HW230282   5.762   4.481   5.100
 9795SOL     OW30283   0.858   3.134   4.570
 9795SOL    HW130284   0.864   3.233   4.559
 9795SOL    HW230285   0.781   3.112   4.631
 9796SOL     OW30286   3.319   3.983   3.403
 9796SOL    HW130287   3.345   3.887   3.394
 9796SOL    HW230288   3.387   4.030   3.459
 9797SOL     OW30289   2.228   6.047   0.302
 9797SOL    HW130290   2.259   5.962   0.259
 9797SOL    HW230291   2.221   6.119   0.233
 9798SOL     OW30292   2.349   1.286   1.244
 9798SOL    HW130293   2.402   1.275   1.329
 9798SOL    HW230294   2.411   1.280   1.166
 9799SOL     OW30295   3.547   4.093   6.322
 9799SOL    HW130296   3.595   4.005   6.325
 9799SOL    HW230297   3.474   4.093   6.391
 9800SOL     OW30298   5.824   4.214   4.290
 9800SOL    HW130299   5.846   4.126   4.333
 9800SOL    HW230300   5.895   4.280   4.315
 9801SOL     OW30301   5.121   5.231   0.345
 9801SOL    HW130302   5.207   5.279   0.358
 9801SOL    HW230303   5.121   5.146   0.397
 9802SOL     OW30304   4.466   4.707   0.419
 9802SOL    HW130305   4.435   4.640   0.487
 9802SOL    HW230306   4.449   4.672   0.327
 9803SOL     OW30307   2.063   3.721   6.158
 9803SOL    HW130308   2.125   3.696   6.083
 9803SOL    HW230309   2.107   3.703   6.245
 9804SOL     OW30310   0.113   5.701   3.023
 9804SOL    HW130311   0.054   5.621   3.027
 9804SOL    HW230312   0.074   5.768   2.960
 9805SOL     OW30313   0.585   6.354   2.983
 9805SOL    HW130314   0.572   6.260   3.017
 9805SOL    HW230315   0.632   6.408   3.053
 9806SOL     OW30316   1.995   1.812   6.978
 9806SOL    HW130317   2.043   1.785   6.894
 9806SOL    HW230318   2.032   1.899   7.011
 9807SOL     OW30319   3.475   3.183   2.483
 9807SOL    HW130320   3.566   3.209   2.515
 9807SOL    HW230321   3.413   3.261   2.490
 9808SOL     OW30322   3.501   5.639   4.233
 9808SOL    HW130323   3.473   5.607   4.142
 9808SOL    HW230324   3.588   5.595   4.258
 9809SOL     OW30325   0.857   3.477   0.349
 9809SOL    HW130326   0.848   3.413   0.272
 9809SOL    HW230327   0.780   3.464   0.411
 9810SOL     OW30328   2.970   2.137   4.878
 9810SOL    HW130329   2.960   2.175   4.786
 9810SOL    HW230330   3.017   2.203   4.936
 9811SOL     OW30331   5.901   4.297   3.312
 9811SOL    HW130332   5.878   4.369   3.247
 9811SOL    HW230333   5.998   4.276   3.307
 9812SOL     OW30334   2.584   1.273   4.492
 9812SOL    HW130335   2.633   1.186   4.496
 9812SOL    HW230336   2.632   1.341   4.547
 9813SOL     OW30337   5.453   1.998   0.887
 9813SOL    HW130338   5.533   1.990   0.828
 9813SOL    HW230339   5.456   2.085   0.936
 9814SOL     OW30340   5.481   1.408   0.111
 9814SOL    HW130341   5.490   1.423   0.013
 9814SOL    HW230342   5.385   1.414   0.138
 9815SOL     OW30343   4.741   2.576   4.302
 9815SOL    HW130344   4.697   2.585   4.391
 9815SOL    HW230345   4.673   2.552   4.233
 9816SOL     OW30346   0.982   0.982   5.960
 9816SOL    HW130347   1.064   0.927   5.944
 9816SOL    HW230348   0.927   0.940   6.032
 9817SOL     OW30349   1.144   0.119   3.249
 9817SOL    HW130350   1.111   0.116   3.155
 9817SOL    HW230351   1.236   0.160   3.250
 9818SOL     OW30352   6.466   2.207   4.752
 9818SOL    HW130353   6.476   2.219   4.654
 9818SOL    HW230354   6.402   2.133   4.771
 9819SOL     OW30355   4.848   3.061   3.375
 9819SOL    HW130356   4.930   3.051   3.432
 9819SOL    HW230357   4.784   2.986   3.394
 9820SOL     OW30358   3.651   3.232   6.486
 9820SOL    HW130359   3.664   3.139   6.522
 9820SOL    HW230360   3.568   3.272   6.525
 9821SOL     OW30361   5.187   0.781   6.518
 9821SOL    HW130362   5.214   0.787   6.614
 9821SOL    HW230363   5.141   0.694   6.501
 9822SOL     OW30364   1.287   6.795   3.145
 9822SOL    HW130365   1.346   6.729   3.098
 9822SOL    HW230366   1.199   6.799   3.098
 9823SOL     OW30367   3.761   0.134   1.156
 9823SOL    HW130368   3.815   0.198   1.101
 9823SOL    HW230369   3.818   0.058   1.185
 9824SOL     OW30370   1.683   4.336   5.711
 9824SOL    HW130371   1.682   4.405   5.783
 9824SOL    HW230372   1.717   4.377   5.626
 9825SOL     OW30373   3.167   4.944   5.337
 9825SOL    HW130374   3.208   4.951   5.246
 9825SOL    HW230375   3.238   4.919   5.403
 9826SOL     OW30376   5.398   5.260   6.130
 9826SOL    HW130377   5.410   5.360   6.133
 9826SOL    HW230378   5.304   5.239   6.102
 9827SOL     OW30379   2.044   3.324   4.130
 9827SOL    HW130380   2.097   3.307   4.047
 9827SOL    HW230381   1.958   3.370   4.106
 9828SOL     OW30382   2.622   3.013   6.291
 9828SOL    HW130383   2.686   2.945   6.253
 9828SOL    HW230384   2.608   2.995   6.388
 9829SOL     OW30385   3.161   6.484   0.539
 9829SOL    HW130386   3.188   6.414   0.605
 9829SOL    HW230387   3.061   6.493   0.540
 9830SOL     OW30388   5.251   2.638   1.346
 9830SOL    HW130389   5.183   2.706   1.371
 9830SOL    HW230390   5.210   2.568   1.288
 9831SOL     OW30391   1.469   6.316   1.184
 9831SOL    HW130392   1.403   6.285   1.114
 9831SOL    HW230393   1.455   6.264   1.268
 9832SOL     OW30394   5.149   5.049   2.776
 9832SOL    HW130395   5.089   4.980   2.735
 9832SOL    HW230396   5.235   5.052   2.726
 9833SOL     OW30397   3.434   2.983   4.599
 9833SOL    HW130398   3.438   2.918   4.674
 9833SOL    HW230399   3.348   2.971   4.549
 9834SOL     OW30400   3.214   4.379   5.691
 9834SOL    HW130401   3.226   4.443   5.615
 9834SOL    HW230402   3.201   4.286   5.656
 9835SOL     OW30403   3.514   2.531   5.982
 9835SOL    HW130404   3.506   2.582   5.897
 9835SOL    HW230405   3.566   2.447   5.966
 9836SOL     OW30406   6.125   4.693   3.500
 9836SOL    HW130407   6.093   4.767   3.441
 9836SOL    HW230408   6.068   4.613   3.487
 9837SOL     OW30409   2.791   0.333   2.406
 9837SOL    HW130410   2.811   0.426   2.375
 9837SOL    HW230411   2.873   0.277   2.398
 9838SOL     OW30412   0.558   0.007   5.993
 9838SOL    HW130413   0.585   6.981   5.911
 9838SOL    HW230414   0.587   0.102   5.986
 9839SOL     OW30415   5.334   1.279   3.356
 9839SOL    HW130416   5.411   1.259   3.296
 9839SOL    HW230417   5.248   1.260   3.308
 9840SOL     OW30418   0.593   1.112   1.452
 9840SOL    HW130419   0.678   1.154   1.484
 9840SOL    HW230420   0.530   1.101   1.529
 9841SOL     OW30421   1.537   3.899   4.779
 9841SOL    HW130422   1.440   3.886   4.761
 9841SOL    HW230423   1.570   3.830   4.843
 9842SOL     OW30424   3.840   3.878   3.081
 9842SOL    HW130425   3.879   3.902   2.992
 9842SOL    HW230426   3.741   3.865   3.071
 9843SOL     OW30427   5.963   1.919   1.913
 9843SOL    HW130428   5.881   1.957   1.871
 9843SOL    HW230429   5.971   1.953   2.007
 9844SOL     OW30430   5.566   0.650   2.533
 9844SOL    HW130431   5.518   0.574   2.577
 9844SOL    HW230432   5.604   0.620   2.446
 9845SOL     OW30433   2.849   1.385   3.773
 9845SOL    HW130434   2.814   1.298   3.807
 9845SOL    HW230435   2.775   1.434   3.726
 9846SOL     OW30436   3.972   3.737   2.047
 9846SOL    HW130437   4.057   3.776   2.012
 9846SOL    HW230438   3.952   3.652   1.999
 9847SOL     OW30439   3.483   2.710   5.316
 9847SOL    HW130440   3.386   2.690   5.331
 9847SOL    HW230441   3.492   2.785   5.251
 9848SOL     OW30442   3.738   2.856   6.175
 9848SOL    HW130443   3.723   2.953   6.193
 9848SOL    HW230444   3.671   2.823   6.108
 9849SOL     OW30445   6.293   0.495   0.428
 9849SOL    HW130446   6.385   0.514   0.463
 9849SOL    HW230447   6.281   0.541   0.340
 9850SOL     OW30448   5.716   6.480   2.717
 9850SOL    HW130449   5.664   6.565   2.711
 9850SOL    HW230450   5.718   6.449   2.812
 9851SOL     OW30451   4.535   2.469   5.901
 9851SOL    HW130452   4.586   2.555   5.901
 9851SOL    HW230453   4.596   2.394   5.929
 9852SOL     OW30454   4.205   1.939   2.757
 9852SOL    HW130455   4.175   2.034   2.753
 9852SOL    HW230456   4.129   1.882   2.789
 9853SOL     OW30457   4.854   3.931   3.441
 9853SOL    HW130458   4.947   3.922   3.405
 9853SOL    HW230459   4.789   3.930   3.365
 9854SOL     OW30460   6.953   5.095   4.410
 9854SOL    HW130461   0.003   5.093   4.343
 9854SOL    HW230462   6.952   5.010   4.462
 9855SOL     OW30463   2.545   4.090   1.569
 9855SOL    HW130464   2.510   4.125   1.482
 9855SOL    HW230465   2.491   4.127   1.645
 9856SOL     OW30466   5.109   3.838   6.754
 9856SOL    HW130467   5.022   3.839   6.706
 9856SOL    HW230468   5.144   3.744   6.758
 9857SOL     OW30469   4.017   1.679   4.660
 9857SOL    HW130470   4.013   1.705   4.564
 9857SOL    HW230471   3.940   1.719   4.709
 9858SOL     OW30472   0.102   0.541   1.522
 9858SOL    HW130473   0.052   0.596   1.455
 9858SOL    HW230474   0.192   0.518   1.487
 9859SOL     OW30475   6.116   6.799   1.817
 9859SOL    HW130476   6.138   6.819   1.912
 9859SOL    HW230477   6.050   6.866   1.783
 9860SOL     OW30478   6.947   1.240   2.929
 9860SOL    HW130479   6.849   1.256   2.915
 9860SOL    HW230480   6.969   1.145   2.907
 9861SOL     OW30481   3.460   6.960   3.014
 9861SOL    HW130482   3.441   6.870   2.974
 9861SOL    HW230483   3.374   7.010   3.025
 9862SOL     OW30484   2.553   5.132   0.779
 9862SOL    HW130485   2.592   5.224   0.774
 9862SOL    HW230486   2.625   5.064   0.766
 9863SOL     OW30487   3.182   0.329   3.596
 9863SOL    HW130488   3.210   0.278   3.676
 9863SOL    HW230489   3.085   0.315   3.579
 9864SOL     OW30490   3.799   5.932   4.053
 9864SOL    HW130491   3.728   5.863   4.062
 9864SOL    HW230492   3.788   6.000   4.126
 9865SOL     OW30493   1.715   1.020   3.906
 9865SOL    HW130494   1.751   1.105   3.867
 9865SOL    HW230495   1.629   1.039   3.953
 9866SOL     OW30496   5.712   4.702   5.370
 9866SOL    HW130497   5.641   4.669   5.432
 9866SOL    HW230498   5.750   4.625   5.319
 9867SOL     OW30499   6.143   0.520   0.784
 9867SOL    HW130500   6.163   0.466   0.703
 9867SOL    HW230501   6.213   0.591   0.795
 9868SOL     OW30502   0.876   3.915   5.586
 9868SOL    HW130503   0.900   3.943   5.679
 9868SOL    HW230504   0.877   3.815   5.581
 9869SOL     OW30505   1.845   3.193   2.372
 9869SOL    HW130506   1.782   3.260   2.334
 9869SOL    HW230507   1.805   3.153   2.454
 9870SOL     OW30508   4.647   5.906   3.001
 9870SOL    HW130509   4.583   5.868   3.068
 9870SOL    HW230510   4.622   5.875   2.910
 9871SOL     OW30511   0.729   6.839   6.170
 9871SOL    HW130512   0.785   6.911   6.212
 9871SOL    HW230513   0.661   6.807   6.236
 9872SOL     OW30514   2.471   4.561   4.459
 9872SOL    HW130515   2.441   4.487   4.399
 9872SOL    HW230516   2.464   4.531   4.554
 9873SOL     OW30517   2.932   2.233   1.159
 9873SOL    HW130518   2.853   2.292   1.138
 9873SOL    HW230519   2.952   2.239   1.257
 9874SOL     OW30520   0.788   3.520   4.174
 9874SOL    HW130521   0.888   3.513   4.171
 9874SOL    HW230522   0.748   3.454   4.111
 9875SOL     OW30523   6.876   6.765   2.235
 9875SOL    HW130524   6.921   6.721   2.158
 9875SOL    HW230525   6.777   6.761   2.223
 9876SOL     OW30526   6.003   0.602   2.705
 9876SOL    HW130527   6.032   0.585   2.611
 9876SOL    HW230528   5.909   0.636   2.706
 9877SOL     OW30529   0.266   6.285   3.454
 9877SOL    HW130530   0.187   6.288   3.394
 9877SOL    HW230531   0.300   6.191   3.460
 9878SOL     OW30532   2.875   5.115   5.003
 9878SOL    HW130533   2.867   5.051   5.079
 9878SOL    HW230534   2.828   5.077   4.923
 9879SOL     OW30535   5.620   5.401   4.164
 9879SOL    HW130536   5.692   5.339   4.132
 9879SOL    HW230537   5.602   5.471   4.095
 9880SOL     OW30538   3.097   1.476   5.649
 9880SOL    HW130539   3.171   1.542   5.659
 9880SOL    HW230540   3.031   1.508   5.581
 9881SOL     OW30541   1.521   1.598   4.982
 9881SOL    HW130542   1.423   1.616   4.992
 9881SOL    HW230543   1.557   1.558   5.066
 9882SOL     OW30544   0.816   2.510   3.693
 9882SOL    HW130545   0.750   2.442   3.660
 9882SOL    HW230546   0.908   2.471   3.689
 9883SOL     OW30547   1.127   5.657   7.000
 9883SOL    HW130548   1.204   5.656   0.041
 9883SOL    HW230549   1.161   5.681   6.909
 9884SOL     OW30550   4.335   1.962   3.033
 9884SOL    HW130551   4.392   2.039   3.060
 9884SOL    HW230552   4.270   1.991   2.963
 9885SOL     OW30553   6.736   2.977   5.479
 9885SOL    HW130554   6.828   2.945   5.453
 9885SOL    HW230555   6.696   2.913   5.544
 9886SOL     OW30556   1.006   3.755   1.800
 9886SOL    HW130557   1.059   3.827   1.845
 9886SOL    HW230558   1.033   3.666   1.837
 9887SOL     OW30559   4.141   0.901   6.176
 9887SOL    HW130560   4.175   0.994   6.162
 9887SOL    HW230561   4.114   0.890   6.272
 9888SOL     OW30562   5.445   4.414   1.850
 9888SOL    HW130563   5.464   4.364   1.935
 9888SOL    HW230564   5.506   4.382   1.778
 9889SOL     OW30565   0.334   5.646   1.620
 9889SOL    HW130566   0.246   5.626   1.663
 9889SOL    HW230567   0.360   5.570   1.560
 9890SOL     OW30568   1.670   2.010   0.495
 9890SOL    HW130569   1.721   1.992   0.411
 9890SOL    HW230570   1.679   1.932   0.557
 9891SOL     OW30571   5.803   3.130   1.886
 9891SOL    HW130572   5.788   3.224   1.856
 9891SOL    HW230573   5.748   3.112   1.968
 9892SOL     OW30574   6.825   4.633   0.896
 9892SOL    HW130575   6.921   4.646   0.869
 9892SOL    HW230576   6.772   4.714   0.869
 9893SOL     OW30577   0.916   6.889   1.427
 9893SOL    HW130578   0.966   6.976   1.424
 9893SOL    HW230579   0.969   6.819   1.379
 9894SOL     OW30580   2.724   2.717   1.696
 9894SOL    HW130581   2.743   2.620   1.708
 9894SOL    HW230582   2.801   2.770   1.732
 9895SOL     OW30583   6.548   4.204   5.218
 9895SOL    HW130584   6.530   4.292   5.263
 9895SOL    HW230585   6.639   4.171   5.245
 9896SOL     OW30586   6.271   0.814   6.820
 9896SOL    HW130587   6.268   0.749   6.744
 9896SOL    HW230588   6.353   0.870   6.813
 9897SOL     OW30589   5.983   6.040   2.872
 9897SOL    HW130590   5.929   5.956   2.869
 9897SOL    HW230591   5.963   6.096   2.791
 9898SOL     OW30592   1.284   6.013   4.199
 9898SOL    HW130593   1.304   6.104   4.163
 9898SOL    HW230594   1.221   5.966   4.139
 9899SOL     OW30595   0.825   5.905   0.312
 9899SOL    HW130596   0.876   5.862   0.238
 9899SOL    HW230597   0.795   5.996   0.283
 9900SOL     OW30598   2.029   3.462   3.201
 9900SOL    HW130599   2.052   3.540   3.259
 9900SOL    HW230600   2.084   3.466   3.117
 9901SOL     OW30601   2.848   0.433   6.701
 9901SOL    HW130602   2.759   0.412   6.661
 9901SOL    HW230603   2.890   0.508   6.652
 9902SOL     OW30604   3.231   4.874   1.023
 9902SOL    HW130605   3.205   4.868   1.119
 9902SOL    HW230606   3.247   4.970   0.999
 9903SOL     OW30607   4.707   1.831   2.401
 9903SOL    HW130608   4.729   1.884   2.483
 9903SOL    HW230609   4.698   1.894   2.323
 9904SOL     OW30610   1.199   4.057   0.289
 9904SOL    HW130611   1.177   4.153   0.271
 9904SOL    HW230612   1.203   4.007   0.202
 9905SOL     OW30613   2.100   7.003   6.138
 9905SOL    HW130614   2.085   6.985   6.235
 9905SOL    HW230615   2.098   6.917   6.087
 9906SOL     OW30616   2.394   3.643   1.645
 9906SOL    HW130617   2.418   3.584   1.723
 9906SOL    HW230618   2.431   3.735   1.661
 9907SOL     OW30619   6.696   0.492   1.458
 9907SOL    HW130620   6.617   0.433   1.445
 9907SOL    HW230621   6.706   0.514   1.555
 9908SOL     OW30622   5.930   1.405   4.834
 9908SOL    HW130623   5.928   1.463   4.753
 9908SOL    HW230624   5.854   1.340   4.831
 9909SOL     OW30625   4.544   0.352   3.268
 9909SOL    HW130626   4.484   0.288   3.221
 9909SOL    HW230627   4.585   0.307   3.347
 9910SOL     OW30628   1.463   4.625   2.563
 9910SOL    HW130629   1.420   4.708   2.597
 9910SOL    HW230630   1.420   4.545   2.607
 9911SOL     OW30631   2.823   5.614   2.113
 9911SOL    HW130632   2.880   5.626   2.032
 9911SOL    HW230633   2.781   5.701   2.137
 9912SOL     OW30634   3.740   0.067   1.634
 9912SOL    HW130635   3.825   0.067   1.686
 9912SOL    HW230636   3.669   0.116   1.685
 9913SOL     OW30637   5.885   3.493   1.065
 9913SOL    HW130638   5.861   3.586   1.092
 9913SOL    HW230639   5.948   3.454   1.131
 9914SOL     OW30640   5.622   1.254   4.588
 9914SOL    HW130641   5.676   1.193   4.530
 9914SOL    HW230642   5.554   1.201   4.638
 9915SOL     OW30643   5.308   0.197   3.163
 9915SOL    HW130644   5.239   0.256   3.204
 9915SOL    HW230645   5.268   0.146   3.087
 9916SOL     OW30646   2.271   2.422   2.755
 9916SOL    HW130647   2.173   2.404   2.766
 9916SOL    HW230648   2.318   2.336   2.737
 9917SOL     OW30649   5.463   4.384   6.624
 9917SOL    HW130650   5.479   4.286   6.639
 9917SOL    HW230651   5.491   4.409   6.532
 9918SOL     OW30652   3.394   1.350   3.125
 9918SOL    HW130653   3.456   1.402   3.183
 9918SOL    HW230654   3.436   1.338   3.035
 9919SOL     OW30655   0.390   5.167   1.331
 9919SOL    HW130656   0.298   5.157   1.293
 9919SOL    HW230657   0.406   5.094   1.398
 9920SOL     OW30658   4.603   1.470   2.231
 9920SOL    HW130659   4.509   1.498   2.210
 9920SOL    HW230660   4.639   1.416   2.155
 9921SOL     OW30661   3.862   0.198   5.471
 9921SOL    HW130662   3.811   0.116   5.500
 9921SOL    HW230663   3.802   0.258   5.419
 9922SOL     OW30664   2.568   4.198   0.686
 9922SOL    HW130665   2.628   4.210   0.765
 9922SOL    HW230666   2.493   4.264   0.690
 9923SOL     OW30667   5.184   4.985   6.513
 9923SOL    HW130668   5.274   5.027   6.526
 9923SOL    HW230669   5.122   5.019   6.584
 9924SOL     OW30670   6.552   1.584   4.477
 9924SOL    HW130671   6.483   1.649   4.445
 9924SOL    HW230672   6.593   1.538   4.398
 9925SOL     OW30673   0.437   3.733   4.429
 9925SOL    HW130674   0.468   3.638   4.423
 9925SOL    HW230675   0.450   3.778   4.341
 9926SOL     OW30676   3.833   2.469   0.853
 9926SOL    HW130677   3.918   2.429   0.819
 9926SOL    HW230678   3.755   2.424   0.809
 9927SOL     OW30679   6.844   6.866   0.564
 9927SOL    HW130680   6.786   6.855   0.483
 9927SOL    HW230681   6.870   6.963   0.574
 9928SOL     OW30682   4.858   3.883   2.894
 9928SOL    HW130683   4.835   3.919   2.984
 9928SOL    HW230684   4.903   3.795   2.903
 9929SOL     OW30685   3.543   4.423   5.638
 9929SOL    HW130686   3.497   4.503   5.598
 9929SOL    HW230687   3.642   4.438   5.636
 9930SOL     OW30688   6.402   6.373   4.905
 9930SOL    HW130689   6.383   6.468   4.931
 9930SOL    HW230690   6.447   6.371   4.816
 9931SOL     OW30691   0.570   5.898   4.314
 9931SOL    HW130692   0.608   5.830   4.251
 9931SOL    HW230693   0.645   5.943   4.363
 9932SOL     OW30694   3.633   3.665   6.816
 9932SOL    HW130695   3.656   3.578   6.771
 9932SOL    HW230696   3.688   3.675   6.899
 9933SOL     OW30697   6.913   5.948   3.103
 9933SOL    HW130698   6.873   6.027   3.149
 9933SOL    HW230699   7.008   5.937   3.132
 9934SOL     OW30700   6.398   2.310   5.753
 9934SOL    HW130701   6.310   2.342   5.718
 9934SOL    HW230702   6.441   2.251   5.685
 9935SOL     OW30703   2.879   6.423   6.665
 9935SOL    HW130704   2.790   6.390   6.697
 9935SOL    HW230705   2.951   6.360   6.696
 9936SOL     OW30706   6.811   5.382   6.942
 9936SOL    HW130707   6.879   5.345   7.005
 9936SOL    HW230708   6.726   5.402   6.992
 9937SOL     OW30709   6.487   1.720   0.839
 9937SOL    HW130710   6.426   1.713   0.917
 9937SOL    HW230711   6.540   1.804   0.846
 9938SOL     OW30712   6.754   4.897   2.919
 9938SOL    HW130713   6.782   4.904   2.824
 9938SOL    HW230714   6.695   4.817   2.931
 9939SOL     OW30715   4.297   2.086   1.269
 9939SOL    HW130716   4.284   2.068   1.367
 9939SOL    HW230717   4.342   2.008   1.226
 9940SOL     OW30718   1.048   0.119   1.138
 9940SOL    HW130719   1.061   0.099   1.041
 9940SOL    HW230720   0.961   0.167   1.150
 9941SOL     OW30721   3.441   3.308   5.495
 9941SOL    HW130722   3.407   3.401   5.478
 9941SOL    HW230723   3.520   3.291   5.437
 9942SOL     OW30724   2.323   4.903   2.832
 9942SOL    HW130725   2.353   4.986   2.786
 9942SOL    HW230726   2.370   4.895   2.920
 9943SOL     OW30727   0.467   4.739   5.862
 9943SOL    HW130728   0.495   4.685   5.782
 9943SOL    HW230729   0.386   4.793   5.839
 9944SOL     OW30730   0.941   4.373   6.302
 9944SOL    HW130731   1.019   4.344   6.247
 9944SOL    HW230732   0.883   4.434   6.248
 9945SOL     OW30733   5.532   5.338   6.777
 9945SOL    HW130734   5.504   5.400   6.851
 9945SOL    HW230735   5.452   5.290   6.742
 9946SOL     OW30736   5.617   0.988   3.904
 9946SOL    HW130737   5.674   0.965   3.826
 9946SOL    HW230738   5.520   0.977   3.880
 9947SOL     OW30739   2.274   2.185   4.769
 9947SOL    HW130740   2.227   2.103   4.736
 9947SOL    HW230741   2.275   2.254   4.697
 9948SOL     OW30742   5.919   4.283   4.952
 9948SOL    HW130743   5.827   4.274   4.915
 9948SOL    HW230744   5.987   4.265   4.880
 9949SOL     OW30745   6.647   4.938   4.712
 9949SOL    HW130746   6.648   4.848   4.757
 9949SOL    HW230747   6.627   4.927   4.615
 9950SOL     OW30748   5.872   5.803   5.409
 9950SOL    HW130749   5.828   5.792   5.319
 9950SOL    HW230750   5.882   5.901   5.428
 9951SOL     OW30751   6.933   1.136   4.016
 9951SOL    HW130752   6.930   1.232   4.042
 9951SOL    HW230753   7.023   1.113   3.979
 9952SOL     OW30754   1.192   3.783   0.907
 9952SOL    HW130755   1.116   3.720   0.919
 9952SOL    HW230756   1.273   3.733   0.877
 9953SOL     OW30757   5.506   2.468   4.684
 9953SOL    HW130758   5.563   2.482   4.765
 9953SOL    HW230759   5.533   2.532   4.612
 9954SOL     OW30760   6.662   0.834   6.248
 9954SOL    HW130761   6.683   0.813   6.344
 9954SOL    HW230762   6.742   0.816   6.192
 9955SOL     OW30763   6.334   3.609   5.165
 9955SOL    HW130764   6.309   3.558   5.082
 9955SOL    HW230765   6.258   3.606   5.229
 9956SOL     OW30766   1.408   0.061   1.862
 9956SOL    HW130767   1.466   0.121   1.807
 9956SOL    HW230768   1.465   0.001   1.917
 9957SOL     OW30769   4.829   5.896   2.597
 9957SOL    HW130770   4.879   5.976   2.563
 9957SOL    HW230771   4.870   5.865   2.682
 9958SOL     OW30772   3.405   5.513   6.983
 9958SOL    HW130773   3.411   5.424   0.005
 9958SOL    HW230774   3.497   5.540   6.952
 9959SOL     OW30775   4.075   3.641   5.223
 9959SOL    HW130776   4.095   3.618   5.128
 9959SOL    HW230777   4.143   3.707   5.256
 9960SOL     OW30778   6.803   0.509   2.017
 9960SOL    HW130779   6.806   0.467   2.108
 9960SOL    HW230780   6.776   0.605   2.025
 9961SOL     OW30781   1.406   4.921   4.813
 9961SOL    HW130782   1.405   4.987   4.888
 9961SOL    HW230783   1.500   4.910   4.779
 9962SOL     OW30784   6.344   5.892   2.141
 9962SOL    HW130785   6.294   5.808   2.117
 9962SOL    HW230786   6.363   5.892   2.239
 9963SOL     OW30787   3.051   3.143   6.623
 9963SOL    HW130788   3.058   3.226   6.568
 9963SOL    HW230789   3.043   3.064   6.563
 9964SOL     OW30790   5.603   4.366   5.511
 9964SOL    HW130791   5.609   4.333   5.606
 9964SOL    HW230792   5.557   4.454   5.509
 9965SOL     OW30793   3.624   6.604   6.056
 9965SOL    HW130794   3.563   6.555   6.119
 9965SOL    HW230795   3.595   6.700   6.049
 9966SOL     OW30796   1.782   5.891   2.073
 9966SOL    HW130797   1.692   5.927   2.099
 9966SOL    HW230798   1.791   5.891   1.973
 9967SOL     OW30799   6.846   0.350   2.244
 9967SOL    HW130800   6.806   0.259   2.247
 9967SOL    HW230801   6.872   0.378   2.337
 9968SOL     OW30802   3.617   3.933   0.869
 9968SOL    HW130803   3.655   3.865   0.931
 9968SOL    HW230804   3.572   3.887   0.793
 9969SOL     OW30805   1.842   2.858   2.812
 9969SOL    HW130806   1.837   2.895   2.904
 9969SOL    HW230807   1.865   2.931   2.748
 9970SOL     OW30808   5.484   3.460   2.706
 9970SOL    HW130809   5.511   3.415   2.622
 9970SOL    HW230810   5.413   3.527   2.687
 9971SOL     OW30811   2.073   5.631   1.055
 9971SOL    HW130812   2.142   5.570   1.095
 9971SOL    HW230813   2.119   5.708   1.011
 9972SOL     OW30814   4.351   4.893   1.560
 9972SOL    HW130815   4.439   4.874   1.603
 9972SOL    HW230816   4.348   4.849   1.470
 9973SOL     OW30817   4.429   2.041   3.990
 9973SOL    HW130818   4.441   2.059   3.892
 9973SOL    HW230819   4.479   1.959   4.016
 9974SOL     OW30820   0.344   3.131   3.157
 9974SOL    HW130821   0.296   3.126   3.070
 9974SOL    HW230822   0.322   3.217   3.203
 9975SOL     OW30823   6.027   4.399   0.070
 9975SOL    HW130824   6.082   4.479   0.047
 9975SOL    HW230825   6.054   4.363   0.159
 9976SOL     OW30826   0.234   6.468   5.482
 9976SOL    HW130827   0.262   6.495   5.575
 9976SOL    HW230828   0.178   6.385   5.487
 9977SOL     OW30829   6.821   5.734   5.382
 9977SOL    HW130830   6.782   5.651   5.343
 9977SOL    HW230831   6.845   5.719   5.477
 9978SOL     OW30832   0.045   2.436   3.512
 9978SOL    HW130833   0.025   2.383   3.430
 9978SOL    HW230834   7.012   2.404   3.588
 9979SOL     OW30835   6.155   5.626   5.139
 9979SOL    HW130836   6.148   5.611   5.238
 9979SOL    HW230837   6.249   5.653   5.117
 9980SOL     OW30838   1.807   1.333   5.589
 9980SOL    HW130839   1.817   1.355   5.492
 9980SOL    HW230840   1.748   1.252   5.599
 9981SOL     OW30841   2.248   1.899   1.886
 9981SOL    HW130842   2.247   1.941   1.795
 9981SOL    HW230843   2.292   1.810   1.881
 9982SOL     OW30844   6.593   6.889   4.194
 9982SOL    HW130845   6.635   6.801   4.216
 9982SOL    HW230846   6.556   6.885   4.101
 9983SOL     OW30847   6.863   2.492   2.795
 9983SOL    HW130848   6.765   2.482   2.812
 9983SOL    HW230849   6.877   2.552   2.717
 9984SOL     OW30850   1.768   0.797   6.952
 9984SOL    HW130851   1.859   0.822   6.919
 9984SOL    HW230852   1.764   0.808   0.027
 9985SOL     OW30853   1.805   1.176   0.902
 9985SOL    HW130854   1.880   1.213   0.957
 9985SOL    HW230855   1.737   1.133   0.962
 9986SOL     OW30856   5.915   4.351   5.633
 9986SOL    HW130857   5.909   4.268   5.689
 9986SOL    HW230858   5.862   4.338   5.549
 9987SOL     OW30859   7.004   3.047   4.257
 9987SOL    HW130860   6.966   3.039   4.165
 9987SOL    HW230861   7.016   2.956   4.296
 9988SOL     OW30862   6.922   5.658   4.587
 9988SOL    HW130863   7.006   5.702   4.554
 9988SOL    HW230864   6.853   5.728   4.604
 9989SOL     OW30865   6.351   3.650   3.203
 9989SOL    HW130866   6.422   3.653   3.133
 9989SOL    HW230867   6.374   3.715   3.276
 9990SOL     OW30868   2.556   5.397   1.759
 9990SOL    HW130869   2.567   5.333   1.683
 9990SOL    HW230870   2.491   5.469   1.733
 9991SOL     OW30871   2.300   2.869   3.572
 9991SOL    HW130872   2.331   2.892   3.664
 9991SOL    HW230873   2.217   2.813   3.578
 9992SOL     OW30874   5.726   4.869   0.220
 9992SOL    HW130875   5.753   4.849   0.126
 9992SOL    HW230876   5.739   4.788   0.277
 9993SOL     OW30877   2.905   0.176   0.157
 9993SOL    HW130878   2.979   0.210   0.214
 9993SOL    HW230879   2.890   0.079   0.176
 9994SOL     OW30880   6.711   4.294   3.308
 9994SOL    HW130881   6.791   4.283   3.367
 9994SOL    HW230882   6.631   4.319   3.363
 9995SOL     OW30883   4.555   1.078   2.850
 9995SOL    HW130884   4.541   1.011   2.777
 9995SOL    HW230885   4.540   1.170   2.813
 9996SOL     OW30886   2.865   3.177   1.323
 9996SOL    HW130887   2.852   3.229   1.407
 9996SOL    HW230888   2.780   3.176   1.270
 9997SOL     OW30889   3.404   1.362   0.607
 9997SOL    HW130890   3.497   1.361   0.571
 9997SOL    HW230891   3.406   1.344   0.705
 9998SOL     OW30892   5.240   4.544   6.167
 9998SOL    HW130893   5.163   4.600   6.136
 9998SOL    HW230894   5.246   4.548   6.266
 9999SOL     OW30895   6.536   3.436   5.236
 9999SOL    HW130896   6.529   3.378   5.155
 9999SOL    HW230897   6.456   3.496   5.241
10000SOL     OW30898   0.284   4.372   6.877
10000SOL    HW130899   0.376   4.351   6.911
10000SOL    HW230900   0.258   4.464   6.907
10001SOL     OW30901   4.693   6.819   1.724
10001SOL    HW130902   4.731   6.751   1.661
10001SOL    HW230903   4.767   6.873   1.763
10002SOL     OW30904   1.969   0.427   2.861
10002SOL    HW130905   2.009   0.381   2.781
10002SOL    HW230906   2.001   0.522   2.863
10003SOL     OW30907   3.813   1.323   3.265
10003SOL    HW130908   3.735   1.350   3.322
10003SOL    HW230909   3.786   1.248   3.205
10004SOL     OW30910   6.123   2.306   4.544
10004SOL    HW130911   6.026   2.319   4.524
10004SOL    HW230912   6.161   2.388   4.587
10005SOL     OW30913   4.751   0.037   4.861
10005SOL    HW130914   4.695   6.980   4.844
10005SOL    HW230915   4.692   0.116   4.877
10006SOL     OW30916   5.389   6.191   3.849
10006SOL    HW130917   5.406   6.194   3.948
10006SOL    HW230918   5.317   6.125   3.830
10007SOL     OW30919   6.881   5.021   6.016
10007SOL    HW130920   6.882   4.989   5.921
10007SOL    HW230921   6.855   4.946   6.076
10008SOL     OW30922   4.214   1.393   4.635
10008SOL    HW130923   4.235   1.387   4.733
10008SOL    HW230924   4.262   1.320   4.587
10009SOL     OW30925   1.839   3.836   1.749
10009SOL    HW130926   1.895   3.762   1.787
10009SOL    HW230927   1.745   3.827   1.780
10010SOL     OW30928   2.423   0.766   5.806
10010SOL    HW130929   2.360   0.759   5.730
10010SOL    HW230930   2.475   0.681   5.815
10011SOL     OW30931   5.521   1.090   5.838
10011SOL    HW130932   5.526   1.116   5.935
10011SOL    HW230933   5.552   0.996   5.828
10012SOL     OW30934   6.024   1.588   3.422
10012SOL    HW130935   6.041   1.657   3.493
10012SOL    HW230936   5.978   1.509   3.463
10013SOL     OW30937   0.372   0.900   3.223
10013SOL    HW130938   0.342   0.994   3.238
10013SOL    HW230939   0.332   0.841   3.293
10014SOL     OW30940   6.619   4.014   0.617
10014SOL    HW130941   6.694   3.967   0.664
10014SOL    HW230942   6.655   4.070   0.544
10015SOL     OW30943   1.651   5.085   0.450
10015SOL    HW130944   1.674   5.063   0.545
10015SOL    HW230945   1.667   5.182   0.433
10016SOL     OW30946   1.154   0.534   6.410
10016SOL    HW130947   1.121   0.622   6.377
10016SOL    HW230948   1.086   0.493   6.471
10017SOL     OW30949   2.725   1.881   2.820
10017SOL    HW130950   2.710   1.916   2.728
10017SOL    HW230951   2.708   1.782   2.821
10018SOL     OW30952   4.604   0.100   6.245
10018SOL    HW130953   4.534   0.116   6.314
10018SOL    HW230954   4.615   0.182   6.188
10019SOL     OW30955   0.697   0.973   2.984
10019SOL    HW130956   0.753   1.053   3.003
10019SOL    HW230957   0.663   0.936   3.071
10020SOL     OW30958   1.746   2.481   0.889
10020SOL    HW130959   1.824   2.506   0.831
10020SOL    HW230960   1.780   2.454   0.979
10021SOL     OW30961   0.211   2.251   1.424
10021SOL    HW130962   0.193   2.153   1.430
10021SOL    HW230963   0.134   2.302   1.461
10022SOL     OW30964   2.509   1.233   5.971
10022SOL    HW130965   2.451   1.174   5.915
10022SOL    HW230966   2.457   1.313   6.000
10023SOL     OW30967   0.741   5.127   1.051
10023SOL    HW130968   0.727   5.028   1.052
10023SOL    HW230969   0.839   5.147   1.046
10024SOL     OW30970   2.251   5.564   2.006
10024SOL    HW130971   2.339   5.526   2.034
10024SOL    HW230972   2.183   5.491   1.998
10025SOL     OW30973   1.206   1.440   0.402
10025SOL    HW130974   1.166   1.525   0.368
10025SOL    HW230975   1.304   1.453   0.418
10026SOL     OW30976   5.214   6.422   3.785
10026SOL    HW130977   5.295   6.406   3.842
10026SOL    HW230978   5.146   6.352   3.805
10027SOL     OW30979   6.866   4.055   4.472
10027SOL    HW130980   6.955   4.092   4.443
10027SOL    HW230981   6.793   4.118   4.446
10028SOL     OW30982   1.223   0.719   2.605
10028SOL    HW130983   1.304   0.757   2.562
10028SOL    HW230984   1.230   0.619   2.607
10029SOL     OW30985   4.668   1.523   4.479
10029SOL    HW130986   4.695   1.569   4.395
10029SOL    HW230987   4.679   1.585   4.557
10030SOL     OW30988   1.924   0.478   3.251
10030SOL    HW130989   1.921   0.572   3.283
10030SOL    HW230990   2.010   0.462   3.201
10031SOL     OW30991   5.691   4.729   5.014
10031SOL    HW130992   5.674   4.634   5.038
10031SOL    HW230993   5.654   4.748   4.923
10032SOL     OW30994   2.951   1.036   4.997
10032SOL    HW130995   2.905   1.018   4.910
10032SOL    HW230996   3.028   1.098   4.982
10033SOL     OW30997   6.498   3.125   4.491
10033SOL    HW130998   6.454   3.213   4.505
10033SOL    HW230999   6.522   3.115   4.394
10034SOL     OW31000   3.683   0.400   4.182
10034SOL    HW131001   3.724   0.404   4.273
10034SOL    HW231002   3.682   0.491   4.141
10035SOL     OW31003   6.793   5.428   1.565
10035SOL    HW131004   6.745   5.398   1.648
10035SOL    HW231005   6.877   5.375   1.555
10036SOL     OW31006   6.236   2.196   0.684
10036SOL    HW131007   6.151   2.236   0.647
10036SOL    HW231008   6.248   2.105   0.646
10037SOL     OW31009   0.078   1.598   0.433
10037SOL    HW131010   0.175   1.600   0.408
10037SOL    HW231011   0.022   1.611   0.352
10038SOL     OW31012   6.259   0.318   0.161
10038SOL    HW131013   6.160   0.308   0.164
10038SOL    HW231014   6.282   0.415   0.152
10039SOL     OW31015   3.469   0.478   3.880
10039SOL    HW131016   3.441   0.387   3.910
10039SOL    HW231017   3.496   0.532   3.959
10040SOL     OW31018   5.779   5.067   6.271
10040SOL    HW131019   5.830   5.079   6.186
10040SOL    HW231020   5.681   5.067   6.252
10041SOL     OW31021   3.775   6.057   6.979
10041SOL    HW131022   3.717   6.014   6.910
10041SOL    HW231023   3.870   6.029   6.965
10042SOL     OW31024   0.676   1.509   3.537
10042SOL    HW131025   0.718   1.566   3.608
10042SOL    HW231026   0.746   1.454   3.493
10043SOL     OW31027   6.078   1.901   5.154
10043SOL    HW131028   6.101   1.803   5.157
10043SOL    HW231029   6.156   1.952   5.119
10044SOL     OW31030   2.584   2.784   5.276
10044SOL    HW131031   2.641   2.815   5.352
10044SOL    HW231032   2.543   2.863   5.230
10045SOL     OW31033   4.278   0.491   1.439
10045SOL    HW131034   4.339   0.568   1.458
10045SOL    HW231035   4.191   0.505   1.485
10046SOL     OW31036   1.912   3.452   1.266
10046SOL    HW131037   1.956   3.390   1.202
10046SOL    HW231038   1.818   3.421   1.284
10047SOL     OW31039   0.439   2.956   5.728
10047SOL    HW131040   0.359   2.899   5.742
10047SOL    HW231041   0.500   2.947   5.807
10048SOL     OW31042   6.746   6.589   2.980
10048SOL    HW131043   6.655   6.630   2.972
10048SOL    HW231044   6.779   6.598   3.073
10049SOL     OW31045   1.370   1.617   5.888
10049SOL    HW131046   1.413   1.558   5.819
10049SOL    HW231047   1.329   1.560   5.959
10050SOL     OW31048   5.731   3.444   4.809
10050SOL    HW131049   5.673   3.362   4.813
10050SOL    HW231050   5.825   3.416   4.787
10051SOL     OW31051   0.722   4.491   5.034
10051SOL    HW131052   0.813   4.457   5.010
10051SOL    HW231053   0.673   4.517   4.951
10052SOL     OW31054   1.759   1.282   3.377
10052SOL    HW131055   1.676   1.281   3.321
10052SOL    HW231056   1.811   1.198   3.362
10053SOL     OW31057   4.734   5.620   4.186
10053SOL    HW131058   4.798   5.675   4.131
10053SOL    HW231059   4.721   5.531   4.142
10054SOL     OW31060   5.388   4.066   5.052
10054SOL    HW131061   5.420   4.052   4.958
10054SOL    HW231062   5.436   4.144   5.092
10055SOL     OW31063   6.839   2.740   6.481
10055SOL    HW131064   6.859   2.826   6.529
10055SOL    HW231065   6.910   2.724   6.413
10056SOL     OW31066   5.468   4.011   2.959
10056SOL    HW131067   5.456   3.930   3.017
10056SOL    HW231068   5.406   4.004   2.881
10057SOL     OW31069   5.737   3.985   5.566
10057SOL    HW131070   5.692   4.014   5.650
10057SOL    HW231071   5.676   4.000   5.488
10058SOL     OW31072   6.668   3.399   4.215
10058SOL    HW131073   6.722   3.334   4.267
10058SOL    HW231074   6.672   3.489   4.259
10059SOL     OW31075   6.192   1.914   0.589
10059SOL    HW131076   6.175   1.900   0.492
10059SOL    HW231077   6.285   1.886   0.611
10060SOL     OW31078   2.461   1.589   2.450
10060SOL    HW131079   2.430   1.527   2.379
10060SOL    HW231080   2.540   1.641   2.418
10061SOL     OW31081   4.304   1.149   3.851
10061SOL    HW131082   4.375   1.220   3.852
10061SOL    HW231083   4.315   1.093   3.769
10062SOL     OW31084   6.778   6.684   4.250
10062SOL    HW131085   6.804   6.589   4.266
10062SOL    HW231086   6.801   6.709   4.156
10063SOL     OW31087   2.197   2.024   4.351
10063SOL    HW131088   2.153   1.992   4.435
10063SOL    HW231089   2.273   2.085   4.374
10064SOL     OW31090   3.976   6.120   6.748
10064SOL    HW131091   3.914   6.051   6.711
10064SOL    HW231092   4.028   6.162   6.674
10065SOL     OW31093   1.589   0.766   1.793
10065SOL    HW131094   1.499   0.756   1.834
10065SOL    HW231095   1.581   0.760   1.693
10066SOL     OW31096   0.244   3.533   5.158
10066SOL    HW131097   0.299   3.509   5.239
10066SOL    HW231098   0.230   3.451   5.102
10067SOL     OW31099   0.973   3.384   6.405
10067SOL    HW131100   0.917   3.463   6.432
10067SOL    HW231101   0.918   3.321   6.350
10068SOL     OW31102   1.852   3.596   2.874
10068SOL    HW131103   1.800   3.681   2.886
10068SOL    HW231104   1.797   3.529   2.825
10069SOL     OW31105   3.642   5.127   1.928
10069SOL    HW131106   3.735   5.131   1.965
10069SOL    HW231107   3.580   5.179   1.987
10070SOL     OW31108   2.166   5.645   4.316
10070SOL    HW131109   2.072   5.664   4.286
10070SOL    HW231110   2.174   5.666   4.414
10071SOL     OW31111   0.631   6.757   4.049
10071SOL    HW131112   0.618   6.838   3.993
10071SOL    HW231113   0.566   6.686   4.022
10072SOL     OW31114   0.086   1.514   2.551
10072SOL    HW131115   0.060   1.599   2.505
10072SOL    HW231116   0.076   1.525   2.650
10073SOL     OW31117   6.284   2.571   3.969
10073SOL    HW131118   6.326   2.532   4.051
10073SOL    HW231119   6.349   2.629   3.921
10074SOL     OW31120   1.363   5.352   0.444
10074SOL    HW131121   1.456   5.387   0.428
10074SOL    HW231122   1.302   5.387   0.372
10075SOL     OW31123   2.363   0.981   2.332
10075SOL    HW131124   2.407   0.954   2.417
10075SOL    HW231125   2.380   1.078   2.315
10076SOL     OW31126   5.028   5.314   3.227
10076SOL    HW131127   5.083   5.319   3.144
10076SOL    HW231128   4.934   5.340   3.207
10077SOL     OW31129   5.967   3.490   7.011
10077SOL    HW131130   6.026   3.570   7.020
10077SOL    HW231131   6.024   3.408   7.004
10078SOL     OW31132   6.783   6.433   4.898
10078SOL    HW131133   6.883   6.440   4.892
10078SOL    HW231134   6.742   6.515   4.859
10079SOL     OW31135   5.718   2.598   3.745
10079SOL    HW131136   5.637   2.581   3.689
10079SOL    HW231137   5.722   2.530   3.818
10080SOL     OW31138   5.702   1.134   6.073
10080SOL    HW131139   5.772   1.077   6.029
10080SOL    HW231140   5.699   1.114   6.171
10081SOL     OW31141   1.192   1.648   6.357
10081SOL    HW131142   1.147   1.602   6.280
10081SOL    HW231143   1.126   1.704   6.406
10082SOL     OW31144   0.968   5.244   2.878
10082SOL    HW131145   0.945   5.338   2.852
10082SOL    HW231146   1.068   5.233   2.880
10083SOL     OW31147   3.489   5.497   3.388
10083SOL    HW131148   3.517   5.532   3.298
10083SOL    HW231149   3.417   5.555   3.425
10084SOL     OW31150   0.527   0.261   5.340
10084SOL    HW131151   0.473   0.228   5.263
10084SOL    HW231152   0.506   0.207   5.422
10085SOL     OW31153   4.009   6.342   0.071
10085SOL    HW131154   3.921   6.385   0.057
10085SOL    HW231155   4.081   6.395   0.026
10086SOL     OW31156   5.980   6.274   2.204
10086SOL    HW131157   6.018   6.338   2.137
10086SOL    HW231158   5.991   6.180   2.169
10087SOL     OW31159   0.311   6.519   4.442
10087SOL    HW131160   0.392   6.494   4.389
10087SOL    HW231161   0.338   6.539   4.537
10088SOL     OW31162   6.928   2.242   0.243
10088SOL    HW131163   6.897   2.337   0.244
10088SOL    HW231164   0.001   2.239   0.220
10089SOL     OW31165   4.108   1.699   2.360
10089SOL    HW131166   4.056   1.780   2.388
10089SOL    HW231167   4.187   1.727   2.305
10090SOL     OW31168   1.159   5.337   1.548
10090SOL    HW131169   1.165   5.316   1.451
10090SOL    HW231170   1.177   5.254   1.601
10091SOL     OW31171   6.614   5.570   6.419
10091SOL    HW131172   6.704   5.536   6.444
10091SOL    HW231173   6.624   5.638   6.346
10092SOL     OW31174   0.743   3.216   5.741
10092SOL    HW131175   0.714   3.303   5.701
10092SOL    HW231176   0.835   3.195   5.710
10093SOL     OW31177   5.164   3.539   5.665
10093SOL    HW131178   5.073   3.500   5.650
10093SOL    HW231179   5.160   3.638   5.653
10094SOL     OW31180   3.356   6.685   0.845
10094SOL    HW131181   3.328   6.780   0.857
10094SOL    HW231182   3.455   6.681   0.832
10095SOL     OW31183   5.182   2.533   4.867
10095SOL    HW131184   5.167   2.631   4.854
10095SOL    HW231185   5.191   2.513   4.965
10096SOL     OW31186   4.933   0.861   2.537
10096SOL    HW131187   5.019   0.894   2.498
10096SOL    HW231188   4.870   0.835   2.464
10097SOL     OW31189   2.212   1.723   5.901
10097SOL    HW131190   2.248   1.811   5.931
10097SOL    HW231191   2.180   1.730   5.807
10098SOL     OW31192   3.184   5.431   4.502
10098SOL    HW131193   3.201   5.519   4.457
10098SOL    HW231194   3.096   5.395   4.471
10099SOL     OW31195   6.164   4.057   1.728
10099SOL    HW131196   6.194   4.018   1.815
10099SOL    HW231197   6.230   4.124   1.697
10100SOL     OW31198   5.174   5.697   5.443
10100SOL    HW131199   5.161   5.780   5.497
10100SOL    HW231200   5.230   5.717   5.363
10101SOL     OW31201   6.981   2.746   1.548
10101SOL    HW131202   6.918   2.670   1.539
10101SOL    HW231203   0.038   2.730   1.491
10102SOL     OW31204   6.025   0.083   0.785
10102SOL    HW131205   5.967   0.002   0.786
10102SOL    HW231206   6.009   0.135   0.700
10103SOL     OW31207   0.675   0.305   5.943
10103SOL    HW131208   0.660   0.317   5.844
10103SOL    HW231209   0.617   0.368   5.993
10104SOL     OW31210   2.159   0.396   6.092
10104SOL    HW131211   2.224   0.472   6.085
10104SOL    HW231212   2.192   0.332   6.162
10105SOL     OW31213   3.003   1.582   5.931
10105SOL    HW131214   3.030   1.664   5.880
10105SOL    HW231215   2.935   1.531   5.879
10106SOL     OW31216   5.204   6.123   1.586
10106SOL    HW131217   5.274   6.182   1.627
10106SOL    HW231218   5.113   6.158   1.610
10107SOL     OW31219   5.275   4.809   6.353
10107SOL    HW131220   5.324   4.746   6.413
10107SOL    HW231221   5.227   4.877   6.407
10108SOL     OW31222   1.464   3.232   0.579
10108SOL    HW131223   1.401   3.246   0.502
10108SOL    HW231224   1.432   3.285   0.658
10109SOL     OW31225   0.405   1.252   0.128
10109SOL    HW131226   0.417   1.310   0.047
10109SOL    HW231227   0.425   1.157   0.104
10110SOL     OW31228   4.637   5.046   2.860
10110SOL    HW131229   4.666   4.951   2.870
10110SOL    HW231230   4.707   5.107   2.897
10111SOL     OW31231   1.079   1.967   2.041
10111SOL    HW131232   1.017   1.922   2.105
10111SOL    HW231233   1.038   1.970   1.950
10112SOL     OW31234   6.436   2.757   3.771
10112SOL    HW131235   6.532   2.780   3.755
10112SOL    HW231236   6.378   2.821   3.721
10113SOL     OW31237   5.084   1.512   6.737
10113SOL    HW131238   5.041   1.565   6.663
10113SOL    HW231239   5.033   1.428   6.752
10114SOL     OW31240   4.150   2.009   3.294
10114SOL    HW131241   4.061   1.978   3.262
10114SOL    HW231242   4.209   1.930   3.310
10115SOL     OW31243   3.094   1.203   4.834
10115SOL    HW131244   3.096   1.223   4.736
10115SOL    HW231245   3.116   1.285   4.886
10116SOL     OW31246   6.303   0.735   5.433
10116SOL    HW131247   6.351   0.727   5.347
10116SOL    HW231248   6.325   0.822   5.476
10117SOL     OW31249   6.655   5.304   5.177
10117SOL    HW131250   6.646   5.312   5.078
10117SOL    HW231251   6.611   5.220   5.208
10118SOL     OW31252   3.106   5.244   4.982
10118SOL    HW131253   3.027   5.183   4.984
10118SOL    HW231254   3.083   5.327   4.931
10119SOL     OW31255   0.581   5.001   4.240
10119SOL    HW131256   0.540   5.071   4.182
10119SOL    HW231257   0.578   4.912   4.193
10120SOL     OW31258   1.505   2.907   2.384
10120SOL    HW131259   1.571   2.969   2.426
10120SOL    HW231260   1.430   2.890   2.448
10121SOL     OW31261   6.307   4.385   0.743
10121SOL    HW131262   6.298   4.305   0.684
10121SOL    HW231263   6.340   4.357   0.833
10122SOL     OW31264   0.560   1.919   3.397
10122SOL    HW131265   0.550   1.931   3.299
10122SOL    HW231266   0.522   1.998   3.445
10123SOL     OW31267   5.690   6.142   1.219
10123SOL    HW131268   5.620   6.072   1.203
10123SOL    HW231269   5.656   6.208   1.286
10124SOL     OW31270   1.185   4.739   2.689
10124SOL    HW131271   1.215   4.655   2.734
10124SOL    HW231272   1.125   4.790   2.750
10125SOL     OW31273   1.779   1.885   0.200
10125SOL    HW131274   1.843   1.935   0.258
10125SOL    HW231275   1.828   1.815   0.149
10126SOL     OW31276   5.554   0.532   6.745
10126SOL    HW131277   5.590   0.467   6.677
10126SOL    HW231278   5.494   0.597   6.700
10127SOL     OW31279   1.744   4.948   5.954
10127SOL    HW131280   1.838   4.912   5.959
10127SOL    HW231281   1.744   5.034   5.904
10128SOL     OW31282   3.370   0.532   0.557
10128SOL    HW131283   3.347   0.500   0.465
10128SOL    HW231284   3.469   0.543   0.565
10129SOL     OW31285   6.175   1.954   3.450
10129SOL    HW131286   6.091   2.009   3.455
10129SOL    HW231287   6.159   1.866   3.494
10130SOL     OW31288   1.475   2.019   2.078
10130SOL    HW131289   1.540   2.059   2.142
10130SOL    HW231290   1.423   1.947   2.124
10131SOL     OW31291   1.821   0.531   4.474
10131SOL    HW131292   1.829   0.613   4.418
10131SOL    HW231293   1.790   0.455   4.417
10132SOL     OW31294   6.412   0.178   2.283
10132SOL    HW131295   6.340   0.137   2.339
10132SOL    HW231296   6.487   0.209   2.342
10133SOL     OW31297   4.517   5.966   1.059
10133SOL    HW131298   4.522   6.019   0.974
10133SOL    HW231299   4.492   5.871   1.038
10134SOL     OW31300   5.654   0.624   2.272
10134SOL    HW131301   5.621   0.549   2.215
10134SOL    HW231302   5.672   0.704   2.215
10135SOL     OW31303   5.622   0.032   3.923
10135SOL    HW131304   5.696   0.100   3.922
10135SOL    HW231305   5.549   0.063   3.862
10136SOL     OW31306   4.748   2.013   2.607
10136SOL    HW131307   4.756   2.057   2.697
10136SOL    HW231308   4.725   2.082   2.538
10137SOL     OW31309   0.083   5.851   5.879
10137SOL    HW131310   0.017   5.901   5.822
10137SOL    HW231311   0.061   5.753   5.876
10138SOL     OW31312   5.543   1.175   6.799
10138SOL    HW131313   5.631   1.221   6.811
10138SOL    HW231314   5.514   1.183   6.704
10139SOL     OW31315   3.471   3.592   5.418
10139SOL    HW131316   3.375   3.603   5.442
10139SOL    HW231317   3.518   3.542   5.491
10140SOL     OW31318   6.828   5.597   6.098
10140SOL    HW131319   6.822   5.646   6.185
10140SOL    HW231320   6.805   5.501   6.113
10141SOL     OW31321   3.037   1.574   3.906
10141SOL    HW131322   3.054   1.606   3.999
10141SOL    HW231323   2.974   1.497   3.909
10142SOL     OW31324   6.129   6.261   4.473
10142SOL    HW131325   6.192   6.217   4.537
10142SOL    HW231326   6.156   6.238   4.379
10143SOL     OW31327   5.568   3.663   0.472
10143SOL    HW131328   5.531   3.736   0.415
10143SOL    HW231329   5.668   3.663   0.465
10144SOL     OW31330   3.603   6.293   5.213
10144SOL    HW131331   3.617   6.389   5.237
10144SOL    HW231332   3.651   6.235   5.278
10145SOL     OW31333   5.162   6.279   0.986
10145SOL    HW131334   5.155   6.218   1.065
10145SOL    HW231335   5.254   6.317   0.981
10146SOL     OW31336   0.477   3.460   4.152
10146SOL    HW131337   0.448   3.552   4.126
10146SOL    HW231338   0.409   3.394   4.121
10147SOL     OW31339   4.556   5.935   6.262
10147SOL    HW131340   4.576   5.971   6.171
10147SOL    HW231341   4.477   5.983   6.300
10148SOL     OW31342   1.238   4.936   6.938
10148SOL    HW131343   1.315   4.927   7.002
10148SOL    HW231344   1.248   5.020   6.886
10149SOL     OW31345   4.572   4.611   0.943
10149SOL    HW131346   4.575   4.553   1.025
10149SOL    HW231347   4.609   4.561   0.865
10150SOL     OW31348   4.475   3.919   0.397
10150SOL    HW131349   4.387   3.935   0.442
10150SOL    HW231350   4.539   3.991   0.424
10151SOL     OW31351   6.559   0.327   5.284
10151SOL    HW131352   6.460   0.343   5.281
10151SOL    HW231353   6.581   0.271   5.364
10152SOL     OW31354   5.605   6.215   2.728
10152SOL    HW131355   5.642   6.300   2.690
10152SOL    HW231356   5.631   6.138   2.669
10153SOL     OW31357   5.544   4.812   4.157
10153SOL    HW131358   5.498   4.877   4.096
10153SOL    HW231359   5.530   4.839   4.252
10154SOL     OW31360   3.764   5.349   5.391
10154SOL    HW131361   3.816   5.426   5.355
10154SOL    HW231362   3.795   5.327   5.483
10155SOL     OW31363   4.481   1.855   5.701
10155SOL    HW131364   4.537   1.862   5.784
10155SOL    HW231365   4.386   1.840   5.727
10156SOL     OW31366   4.969   0.486   0.961
10156SOL    HW131367   4.908   0.565   0.956
10156SOL    HW231368   5.004   0.478   1.055
10157SOL     OW31369   0.235   2.930   1.326
10157SOL    HW131370   0.248   2.905   1.230
10157SOL    HW231371   0.159   2.995   1.334
10158SOL     OW31372   5.622   6.383   1.850
10158SOL    HW131373   5.702   6.434   1.817
10158SOL    HW231374   5.581   6.433   1.926
10159SOL     OW31375   3.685   3.412   3.251
10159SOL    HW131376   3.731   3.407   3.339
10159SOL    HW231377   3.589   3.387   3.262
10160SOL     OW31378   2.126   4.204   3.049
10160SOL    HW131379   2.095   4.111   3.030
10160SOL    HW231380   2.112   4.261   2.968
10161SOL     OW31381   4.025   4.780   6.327
10161SOL    HW131382   3.941   4.825   6.296
10161SOL    HW231383   4.025   4.684   6.297
10162SOL     OW31384   1.769   4.359   2.283
10162SOL    HW131385   1.774   4.392   2.189
10162SOL    HW231386   1.689   4.300   2.293
10163SOL     OW31387   1.352   6.361   5.110
10163SOL    HW131388   1.328   6.326   5.200
10163SOL    HW231389   1.413   6.440   5.120
10164SOL     OW31390   6.709   2.758   3.507
10164SOL    HW131391   6.715   2.741   3.409
10164SOL    HW231392   6.800   2.761   3.547
10165SOL     OW31393   6.318   3.007   4.201
10165SOL    HW131394   6.225   2.971   4.214
10165SOL    HW231395   6.316   3.081   4.133
10166SOL     OW31396   1.007   2.394   0.777
10166SOL    HW131397   1.092   2.409   0.727
10166SOL    HW231398   0.930   2.418   0.718
10167SOL     OW31399   0.630   6.216   6.307
10167SOL    HW131400   0.586   6.135   6.345
10167SOL    HW231401   0.605   6.296   6.361
10168SOL     OW31402   5.909   1.212   0.112
10168SOL    HW131403   5.911   1.219   0.012
10168SOL    HW231404   5.999   1.183   0.145
10169SOL     OW31405   6.928   3.420   3.378
10169SOL    HW131406   6.946   3.479   3.300
10169SOL    HW231407   6.951   3.325   3.355
10170SOL     OW31408   6.295   5.688   0.211
10170SOL    HW131409   6.354   5.707   0.133
10170SOL    HW231410   6.206   5.732   0.197
10171SOL     OW31411   1.757   2.966   5.197
10171SOL    HW131412   1.849   2.928   5.204
10171SOL    HW231413   1.725   2.993   5.288
10172SOL     OW31414   6.592   0.321   3.675
10172SOL    HW131415   6.592   0.354   3.769
10172SOL    HW231416   6.552   0.392   3.616
10173SOL     OW31417   3.500   5.277   0.069
10173SOL    HW131418   3.598   5.279   0.088
10173SOL    HW231419   3.459   5.199   0.116
10174SOL     OW31420   4.563   6.669   2.611
10174SOL    HW131421   4.535   6.686   2.706
10174SOL    HW231422   4.486   6.686   2.550
10175SOL     OW31423   7.022   2.268   3.801
10175SOL    HW131424   6.965   2.190   3.774
10175SOL    HW231425   6.967   2.332   3.856
10176SOL     OW31426   5.954   3.187   5.510
10176SOL    HW131427   5.931   3.125   5.586
10176SOL    HW231428   6.016   3.258   5.543
10177SOL     OW31429   2.006   0.340   1.628
10177SOL    HW131430   2.045   0.420   1.582
10177SOL    HW231431   2.080   0.282   1.662
10178SOL     OW31432   1.481   1.565   0.082
10178SOL    HW131433   1.502   1.660   0.060
10178SOL    HW231434   1.562   1.521   0.122
10179SOL     OW31435   6.709   4.262   0.792
10179SOL    HW131436   6.632   4.205   0.765
10179SOL    HW231437   6.794   4.219   0.762
10180SOL     OW31438   4.240   6.689   6.286
10180SOL    HW131439   4.334   6.720   6.301
10180SOL    HW231440   4.222   6.610   6.344
10181SOL     OW31441   6.509   4.191   1.129
10181SOL    HW131442   6.600   4.234   1.134
10181SOL    HW231443   6.486   4.172   1.033
10182SOL     OW31444   5.230   1.359   0.130
10182SOL    HW131445   5.225   1.304   0.047
10182SOL    HW231446   5.193   1.306   0.207
10183SOL     OW31447   6.745   1.961   6.074
10183SOL    HW131448   6.788   1.872   6.079
10183SOL    HW231449   6.698   1.980   6.161
10184SOL     OW31450   6.074   3.690   5.701
10184SOL    HW131451   6.157   3.671   5.649
10184SOL    HW231452   6.097   3.743   5.783
10185SOL     OW31453   4.130   5.990   2.366
10185SOL    HW131454   4.146   5.893   2.346
10185SOL    HW231455   4.075   5.998   2.449
10186SOL     OW31456   5.172   4.092   5.415
10186SOL    HW131457   5.229   4.165   5.379
10186SOL    HW231458   5.112   4.128   5.486
10187SOL     OW31459   2.598   4.573   6.162
10187SOL    HW131460   2.540   4.497   6.192
10187SOL    HW231461   2.632   4.555   6.070
10188SOL     OW31462   2.851   6.937   0.129
10188SOL    HW131463   2.886   6.974   0.043
10188SOL    HW231464   2.759   6.902   0.115
10189SOL     OW31465   1.228   1.413   6.084
10189SOL    HW131466   1.187   1.367   6.005
10189SOL    HW231467   1.170   1.397   6.164
10190SOL     OW31468   3.078   4.549   1.233
10190SOL    HW131469   3.111   4.644   1.231
10190SOL    HW231470   3.016   4.537   1.310
10191SOL     OW31471   5.904   5.668   6.994
10191SOL    HW131472   5.963   5.713   0.037
10191SOL    HW231473   5.959   5.643   6.913
10192SOL     OW31474   2.158   1.929   5.091
10192SOL    HW131475   2.144   1.961   4.997
10192SOL    HW231476   2.256   1.927   5.112
10193SOL     OW31477   4.135   3.713   2.906
10193SOL    HW131478   4.205   3.742   2.971
10193SOL    HW231479   4.064   3.783   2.899
10194SOL     OW31480   3.613   0.131   4.356
10194SOL    HW131481   3.663   0.206   4.314
10194SOL    HW231482   3.678   0.065   4.394
10195SOL     OW31483   5.347   0.032   2.039
10195SOL    HW131484   5.445   0.050   2.048
10195SOL    HW231485   5.328   6.962   2.068
10196SOL     OW31486   5.723   1.692   3.021
10196SOL    HW131487   5.680   1.764   2.966
10196SOL    HW231488   5.808   1.727   3.060
10197SOL     OW31489   6.123   0.085   3.048
10197SOL    HW131490   6.073   0.092   2.962
10197SOL    HW231491   6.216   0.119   3.035
10198SOL     OW31492   3.300   6.444   1.661
10198SOL    HW131493   3.353   6.480   1.583
10198SOL    HW231494   3.239   6.515   1.695
10199SOL     OW31495   1.320   1.798   6.845
10199SOL    HW131496   1.385   1.723   6.854
10199SOL    HW231497   1.244   1.784   6.908
10200SOL     OW31498   5.361   4.312   5.394
10200SOL    HW131499   5.371   4.390   5.331
10200SOL    HW231500   5.446   4.299   5.444
10201SOL     OW31501   0.681   5.143   2.325
10201SOL    HW131502   0.771   5.117   2.291
10201SOL    HW231503   0.640   5.065   2.373
10202SOL     OW31504   0.516   3.857   1.615
10202SOL    HW131505   0.447   3.867   1.687
10202SOL    HW231506   0.600   3.820   1.653
10203SOL     OW31507   2.110   3.093   2.084
10203SOL    HW131508   2.119   3.131   2.176
10203SOL    HW231509   2.101   2.993   2.091
10204SOL     OW31510   3.009   4.780   5.621
10204SOL    HW131511   3.001   4.737   5.531
10204SOL    HW231512   2.940   4.851   5.631
10205SOL     OW31513   5.694   1.666   4.029
10205SOL    HW131514   5.645   1.580   4.014
10205SOL    HW231515   5.648   1.739   3.978
10206SOL     OW31516   5.544   6.624   6.184
10206SOL    HW131517   5.581   6.690   6.249
10206SOL    HW231518   5.476   6.670   6.126
10207SOL     OW31519   2.537   0.602   2.837
10207SOL    HW131520   2.508   0.601   2.741
10207SOL    HW231521   2.482   0.537   2.889
10208SOL     OW31522   5.794   5.257   5.032
10208SOL    HW131523   5.737   5.211   4.964
10208SOL    HW231524   5.798   5.202   5.115
10209SOL     OW31525   6.834   1.104   6.219
10209SOL    HW131526   6.866   1.052   6.140
10209SOL    HW231527   6.736   1.122   6.210
10210SOL     OW31528   5.706   6.887   2.339
10210SOL    HW131529   5.642   6.963   2.352
10210SOL    HW231530   5.799   6.918   2.359
10211SOL     OW31531   3.965   6.792   5.313
10211SOL    HW131532   3.992   6.884   5.285
10211SOL    HW231533   3.871   6.774   5.284
10212SOL     OW31534   0.713   1.185   3.795
10212SOL    HW131535   0.762   1.175   3.881
10212SOL    HW231536   0.635   1.247   3.808
10213SOL     OW31537   6.157   1.694   3.025
10213SOL    HW131538   6.226   1.737   2.967
10213SOL    HW231539   6.194   1.610   3.065
10214SOL     OW31540   6.462   0.521   2.502
10214SOL    HW131541   6.522   0.528   2.422
10214SOL    HW231542   6.392   0.593   2.497
10215SOL     OW31543   3.440   3.254   6.070
10215SOL    HW131544   3.410   3.220   5.980
10215SOL    HW231545   3.503   3.188   6.111
10216SOL     OW31546   6.343   0.002   1.102
10216SOL    HW131547   6.278   0.075   1.123
10216SOL    HW231548   6.430   0.022   1.147
10217SOL     OW31549   2.893   1.961   4.017
10217SOL    HW131550   2.902   2.007   3.928
10217SOL    HW231551   2.822   1.891   4.010
10218SOL     OW31552   1.645   0.995   1.172
10218SOL    HW131553   1.548   1.009   1.151
10218SOL    HW231554   1.667   1.040   1.259
10219SOL     OW31555   0.876   1.915   2.295
10219SOL    HW131556   0.811   1.982   2.259
10219SOL    HW231557   0.843   1.823   2.274
10220SOL     OW31558   4.164   1.863   1.613
10220SOL    HW131559   4.077   1.814   1.623
10220SOL    HW231560   4.183   1.914   1.697
10221SOL     OW31561   2.692   0.746   5.126
10221SOL    HW131562   2.674   0.802   5.207
10221SOL    HW231563   2.785   0.708   5.132
10222SOL     OW31564   1.049   4.070   5.415
10222SOL    HW131565   0.985   4.017   5.470
10222SOL    HW231566   1.141   4.061   5.452
10223SOL     OW31567   1.691   4.900   6.851
10223SOL    HW131568   1.633   4.868   6.776
10223SOL    HW231569   1.786   4.881   6.831
10224SOL     OW31570   1.217   0.791   4.220
10224SOL    HW131571   1.170   0.710   4.258
10224SOL    HW231572   1.194   0.871   4.276
10225SOL     OW31573   0.399   6.003   4.548
10225SOL    HW131574   0.333   5.948   4.497
10225SOL    HW231575   0.471   5.943   4.585
10226SOL     OW31576   2.736   1.097   6.937
10226SOL    HW131577   2.670   1.152   6.987
10226SOL    HW231578   2.791   1.155   6.878
10227SOL     OW31579   4.588   4.652   0.050
10227SOL    HW131580   4.655   4.705   0.103
10227SOL    HW231581   4.600   4.555   0.069
10228SOL     OW31582   0.502   5.436   2.547
10228SOL    HW131583   0.429   5.503   2.535
10228SOL    HW231584   0.462   5.345   2.558
10229SOL     OW31585   0.513   0.403   3.230
10229SOL    HW131586   0.419   0.372   3.223
10229SOL    HW231587   0.523   0.492   3.186
10230SOL     OW31588   6.339   0.201   3.889
10230SOL    HW131589   6.350   0.127   3.955
10230SOL    HW231590   6.383   0.284   3.923
10231SOL     OW31591   6.353   6.919   4.874
10231SOL    HW131592   6.357   6.985   4.799
10231SOL    HW231593   6.402   6.956   4.953
10232SOL     OW31594   3.371   0.986   4.153
10232SOL    HW131595   3.309   1.000   4.230
10232SOL    HW231596   3.462   0.960   4.187
10233SOL     OW31597   3.950   3.105   6.231
10233SOL    HW131598   4.023   3.145   6.176
10233SOL    HW231599   3.990   3.055   6.308
10234SOL     OW31600   5.181   0.389   0.785
10234SOL    HW131601   5.101   0.412   0.841
10234SOL    HW231602   5.159   0.310   0.727
10235SOL     OW31603   4.662   1.112   0.194
10235SOL    HW131604   4.743   1.146   0.146
10235SOL    HW231605   4.685   1.091   0.289
10236SOL     OW31606   2.070   6.177   1.571
10236SOL    HW131607   2.049   6.093   1.622
10236SOL    HW231608   2.159   6.212   1.600
10237SOL     OW31609   6.526   4.308   1.833
10237SOL    HW131610   6.611   4.351   1.802
10237SOL    HW231611   6.461   4.379   1.857
10238SOL     OW31612   3.787   4.290   5.344
10238SOL    HW131613   3.703   4.247   5.379
10238SOL    HW231614   3.769   4.385   5.319
10239SOL     OW31615   0.746   4.314   5.248
10239SOL    HW131616   0.733   4.215   5.242
10239SOL    HW231617   0.713   4.357   5.164
10240SOL     OW31618   1.085   4.203   2.863
10240SOL    HW131619   1.120   4.198   2.769
10240SOL    HW231620   1.096   4.296   2.898
10241SOL     OW31621   0.451   1.268   1.965
10241SOL    HW131622   0.434   1.232   1.873
10241SOL    HW231623   0.511   1.348   1.958
10242SOL     OW31624   0.428   1.369   5.775
10242SOL    HW131625   0.463   1.412   5.692
10242SOL    HW231626   0.405   1.273   5.757
10243SOL     OW31627   0.144   5.523   1.161
10243SOL    HW131628   0.227   5.575   1.179
10243SOL    HW231629   0.148   5.484   1.069
10244SOL     OW31630   2.552   5.161   6.850
10244SOL    HW131631   2.642   5.202   6.862
10244SOL    HW231632   2.490   5.197   6.919
10245SOL     OW31633   2.042   3.257   7.014
10245SOL    HW131634   2.061   3.160   0.006
10245SOL    HW231635   1.944   3.274   0.006
10246SOL     OW31636   3.025   3.950   4.693
10246SOL    HW131637   3.105   4.008   4.703
10246SOL    HW231638   2.963   3.990   4.625
10247SOL     OW31639   0.285   5.568   5.447
10247SOL    HW131640   0.203   5.534   5.493
10247SOL    HW231641   0.341   5.490   5.417
10248SOL     OW31642   3.300   0.566   2.382
10248SOL    HW131643   3.305   0.660   2.346
10248SOL    HW231644   3.285   0.503   2.307
10249SOL     OW31645   3.867   0.559   5.584
10249SOL    HW131646   3.785   0.522   5.628
10249SOL    HW231647   3.906   0.632   5.641
10250SOL     OW31648   6.382   1.088   1.656
10250SOL    HW131649   6.371   1.005   1.602
10250SOL    HW231650   6.342   1.165   1.608
10251SOL     OW31651   2.731   2.817   6.033
10251SOL    HW131652   2.681   2.902   6.049
10251SOL    HW231653   2.794   2.830   5.957
10252SOL     OW31654   6.050   6.738   0.912
10252SOL    HW131655   6.125   6.804   0.907
10252SOL    HW231656   6.000   6.751   0.997
10253SOL     OW31657   4.675   5.245   0.477
10253SOL    HW131658   4.595   5.188   0.460
10253SOL    HW231659   4.730   5.202   0.549
10254SOL     OW31660   3.126   1.889   4.797
10254SOL    HW131661   3.068   1.833   4.856
10254SOL    HW231662   3.073   1.917   4.716
10255SOL     OW31663   1.790   6.331   2.013
10255SOL    HW131664   1.748   6.241   2.027
10255SOL    HW231665   1.875   6.337   2.064
10256SOL     OW31666   5.092   7.000   0.858
10256SOL    HW131667   5.073   0.010   0.766
10256SOL    HW231668   5.135   0.049   0.913
10257SOL     OW31669   1.069   4.966   5.399
10257SOL    HW131670   1.094   5.021   5.479
10257SOL    HW231671   1.125   4.883   5.396
10258SOL     OW31672   5.024   6.068   3.562
10258SOL    HW131673   4.960   6.023   3.500
10258SOL    HW231674   5.010   6.167   3.557
10259SOL     OW31675   0.283   5.125   3.818
10259SOL    HW131676   0.318   5.151   3.908
10259SOL    HW231677   0.256   5.207   3.769
10260SOL     OW31678   0.263   6.276   3.112
10260SOL    HW131679   0.222   6.217   3.042
10260SOL    HW231680   0.356   6.299   3.085
10261SOL     OW31681   6.773   6.240   2.242
10261SOL    HW131682   6.788   6.339   2.241
10261SOL    HW231683   6.821   6.198   2.165
10262SOL     OW31684   3.589   4.920   4.594
10262SOL    HW131685   3.584   4.955   4.500
10262SOL    HW231686   3.684   4.898   4.616
10263SOL     OW31687   4.933   2.170   6.801
10263SOL    HW131688   4.920   2.078   6.765
10263SOL    HW231689   4.888   2.177   6.890
10264SOL     OW31690   5.978   1.605   6.481
10264SOL    HW131691   6.052   1.672   6.481
10264SOL    HW231692   5.909   1.632   6.548
10265SOL     OW31693   3.049   1.760   3.139
10265SOL    HW131694   3.119   1.725   3.201
10265SOL    HW231695   3.049   1.860   3.142
10266SOL     OW31696   3.772   3.847   6.137
10266SOL    HW131697   3.798   3.939   6.107
10266SOL    HW231698   3.704   3.854   6.209
10267SOL     OW31699   6.502   2.252   0.097
10267SOL    HW131700   6.463   2.173   0.145
10267SOL    HW231701   6.441   2.279   0.023
10268SOL     OW31702   5.739   6.239   1.578
10268SOL    HW131703   5.718   6.290   1.661
10268SOL    HW231704   5.792   6.297   1.516
10269SOL     OW31705   2.625   2.127   5.419
10269SOL    HW131706   2.648   2.208   5.473
10269SOL    HW231707   2.525   2.118   5.412
10270SOL     OW31708   1.833   5.871   0.851
10270SOL    HW131709   1.846   5.828   0.761
10270SOL    HW231710   1.777   5.953   0.840
10271SOL     OW31711   3.350   3.646   0.513
10271SOL    HW131712   3.260   3.685   0.493
10271SOL    HW231713   3.380   3.590   0.436
10272SOL     OW31714   1.219   1.079   3.996
10272SOL    HW131715   1.134   1.063   4.047
10272SOL    HW231716   1.263   1.162   4.031
10273SOL     OW31717   3.770   5.515   3.963
10273SOL    HW131718   3.710   5.435   3.957
10273SOL    HW231719   3.850   5.493   4.018
10274SOL     OW31720   1.275   5.029   5.637
10274SOL    HW131721   1.191   5.082   5.651
10274SOL    HW231722   1.332   5.036   5.719
10275SOL     OW31723   0.724   6.534   3.191
10275SOL    HW131724   0.656   6.495   3.253
10275SOL    HW231725   0.811   6.485   3.202
10276SOL     OW31726   6.696   5.661   5.859
10276SOL    HW131727   6.771   5.637   5.920
10276SOL    HW231728   6.614   5.610   5.884
10277SOL     OW31729   2.881   6.372   3.971
10277SOL    HW131730   2.923   6.457   3.940
10277SOL    HW231731   2.941   6.326   4.036
10278SOL     OW31732   6.779   1.505   6.078
10278SOL    HW131733   6.688   1.474   6.105
10278SOL    HW231734   6.848   1.465   6.139
10279SOL     OW31735   3.121   0.300   4.350
10279SOL    HW131736   3.089   0.240   4.277
10279SOL    HW231737   3.144   0.390   4.312
10280SOL     OW31738   2.391   4.752   0.762
10280SOL    HW131739   2.349   4.785   0.678
10280SOL    HW231740   2.355   4.661   0.784
10281SOL     OW31741   4.877   1.629   3.125
10281SOL    HW131742   4.814   1.553   3.110
10281SOL    HW231743   4.970   1.593   3.137
10282SOL     OW31744   0.162   2.887   3.384
10282SOL    HW131745   0.219   2.808   3.407
10282SOL    HW231746   0.183   2.916   3.290
10283SOL     OW31747   0.791   3.330   1.077
10283SOL    HW131748   0.815   3.380   0.994
10283SOL    HW231749   0.705   3.364   1.114
10284SOL     OW31750   5.524   4.009   4.826
10284SOL    HW131751   5.610   4.027   4.779
10284SOL    HW231752   5.454   3.984   4.759
10285SOL     OW31753   4.939   0.237   1.278
10285SOL    HW131754   4.937   0.143   1.311
10285SOL    HW231755   4.852   0.258   1.232
10286SOL     OW31756   4.097   1.512   2.648
10286SOL    HW131757   4.163   1.564   2.593
10286SOL    HW231758   4.039   1.577   2.698
10287SOL     OW31759   1.590   6.540   2.024
10287SOL    HW131760   1.517   6.511   1.963
10287SOL    HW231761   1.655   6.465   2.037
10288SOL     OW31762   4.973   5.602   3.014
10288SOL    HW131763   5.053   5.618   3.071
10288SOL    HW231764   4.959   5.680   2.953
10289SOL     OW31765   3.107   1.175   1.216
10289SOL    HW131766   3.064   1.088   1.243
10289SOL    HW231767   3.056   1.214   1.139
10290SOL     OW31768   3.963   3.949   2.845
10290SOL    HW131769   4.043   4.003   2.821
10290SOL    HW231770   3.880   3.999   2.823
10291SOL     OW31771   4.093   0.871   3.541
10291SOL    HW131772   4.106   0.964   3.509
10291SOL    HW231773   4.083   0.871   3.641
10292SOL     OW31774   0.339   2.259   4.913
10292SOL    HW131775   0.351   2.200   4.833
10292SOL    HW231776   0.404   2.234   4.984
10293SOL     OW31777   1.611   6.186   2.837
10293SOL    HW131778   1.687   6.159   2.895
10293SOL    HW231779   1.527   6.144   2.870
10294SOL     OW31780   4.864   2.710   2.822
10294SOL    HW131781   4.796   2.654   2.775
10294SOL    HW231782   4.883   2.792   2.768
10295SOL     OW31783   6.229   4.600   5.660
10295SOL    HW131784   6.260   4.513   5.621
10295SOL    HW231785   6.271   4.612   5.750
10296SOL     OW31786   5.988   4.302   6.166
10296SOL    HW131787   6.040   4.217   6.175
10296SOL    HW231788   5.941   4.322   6.251
10297SOL     OW31789   2.708   6.801   4.305
10297SOL    HW131790   2.738   6.793   4.210
10297SOL    HW231791   2.788   6.815   4.364
10298SOL     OW31792   4.668   4.173   3.175
10298SOL    HW131793   4.726   4.252   3.195
10298SOL    HW231794   4.613   4.151   3.255
10299SOL     OW31795   4.640   4.349   3.423
10299SOL    HW131796   4.569   4.388   3.481
10299SOL    HW231797   4.639   4.393   3.334
10300SOL     OW31798   1.493   3.495   1.880
10300SOL    HW131799   1.402   3.491   1.839
10300SOL    HW231800   1.532   3.586   1.867
10301SOL     OW31801   6.128   1.759   3.616
10301SOL    HW131802   6.199   1.701   3.655
10301SOL    HW231803   6.094   1.822   3.685
10302SOL     OW31804   1.051   6.348   2.612
10302SOL    HW131805   1.010   6.281   2.550
10302SOL    HW231806   1.150   6.350   2.598
10303SOL     OW31807   3.758   3.305   1.876
10303SOL    HW131808   3.801   3.343   1.794
10303SOL    HW231809   3.675   3.257   1.851
10304SOL     OW31810   6.086   6.931   4.098
10304SOL    HW131811   6.110   6.835   4.085
10304SOL    HW231812   6.092   6.979   4.010
10305SOL     OW31813   1.618   5.626   0.222
10305SOL    HW131814   1.653   5.712   0.261
10305SOL    HW231815   1.667   5.549   0.263
10306SOL     OW31816   4.343   5.859   6.547
10306SOL    HW131817   4.322   5.826   6.455
10306SOL    HW231818   4.427   5.817   6.579
10307SOL     OW31819   1.623   1.135   5.649
10307SOL    HW131820   1.637   1.100   5.742
10307SOL    HW231821   1.530   1.115   5.619
10308SOL     OW31822   3.249   4.904   3.493
10308SOL    HW131823   3.283   4.907   3.399
10308SOL    HW231824   3.158   4.861   3.493
10309SOL     OW31825   5.865   6.309   3.437
10309SOL    HW131826   5.944   6.267   3.392
10309SOL    HW231827   5.783   6.294   3.381
10310SOL     OW31828   3.036   3.508   2.264
10310SOL    HW131829   3.057   3.459   2.179
10310SOL    HW231830   3.038   3.444   2.340
10311SOL     OW31831   0.350   5.921   0.746
10311SOL    HW131832   0.411   5.974   0.805
10311SOL    HW231833   0.389   5.915   0.654
10312SOL     OW31834   3.722   4.778   0.745
10312SOL    HW131835   3.817   4.785   0.774
10312SOL    HW231836   3.679   4.868   0.749
10313SOL     OW31837   4.774   0.193   2.311
10313SOL    HW131838   4.748   0.288   2.293
10313SOL    HW231839   4.819   0.155   2.230
10314SOL     OW31840   6.562   6.991   0.505
10314SOL    HW131841   6.623   0.032   0.551
10314SOL    HW231842   6.501   6.950   0.572
10315SOL     OW31843   6.250   6.148   5.538
10315SOL    HW131844   6.203   6.063   5.515
10315SOL    HW231845   6.329   6.160   5.477
10316SOL     OW31846   0.413   3.872   4.964
10316SOL    HW131847   0.406   3.844   4.869
10316SOL    HW231848   0.358   3.811   5.022
10317SOL     OW31849   3.845   5.309   6.543
10317SOL    HW131850   3.848   5.368   6.462
10317SOL    HW231851   3.809   5.219   6.517
10318SOL     OW31852   6.302   5.012   1.167
10318SOL    HW131853   6.275   5.089   1.225
10318SOL    HW231854   6.400   5.018   1.148
10319SOL     OW31855   0.492   4.313   3.854
10319SOL    HW131856   0.404   4.283   3.890
10319SOL    HW231857   0.490   4.311   3.754
10320SOL     OW31858   0.756   6.907   1.030
10320SOL    HW131859   0.750   6.905   0.930
10320SOL    HW231860   0.844   6.869   1.059
10321SOL     OW31861   4.388   6.116   4.506
10321SOL    HW131862   4.390   6.064   4.421
10321SOL    HW231863   4.304   6.096   4.556
10322SOL     OW31864   6.300   5.311   0.715
10322SOL    HW131865   6.299   5.366   0.799
10322SOL    HW231866   6.242   5.354   0.646
10323SOL     OW31867   6.484   3.261   6.096
10323SOL    HW131868   6.556   3.327   6.075
10323SOL    HW231869   6.474   3.254   6.196
10324SOL     OW31870   3.348   2.872   3.553
10324SOL    HW131871   3.398   2.894   3.637
10324SOL    HW231872   3.402   2.900   3.474
10325SOL     OW31873   6.538   3.785   3.412
10325SOL    HW131874   6.635   3.799   3.430
10325SOL    HW231875   6.495   3.742   3.491
10326SOL     OW31876   5.009   3.035   0.370
10326SOL    HW131877   5.046   3.024   0.278
10326SOL    HW231878   4.960   3.121   0.376
10327SOL     OW31879   1.531   1.031   3.354
10327SOL    HW131880   1.593   0.991   3.287
10327SOL    HW231881   1.495   1.117   3.318
10328SOL     OW31882   5.923   3.890   2.348
10328SOL    HW131883   5.970   3.813   2.306
10328SOL    HW231884   5.990   3.959   2.376
10329SOL     OW31885   3.404   0.387   2.881
10329SOL    HW131886   3.372   0.340   2.964
10329SOL    HW231887   3.393   0.326   2.802
10330SOL     OW31888   3.691   5.323   2.876
10330SOL    HW131889   3.756   5.377   2.929
10330SOL    HW231890   3.668   5.371   2.791
10331SOL     OW31891   5.367   0.832   3.414
10331SOL    HW131892   5.321   0.771   3.480
10331SOL    HW231893   5.299   0.893   3.373
10332SOL     OW31894   0.082   2.078   0.969
10332SOL    HW131895   0.169   2.031   0.985
10332SOL    HW231896   0.009   2.011   0.956
10333SOL     OW31897   6.093   5.116   4.119
10333SOL    HW131898   6.110   5.214   4.107
10333SOL    HW231899   6.137   5.084   4.203
10334SOL     OW31900   2.312   5.023   4.358
10334SOL    HW131901   2.318   4.924   4.341
10334SOL    HW231902   2.255   5.040   4.438
10335SOL     OW31903   2.009   5.810   6.697
10335SOL    HW131904   2.083   5.745   6.718
10335SOL    HW231905   1.921   5.763   6.704
10336SOL     OW31906   4.217   6.895   1.992
10336SOL    HW131907   4.230   6.823   2.060
10336SOL    HW231908   4.305   6.941   1.974
10337SOL     OW31909   0.330   5.316   5.096
10337SOL    HW131910   0.354   5.240   5.035
10337SOL    HW231911   0.239   5.300   5.134
10338SOL     OW31912   3.123   6.824   1.936
10338SOL    HW131913   3.167   6.866   2.016
10338SOL    HW231914   3.191   6.771   1.886
10339SOL     OW31915   3.402   6.050   0.888
10339SOL    HW131916   3.444   6.102   0.962
10339SOL    HW231917   3.442   5.958   0.884
10340SOL     OW31918   2.437   6.191   6.942
10340SOL    HW131919   2.349   6.147   6.924
10340SOL    HW231920   2.426   6.260   7.014
10341SOL     OW31921   2.373   2.112   2.376
10341SOL    HW131922   2.392   2.209   2.386
10341SOL    HW231923   2.359   2.090   2.280
10342SOL     OW31924   2.500   6.986   5.410
10342SOL    HW131925   2.494   0.054   5.449
10342SOL    HW231926   2.415   6.964   5.362
10343SOL     OW31927   2.628   3.893   5.964
10343SOL    HW131928   2.698   3.826   5.939
10343SOL    HW231929   2.556   3.893   5.895
10344SOL     OW31930   4.154   3.585   4.974
10344SOL    HW131931   4.128   3.627   4.887
10344SOL    HW231932   4.240   3.535   4.963
10345SOL     OW31933   2.272   1.080   0.262
10345SOL    HW131934   2.250   1.046   0.171
10345SOL    HW231935   2.189   1.112   0.307
10346SOL     OW31936   5.057   6.934   6.944
10346SOL    HW131937   5.050   6.837   6.966
10346SOL    HW231938   5.125   6.947   6.872
10347SOL     OW31939   5.483   2.017   1.425
10347SOL    HW131940   5.427   1.966   1.359
10347SOL    HW231941   5.485   1.968   1.512
10348SOL     OW31942   6.131   1.077   6.362
10348SOL    HW131943   6.181   1.145   6.415
10348SOL    HW231944   6.149   0.986   6.397
10349SOL     OW31945   6.368   1.269   1.276
10349SOL    HW131946   6.315   1.262   1.360
10349SOL    HW231947   6.421   1.184   1.263
10350SOL     OW31948   3.492   5.812   4.455
10350SOL    HW131949   3.451   5.746   4.391
10350SOL    HW231950   3.473   5.784   4.549
10351SOL     OW31951   5.881   5.492   4.718
10351SOL    HW131952   5.930   5.439   4.788
10351SOL    HW231953   5.915   5.586   4.718
10352SOL     OW31954   5.361   1.423   6.717
10352SOL    HW131955   5.266   1.428   6.749
10352SOL    HW231956   5.421   1.466   6.784
10353SOL     OW31957   0.823   3.086   3.087
10353SOL    HW131958   0.816   3.075   3.186
10353SOL    HW231959   0.919   3.094   3.061
10354SOL     OW31960   0.213   3.765   0.545
10354SOL    HW131961   0.293   3.805   0.500
10354SOL    HW231962   0.143   3.835   0.558
10355SOL     OW31963   1.223   1.026   0.911
10355SOL    HW131964   1.205   0.933   0.946
10355SOL    HW231965   1.173   1.092   0.967
10356SOL     OW31966   0.056   3.152   6.719
10356SOL    HW131967   0.156   3.142   6.713
10356SOL    HW231968   0.034   3.239   6.762
10357SOL     OW31969   1.526   2.237   6.517
10357SOL    HW131970   1.503   2.329   6.484
10357SOL    HW231971   1.625   2.226   6.520
10358SOL     OW31972   1.470   2.422   2.628
10358SOL    HW131973   1.514   2.491   2.571
10358SOL    HW231974   1.394   2.465   2.678
10359SOL     OW31975   5.378   2.340   3.002
10359SOL    HW131976   5.344   2.331   3.095
10359SOL    HW231977   5.473   2.370   3.003
10360SOL     OW31978   5.587   4.851   3.175
10360SOL    HW131979   5.588   4.931   3.115
10360SOL    HW231980   5.506   4.854   3.233
10361SOL     OW31981   1.866   1.284   1.413
10361SOL    HW131982   1.794   1.220   1.388
10361SOL    HW231983   1.830   1.351   1.478
10362SOL     OW31984   0.490   5.185   1.741
10362SOL    HW131985   0.535   5.259   1.691
10362SOL    HW231986   0.451   5.221   1.826
10363SOL     OW31987   4.701   3.499   0.651
10363SOL    HW131988   4.637   3.541   0.587
10363SOL    HW231989   4.690   3.400   0.649
10364SOL     OW31990   4.657   5.223   1.503
10364SOL    HW131991   4.723   5.148   1.509
10364SOL    HW231992   4.695   5.304   1.547
10365SOL     OW31993   5.952   4.763   0.611
10365SOL    HW131994   5.972   4.850   0.656
10365SOL    HW231995   5.956   4.689   0.677
10366SOL     OW31996   3.907   6.659   2.680
10366SOL    HW131997   3.996   6.658   2.635
10366SOL    HW231998   3.907   6.594   2.756
10367SOL     OW31999   6.630   1.469   1.555
10367SOL    HW132000   6.571   1.439   1.630
10367SOL    HW232001   6.588   1.546   1.508
10368SOL     OW32002   2.359   0.220   2.234
10368SOL    HW132003   2.324   0.233   2.141
10368SOL    HW232004   2.299   0.157   2.283
10369SOL     OW32005   3.187   6.130   5.001
10369SOL    HW132006   3.146   6.039   5.010
10369SOL    HW232007   3.243   6.134   4.919
10370SOL     OW32008   6.837   1.780   4.467
10370SOL    HW132009   6.776   1.857   4.487
10370SOL    HW232010   6.842   1.767   4.368
10371SOL     OW32011   3.896   6.317   3.622
10371SOL    HW132012   3.930   6.230   3.587
10371SOL    HW232013   3.900   6.387   3.550
10372SOL     OW32014   3.015   0.602   1.445
10372SOL    HW132015   3.097   0.657   1.429
10372SOL    HW232016   3.040   0.506   1.455
10373SOL     OW32017   6.921   0.720   5.445
10373SOL    HW132018   6.914   0.626   5.412
10373SOL    HW232019   6.832   0.764   5.440
10374SOL     OW32020   3.160   6.930   4.419
10374SOL    HW132021   3.225   7.001   4.392
10374SOL    HW232022   3.198   6.840   4.398
10375SOL     OW32023   3.494   2.833   6.792
10375SOL    HW132024   3.550   2.774   6.734
10375SOL    HW232025   3.456   2.908   6.738
10376SOL     OW32026   1.106   6.382   3.688
10376SOL    HW132027   1.140   6.468   3.650
10376SOL    HW232028   1.065   6.328   3.614
10377SOL     OW32029   0.393   1.397   1.554
10377SOL    HW132030   0.369   1.483   1.599
10377SOL    HW232031   0.335   1.324   1.589
10378SOL     OW32032   0.242   5.589   5.112
10378SOL    HW132033   0.166   5.585   5.047
10378SOL    HW232034   0.293   5.503   5.110
10379SOL     OW32035   2.506   6.730   3.991
10379SOL    HW132036   2.533   6.748   3.896
10379SOL    HW232037   2.545   6.643   4.020
10380SOL     OW32038   1.476   2.528   4.359
10380SOL    HW132039   1.552   2.505   4.299
10380SOL    HW232040   1.494   2.493   4.451
10381SOL     OW32041   3.947   4.370   1.645
10381SOL    HW132042   4.043   4.355   1.620
10381SOL    HW232043   3.933   4.466   1.666
10382SOL     OW32044   2.856   5.114   2.104
10382SOL    HW132045   2.820   5.204   2.131
10382SOL    HW232046   2.955   5.120   2.092
10383SOL     OW32047   1.552   4.853   0.343
10383SOL    HW132048   1.571   4.940   0.390
10383SOL    HW232049   1.601   4.851   0.256
10384SOL     OW32050   6.378   6.201   1.041
10384SOL    HW132051   6.371   6.296   1.070
10384SOL    HW232052   6.290   6.156   1.052
10385SOL     OW32053   3.460   5.260   6.368
10385SOL    HW132054   3.387   5.285   6.430
10385SOL    HW232055   3.422   5.213   6.289
10386SOL     OW32056   6.945   1.340   6.256
10386SOL    HW132057   6.976   1.371   6.345
10386SOL    HW232058   6.888   1.259   6.266
10387SOL     OW32059   5.377   2.615   3.349
10387SOL    HW132060   5.439   2.602   3.271
10387SOL    HW232061   5.287   2.579   3.326
10388SOL     OW32062   2.951   0.322   6.385
10388SOL    HW132063   2.918   0.382   6.312
10388SOL    HW232064   3.007   0.249   6.346
10389SOL     OW32065   6.439   3.868   0.106
10389SOL    HW132066   6.472   3.851   0.199
10389SOL    HW232067   6.472   3.796   0.045
10390SOL     OW32068   1.874   2.107   0.779
10390SOL    HW132069   1.801   2.171   0.756
10390SOL    HW232070   1.957   2.157   0.800
10391SOL     OW32071   0.841   6.044   3.402
10391SOL    HW132072   0.778   5.970   3.375
10391SOL    HW232073   0.935   6.015   3.384
10392SOL     OW32074   6.474   5.101   5.242
10392SOL    HW132075   6.393   5.137   5.196
10392SOL    HW232076   6.468   5.123   5.340
10393SOL     OW32077   2.138   3.264   3.832
10393SOL    HW132078   2.079   3.200   3.784
10393SOL    HW232079   2.117   3.357   3.802
10394SOL     OW32080   2.745   5.721   3.829
10394SOL    HW132081   2.769   5.641   3.883
10394SOL    HW232082   2.680   5.777   3.881
10395SOL     OW32083   0.393   6.638   1.379
10395SOL    HW132084   0.410   6.628   1.281
10395SOL    HW232085   0.441   6.718   1.414
10396SOL     OW32086   3.980   1.671   4.351
10396SOL    HW132087   3.886   1.636   4.350
10396SOL    HW232088   3.986   1.753   4.293
10397SOL     OW32089   3.587   1.739   2.895
10397SOL    HW132090   3.622   1.764   2.804
10397SOL    HW232091   3.497   1.695   2.885
10398SOL     OW32092   6.251   2.837   1.162
10398SOL    HW132093   6.152   2.837   1.173
10398SOL    HW232094   6.280   2.921   1.116
10399SOL     OW32095   5.230   2.310   3.219
10399SOL    HW132096   5.171   2.229   3.218
10399SOL    HW232097   5.255   2.333   3.313
10400SOL     OW32098   4.408   6.858   0.282
10400SOL    HW132099   4.371   6.894   0.368
10400SOL    HW232100   4.423   6.934   0.218
10401SOL     OW32101   6.181   0.909   3.870
10401SOL    HW132102   6.188   0.959   3.956
10401SOL    HW232103   6.248   0.835   3.868
10402SOL     OW32104   6.771   3.544   5.167
10402SOL    HW132105   6.688   3.489   5.175
10402SOL    HW232106   6.747   3.641   5.173
10403SOL     OW32107   4.374   0.966   3.620
10403SOL    HW132108   4.312   0.889   3.607
10403SOL    HW232109   4.360   1.033   3.547
10404SOL     OW32110   6.374   6.646   5.032
10404SOL    HW132111   6.472   6.661   5.042
10404SOL    HW232112   6.325   6.733   5.037
10405SOL     OW32113   0.217   1.858   5.530
10405SOL    HW132114   0.309   1.881   5.560
10405SOL    HW232115   0.165   1.942   5.514
10406SOL     OW32116   2.746   5.110   2.965
10406SOL    HW132117   2.747   5.208   2.989
10406SOL    HW232118   2.659   5.088   2.922
10407SOL     OW32119   3.184   6.595   6.083
10407SOL    HW132120   3.234   6.681   6.096
10407SOL    HW232121   3.171   6.550   6.172
10408SOL     OW32122   4.945   6.953   1.065
10408SOL    HW132123   4.987   6.978   0.978
10408SOL    HW232124   5.016   6.945   1.135
10409SOL     OW32125   0.029   4.710   0.750
10409SOL    HW132126   7.010   4.773   0.686
10409SOL    HW232127   0.120   4.744   0.775
10410SOL     OW32128   5.407   1.777   0.371
10410SOL    HW132129   5.465   1.845   0.417
10410SOL    HW232130   5.331   1.824   0.326
10411SOL     OW32131   3.997   6.516   3.411
10411SOL    HW132132   4.038   6.601   3.377
10411SOL    HW232133   4.033   6.438   3.359
10412SOL     OW32134   0.002   0.935   0.264
10412SOL    HW132135   0.078   0.873   0.285
10412SOL    HW232136   6.961   0.934   0.340
10413SOL     OW32137   6.346   2.980   0.396
10413SOL    HW132138   6.363   2.988   0.494
10413SOL    HW232139   6.432   2.990   0.346
10414SOL     OW32140   3.947   4.122   5.519
10414SOL    HW132141   3.917   4.167   5.434
10414SOL    HW232142   4.045   4.104   5.514
10415SOL     OW32143   0.908   4.003   4.563
10415SOL    HW132144   0.842   4.064   4.518
10415SOL    HW232145   0.890   3.909   4.536
10416SOL     OW32146   6.060   0.279   4.302
10416SOL    HW132147   6.044   0.297   4.399
10416SOL    HW232148   5.985   0.224   4.265
10417SOL     OW32149   3.342   5.204   4.451
10417SOL    HW132150   3.294   5.291   4.455
10417SOL    HW232151   3.349   5.165   4.542
10418SOL     OW32152   0.120   4.713   6.709
10418SOL    HW132153   0.160   4.700   6.618
10418SOL    HW232154   0.034   4.764   6.702
10419SOL     OW32155   1.614   7.005   6.348
10419SOL    HW132156   1.634   6.962   6.436
10419SOL    HW232157   1.660   0.070   6.343
10420SOL     OW32158   0.124   3.738   2.592
10420SOL    HW132159   0.178   3.690   2.522
10420SOL    HW232160   0.027   3.728   2.571
10421SOL     OW32161   0.356   1.449   3.586
10421SOL    HW132162   0.377   1.524   3.523
10421SOL    HW232163   0.402   1.366   3.557
10422SOL     OW32164   6.204   3.452   5.376
10422SOL    HW132165   6.217   3.363   5.333
10422SOL    HW232166   6.107   3.479   5.368
10423SOL     OW32167   5.846   5.239   4.599
10423SOL    HW132168   5.943   5.235   4.576
10423SOL    HW232169   5.835   5.289   4.686
10424SOL     OW32170   5.759   2.919   0.485
10424SOL    HW132171   5.753   3.012   0.447
10424SOL    HW232172   5.760   2.924   0.584
10425SOL     OW32173   1.182   6.691   1.890
10425SOL    HW132174   1.244   6.731   1.823
10425SOL    HW232175   1.189   6.591   1.887
10426SOL     OW32176   0.049   5.033   0.348
10426SOL    HW132177   0.054   5.116   0.403
10426SOL    HW232178   6.977   5.004   0.340
10427SOL     OW32179   3.545   0.737   0.037
10427SOL    HW132180   3.622   0.782   7.014
10427SOL    HW232181   3.574   0.703   0.125
10428SOL     OW32182   2.810   1.132   4.231
10428SOL    HW132183   2.735   1.189   4.198
10428SOL    HW232184   2.897   1.167   4.196
10429SOL     OW32185   6.971   5.092   0.894
10429SOL    HW132186   6.967   5.016   0.959
10429SOL    HW232187   7.016   5.170   0.938
10430SOL     OW32188   4.706   6.334   3.714
10430SOL    HW132189   4.695   6.313   3.617
10430SOL    HW232190   4.792   6.297   3.747
10431SOL     OW32191   3.468   5.978   3.872
10431SOL    HW132192   3.471   6.013   3.966
10431SOL    HW232193   3.511   5.888   3.869
10432SOL     OW32194   6.069   6.595   4.616
10432SOL    HW132195   6.049   6.498   4.622
10432SOL    HW232196   5.984   6.647   4.618
10433SOL     OW32197   1.584   6.506   1.511
10433SOL    HW132198   1.647   6.442   1.555
10433SOL    HW232199   1.597   6.503   1.412
10434SOL     OW32200   4.280   0.338   3.446
10434SOL    HW132201   4.351   0.366   3.381
10434SOL    HW232202   4.323   0.315   3.533
10435SOL     OW32203   0.069   0.325   4.997
10435SOL    HW132204   0.168   0.320   5.003
10435SOL    HW232205   0.042   0.345   4.903
10436SOL     OW32206   0.795   5.573   6.185
10436SOL    HW132207   0.788   5.654   6.127
10436SOL    HW232208   0.889   5.539   6.184
10437SOL     OW32209   6.585   4.815   6.080
10437SOL    HW132210   6.671   4.837   6.125
10437SOL    HW232211   6.512   4.813   6.149
10438SOL     OW32212   6.150   6.224   0.644
10438SOL    HW132213   6.089   6.271   0.579
10438SOL    HW232214   6.242   6.219   0.605
10439SOL     OW32215   3.681   1.417   5.886
10439SOL    HW132216   3.686   1.385   5.981
10439SOL    HW232217   3.588   1.404   5.852
10440SOL     OW32218   1.237   6.553   0.313
10440SOL    HW132219   1.250   6.652   0.304
10440SOL    HW232220   1.294   6.518   0.386
10441SOL     OW32221   4.083   1.073   0.133
10441SOL    HW132222   4.148   1.020   0.079
10441SOL    HW232223   3.991   1.064   0.094
10442SOL     OW32224   3.662   6.408   5.662
10442SOL    HW132225   3.629   6.320   5.695
10442SOL    HW232226   3.756   6.422   5.693
10443SOL     OW32227   5.101   3.917   4.858
10443SOL    HW132228   5.015   3.938   4.811
10443SOL    HW232229   5.173   3.978   4.824
10444SOL     OW32230   3.712   6.782   4.298
10444SOL    HW132231   3.773   6.850   4.339
10444SOL    HW232232   3.707   6.702   4.358
10445SOL     OW32233   1.203   5.697   4.559
10445SOL    HW132234   1.230   5.785   4.520
10445SOL    HW232235   1.240   5.689   4.651
10446SOL     OW32236   0.849   2.970   6.137
10446SOL    HW132237   0.880   2.881   6.172
10446SOL    HW232238   0.778   2.955   6.068
10447SOL     OW32239   6.827   1.118   2.260
10447SOL    HW132240   6.802   1.097   2.166
10447SOL    HW232241   6.877   1.041   2.299
10448SOL     OW32242   3.960   2.224   1.804
10448SOL    HW132243   4.038   2.282   1.829
10448SOL    HW232244   3.881   2.250   1.860
10449SOL     OW32245   2.666   5.434   4.581
10449SOL    HW132246   2.575   5.474   4.577
10449SOL    HW232247   2.703   5.424   4.489
10450SOL     OW32248   0.852   2.498   0.547
10450SOL    HW132249   0.823   2.518   0.640
10450SOL    HW232250   0.796   2.424   0.510
10451SOL     OW32251   2.101   5.302   3.529
10451SOL    HW132252   2.059   5.334   3.614
10451SOL    HW232253   2.173   5.235   3.550
10452SOL     OW32254   6.117   3.331   3.448
10452SOL    HW132255   6.148   3.236   3.441
10452SOL    HW232256   6.118   3.372   3.357
10453SOL     OW32257   5.184   5.873   1.854
10453SOL    HW132258   5.159   5.805   1.923
10453SOL    HW232259   5.107   5.890   1.794
10454SOL     OW32260   4.009   2.818   1.076
10454SOL    HW132261   3.999   2.760   0.995
10454SOL    HW232262   4.086   2.786   1.130
10455SOL     OW32263   0.122   5.295   2.231
10455SOL    HW132264   0.194   5.251   2.285
10455SOL    HW232265   0.151   5.300   2.135
10456SOL     OW32266   3.171   6.228   1.740
10456SOL    HW132267   3.214   6.309   1.700
10456SOL    HW232268   3.167   6.239   1.840
10457SOL     OW32269   3.765   2.965   3.045
10457SOL    HW132270   3.731   2.891   2.988
10457SOL    HW232271   3.838   3.014   2.998
10458SOL     OW32272   0.224   0.771   6.692
10458SOL    HW132273   0.248   0.842   6.625
10458SOL    HW232274   0.252   0.802   6.783
10459SOL     OW32275   5.563   5.220   2.561
10459SOL    HW132276   5.497   5.148   2.581
10459SOL    HW232277   5.564   5.287   2.635
10460SOL     OW32278   1.964   5.743   1.280
10460SOL    HW132279   1.873   5.708   1.301
10460SOL    HW232280   2.009   5.683   1.214
10461SOL     OW32281   1.621   6.247   5.210
10461SOL    HW132282   1.676   6.248   5.293
10461SOL    HW232283   1.593   6.340   5.187
10462SOL     OW32284   5.412   2.155   2.625
10462SOL    HW132285   5.507   2.130   2.647
10462SOL    HW232286   5.391   2.244   2.664
10463SOL     OW32287   3.596   3.233   5.723
10463SOL    HW132288   3.639   3.170   5.658
10463SOL    HW232289   3.623   3.327   5.701
10464SOL     OW32290   5.446   0.220   0.834
10464SOL    HW132291   5.368   0.277   0.861
10464SOL    HW232292   5.441   0.132   0.881
10465SOL     OW32293   6.273   6.756   1.119
10465SOL    HW132294   6.292   6.763   1.217
10465SOL    HW232295   6.246   6.845   1.084
10466SOL     OW32296   4.445   5.187   5.101
10466SOL    HW132297   4.396   5.105   5.069
10466SOL    HW232298   4.458   5.182   5.200
10467SOL     OW32299   1.012   2.031   5.166
10467SOL    HW132300   0.998   1.939   5.202
10467SOL    HW232301   1.015   2.096   5.241
10468SOL     OW32302   3.493   5.308   3.074
10468SOL    HW132303   3.569   5.310   3.009
10468SOL    HW232304   3.463   5.402   3.093
10469SOL     OW32305   3.516   3.098   0.113
10469SOL    HW132306   3.471   3.108   0.202
10469SOL    HW232307   3.473   3.160   0.047
10470SOL     OW32308   2.042   1.770   2.889
10470SOL    HW132309   1.995   1.791   2.975
10470SOL    HW232310   2.100   1.689   2.902
10471SOL     OW32311   2.199   3.615   1.213
10471SOL    HW132312   2.100   3.618   1.224
10471SOL    HW232313   2.235   3.532   1.255
10472SOL     OW32314   3.503   6.474   1.225
10472SOL    HW132315   3.560   6.399   1.258
10472SOL    HW232316   3.551   6.522   1.152
10473SOL     OW32317   5.771   0.019   0.989
10473SOL    HW132318   5.831   0.046   1.064
10473SOL    HW232319   5.822   6.990   0.921
10474SOL     OW32320   4.745   0.642   4.991
10474SOL    HW132321   4.811   0.567   4.995
10474SOL    HW232322   4.692   0.637   4.907
10475SOL     OW32323   4.855   6.562   1.556
10475SOL    HW132324   4.837   6.474   1.513
10475SOL    HW232325   4.918   6.615   1.500
10476SOL     OW32326   0.360   5.704   6.507
10476SOL    HW132327   0.413   5.669   6.584
10476SOL    HW232328   0.416   5.768   6.454
10477SOL     OW32329   5.948   2.730   5.130
10477SOL    HW132330   5.907   2.640   5.146
10477SOL    HW232331   5.876   2.799   5.123
10478SOL     OW32332   0.586   0.424   0.079
10478SOL    HW132333   0.569   0.351   0.012
10478SOL    HW232334   0.683   0.424   0.104
10479SOL     OW32335   0.827   2.797   1.596
10479SOL    HW132336   0.753   2.858   1.567
10479SOL    HW232337   0.800   2.702   1.581
10480SOL     OW32338   5.322   0.542   1.071
10480SOL    HW132339   5.318   0.593   1.157
10480SOL    HW232340   5.284   0.451   1.085
10481SOL     OW32341   2.861   1.451   5.253
10481SOL    HW132342   2.799   1.479   5.326
10481SOL    HW232343   2.821   1.374   5.203
10482SOL     OW32344   0.691   5.943   4.746
10482SOL    HW132345   0.700   5.969   4.842
10482SOL    HW232346   0.640   5.857   4.738
10483SOL     OW32347   6.848   5.275   0.364
10483SOL    HW132348   6.749   5.272   0.349
10483SOL    HW232349   6.879   5.189   0.406
10484SOL     OW32350   6.888   0.390   0.566
10484SOL    HW132351   6.790   0.381   0.547
10484SOL    HW232352   6.929   0.455   0.503
10485SOL     OW32353   3.756   3.587   3.064
10485SOL    HW132354   3.792   3.665   3.114
10485SOL    HW232355   3.737   3.512   3.128
10486SOL     OW32356   6.378   0.703   5.870
10486SOL    HW132357   6.464   0.739   5.837
10486SOL    HW232358   6.308   0.774   5.868
10487SOL     OW32359   4.343   1.821   1.409
10487SOL    HW132360   4.362   1.729   1.374
10487SOL    HW232361   4.255   1.820   1.457
10488SOL     OW32362   1.649   2.267   5.544
10488SOL    HW132363   1.583   2.195   5.564
10488SOL    HW232364   1.617   2.353   5.583
10489SOL     OW32365   5.567   5.650   4.013
10489SOL    HW132366   5.653   5.682   3.974
10489SOL    HW232367   5.524   5.723   4.066
10490SOL     OW32368   5.747   0.577   0.327
10490SOL    HW132369   5.662   0.591   0.277
10490SOL    HW232370   5.814   0.533   0.267
10491SOL     OW32371   2.171   2.741   6.223
10491SOL    HW132372   2.193   2.780   6.133
10491SOL    HW232373   2.194   2.808   6.294
10492SOL     OW32374   3.908   5.723   0.497
10492SOL    HW132375   3.937   5.779   0.419
10492SOL    HW232376   3.816   5.749   0.524
10493SOL     OW32377   3.062   5.555   1.339
10493SOL    HW132378   3.068   5.461   1.372
10493SOL    HW232379   3.152   5.588   1.312
10494SOL     OW32380   0.570   4.943   6.056
10494SOL    HW132381   0.539   4.937   5.961
10494SOL    HW232382   0.594   4.851   6.088
10495SOL     OW32383   6.514   5.778   0.069
10495SOL    HW132384   6.554   5.739   7.010
10495SOL    HW232385   6.486   5.872   0.052
10496SOL     OW32386   6.513   4.469   5.341
10496SOL    HW132387   6.485   4.466   5.436
10496SOL    HW232388   6.440   4.510   5.285
10497SOL     OW32389   0.908   6.955   1.906
10497SOL    HW132390   0.856   0.017   1.901
10497SOL    HW232391   1.005   6.977   1.920
10498SOL     OW32392   5.280   5.878   1.492
10498SOL    HW132393   5.254   5.944   1.562
10498SOL    HW232394   5.205   5.814   1.476
10499SOL     OW32395   5.829   5.881   1.106
10499SOL    HW132396   5.819   5.859   1.009
10499SOL    HW232397   5.761   5.831   1.159
10500SOL     OW32398   4.909   3.314   4.894
10500SOL    HW132399   4.902   3.278   4.987
10500SOL    HW232400   4.875   3.246   4.829
10501SOL     OW32401   2.276   5.527   2.597
10501SOL    HW132402   2.339   5.549   2.672
10501SOL    HW232403   2.241   5.611   2.557
10502SOL     OW32404   3.123   3.175   1.362
10502SOL    HW132405   3.147   3.124   1.280
10502SOL    HW232406   3.025   3.196   1.361
10503SOL     OW32407   6.595   3.998   6.500
10503SOL    HW132408   6.525   3.973   6.434
10503SOL    HW232409   6.605   3.925   6.567
10504SOL     OW32410   0.640   2.629   5.957
10504SOL    HW132411   0.568   2.586   5.903
10504SOL    HW232412   0.713   2.563   5.975
10505SOL     OW32413   5.955   5.538   1.970
10505SOL    HW132414   5.946   5.623   1.918
10505SOL    HW232415   5.894   5.542   2.049
10506SOL     OW32416   0.589   3.393   0.415
10506SOL    HW132417   0.575   3.314   0.356
10506SOL    HW232418   0.532   3.469   0.383
10507SOL     OW32419   2.276   5.562   7.019
10507SOL    HW132420   2.349   5.628   0.013
10507SOL    HW232421   2.206   5.571   0.066
10508SOL     OW32422   1.353   5.530   3.720
10508SOL    HW132423   1.361   5.534   3.620
10508SOL    HW232424   1.350   5.435   3.749
10509SOL     OW32425   5.384   3.835   4.386
10509SOL    HW132426   5.394   3.907   4.317
10509SOL    HW232427   5.463   3.837   4.448
10510SOL     OW32428   4.473   6.397   6.406
10510SOL    HW132429   4.546   6.408   6.338
10510SOL    HW232430   4.461   6.299   6.426
10511SOL     OW32431   2.738   1.135   2.058
10511SOL    HW132432   2.762   1.192   1.979
10511SOL    HW232433   2.742   1.039   2.032
10512SOL     OW32434   4.536   6.916   5.723
10512SOL    HW132435   4.596   6.988   5.688
10512SOL    HW232436   4.524   6.928   5.822
10513SOL     OW32437   6.336   2.580   2.533
10513SOL    HW132438   6.368   2.669   2.500
10513SOL    HW232439   6.381   2.507   2.482
10514SOL     OW32440   1.734   1.727   1.238
10514SOL    HW132441   1.681   1.663   1.182
10514SOL    HW232442   1.832   1.713   1.221
10515SOL     OW32443   2.304   2.377   3.706
10515SOL    HW132444   2.327   2.283   3.730
10515SOL    HW232445   2.385   2.423   3.669
10516SOL     OW32446   2.848   1.867   0.269
10516SOL    HW132447   2.895   1.888   0.354
10516SOL    HW232448   2.914   1.852   0.196
10517SOL     OW32449   1.819   4.437   2.027
10517SOL    HW132450   1.902   4.482   1.993
10517SOL    HW232451   1.747   4.445   1.959
10518SOL     OW32452   0.233   5.035   1.903
10518SOL    HW132453   0.271   4.994   1.986
10518SOL    HW232454   0.152   4.983   1.875
10519SOL     OW32455   2.941   5.132   1.271
10519SOL    HW132456   2.868   5.127   1.340
10519SOL    HW232457   3.028   5.154   1.316
10520SOL     OW32458   6.896   1.670   6.370
10520SOL    HW132459   6.925   1.604   6.440
10520SOL    HW232460   6.942   1.757   6.386
10521SOL     OW32461   6.329   4.255   1.640
10521SOL    HW132462   6.356   4.324   1.574
10521SOL    HW232463   6.408   4.228   1.695
10522SOL     OW32464   0.377   2.631   3.144
10522SOL    HW132465   0.409   2.599   3.055
10522SOL    HW232466   0.427   2.714   3.170
10523SOL     OW32467   0.227   4.241   3.430
10523SOL    HW132468   0.208   4.181   3.508
10523SOL    HW232469   0.236   4.186   3.347
10524SOL     OW32470   0.150   5.581   3.592
10524SOL    HW132471   0.130   5.606   3.497
10524SOL    HW232472   0.064   5.570   3.642
10525SOL     OW32473   4.062   0.460   4.953
10525SOL    HW132474   4.097   0.467   5.046
10525SOL    HW232475   3.967   0.489   4.950
10526SOL     OW32476   0.322   6.473   1.104
10526SOL    HW132477   0.385   6.418   1.048
10526SOL    HW232478   0.291   6.418   1.181
10527SOL     OW32479   0.380   0.672   5.820
10527SOL    HW132480   0.290   0.643   5.852
10527SOL    HW232481   0.396   0.637   5.728
10528SOL     OW32482   0.852   4.054   0.076
10528SOL    HW132483   0.818   3.977   0.130
10528SOL    HW232484   0.883   4.020   7.011
10529SOL     OW32485   1.597   6.199   4.943
10529SOL    HW132486   1.640   6.115   4.908
10529SOL    HW232487   1.602   6.201   5.042
10530SOL     OW32488   1.431   6.276   5.939
10530SOL    HW132489   1.514   6.220   5.940
10530SOL    HW232490   1.375   6.250   5.860
10531SOL     OW32491   2.590   2.439   4.425
10531SOL    HW132492   2.576   2.476   4.333
10531SOL    HW232493   2.688   2.425   4.440
10532SOL     OW32494   5.731   6.729   6.912
10532SOL    HW132495   5.670   6.672   6.857
10532SOL    HW232496   5.812   6.675   6.938
10533SOL     OW32497   3.241   5.646   4.325
10533SOL    HW132498   3.179   5.634   4.247
10533SOL    HW232499   3.333   5.618   4.298
10534SOL     OW32500   0.326   5.670   2.094
10534SOL    HW132501   0.305   5.685   2.190
10534SOL    HW232502   0.308   5.574   2.071
10535SOL     OW32503   2.453   1.023   1.740
10535SOL    HW132504   2.467   0.926   1.721
10535SOL    HW232505   2.367   1.035   1.789
10536SOL     OW32506   4.281   6.853   3.849
10536SOL    HW132507   4.372   6.890   3.866
10536SOL    HW232508   4.281   6.801   3.764
10537SOL     OW32509   4.881   6.577   3.594
10537SOL    HW132510   4.815   6.605   3.663
10537SOL    HW232511   4.974   6.586   3.630
10538SOL     OW32512   5.731   3.837   2.515
10538SOL    HW132513   5.765   3.842   2.609
10538SOL    HW232514   5.802   3.864   2.451
10539SOL     OW32515   6.355   5.308   1.987
10539SOL    HW132516   6.428   5.318   2.055
10539SOL    HW232517   6.392   5.324   1.896
10540SOL     OW32518   2.258   4.179   6.296
10540SOL    HW132519   2.287   4.146   6.206
10540SOL    HW232520   2.215   4.105   6.347
10541SOL     OW32521   3.694   2.904   4.304
10541SOL    HW132522   3.679   2.831   4.370
10541SOL    HW232523   3.633   2.891   4.225
10542SOL     OW32524   6.570   0.492   4.446
10542SOL    HW132525   6.632   0.463   4.373
10542SOL    HW232526   6.590   0.441   4.530
10543SOL     OW32527   6.851   2.343   5.609
10543SOL    HW132528   6.811   2.352   5.701
10543SOL    HW232529   6.915   2.419   5.594
10544SOL     OW32530   1.844   0.107   3.633
10544SOL    HW132531   1.856   0.200   3.601
10544SOL    HW232532   1.905   0.090   3.711
10545SOL     OW32533   0.963   2.819   2.202
10545SOL    HW132534   0.981   2.908   2.161
10545SOL    HW232535   1.023   2.807   2.282
10546SOL     OW32536   3.326   6.168   1.328
10546SOL    HW132537   3.297   6.206   1.240
10546SOL    HW232538   3.404   6.219   1.362
10547SOL     OW32539   4.580   0.574   4.504
10547SOL    HW132540   4.666   0.575   4.453
10547SOL    HW232541   4.522   0.500   4.470
10548SOL     OW32542   0.665   4.832   4.838
10548SOL    HW132543   0.735   4.762   4.834
10548SOL    HW232544   0.609   4.829   4.755
10549SOL     OW32545   0.040   1.619   0.694
10549SOL    HW132546   0.058   1.631   0.596
10549SOL    HW232547   6.970   1.589   0.707
10550SOL     OW32548   3.902   6.641   3.099
10550SOL    HW132549   3.828   6.580   3.129
10550SOL    HW232550   3.938   6.690   3.178
10551SOL     OW32551   2.683   1.728   6.285
10551SOL    HW132552   2.593   1.707   6.246
10551SOL    HW232553   2.727   1.799   6.230
10552SOL     OW32554   2.320   0.566   4.927
10552SOL    HW132555   2.378   0.597   4.852
10552SOL    HW232556   2.227   0.598   4.912
10553SOL     OW32557   6.903   4.510   1.152
10553SOL    HW132558   6.859   4.540   1.067
10553SOL    HW232559   6.996   4.479   1.131
10554SOL     OW32560   5.737   4.717   2.301
10554SOL    HW132561   5.754   4.664   2.384
10554SOL    HW232562   5.664   4.675   2.248
10555SOL     OW32563   2.880   2.209   0.823
10555SOL    HW132564   2.896   2.292   0.877
10555SOL    HW232565   2.804   2.224   0.761
10556SOL     OW32566   2.529   1.408   3.391
10556SOL    HW132567   2.503   1.433   3.485
10556SOL    HW232568   2.463   1.344   3.354
10557SOL     OW32569   1.844   3.282   4.673
10557SOL    HW132570   1.875   3.226   4.596
10557SOL    HW232571   1.871   3.239   4.759
10558SOL     OW32572   3.195   4.752   5.818
10558SOL    HW132573   3.139   4.791   5.891
10558SOL    HW232574   3.137   4.725   5.742
10559SOL     OW32575   3.488   1.075   0.467
10559SOL    HW132576   3.569   1.066   0.526
10559SOL    HW232577   3.503   1.148   0.401
10560SOL     OW32578   4.257   6.344   1.979
10560SOL    HW132579   4.225   6.267   2.034
10560SOL    HW232580   4.212   6.428   2.008
10561SOL     OW32581   4.011   5.047   2.168
10561SOL    HW132582   3.925   4.996   2.179
10561SOL    HW232583   4.055   5.020   2.082
10562SOL     OW32584   3.586   6.198   1.122
10562SOL    HW132585   3.577   6.200   1.222
10562SOL    HW232586   3.656   6.132   1.096
10563SOL     OW32587   0.787   0.712   1.173
10563SOL    HW132588   0.844   0.739   1.250
10563SOL    HW232589   0.818   0.624   1.137
10564SOL     OW32590   6.350   5.465   3.601
10564SOL    HW132591   6.350   5.524   3.520
10564SOL    HW232592   6.291   5.386   3.584
10565SOL     OW32593   6.591   6.897   5.740
10565SOL    HW132594   6.616   6.899   5.837
10565SOL    HW232595   6.668   6.863   5.686
10566SOL     OW32596   3.010   2.614   0.411
10566SOL    HW132597   3.035   2.603   0.315
10566SOL    HW232598   2.954   2.537   0.440
10567SOL     OW32599   1.815   2.620   5.343
10567SOL    HW132600   1.781   2.679   5.416
10567SOL    HW232601   1.738   2.577   5.296
10568SOL     OW32602   6.215   2.807   6.393
10568SOL    HW132603   6.169   2.721   6.415
10568SOL    HW232604   6.146   2.879   6.380
10569SOL     OW32605   5.182   0.912   1.906
10569SOL    HW132606   5.089   0.901   1.943
10569SOL    HW232607   5.178   0.968   1.822
10570SOL     OW32608   1.693   4.600   4.215
10570SOL    HW132609   1.671   4.644   4.303
10570SOL    HW232610   1.771   4.539   4.228
10571SOL     OW32611   0.449   4.215   6.313
10571SOL    HW132612   0.493   4.202   6.224
10571SOL    HW232613   0.497   4.162   6.383
10572SOL     OW32614   6.804   4.677   1.730
10572SOL    HW132615   6.904   4.677   1.732
10572SOL    HW232616   6.768   4.656   1.821
10573SOL     OW32617   5.051   0.520   5.019
10573SOL    HW132618   5.004   0.472   5.093
10573SOL    HW232619   5.060   0.460   4.940
10574SOL     OW32620   6.604   0.925   4.155
10574SOL    HW132621   6.516   0.954   4.194
10574SOL    HW232622   6.660   0.884   4.227
10575SOL     OW32623   5.390   0.417   3.687
10575SOL    HW132624   5.467   0.390   3.744
10575SOL    HW232625   5.367   0.513   3.705
10576SOL     OW32626   1.272   5.209   2.683
10576SOL    HW132627   1.355   5.264   2.671
10576SOL    HW232628   1.263   5.183   2.779
10577SOL     OW32629   2.687   5.850   0.283
10577SOL    HW132630   2.669   5.933   0.336
10577SOL    HW232631   2.646   5.858   0.192
10578SOL     OW32632   5.710   1.680   3.596
10578SOL    HW132633   5.759   1.594   3.587
10578SOL    HW232634   5.616   1.669   3.564
10579SOL     OW32635   2.857   3.897   1.286
10579SOL    HW132636   2.880   3.969   1.352
10579SOL    HW232637   2.802   3.935   1.212
10580SOL     OW32638   6.363   6.662   6.366
10580SOL    HW132639   6.302   6.721   6.418
10580SOL    HW232640   6.415   6.605   6.428
10581SOL     OW32641   4.808   6.640   2.779
10581SOL    HW132642   4.736   6.649   2.710
10581SOL    HW232643   4.793   6.709   2.851
10582SOL     OW32644   5.663   4.681   6.735
10582SOL    HW132645   5.581   4.717   6.779
10582SOL    HW232646   5.673   4.721   6.644
10583SOL     OW32647   3.729   0.137   4.069
10583SOL    HW132648   3.812   0.095   4.107
10583SOL    HW232649   3.724   0.232   4.099
10584SOL     OW32650   6.517   0.575   6.465
10584SOL    HW132651   6.573   0.496   6.439
10584SOL    HW232652   6.461   0.551   6.545
10585SOL     OW32653   1.576   1.692   6.052
10585SOL    HW132654   1.512   1.654   5.986
10585SOL    HW232655   1.542   1.676   6.145
10586SOL     OW32656   4.733   5.082   5.626
10586SOL    HW132657   4.779   5.107   5.541
10586SOL    HW232658   4.634   5.085   5.612
10587SOL     OW32659   0.523   5.974   6.083
10587SOL    HW132660   0.556   5.924   6.163
10587SOL    HW232661   0.598   6.029   6.045
10588SOL     OW32662   1.944   2.122   4.508
10588SOL    HW132663   1.939   2.127   4.608
10588SOL    HW232664   1.952   2.214   4.470
10589SOL     OW32665   5.237   6.392   4.245
10589SOL    HW132666   5.192   6.479   4.225
10589SOL    HW232667   5.168   6.321   4.258
10590SOL     OW32668   0.073   5.775   1.763
10590SOL    HW132669   0.033   5.856   1.721
10590SOL    HW232670   0.050   5.694   1.709
10591SOL     OW32671   2.195   1.495   1.596
10591SOL    HW132672   2.108   1.544   1.595
10591SOL    HW232673   2.190   1.418   1.532
10592SOL     OW32674   5.774   2.319   4.369
10592SOL    HW132675   5.863   2.348   4.333
10592SOL    HW232676   5.741   2.241   4.315
10593SOL     OW32677   1.105   6.148   0.794
10593SOL    HW132678   1.006   6.156   0.790
10593SOL    HW232679   1.146   6.209   0.726
10594SOL     OW32680   3.933   1.342   3.523
10594SOL    HW132681   3.879   1.346   3.439
10594SOL    HW232682   3.878   1.303   3.596
10595SOL     OW32683   6.095   0.764   0.445
10595SOL    HW132684   6.188   0.784   0.477
10595SOL    HW232685   6.097   0.745   0.347
10596SOL     OW32686   4.901   1.231   0.062
10596SOL    HW132687   4.972   1.217   0.132
10596SOL    HW232688   4.858   1.320   0.076
10597SOL     OW32689   2.727   0.995   5.957
10597SOL    HW132690   2.731   1.050   5.873
10597SOL    HW232691   2.665   1.038   6.022
10598SOL     OW32692   2.824   1.997   6.700
10598SOL    HW132693   2.837   2.051   6.617
10598SOL    HW232694   2.738   1.946   6.693
10599SOL     OW32695   6.638   4.235   6.059
10599SOL    HW132696   6.696   4.232   6.141
10599SOL    HW232697   6.546   4.264   6.085
10600SOL     OW32698   3.716   0.742   1.442
10600SOL    HW132699   3.750   0.706   1.355
10600SOL    HW232700   3.630   0.791   1.426
10601SOL     OW32701   0.385   5.785   5.201
10601SOL    HW132702   0.314   5.716   5.192
10601SOL    HW232703   0.472   5.742   5.222
10602SOL     OW32704   0.741   0.892   0.630
10602SOL    HW132705   0.725   0.973   0.573
10602SOL    HW232706   0.660   0.833   0.627
10603SOL     OW32707   4.541   6.492   2.101
10603SOL    HW132708   4.554   6.418   2.035
10603SOL    HW232709   4.553   6.580   2.055
10604SOL     OW32710   0.317   6.418   4.908
10604SOL    HW132711   0.307   6.322   4.881
10604SOL    HW232712   0.398   6.428   4.966
10605SOL     OW32713   1.484   6.921   6.978
10605SOL    HW132714   1.557   6.880   0.009
10605SOL    HW232715   1.484   7.020   6.992
10606SOL     OW32716   6.766   0.530   1.731
10606SOL    HW132717   6.793   0.528   1.827
10606SOL    HW232718   6.751   0.625   1.703
10607SOL     OW32719   4.289   4.228   0.495
10607SOL    HW132720   4.287   4.141   0.544
10607SOL    HW232721   4.201   4.274   0.506
10608SOL     OW32722   6.500   3.173   3.360
10608SOL    HW132723   6.420   3.114   3.355
10608SOL    HW232724   6.475   3.260   3.403
10609SOL     OW32725   2.669   6.476   0.279
10609SOL    HW132726   2.729   6.551   0.251
10609SOL    HW232727   2.699   6.440   0.367
10610SOL     OW32728   6.748   2.725   4.538
10610SOL    HW132729   6.843   2.699   4.518
10610SOL    HW232730   6.702   2.748   4.452
10611SOL     OW32731   3.004   5.348   5.440
10611SOL    HW132732   3.024   5.445   5.454
10611SOL    HW232733   3.082   5.304   5.396
10612SOL     OW32734   5.097   1.233   4.236
10612SOL    HW132735   5.191   1.202   4.224
10612SOL    HW232736   5.096   1.329   4.262
10613SOL     OW32737   5.468   6.258   4.153
10613SOL    HW132738   5.441   6.187   4.218
10613SOL    HW232739   5.418   6.342   4.173
10614SOL     OW32740   5.342   1.251   5.016
10614SOL    HW132741   5.414   1.186   4.993
10614SOL    HW232742   5.330   1.254   5.115
10615SOL     OW32743   4.113   1.648   5.534
10615SOL    HW132744   4.030   1.602   5.504
10615SOL    HW232745   4.189   1.583   5.533
10616SOL     OW32746   2.768   6.067   6.268
10616SOL    HW132747   2.758   6.151   6.321
10616SOL    HW232748   2.817   5.999   6.322
10617SOL     OW32749   2.129   4.429   1.729
10617SOL    HW132750   2.222   4.437   1.763
10617SOL    HW232751   2.125   4.360   1.657
10618SOL     OW32752   0.705   5.357   5.481
10618SOL    HW132753   0.682   5.306   5.564
10618SOL    HW232754   0.756   5.297   5.419
10619SOL     OW32755   0.645   2.441   2.847
10619SOL    HW132756   0.565   2.391   2.813
10619SOL    HW232757   0.623   2.538   2.855
10620SOL     OW32758   1.484   0.131   5.564
10620SOL    HW132759   1.492   0.197   5.638
10620SOL    HW232760   1.389   0.130   5.530
10621SOL     OW32761   1.215   4.236   2.609
10621SOL    HW132762   1.279   4.249   2.533
10621SOL    HW232763   1.136   4.183   2.577
10622SOL     OW32764   4.213   2.299   1.521
10622SOL    HW132765   4.214   2.352   1.605
10622SOL    HW232766   4.118   2.276   1.497
10623SOL     OW32767   6.057   6.005   5.238
10623SOL    HW132768   6.082   5.937   5.307
10623SOL    HW232769   6.139   6.047   5.200
10624SOL     OW32770   0.650   3.072   4.762
10624SOL    HW132771   0.696   3.047   4.847
10624SOL    HW232772   0.585   3.000   4.737
10625SOL     OW32773   0.199   3.545   1.056
10625SOL    HW132774   0.211   3.605   0.977
10625SOL    HW232775   0.194   3.450   1.026
10626SOL     OW32776   3.360   3.025   1.650
10626SOL    HW132777   3.273   2.994   1.691
10626SOL    HW232778   3.340   3.092   1.579
10627SOL     OW32779   5.803   0.871   6.606
10627SOL    HW132780   5.825   0.843   6.513
10627SOL    HW232781   5.706   0.897   6.611
10628SOL     OW32782   4.546   0.201   0.576
10628SOL    HW132783   4.612   0.137   0.536
10628SOL    HW232784   4.552   0.198   0.675
10629SOL     OW32785   3.547   4.997   4.921
10629SOL    HW132786   3.629   5.032   4.968
10629SOL    HW232787   3.572   4.918   4.865
10630SOL     OW32788   5.526   1.059   2.490
10630SOL    HW132789   5.547   1.036   2.585
10630SOL    HW232790   5.428   1.049   2.474
10631SOL     OW32791   4.270   4.553   5.907
10631SOL    HW132792   4.263   4.597   5.996
10631SOL    HW232793   4.264   4.453   5.919
10632SOL     OW32794   5.197   5.607   3.193
10632SOL    HW132795   5.259   5.627   3.269
10632SOL    HW232796   5.208   5.512   3.164
10633SOL     OW32797   2.690   2.456   1.788
10633SOL    HW132798   2.743   2.425   1.868
10633SOL    HW232799   2.626   2.384   1.761
10634SOL     OW32800   1.344   5.615   0.800
10634SOL    HW132801   1.361   5.653   0.891
10634SOL    HW232802   1.248   5.627   0.776
10635SOL     OW32803   2.212   3.316   0.266
10635SOL    HW132804   2.182   3.336   0.173
10635SOL    HW232805   2.193   3.220   0.287
10636SOL     OW32806   6.800   1.580   0.921
10636SOL    HW132807   6.761   1.643   0.854
10636SOL    HW232808   6.835   1.499   0.874
10637SOL     OW32809   1.662   5.775   6.294
10637SOL    HW132810   1.632   5.680   6.287
10637SOL    HW232811   1.699   5.791   6.386
10638SOL     OW32812   5.737   6.370   2.288
10638SOL    HW132813   5.818   6.322   2.253
10638SOL    HW232814   5.678   6.304   2.334
10639SOL     OW32815   1.912   3.278   1.747
10639SOL    HW132816   2.004   3.239   1.759
10639SOL    HW232817   1.915   3.346   1.674
10640SOL     OW32818   4.761   0.574   3.418
10640SOL    HW132819   4.678   0.587   3.472
10640SOL    HW232820   4.795   0.481   3.431
10641SOL     OW32821   2.080   1.283   3.731
10641SOL    HW132822   2.075   1.269   3.830
10641SOL    HW232823   2.033   1.208   3.684
10642SOL     OW32824   5.815   2.072   0.603
10642SOL    HW132825   5.856   1.984   0.576
10642SOL    HW232826   5.759   2.059   0.684
10643SOL     OW32827   2.132   6.142   4.524
10643SOL    HW132828   2.038   6.172   4.539
10643SOL    HW232829   2.187   6.219   4.491
10644SOL     OW32830   5.827   3.254   0.942
10644SOL    HW132831   5.906   3.196   0.961
10644SOL    HW232832   5.837   3.341   0.989
10645SOL     OW32833   2.400   2.664   3.401
10645SOL    HW132834   2.399   2.754   3.444
10645SOL    HW232835   2.322   2.611   3.434
10646SOL     OW32836   6.040   0.610   5.724
10646SOL    HW132837   6.062   0.650   5.635
10646SOL    HW232838   5.947   0.635   5.750
10647SOL     OW32839   3.333   5.484   5.241
10647SOL    HW132840   3.299   5.509   5.150
10647SOL    HW232841   3.278   5.408   5.277
10648SOL     OW32842   5.917   5.219   6.454
10648SOL    HW132843   5.843   5.259   6.508
10648SOL    HW232844   5.879   5.166   6.379
10649SOL     OW32845   1.137   3.480   3.529
10649SOL    HW132846   1.157   3.521   3.618
10649SOL    HW232847   1.211   3.419   3.503
10650SOL     OW32848   0.611   0.335   4.248
10650SOL    HW132849   0.625   0.239   4.221
10650SOL    HW232850   0.667   0.394   4.190
10651SOL     OW32851   6.064   6.091   6.548
10651SOL    HW132852   5.987   6.039   6.511
10651SOL    HW232853   6.050   6.188   6.529
10652SOL     OW32854   2.091   6.833   5.710
10652SOL    HW132855   2.162   6.812   5.642
10652SOL    HW232856   2.007   6.859   5.663
10653SOL     OW32857   4.018   6.058   4.915
10653SOL    HW132858   3.999   5.988   4.984
10653SOL    HW232859   3.962   6.138   4.935
10654SOL     OW32860   4.719   0.898   5.452
10654SOL    HW132861   4.790   0.966   5.471
10654SOL    HW232862   4.761   0.814   5.419
10655SOL     OW32863   1.626   4.447   0.509
10655SOL    HW132864   1.700   4.431   0.574
10655SOL    HW232865   1.648   4.401   0.422
10656SOL     OW32866   6.627   1.248   2.858
10656SOL    HW132867   6.647   1.207   2.769
10656SOL    HW232868   6.584   1.179   2.917
10657SOL     OW32869   6.473   0.763   4.594
10657SOL    HW132870   6.416   0.694   4.549
10657SOL    HW232871   6.438   0.854   4.572
10658SOL     OW32872   6.643   4.132   4.945
10658SOL    HW132873   6.609   4.183   5.024
10658SOL    HW232874   6.647   4.193   4.866
10659SOL     OW32875   0.797   4.684   0.578
10659SOL    HW132876   0.714   4.697   0.522
10659SOL    HW232877   0.877   4.714   0.526
10660SOL     OW32878   6.104   4.103   5.461
10660SOL    HW132879   6.039   4.155   5.406
10660SOL    HW232880   6.064   4.015   5.487
10661SOL     OW32881   1.502   5.744   0.571
10661SOL    HW132882   1.434   5.721   0.639
10661SOL    HW232883   1.583   5.782   0.616
10662SOL     OW32884   4.463   0.765   2.355
10662SOL    HW132885   4.535   0.710   2.313
10662SOL    HW232886   4.488   0.784   2.451
10663SOL     OW32887   0.600   1.370   2.913
10663SOL    HW132888   0.576   1.330   3.002
10663SOL    HW232889   0.678   1.432   2.925
10664SOL     OW32890   6.890   4.861   5.102
10664SOL    HW132891   6.888   4.765   5.072
10664SOL    HW232892   6.816   4.877   5.167
10665SOL     OW32893   2.014   2.100   0.015
10665SOL    HW132894   2.073   2.180   0.029
10665SOL    HW232895   1.957   2.114   6.958
10666SOL     OW32896   3.325   4.124   2.402
10666SOL    HW132897   3.275   4.131   2.488
10666SOL    HW232898   3.267   4.080   2.333
10667SOL     OW32899   4.614   1.606   4.174
10667SOL    HW132900   4.706   1.568   4.183
10667SOL    HW232901   4.551   1.554   4.232
10668SOL     OW32902   3.417   1.088   4.981
10668SOL    HW132903   3.361   1.105   5.063
10668SOL    HW232904   3.405   1.163   4.917
10669SOL     OW32905   6.216   0.791   1.107
10669SOL    HW132906   6.241   0.698   1.133
10669SOL    HW232907   6.230   0.804   1.009
10670SOL     OW32908   5.888   4.776   4.749
10670SOL    HW132909   5.980   4.812   4.733
10670SOL    HW232910   5.891   4.702   4.816
10671SOL     OW32911   1.839   1.841   4.170
10671SOL    HW132912   1.812   1.745   4.175
10671SOL    HW232913   1.768   1.898   4.211
10672SOL     OW32914   6.781   4.405   1.738
10672SOL    HW132915   6.875   4.370   1.732
10672SOL    HW232916   6.781   4.503   1.719
10673SOL     OW32917   1.128   0.322   0.313
10673SOL    HW132918   1.210   0.309   0.368
10673SOL    HW232919   1.064   0.246   0.329
10674SOL     OW32920   3.950   3.872   4.461
10674SOL    HW132921   3.968   3.958   4.414
10674SOL    HW232922   4.014   3.802   4.428
10675SOL     OW32923   2.597   0.467   6.533
10675SOL    HW132924   2.643   0.543   6.487
10675SOL    HW232925   2.501   0.490   6.549
10676SOL     OW32926   0.369   6.608   4.694
10676SOL    HW132927   0.287   6.665   4.686
10676SOL    HW232928   0.363   6.552   4.777
10677SOL     OW32929   1.946   0.814   1.172
10677SOL    HW132930   2.006   0.865   1.233
10677SOL    HW232931   1.965   0.839   1.077
10678SOL     OW32932   4.272   4.710   3.928
10678SOL    HW132933   4.293   4.659   3.844
10678SOL    HW232934   4.354   4.756   3.961
10679SOL     OW32935   3.642   5.645   6.231
10679SOL    HW132936   3.635   5.733   6.183
10679SOL    HW232937   3.729   5.642   6.281
10680SOL     OW32938   3.707   2.075   3.330
10680SOL    HW132939   3.742   2.096   3.421
10680SOL    HW232940   3.629   2.013   3.338
10681SOL     OW32941   6.484   3.867   0.376
10681SOL    HW132942   6.564   3.816   0.347
10681SOL    HW232943   6.512   3.942   0.436
10682SOL     OW32944   7.009   2.970   5.221
10682SOL    HW132945   6.978   3.044   5.162
10682SOL    HW232946   6.971   2.982   5.313
10683SOL     OW32947   4.683   0.914   3.979
10683SOL    HW132948   4.684   0.910   4.079
10683SOL    HW232949   4.694   1.009   3.950
10684SOL     OW32950   4.479   5.144   2.659
10684SOL    HW132951   4.397   5.098   2.695
10684SOL    HW232952   4.559   5.115   2.711
10685SOL     OW32953   0.241   5.925   1.199
10685SOL    HW132954   0.289   5.992   1.256
10685SOL    HW232955   0.272   5.833   1.222
10686SOL     OW32956   1.439   4.020   5.932
10686SOL    HW132957   1.498   4.009   5.851
10686SOL    HW232958   1.467   4.102   5.982
10687SOL     OW32959   6.384   4.977   4.231
10687SOL    HW132960   6.401   4.910   4.304
10687SOL    HW232961   6.405   4.935   4.143
10688SOL     OW32962   6.070   3.037   2.857
10688SOL    HW132963   6.114   2.960   2.903
10688SOL    HW232964   6.139   3.102   2.827
10689SOL     OW32965   6.181   0.226   2.444
10689SOL    HW132966   6.200   0.317   2.482
10689SOL    HW232967   6.247   0.160   2.481
10690SOL     OW32968   0.444   5.264   3.524
10690SOL    HW132969   0.481   5.172   3.509
10690SOL    HW232970   0.491   5.328   3.464
10691SOL     OW32971   1.863   1.698   1.734
10691SOL    HW132972   1.929   1.751   1.788
10691SOL    HW232973   1.792   1.758   1.699
10692SOL     OW32974   2.456   0.516   3.519
10692SOL    HW132975   2.460   0.432   3.573
10692SOL    HW232976   2.452   0.594   3.581
10693SOL     OW32977   1.383   6.128   1.359
10693SOL    HW132978   1.436   6.050   1.392
10693SOL    HW232979   1.335   6.171   1.435
10694SOL     OW32980   5.457   6.006   6.650
10694SOL    HW132981   5.480   6.073   6.721
10694SOL    HW232982   5.480   5.914   6.682
10695SOL     OW32983   1.428   2.233   2.406
10695SOL    HW132984   1.498   2.219   2.336
10695SOL    HW232985   1.471   2.269   2.489
10696SOL     OW32986   6.258   4.224   4.089
10696SOL    HW132987   6.205   4.143   4.066
10696SOL    HW232988   6.197   4.295   4.125
10697SOL     OW32989   0.247   0.383   5.473
10697SOL    HW132990   0.236   0.370   5.571
10697SOL    HW232991   0.238   0.295   5.426
10698SOL     OW32992   5.038   5.117   6.921
10698SOL    HW132993   5.128   5.160   6.933
10698SOL    HW232994   5.050   5.022   6.894
10699SOL     OW32995   3.712   4.860   1.649
10699SOL    HW132996   3.796   4.804   1.653
10699SOL    HW232997   3.675   4.858   1.557
10700SOL     OW32998   5.633   6.097   0.529
10700SOL    HW132999   5.565   6.044   0.480
10700SOL    HW233000   5.598   6.122   0.619
10701SOL     OW33001   2.428   6.610   5.611
10701SOL    HW133002   2.442   6.636   5.707
10701SOL    HW233003   2.494   6.540   5.585
10702SOL     OW33004   5.812   3.245   2.198
10702SOL    HW133005   5.902   3.286   2.209
10702SOL    HW233006   5.810   3.155   2.243
10703SOL     OW33007   2.533   2.957   5.548
10703SOL    HW133008   2.445   2.974   5.503
10703SOL    HW233009   2.603   3.016   5.509
10704SOL     OW33010   6.395   4.727   1.885
10704SOL    HW133011   6.438   4.680   1.808
10704SOL    HW233012   6.381   4.823   1.863
10705SOL     OW33013   6.774   5.092   1.434
10705SOL    HW133014   6.716   5.173   1.428
10705SOL    HW233015   6.727   5.015   1.392
10706SOL     OW33016   4.770   0.460   3.145
10706SOL    HW133017   4.784   0.557   3.123
10706SOL    HW233018   4.686   0.450   3.199
10707SOL     OW33019   0.546   6.469   4.287
10707SOL    HW133020   0.622   6.534   4.283
10707SOL    HW233021   0.510   6.454   4.195
10708SOL     OW33022   3.693   1.166   1.218
10708SOL    HW133023   3.630   1.242   1.232
10708SOL    HW233024   3.705   1.116   1.303
10709SOL     OW33025   5.703   5.931   5.621
10709SOL    HW133026   5.801   5.951   5.622
10709SOL    HW233027   5.686   5.850   5.563
10710SOL     OW33028   5.998   0.885   4.304
10710SOL    HW133029   5.980   0.853   4.211
10710SOL    HW233030   6.007   0.807   4.366
10711SOL     OW33031   2.014   6.348   4.160
10711SOL    HW133032   1.960   6.389   4.086
10711SOL    HW233033   2.090   6.296   4.121
10712SOL     OW33034   2.950   0.791   1.826
10712SOL    HW133035   2.883   0.770   1.755
10712SOL    HW233036   2.905   0.837   1.902
10713SOL     OW33037   0.554   3.440   1.136
10713SOL    HW133038   0.505   3.358   1.107
10713SOL    HW233039   0.506   3.481   1.214
10714SOL     OW33040   5.330   3.896   5.520
10714SOL    HW133041   5.311   3.815   5.464
10714SOL    HW233042   5.262   3.967   5.499
10715SOL     OW33043   4.711   0.476   2.186
10715SOL    HW133044   4.717   0.526   2.273
10715SOL    HW233045   4.629   0.504   2.137
10716SOL     OW33046   5.763   2.050   3.944
10716SOL    HW133047   5.707   1.993   3.884
10716SOL    HW233048   5.809   2.120   3.889
10717SOL     OW33049   1.033   2.246   1.440
10717SOL    HW133050   0.994   2.287   1.357
10717SOL    HW233051   1.123   2.208   1.419
10718SOL     OW33052   1.079   3.640   6.982
10718SOL    HW133053   1.077   3.614   6.886
10718SOL    HW233054   1.126   3.570   0.011
10719SOL     OW33055   0.066   5.850   2.777
10719SOL    HW133056   0.044   5.771   2.719
10719SOL    HW233057   0.013   5.929   2.747
10720SOL     OW33058   0.466   4.612   5.502
10720SOL    HW133059   0.448   4.542   5.570
10720SOL    HW233060   0.387   4.674   5.496
10721SOL     OW33061   5.311   3.760   5.053
10721SOL    HW133062   5.350   3.852   5.046
10721SOL    HW233063   5.362   3.706   5.120
10722SOL     OW33064   1.501   5.330   6.470
10722SOL    HW133065   1.554   5.333   6.555
10722SOL    HW233066   1.404   5.347   6.491
10723SOL     OW33067   0.754   3.143   6.658
10723SOL    HW133068   0.692   3.073   6.693
10723SOL    HW233069   0.834   3.100   6.616
10724SOL     OW33070   6.237   1.402   0.272
10724SOL    HW133071   6.272   1.456   0.196
10724SOL    HW233072   6.147   1.437   0.299
10725SOL     OW33073   1.468   5.471   4.628
10725SOL    HW133074   1.402   5.544   4.612
10725SOL    HW233075   1.500   5.475   4.723
10726SOL     OW33076   5.323   0.314   4.593
10726SOL    HW133077   5.327   0.311   4.493
10726SOL    HW233078   5.415   0.307   4.630
10727SOL     OW33079   0.183   5.051   5.592
10727SOL    HW133080   0.264   5.054   5.533
10727SOL    HW233081   0.209   5.074   5.685
10728SOL     OW33082   0.606   6.002   6.485
10728SOL    HW133083   0.530   5.999   6.550
10728SOL    HW233084   0.687   5.961   6.526
10729SOL     OW33085   5.028   1.744   2.693
10729SOL    HW133086   4.943   1.784   2.728
10729SOL    HW233087   5.026   1.745   2.593
10730SOL     OW33088   1.832   0.592   0.876
10730SOL    HW133089   1.756   0.600   0.941
10730SOL    HW233090   1.913   0.635   0.913
10731SOL     OW33091   3.207   6.936   0.765
10731SOL    HW133092   3.180   6.920   0.860
10731SOL    HW233093   3.130   6.977   0.715
10732SOL     OW33094   6.316   4.765   4.799
10732SOL    HW133095   6.411   4.741   4.820
10732SOL    HW233096   6.266   4.682   4.772
10733SOL     OW33097   6.250   2.205   0.966
10733SOL    HW133098   6.155   2.219   0.995
10733SOL    HW233099   6.253   2.198   0.866
10734SOL     OW33100   0.813   0.703   0.048
10734SOL    HW133101   0.793   0.647   0.128
10734SOL    HW233102   0.777   0.658   6.989
10735SOL     OW33103   0.735   2.792   3.018
10735SOL    HW133104   0.688   2.854   3.081
10735SOL    HW233105   0.668   2.752   2.955
10736SOL     OW33106   1.026   0.421   3.212
10736SOL    HW133107   1.073   0.348   3.262
10736SOL    HW233108   1.091   0.493   3.190
10737SOL     OW33109   1.608   1.822   0.919
10737SOL    HW133110   1.648   1.853   0.832
10737SOL    HW233111   1.677   1.827   0.991
10738SOL     OW33112   2.783   0.598   3.096
10738SOL    HW133113   2.759   0.627   3.003
10738SOL    HW233114   2.761   0.671   3.160
10739SOL     OW33115   1.376   1.811   0.738
10739SOL    HW133116   1.291   1.827   0.788
10739SOL    HW233117   1.447   1.780   0.802
10740SOL     OW33118   0.125   4.999   5.086
10740SOL    HW133119   0.041   4.946   5.094
10740SOL    HW233120   0.125   5.050   5.000
10741SOL     OW33121   5.290   0.632   1.335
10741SOL    HW133122   5.262   0.687   1.414
10741SOL    HW233123   5.305   0.538   1.364
10742SOL     OW33124   5.774   0.280   0.841
10742SOL    HW133125   5.685   0.319   0.866
10742SOL    HW233126   5.821   0.249   0.923
10743SOL     OW33127   2.771   1.399   5.713
10743SOL    HW133128   2.686   1.364   5.673
10743SOL    HW233129   2.770   1.499   5.711
10744SOL     OW33130   3.802   1.540   1.068
10744SOL    HW133131   3.869   1.573   1.135
10744SOL    HW233132   3.710   1.562   1.100
10745SOL     OW33133   0.192   6.142   6.530
10745SOL    HW133134   0.189   6.149   6.431
10745SOL    HW233135   0.266   6.080   6.557
10746SOL     OW33136   2.387   5.043   1.001
10746SOL    HW133137   2.360   4.948   0.985
10746SOL    HW233138   2.422   5.083   0.917
10747SOL     OW33139   3.868   1.155   4.368
10747SOL    HW133140   3.791   1.205   4.329
10747SOL    HW233141   3.953   1.182   4.323
10748SOL     OW33142   5.347   0.914   1.154
10748SOL    HW133143   5.424   0.903   1.091
10748SOL    HW233144   5.265   0.875   1.113
10749SOL     OW33145   0.638   5.178   3.091
10749SOL    HW133146   0.656   5.107   3.023
10749SOL    HW233147   0.639   5.268   3.046
10750SOL     OW33148   4.291   6.181   4.198
10750SOL    HW133149   4.358   6.251   4.223
10750SOL    HW233150   4.327   6.091   4.220
10751SOL     OW33151   1.576   4.593   4.883
10751SOL    HW133152   1.619   4.505   4.862
10751SOL    HW233153   1.556   4.598   4.981
10752SOL     OW33154   6.366   3.911   5.897
10752SOL    HW133155   6.270   3.882   5.902
10752SOL    HW233156   6.389   3.965   5.978
10753SOL     OW33157   4.964   5.511   4.553
10753SOL    HW133158   4.992   5.508   4.649
10753SOL    HW233159   5.045   5.508   4.495
10754SOL     OW33160   0.912   0.693   2.865
10754SOL    HW133161   1.006   0.724   2.876
10754SOL    HW233162   0.899   0.607   2.914
10755SOL     OW33163   6.737   0.797   7.005
10755SOL    HW133164   6.746   0.700   6.986
10755SOL    HW233165   6.698   0.810   0.072
10756SOL     OW33166   6.820   5.058   0.023
10756SOL    HW133167   6.772   5.106   6.974
10756SOL    HW233168   6.753   5.015   0.084
10757SOL     OW33169   2.683   2.881   0.426
10757SOL    HW133170   2.585   2.892   0.411
10757SOL    HW233171   2.701   2.866   0.523
10758SOL     OW33172   0.586   6.784   4.356
10758SOL    HW133173   0.669   6.752   4.310
10758SOL    HW233174   0.552   6.866   4.309
10759SOL     OW33175   2.028   2.945   1.103
10759SOL    HW133176   2.125   2.959   1.124
10759SOL    HW233177   2.003   2.850   1.124
10760SOL     OW33178   5.360   1.632   2.979
10760SOL    HW133179   5.381   1.717   2.932
10760SOL    HW233180   5.296   1.578   2.924
10761SOL     OW33181   1.110   6.772   6.118
10761SOL    HW133182   1.069   6.681   6.107
10761SOL    HW233183   1.038   6.840   6.130
10762SOL     OW33184   3.580   2.145   4.273
10762SOL    HW133185   3.680   2.153   4.280
10762SOL    HW233186   3.541   2.139   4.365
10763SOL     OW33187   5.366   6.661   2.438
10763SOL    HW133188   5.324   6.746   2.470
10763SOL    HW233189   5.388   6.603   2.516
10764SOL     OW33190   4.917   2.408   5.997
10764SOL    HW133191   4.931   2.446   6.088
10764SOL    HW233192   5.005   2.401   5.950
10765SOL     OW33193   5.074   2.630   0.301
10765SOL    HW133194   5.109   2.716   0.264
10765SOL    HW233195   4.989   2.646   0.350
10766SOL     OW33196   5.127   4.183   0.485
10766SOL    HW133197   5.137   4.101   0.541
10766SOL    HW233198   5.113   4.262   0.544
10767SOL     OW33199   1.219   0.944   7.018
10767SOL    HW133200   1.245   0.920   6.925
10767SOL    HW233201   1.262   1.031   0.019
10768SOL     OW33202   4.291   4.882   2.126
10768SOL    HW133203   4.291   4.783   2.108
10768SOL    HW233204   4.321   4.898   2.220
10769SOL     OW33205   2.489   4.219   5.342
10769SOL    HW133206   2.477   4.155   5.266
10769SOL    HW233207   2.519   4.308   5.305
10770SOL     OW33208   5.566   0.117   4.636
10770SOL    HW133209   5.577   0.114   4.537
10770SOL    HW233210   5.523   0.033   4.668
10771SOL     OW33211   6.053   6.899   3.537
10771SOL    HW133212   6.037   6.928   3.442
10771SOL    HW233213   6.095   6.974   3.587
10772SOL     OW33214   5.820   6.726   4.631
10772SOL    HW133215   5.841   6.823   4.617
10772SOL    HW233216   5.810   6.707   4.729
10773SOL     OW33217   6.422   6.206   6.829
10773SOL    HW133218   6.521   6.219   6.819
10773SOL    HW233219   6.388   6.150   6.754
10774SOL     OW33220   2.755   1.570   6.815
10774SOL    HW133221   2.689   1.621   6.870
10774SOL    HW233222   2.709   1.492   6.772
10775SOL     OW33223   0.522   4.742   1.694
10775SOL    HW133224   0.579   4.813   1.736
10775SOL    HW233225   0.554   4.652   1.724
10776SOL     OW33226   0.138   1.029   6.812
10776SOL    HW133227   0.090   0.967   6.874
10776SOL    HW233228   0.071   1.084   6.762
10777SOL     OW33229   3.940   5.394   3.030
10777SOL    HW133230   3.976   5.301   3.035
10777SOL    HW233231   4.017   5.458   3.021
10778SOL     OW33232   5.481   6.851   4.077
10778SOL    HW133233   5.524   6.911   4.009
10778SOL    HW233234   5.525   6.866   4.166
10779SOL     OW33235   6.030   3.415   3.695
10779SOL    HW133236   6.075   3.414   3.605
10779SOL    HW233237   5.958   3.484   3.695
10780SOL     OW33238   2.182   0.872   3.401
10780SOL    HW133239   2.125   0.952   3.421
10780SOL    HW233240   2.267   0.879   3.453
10781SOL     OW33241   4.473   0.991   4.299
10781SOL    HW133242   4.572   1.006   4.291
10781SOL    HW233243   4.456   0.929   4.376
10782SOL     OW33244   6.331   1.898   1.634
10782SOL    HW133245   6.415   1.932   1.591
10782SOL    HW233246   6.292   1.971   1.691
10783SOL     OW33247   0.335   2.558   2.705
10783SOL    HW133248   0.270   2.634   2.702
10783SOL    HW233249   0.343   2.517   2.614
10784SOL     OW33250   3.720   6.886   3.777
10784SOL    HW133251   3.732   6.976   3.734
10784SOL    HW233252   3.674   6.897   3.865
10785SOL     OW33253   6.992   4.774   0.432
10785SOL    HW133254   0.065   4.798   0.437
10785SOL    HW233255   6.938   4.845   0.478
10786SOL     OW33256   5.706   4.648   3.550
10786SOL    HW133257   5.639   4.664   3.623
10786SOL    HW233258   5.786   4.602   3.587
10787SOL     OW33259   2.410   1.764   5.411
10787SOL    HW133260   2.351   1.682   5.415
10787SOL    HW233261   2.433   1.792   5.504
10788SOL     OW33262   1.776   4.617   6.423
10788SOL    HW133263   1.767   4.523   6.391
10788SOL    HW233264   1.863   4.654   6.391
10789SOL     OW33265   6.874   2.369   6.605
10789SOL    HW133266   6.833   2.368   6.514
10789SOL    HW233267   6.848   2.453   6.652
10790SOL     OW33268   1.102   0.089   1.510
10790SOL    HW133269   1.053   0.169   1.544
10790SOL    HW233270   1.116   0.023   1.584
10791SOL     OW33271   6.684   6.757   1.542
10791SOL    HW133272   6.630   6.704   1.607
10791SOL    HW233273   6.622   6.808   1.482
10792SOL     OW33274   3.153   3.443   4.595
10792SOL    HW133275   3.106   3.531   4.610
10792SOL    HW233276   3.212   3.450   4.515
10793SOL     OW33277   5.832   3.162   4.925
10793SOL    HW133278   5.906   3.182   4.989
10793SOL    HW233279   5.751   3.215   4.952
10794SOL     OW33280   3.553   3.348   3.880
10794SOL    HW133281   3.513   3.265   3.841
10794SOL    HW233282   3.504   3.373   3.963
10795SOL     OW33283   6.975   5.003   2.066
10795SOL    HW133284   0.000   5.089   2.071
10795SOL    HW233285   0.014   4.927   2.085
10796SOL     OW33286   5.966   0.310   5.985
10796SOL    HW133287   6.062   0.282   5.974
10796SOL    HW233288   5.963   0.399   6.031
10797SOL     OW33289   2.966   2.138   1.419
10797SOL    HW133290   3.057   2.100   1.436
10797SOL    HW233291   2.945   2.206   1.489
10798SOL     OW33292   2.515   0.378   0.059
10798SOL    HW133293   2.577   0.456   0.065
10798SOL    HW233294   2.494   0.346   0.152
10799SOL     OW33295   4.131   1.058   1.853
10799SOL    HW133296   4.069   1.025   1.925
10799SOL    HW233297   4.178   1.140   1.885
10800SOL     OW33298   6.719   6.418   6.223
10800SOL    HW133299   6.698   6.320   6.216
10800SOL    HW233300   6.762   6.448   6.137
10801SOL     OW33301   1.349   6.434   6.151
10801SOL    HW133302   1.392   6.371   6.086
10801SOL    HW233303   1.411   6.510   6.169
10802SOL     OW33304   1.079   0.365   2.813
10802SOL    HW133305   1.086   0.269   2.840
10802SOL    HW233306   0.983   0.393   2.815
10803SOL     OW33307   2.403   5.043   6.292
10803SOL    HW133308   2.327   5.067   6.353
10803SOL    HW233309   2.486   5.091   6.323
10804SOL     OW33310   5.897   3.133   2.601
10804SOL    HW133311   5.816   3.168   2.649
10804SOL    HW233312   5.967   3.109   2.667
10805SOL     OW33313   4.635   6.461   6.220
10805SOL    HW133314   4.589   6.516   6.151
10805SOL    HW233315   4.722   6.428   6.183
10806SOL     OW33316   4.043   4.140   5.848
10806SOL    HW133317   4.143   4.140   5.857
10806SOL    HW233318   4.018   4.172   5.757
10807SOL     OW33319   1.760   6.872   2.424
10807SOL    HW133320   1.744   6.887   2.326
10807SOL    HW233321   1.704   6.796   2.455
10808SOL     OW33322   6.876   2.890   6.151
10808SOL    HW133323   6.957   2.948   6.149
10808SOL    HW233324   6.799   2.942   6.187
10809SOL     OW33325   2.731   4.614   3.421
10809SOL    HW133326   2.695   4.676   3.492
10809SOL    HW233327   2.713   4.520   3.448
10810SOL     OW33328   1.215   0.564   3.472
10810SOL    HW133329   1.299   0.618   3.466
10810SOL    HW233330   1.137   0.619   3.442
10811SOL     OW33331   3.958   4.914   5.903
10811SOL    HW133332   4.034   4.912   5.968
10811SOL    HW233333   3.879   4.866   5.942
10812SOL     OW33334   0.274   3.851   0.875
10812SOL    HW133335   0.276   3.763   0.828
10812SOL    HW233336   0.180   3.873   0.901
10813SOL     OW33337   1.505   3.964   6.384
10813SOL    HW133338   1.569   3.962   6.308
10813SOL    HW233339   1.522   3.886   6.445
10814SOL     OW33340   1.620   6.805   6.169
10814SOL    HW133341   1.525   6.782   6.148
10814SOL    HW233342   1.622   6.885   6.229
10815SOL     OW33343   5.212   3.669   3.255
10815SOL    HW133344   5.129   3.613   3.257
10815SOL    HW233345   5.289   3.617   3.293
10816SOL     OW33346   3.376   3.822   2.691
10816SOL    HW133347   3.297   3.821   2.629
10816SOL    HW233348   3.346   3.849   2.782
10817SOL     OW33349   4.232   0.639   3.453
10817SOL    HW133350   4.181   0.715   3.494
10817SOL    HW233351   4.181   0.554   3.467
10818SOL     OW33352   4.888   4.436   5.484
10818SOL    HW133353   4.854   4.344   5.505
10818SOL    HW233354   4.947   4.432   5.404
10819SOL     OW33355   6.314   5.033   6.252
10819SOL    HW133356   6.381   5.058   6.322
10819SOL    HW233357   6.314   5.102   6.180
10820SOL     OW33358   6.900   4.876   4.217
10820SOL    HW133359   6.849   4.803   4.172
10820SOL    HW233360   6.902   4.860   4.315
10821SOL     OW33361   4.686   6.627   3.777
10821SOL    HW133362   4.671   6.528   3.770
10821SOL    HW233363   4.631   6.664   3.851
10822SOL     OW33364   5.941   2.056   2.773
10822SOL    HW133365   5.963   2.107   2.856
10822SOL    HW233366   5.933   1.958   2.796
10823SOL     OW33367   1.040   0.992   1.902
10823SOL    HW133368   1.025   1.068   1.840
10823SOL    HW233369   1.136   0.990   1.930
10824SOL     OW33370   0.073   1.488   2.816
10824SOL    HW133371   0.015   1.417   2.856
10824SOL    HW233372   0.133   1.526   2.887
10825SOL     OW33373   2.119   1.919   6.433
10825SOL    HW133374   2.138   1.961   6.522
10825SOL    HW233375   2.201   1.874   6.399
10826SOL     OW33376   0.689   2.057   3.178
10826SOL    HW133377   0.741   2.091   3.257
10826SOL    HW233378   0.723   2.100   3.095
10827SOL     OW33379   0.360   3.338   4.703
10827SOL    HW133380   0.374   3.333   4.605
10827SOL    HW233381   0.370   3.246   4.743
10828SOL     OW33382   1.417   4.323   0.623
10828SOL    HW133383   1.477   4.400   0.648
10828SOL    HW233384   1.473   4.241   0.611
10829SOL     OW33385   4.628   2.844   0.609
10829SOL    HW133386   4.669   2.895   0.685
10829SOL    HW233387   4.563   2.902   0.560
10830SOL     OW33388   4.281   1.774   3.310
10830SOL    HW133389   4.280   1.676   3.331
10830SOL    HW233390   4.267   1.786   3.212
10831SOL     OW33391   3.345   6.335   3.074
10831SOL    HW133392   3.346   6.433   3.054
10831SOL    HW233393   3.253   6.299   3.059
10832SOL     OW33394   0.159   3.856   5.941
10832SOL    HW133395   0.065   3.841   5.910
10832SOL    HW233396   0.223   3.828   5.869
10833SOL     OW33397   0.454   0.855   1.920
10833SOL    HW133398   0.450   0.891   2.013
10833SOL    HW233399   0.407   0.767   1.917
10834SOL     OW33400   6.434   1.461   0.720
10834SOL    HW133401   6.342   1.429   0.741
10834SOL    HW233402   6.444   1.556   0.749
10835SOL     OW33403   6.091   2.429   0.160
10835SOL    HW133404   6.038   2.344   0.165
10835SOL    HW233405   6.185   2.410   0.188
10836SOL     OW33406   6.712   2.005   4.563
10836SOL    HW133407   6.772   2.070   4.610
10836SOL    HW233408   6.668   1.946   4.631
10837SOL     OW33409   6.596   4.715   1.144
10837SOL    HW133410   6.543   4.787   1.100
10837SOL    HW233411   6.540   4.633   1.153
10838SOL     OW33412   6.940   6.062   3.722
10838SOL    HW133413   7.018   6.123   3.742
10838SOL    HW233414   6.892   6.095   3.641
10839SOL     OW33415   4.675   3.221   1.170
10839SOL    HW133416   4.740   3.153   1.202
10839SOL    HW233417   4.582   3.186   1.181
10840SOL     OW33418   3.001   6.305   2.256
10840SOL    HW133419   2.918   6.341   2.213
10840SOL    HW233420   2.998   6.205   2.256
10841SOL     OW33421   6.623   4.772   5.561
10841SOL    HW133422   6.626   4.679   5.596
10841SOL    HW233423   6.681   4.780   5.480
10842SOL     OW33424   4.532   2.293   1.232
10842SOL    HW133425   4.454   2.232   1.242
10842SOL    HW233426   4.610   2.258   1.283
10843SOL     OW33427   1.550   1.369   1.060
10843SOL    HW133428   1.481   1.434   1.027
10843SOL    HW233429   1.638   1.391   1.018
10844SOL     OW33430   0.873   5.412   3.547
10844SOL    HW133431   0.778   5.427   3.522
10844SOL    HW233432   0.909   5.494   3.591
10845SOL     OW33433   3.636   6.480   5.401
10845SOL    HW133434   3.539   6.505   5.401
10845SOL    HW233435   3.661   6.444   5.491
10846SOL     OW33436   5.356   0.749   6.750
10846SOL    HW133437   5.365   0.672   6.815
10846SOL    HW233438   5.381   0.834   6.796
10847SOL     OW33439   3.643   2.656   0.319
10847SOL    HW133440   3.692   2.743   0.327
10847SOL    HW233441   3.578   2.647   0.395
10848SOL     OW33442   2.362   3.940   0.698
10848SOL    HW133443   2.434   3.872   0.716
10848SOL    HW233444   2.404   4.028   0.677
10849SOL     OW33445   2.404   4.389   4.262
10849SOL    HW133446   2.393   4.292   4.281
10849SOL    HW233447   2.468   4.401   4.186
10850SOL     OW33448   2.907   6.015   5.976
10850SOL    HW133449   2.816   6.049   6.001
10850SOL    HW233450   2.910   5.916   5.988
10851SOL     OW33451   2.825   3.617   0.673
10851SOL    HW133452   2.870   3.536   0.711
10851SOL    HW233453   2.737   3.631   0.719
10852SOL     OW33454   1.455   0.568   6.920
10852SOL    HW133455   1.372   0.534   6.965
10852SOL    HW233456   1.493   0.495   6.862
10853SOL     OW33457   1.678   3.086   5.537
10853SOL    HW133458   1.687   3.185   5.530
10853SOL    HW233459   1.766   3.043   5.517
10854SOL     OW33460   4.462   5.005   5.588
10854SOL    HW133461   4.407   5.060   5.650
10854SOL    HW233462   4.462   4.910   5.618
10855SOL     OW33463   4.301   0.894   0.786
10855SOL    HW133464   4.207   0.862   0.770
10855SOL    HW233465   4.319   0.894   0.885
10856SOL     OW33466   5.133   0.858   0.975
10856SOL    HW133467   5.069   0.925   0.938
10856SOL    HW233468   5.177   0.808   0.900
10857SOL     OW33469   0.919   2.323   2.732
10857SOL    HW133470   0.846   2.315   2.801
10857SOL    HW233471   1.005   2.292   2.772
10858SOL     OW33472   0.847   1.428   0.241
10858SOL    HW133473   0.922   1.384   0.291
10858SOL    HW233474   0.862   1.417   0.143
10859SOL     OW33475   1.145   4.612   4.578
10859SOL    HW133476   1.121   4.684   4.513
10859SOL    HW233477   1.126   4.644   4.671
10860SOL     OW33478   0.171   3.268   5.024
10860SOL    HW133479   0.248   3.230   4.973
10860SOL    HW233480   0.095   3.285   4.961
10861SOL     OW33481   3.317   4.101   3.148
10861SOL    HW133482   3.335   4.027   3.212
10861SOL    HW233483   3.260   4.170   3.192
10862SOL     OW33484   2.232   1.055   6.133
10862SOL    HW133485   2.157   1.121   6.127
10862SOL    HW233486   2.196   0.966   6.164
10863SOL     OW33487   2.436   0.759   3.943
10863SOL    HW133488   2.447   0.857   3.959
10863SOL    HW233489   2.412   0.744   3.847
10864SOL     OW33490   2.252   6.379   0.265
10864SOL    HW133491   2.336   6.403   0.217
10864SOL    HW233492   2.256   6.413   0.359
10865SOL     OW33493   6.957   1.378   1.225
10865SOL    HW133494   7.022   1.349   1.295
10865SOL    HW233495   6.869   1.333   1.240
10866SOL     OW33496   5.432   4.129   0.212
10866SOL    HW133497   5.440   4.096   0.118
10866SOL    HW233498   5.337   4.155   0.230
10867SOL     OW33499   3.571   3.947   0.289
10867SOL    HW133500   3.593   3.981   0.381
10867SOL    HW233501   3.475   3.966   0.269
10868SOL     OW33502   5.075   1.034   3.996
10868SOL    HW133503   5.076   1.124   4.039
10868SOL    HW233504   5.049   1.044   3.900
10869NA      NA33505   6.258   2.937   5.301
10870NA      NA33506   4.459   4.587   5.188
10871NA      NA33507   1.585   2.834   2.164
10872NA      NA33508   5.076   3.797   5.068
10873NA      NA33509   4.340   2.402   5.288
10874NA      NA33510   3.572   4.908   1.829
10875NA      NA33511   0.009   4.952   0.028
10876NA      NA33512   3.615   3.573   4.461
10877NA      NA33513   4.948   6.203   0.203
10878NA      NA33514   3.554   6.731   5.140
10879NA      NA33515   5.953   5.073   2.055
10880NA      NA33516   2.112   0.365   3.955
10881NA      NA33517   4.039   5.502   2.717
10882NA      NA33518   3.692   3.869   2.326
   7.02380   7.02380   7.02380
