Generated by trjconv : CNT in water t= 287.00000
33518
    1C        C    1   2.849   2.776   4.748
    1C        C    2   2.907   2.725   4.866
    1C        C    3   2.844   2.775   4.981
    1C        C    4   2.849   2.779   4.259
    1C        C    5   2.904   2.734   4.381
    1C        C    6   2.851   2.777   4.505
    1C        C    7   3.008   2.638   4.623
    1C        C    8   2.893   2.720   4.627
    1C        C    9   3.076   2.599   4.741
    1C        C   10   3.012   2.630   4.863
    1C        C   11   3.182   2.490   4.977
    1C        C   12   3.062   2.561   4.974
    1C        C   13   2.844   2.771   3.770
    1C        C   14   2.900   2.726   3.892
    1C        C   15   2.850   2.775   4.014
    1C        C   16   3.019   2.651   4.137
    1C        C   17   2.904   2.733   4.138
    1C        C   18   3.080   2.617   4.260
    1C        C   19   3.018   2.650   4.383
    1C        C   20   3.207   2.557   4.502
    1C        C   21   3.073   2.601   4.503
    1C        C   22   3.278   2.530   4.621
    1C        C   23   3.207   2.544   4.743
    1C        C   24   3.411   2.482   4.866
    1C        C   25   3.269   2.500   4.863
    1C        C   26   3.488   2.483   4.983
    1C        C   27   2.855   2.774   3.281
    1C        C   28   2.908   2.729   3.404
    1C        C   29   2.856   2.774   3.527
    1C        C   30   3.018   2.642   3.650
    1C        C   31   2.902   2.724   3.651
    1C        C   32   3.080   2.608   3.772
    1C        C   33   3.017   2.645   3.893
    1C        C   34   3.209   2.557   4.015
    1C        C   35   3.078   2.610   4.015
    1C        C   36   3.276   2.539   4.138
    1C        C   37   3.210   2.562   4.261
    1C        C   38   3.416   2.505   4.380
    1C        C   39   3.278   2.537   4.382
    1C        C   40   3.487   2.496   4.501
    1C        C   41   3.416   2.496   4.623
    1C        C   42   3.628   2.482   4.744
    1C        C   43   3.486   2.482   4.745
    1C        C   44   3.704   2.489   4.863
    1C        C   45   3.627   2.483   4.980
    1C        C   46   2.835   2.754   2.794
    1C        C   47   2.897   2.715   2.915
    1C        C   48   2.846   2.766   3.037
    1C        C   49   3.014   2.634   3.161
    1C        C   50   2.902   2.720   3.159
    1C        C   51   3.080   2.603   3.282
    1C        C   52   3.021   2.643   3.404
    1C        C   53   3.205   2.544   3.523
    1C        C   54   3.077   2.604   3.527
    1C        C   55   3.274   2.528   3.646
    1C        C   56   3.210   2.553   3.769
    1C        C   57   3.414   2.505   3.892
    1C        C   58   3.275   2.531   3.893
    1C        C   59   3.485   2.497   4.014
    1C        C   60   3.413   2.505   4.135
    1C        C   61   3.626   2.498   4.257
    1C        C   62   3.484   2.495   4.257
    1C        C   63   3.698   2.501   4.379
    1C        C   64   3.628   2.501   4.502
    1C        C   65   3.836   2.540   4.620
    1C        C   66   3.700   2.502   4.624
    1C        C   67   3.903   2.562   4.742
    1C        C   68   3.840   2.527   4.863
    1C        C   69   4.051   2.581   4.981
    1C        C   70   3.924   2.522   4.975
    1C        C   71   2.820   2.732   2.308
    1C        C   72   2.879   2.690   2.429
    1C        C   73   2.832   2.749   2.549
    1C        C   74   3.004   2.626   2.674
    1C        C   75   2.887   2.706   2.672
    1C        C   76   3.072   2.592   2.793
    1C        C   77   3.012   2.632   2.915
    1C        C   78   3.206   2.549   3.035
    1C        C   79   3.075   2.602   3.038
    1C        C   80   3.273   2.527   3.157
    1C        C   81   3.210   2.547   3.281
    1C        C   82   3.414   2.491   3.402
    1C        C   83   3.276   2.520   3.403
    1C        C   84   3.483   2.485   3.525
    1C        C   85   3.412   2.498   3.646
    1C        C   86   3.623   2.488   3.768
    1C        C   87   3.482   2.490   3.769
    1C        C   88   3.694   2.506   3.888
    1C        C   89   3.626   2.503   4.012
    1C        C   90   3.833   2.544   4.135
    1C        C   91   3.696   2.510   4.135
    1C        C   92   3.901   2.562   4.257
    1C        C   93   3.836   2.529   4.378
    1C        C   94   4.027   2.631   4.497
    1C        C   95   3.904   2.562   4.498
    1C        C   96   4.088   2.668   4.619
    1C        C   97   4.030   2.627   4.741
    1C        C   98   4.184   2.763   4.861
    1C        C   99   4.097   2.650   4.864
    1C        C  100   4.207   2.842   4.975
    1C        C  101   2.817   2.730   2.070
    1C        C  102   2.990   2.595   2.191
    1C        C  103   2.875   2.679   2.187
    1C        C  104   3.062   2.572   2.312
    1C        C  105   2.998   2.614   2.431
    1C        C  106   3.196   2.538   2.552
    1C        C  107   3.063   2.584   2.553
    1C        C  108   3.272   2.519   2.670
    1C        C  109   3.203   2.540   2.792
    1C        C  110   3.411   2.491   2.912
    1C        C  111   3.273   2.520   2.914
    1C        C  112   3.482   2.491   3.034
    1C        C  113   3.412   2.501   3.156
    1C        C  114   3.623   2.493   3.277
    1C        C  115   3.482   2.484   3.278
    1C        C  116   3.691   2.507   3.400
    1C        C  117   3.624   2.493   3.524
    1C        C  118   3.831   2.539   3.645
    1C        C  119   3.695   2.501   3.647
    1C        C  120   3.893   2.570   3.768
    1C        C  121   3.830   2.545   3.892
    1C        C  122   4.023   2.637   4.010
    1C        C  123   3.900   2.568   4.013
    1C        C  124   4.083   2.672   4.133
    1C        C  125   4.025   2.631   4.255
    1C        C  126   4.195   2.762   4.375
    1C        C  127   4.086   2.672   4.375
    1C        C  128   4.242   2.818   4.496
    1C        C  129   4.190   2.765   4.616
    1C        C  130   4.319   2.932   4.739
    1C        C  131   4.234   2.819   4.739
    1C        C  132   4.351   3.001   4.858
    1C        C  133   4.275   2.963   4.970
    1C        C  134   3.171   2.473   2.082
    1C        C  135   3.037   2.513   2.084
    1C        C  136   3.259   2.478   2.192
    1C        C  137   3.195   2.522   2.310
    1C        C  138   3.402   2.479   2.427
    1C        C  139   3.264   2.508   2.432
    1C        C  140   3.481   2.484   2.544
    1C        C  141   3.411   2.499   2.667
    1C        C  142   3.621   2.491   2.788
    1C        C  143   3.480   2.481   2.789
    1C        C  144   3.692   2.507   2.909
    1C        C  145   3.623   2.502   3.032
    1C        C  146   3.829   2.537   3.154
    1C        C  147   3.693   2.500   3.154
    1C        C  148   3.896   2.561   3.276
    1C        C  149   3.828   2.541   3.397
    1C        C  150   4.021   2.621   3.520
    1C        C  151   3.895   2.558   3.521
    1C        C  152   4.078   2.666   3.641
    1C        C  153   4.015   2.641   3.765
    1C        C  154   4.190   2.764   3.888
    1C        C  155   4.077   2.679   3.886
    1C        C  156   4.243   2.811   4.010
    1C        C  157   4.196   2.757   4.132
    1C        C  158   4.327   2.927   4.251
    1C        C  159   4.247   2.811   4.253
    1C        C  160   4.372   2.982   4.373
    1C        C  161   4.329   2.929   4.497
    1C        C  162   4.435   3.114   4.617
    1C        C  163   4.363   2.992   4.618
    1C        C  164   4.465   3.184   4.735
    1C        C  165   4.428   3.120   4.855
    1C        C  166   4.511   3.322   4.972
    1C        C  167   4.474   3.188   4.968
    1C        C  168   3.472   2.436   2.068
    1C        C  169   3.398   2.459   2.186
    1C        C  170   3.615   2.465   2.304
    1C        C  171   3.473   2.464   2.305
    1C        C  172   3.692   2.482   2.421
    1C        C  173   3.622   2.485   2.543
    1C        C  174   3.828   2.536   2.664
    1C        C  175   3.691   2.502   2.665
    1C        C  176   3.897   2.555   2.786
    1C        C  177   3.830   2.540   2.909
    1C        C  178   4.022   2.628   3.031
    1C        C  179   3.895   2.565   3.032
    1C        C  180   4.085   2.660   3.154
    1C        C  181   4.025   2.621   3.276
    1C        C  182   4.196   2.745   3.397
    1C        C  183   4.084   2.658   3.399
    1C        C  184   4.242   2.799   3.519
    1C        C  185   4.192   2.750   3.642
    1C        C  186   4.330   2.915   3.762
    1C        C  187   4.241   2.804   3.762
    1C        C  188   4.372   2.976   3.883
    1C        C  189   4.334   2.918   4.006
    1C        C  190   4.439   3.104   4.128
    1C        C  191   4.370   2.981   4.128
    1C        C  192   4.465   3.171   4.250
    1C        C  193   4.436   3.108   4.373
    1C        C  194   4.511   3.310   4.490
    1C        C  195   4.463   3.177   4.493
    1C        C  196   4.523   3.386   4.609
    1C        C  197   4.509   3.320   4.733
    1C        C  198   4.563   3.533   4.848
    1C        C  199   4.531   3.393   4.853
    1C        C  200   4.585   3.617   4.962
    1C        C  201   3.610   2.414   2.075
    1C        C  202   3.828   2.503   2.181
    1C        C  203   3.692   2.456   2.185
    1C        C  204   3.898   2.537   2.300
    1C        C  205   3.829   2.518   2.421
    1C        C  206   4.024   2.610   2.540
    1C        C  207   3.898   2.546   2.541
    1C        C  208   4.084   2.652   2.661
    1C        C  209   4.024   2.617   2.784
    1C        C  210   4.194   2.742   2.908
    1C        C  211   4.082   2.655   2.906
    1C        C  212   4.243   2.798   3.028
    1C        C  213   4.192   2.751   3.151
    1C        C  214   4.329   2.910   3.273
    1C        C  215   4.241   2.799   3.275
    1C        C  216   4.366   2.970   3.395
    1C        C  217   4.328   2.912   3.518
    1C        C  218   4.431   3.098   3.638
    1C        C  219   4.372   2.970   3.639
    1C        C  220   4.454   3.168   3.759
    1C        C  221   4.433   3.103   3.882
    1C        C  222   4.501   3.304   4.005
    1C        C  223   4.466   3.167   4.004
    1C        C  224   4.513   3.377   4.125
    1C        C  225   4.502   3.307   4.248
    1C        C  226   4.531   3.521   4.362
    1C        C  227   4.517   3.380   4.368
    1C        C  228   4.523   3.595   4.482
    1C        C  229   4.529   3.527   4.605
    1C        C  230   4.505   3.739   4.728
    1C        C  231   4.535   3.600   4.726
    1C        C  232   4.502   3.820   4.843
    1C        C  233   4.551   3.753   4.956
    1C        C  234   4.009   2.615   2.062
    1C        C  235   3.891   2.542   2.063
    1C        C  236   4.082   2.647   2.177
    1C        C  237   4.023   2.606   2.298
    1C        C  238   4.197   2.734   2.420
    1C        C  239   4.083   2.649   2.418
    1C        C  240   4.249   2.786   2.541
    1C        C  241   4.192   2.742   2.663
    1C        C  242   4.335   2.899   2.784
    1C        C  243   4.245   2.790   2.785
    1C        C  244   4.369   2.962   2.905
    1C        C  245   4.332   2.908   3.030
    1C        C  246   4.434   3.094   3.148
    1C        C  247   4.376   2.965   3.151
    1C        C  248   4.455   3.161   3.271
    1C        C  249   4.425   3.098   3.394
    1C        C  250   4.491   3.301   3.511
    1C        C  251   4.455   3.164   3.515
    1C        C  252   4.510   3.369   3.633
    1C        C  253   4.498   3.303   3.758
    1C        C  254   4.525   3.512   3.875
    1C        C  255   4.512   3.371   3.881
    1C        C  256   4.520   3.584   3.996
    1C        C  257   4.523   3.518   4.121
    1C        C  258   4.496   3.731   4.242
    1C        C  259   4.525   3.593   4.241
    1C        C  260   4.475   3.801   4.363
    1C        C  261   4.489   3.732   4.486
    1C        C  262   4.423   3.936   4.600
    1C        C  263   4.476   3.805   4.606
    1C        C  264   4.403   4.009   4.719
    1C        C  265   4.441   3.947   4.840
    1C        C  266   4.315   4.126   4.955
    1C        C  267   4.393   4.012   4.955
    1C        C  268   4.257   2.782   2.061
    1C        C  269   4.190   2.738   2.176
    1C        C  270   4.336   2.894   2.298
    1C        C  271   4.246   2.784   2.297
    1C        C  272   4.375   2.957   2.418
    1C        C  273   4.337   2.897   2.540
    1C        C  274   4.440   3.082   2.660
    1C        C  275   4.379   2.955   2.662
    1C        C  276   4.467   3.149   2.781
    1C        C  277   4.442   3.084   2.904
    1C        C  278   4.507   3.289   3.023
    1C        C  279   4.465   3.154   3.024
    1C        C  280   4.512   3.362   3.144
    1C        C  281   4.496   3.296   3.268
    1C        C  282   4.522   3.510   3.387
    1C        C  283   4.510   3.369   3.389
    1C        C  284   4.522   3.581   3.509
    1C        C  285   4.523   3.509   3.631
    1C        C  286   4.496   3.721   3.753
    1C        C  287   4.519   3.582   3.752
    1C        C  288   4.478   3.791   3.875
    1C        C  289   4.489   3.721   3.997
    1C        C  290   4.429   3.928   4.114
    1C        C  291   4.473   3.794   4.118
    1C        C  292   4.395   3.993   4.235
    1C        C  293   4.426   3.934   4.359
    1C        C  294   4.318   4.122   4.474
    1C        C  295   4.390   4.000   4.479
    1C        C  296   4.277   4.180   4.596
    1C        C  297   4.325   4.128   4.718
    1C        C  298   4.202   4.312   4.836
    1C        C  299   4.284   4.195   4.837
    1C        C  300   4.166   4.396   4.947
    1C        C  301   4.346   2.888   2.061
    1C        C  302   4.473   3.066   2.176
    1C        C  303   4.390   2.949   2.179
    1C        C  304   4.483   3.142   2.296
    1C        C  305   4.446   3.080   2.417
    1C        C  306   4.509   3.284   2.536
    1C        C  307   4.472   3.147   2.538
    1C        C  308   4.519   3.354   2.658
    1C        C  309   4.502   3.285   2.780
    1C        C  310   4.522   3.499   2.898
    1C        C  311   4.520   3.358   2.900
    1C        C  312   4.520   3.571   3.019
    1C        C  313   4.525   3.503   3.143
    1C        C  314   4.484   3.715   3.263
    1C        C  315   4.517   3.577   3.263
    1C        C  316   4.472   3.786   3.385
    1C        C  317   4.497   3.720   3.507
    1C        C  318   4.422   3.918   3.628
    1C        C  319   4.476   3.787   3.629
    1C        C  320   4.393   3.984   3.749
    1C        C  321   4.425   3.922   3.872
    1C        C  322   4.317   4.108   3.989
    1C        C  323   4.396   3.991   3.991
    1C        C  324   4.275   4.168   4.110
    1C        C  325   4.324   4.115   4.231
    1C        C  326   4.178   4.275   4.351
    1C        C  327   4.279   4.177   4.350
    1C        C  328   4.133   4.333   4.472
    1C        C  329   4.189   4.291   4.594
    1C        C  330   4.027   4.434   4.708
    1C        C  331   4.143   4.352   4.713
    1C        C  332   3.967   4.485   4.825
    1C        C  333   4.049   4.472   4.938
    1C        C  334   4.555   3.267   2.061
    1C        C  335   4.531   3.129   2.062
    1C        C  336   4.538   3.348   2.175
    1C        C  337   4.516   3.280   2.296
    1C        C  338   4.525   3.497   2.411
    1C        C  339   4.521   3.355   2.415
    1C        C  340   4.524   3.569   2.532
    1C        C  341   4.518   3.495   2.653
    1C        C  342   4.494   3.707   2.773
    1C        C  343   4.511   3.567   2.774
    1C        C  344   4.474   3.776   2.894
    1C        C  345   4.493   3.710   3.018
    1C        C  346   4.422   3.913   3.135
    1C        C  347   4.469   3.780   3.138
    1C        C  348   4.392   3.978   3.257
    1C        C  349   4.422   3.918   3.381
    1C        C  350   4.319   4.100   3.500
    1C        C  351   4.393   3.980   3.504
    1C        C  352   4.275   4.160   3.621
    1C        C  353   4.319   4.105   3.743
    1C        C  354   4.174   4.259   3.867
    1C        C  355   4.276   4.161   3.865
    1C        C  356   4.117   4.312   3.985
    1C        C  357   4.174   4.266   4.107
    1C        C  358   4.008   4.400   4.226
    1C        C  359   4.124   4.319   4.228
    1C        C  360   3.950   4.442   4.348
    1C        C  361   4.016   4.413   4.469
    1C        C  362   3.825   4.513   4.589
    1C        C  363   3.955   4.456   4.588
    1C        C  364   3.763   4.549   4.710
    1C        C  365   3.840   4.545   4.829
    1C        C  366   3.628   4.591   4.946
    1C        C  367   3.767   4.580   4.943
    1C        C  368   4.510   3.560   2.047
    1C        C  369   4.522   3.488   2.166
    1C        C  370   4.494   3.702   2.284
    1C        C  371   4.512   3.562   2.286
    1C        C  372   4.481   3.775   2.404
    1C        C  373   4.497   3.708   2.527
    1C        C  374   4.423   3.906   2.650
    1C        C  375   4.478   3.775   2.650
    1C        C  376   4.387   3.970   2.770
    1C        C  377   4.423   3.908   2.892
    1C        C  378   4.314   4.094   3.010
    1C        C  379   4.388   3.973   3.012
    1C        C  380   4.272   4.152   3.131
    1C        C  381   4.312   4.095   3.254
    1C        C  382   4.170   4.249   3.376
    1C        C  383   4.268   4.148   3.377
    1C        C  384   4.116   4.297   3.497
    1C        C  385   4.172   4.257   3.621
    1C        C  386   4.007   4.387   3.740
    1C        C  387   4.122   4.304   3.744
    1C        C  388   3.946   4.431   3.860
    1C        C  389   4.003   4.395   3.984
    1C        C  390   3.815   4.494   4.105
    1C        C  391   3.945   4.437   4.106
    1C        C  392   3.748   4.510   4.228
    1C        C  393   3.820   4.499   4.348
    1C        C  394   3.613   4.551   4.472
    1C        C  395   3.752   4.525   4.469
    1C        C  396   3.545   4.569   4.594
    1C        C  397   3.622   4.566   4.712
    1C        C  398   3.410   4.548   4.836
    1C        C  399   3.549   4.574   4.832
    1C        C  400   3.340   4.513   4.952
    1C        C  401   4.502   3.699   2.050
    1C        C  402   4.447   3.914   2.164
    1C        C  403   4.481   3.777   2.165
    1C        C  404   4.407   3.976   2.284
    1C        C  405   4.432   3.907   2.405
    1C        C  406   4.323   4.089   2.523
    1C        C  407   4.403   3.973   2.527
    1C        C  408   4.277   4.146   2.643
    1C        C  409   4.317   4.093   2.768
    1C        C  410   4.174   4.253   2.887
    1C        C  411   4.274   4.153   2.888
    1C        C  412   4.119   4.299   3.008
    1C        C  413   4.170   4.251   3.131
    1C        C  414   4.002   4.378   3.253
    1C        C  415   4.119   4.299   3.254
    1C        C  416   3.939   4.411   3.375
    1C        C  417   3.998   4.374   3.498
    1C        C  418   3.809   4.469   3.617
    1C        C  419   3.939   4.414   3.620
    1C        C  420   3.745   4.496   3.740
    1C        C  421   3.814   4.481   3.862
    1C        C  422   3.606   4.530   3.983
    1C        C  423   3.745   4.507   3.983
    1C        C  424   3.538   4.541   4.106
    1C        C  425   3.610   4.540   4.227
    1C        C  426   3.401   4.553   4.355
    1C        C  427   3.542   4.558   4.350
    1C        C  428   3.330   4.553   4.477
    1C        C  429   3.404   4.561   4.597
    1C        C  430   3.193   4.516   4.721
    1C        C  431   3.332   4.545   4.718
    1C        C  432   3.123   4.491   4.842
    1C        C  433   3.204   4.487   4.956
    1C        C  434   4.384   4.124   2.049
    1C        C  435   4.442   3.997   2.051
    1C        C  436   4.303   4.162   2.161
    1C        C  437   4.332   4.097   2.283
    1C        C  438   4.180   4.250   2.400
    1C        C  439   4.279   4.149   2.403
    1C        C  440   4.125   4.297   2.521
    1C        C  441   4.175   4.244   2.643
    1C        C  442   4.005   4.375   2.762
    1C        C  443   4.120   4.293   2.763
    1C        C  444   3.944   4.412   2.884
    1C        C  445   4.005   4.382   3.007
    1C        C  446   3.813   4.469   3.128
    1C        C  447   3.943   4.416   3.130
    1C        C  448   3.744   4.491   3.250
    1C        C  449   3.809   4.467   3.373
    1C        C  450   3.606   4.531   3.496
    1C        C  451   3.743   4.496   3.495
    1C        C  452   3.539   4.546   3.620
    1C        C  453   3.609   4.535   3.742
    1C        C  454   3.393   4.545   3.861
    1C        C  455   3.534   4.543   3.861
    1C        C  456   3.327   4.537   3.986
    1C        C  457   3.396   4.543   4.108
    1C        C  458   3.193   4.505   4.234
    1C        C  459   3.331   4.535   4.233
    1C        C  460   3.128   4.484   4.358
    1C        C  461   3.194   4.514   4.479
    1C        C  462   2.998   4.427   4.603
    1C        C  463   3.126   4.488   4.599
    1C        C  464   2.930   4.395   4.723
    1C        C  465   2.989   4.440   4.844
    1C        C  466   2.798   4.335   4.959
    1C        C  467   2.910   4.419   4.962
    1C        C  468   4.126   4.290   2.038
    1C        C  469   4.188   4.248   2.157
    1C        C  470   4.009   4.374   2.273
    1C        C  471   4.128   4.296   2.277
    1C        C  472   3.942   4.401   2.395
    1C        C  473   4.006   4.372   2.517
    1C        C  474   3.812   4.461   2.640
    1C        C  475   3.943   4.408   2.639
    1C        C  476   3.745   4.484   2.761
    1C        C  477   3.813   4.467   2.884
    1C        C  478   3.606   4.511   3.007
    1C        C  479   3.745   4.490   3.006
    1C        C  480   3.535   4.521   3.129
    1C        C  481   3.606   4.520   3.251
    1C        C  482   3.395   4.537   3.372
    1C        C  483   3.536   4.534   3.373
    1C        C  484   3.327   4.532   3.496
    1C        C  485   3.398   4.547   3.617
    1C        C  486   3.189   4.501   3.743
    1C        C  487   3.325   4.537   3.738
    1C        C  488   3.127   4.470   3.866
    1C        C  489   3.191   4.499   3.989
    1C        C  490   2.999   4.418   4.115
    1C        C  491   3.124   4.484   4.113
    1C        C  492   2.943   4.379   4.239
    1C        C  493   3.000   4.425   4.360
    1C        C  494   2.830   4.298   4.481
    1C        C  495   2.938   4.389   4.482
    1C        C  496   2.777   4.248   4.602
    1C        C  497   2.818   4.308   4.724
    1C        C  498   2.662   4.163   4.845
    1C        C  499   2.751   4.272   4.842
    1C        C  500   2.596   4.113   4.958
    1C        C  501   4.009   4.365   2.042
    1C        C  502   3.811   4.466   2.154
    1C        C  503   3.940   4.409   2.155
    1C        C  504   3.742   4.479   2.276
    1C        C  505   3.807   4.445   2.397
    1C        C  506   3.605   4.506   2.520
    1C        C  507   3.744   4.480   2.518
    1C        C  508   3.534   4.512   2.642
    1C        C  509   3.606   4.513   2.763
    1C        C  510   3.394   4.525   2.885
    1C        C  511   3.536   4.520   2.885
    1C        C  512   3.320   4.522   3.005
    1C        C  513   3.393   4.524   3.126
    1C        C  514   3.187   4.491   3.254
    1C        C  515   3.325   4.522   3.250
    1C        C  516   3.121   4.469   3.377
    1C        C  517   3.191   4.494   3.497
    1C        C  518   2.999   4.410   3.623
    1C        C  519   3.124   4.477   3.620
    1C        C  520   2.941   4.372   3.746
    1C        C  521   2.999   4.409   3.869
    1C        C  522   2.838   4.279   3.994
    1C        C  523   2.943   4.373   3.993
    1C        C  524   2.788   4.231   4.117
    1C        C  525   2.837   4.286   4.238
    1C        C  526   2.698   4.128   4.363
    1C        C  527   2.783   4.241   4.361
    1C        C  528   2.654   4.073   4.485
    1C        C  529   2.692   4.135   4.605
    1C        C  530   2.588   3.955   4.730
    1C        C  531   2.641   4.087   4.728
    1C        C  532   2.543   3.899   4.853
    1C        C  533   2.525   3.992   4.960
    1C        C  534   3.617   4.562   2.041
    1C        C  535   3.747   4.509   2.037
    1C        C  536   3.533   4.536   2.154
    1C        C  537   3.602   4.503   2.274
    1C        C  538   3.393   4.515   2.399
    1C        C  539   3.534   4.515   2.398
    1C        C  540   3.322   4.506   2.521
    1C        C  541   3.393   4.513   2.643
    1C        C  542   3.184   4.480   2.762
    1C        C  543   3.321   4.516   2.765
    1C        C  544   3.117   4.468   2.886
    1C        C  545   3.182   4.491   3.009
    1C        C  546   2.996   4.397   3.134
    1C        C  547   3.119   4.466   3.133
    1C        C  548   2.938   4.359   3.257
    1C        C  549   2.997   4.401   3.378
    1C        C  550   2.833   4.274   3.504
    1C        C  551   2.940   4.367   3.503
    1C        C  552   2.781   4.228   3.627
    1C        C  553   2.834   4.279   3.747
    1C        C  554   2.699   4.120   3.874
    1C        C  555   2.788   4.230   3.871
    1C        C  556   2.665   4.058   3.997
    1C        C  557   2.704   4.118   4.119
    1C        C  558   2.599   3.937   4.244
    1C        C  559   2.661   4.064   4.243
    1C        C  560   2.566   3.876   4.368
    1C        C  561   2.588   3.948   4.487
    1C        C  562   2.528   3.747   4.615
    1C        C  563   2.562   3.884   4.611
    1C        C  564   2.514   3.679   4.739
    1C        C  565   2.522   3.758   4.856
    1C        C  566   2.529   3.540   4.978
    1C        C  567   2.520   3.679   4.972
    1C        C  568   3.331   4.466   2.038
    1C        C  569   3.394   4.507   2.156
    1C        C  570   3.183   4.469   2.277
    1C        C  571   3.321   4.505   2.278
    1C        C  572   3.117   4.449   2.400
    1C        C  573   3.184   4.476   2.521
    1C        C  574   2.985   4.397   2.646
    1C        C  575   3.113   4.456   2.642
    1C        C  576   2.929   4.359   2.770
    1C        C  577   2.994   4.398   2.890
    1C        C  578   2.825   4.270   3.013
    1C        C  579   2.936   4.358   3.012
    1C        C  580   2.777   4.220   3.136
    1C        C  581   2.829   4.269   3.258
    1C        C  582   2.698   4.109   3.383
    1C        C  583   2.781   4.223   3.383
    1C        C  584   2.658   4.055   3.507
    1C        C  585   2.695   4.116   3.629
    1C        C  586   2.598   3.931   3.756
    1C        C  587   2.662   4.057   3.753
    1C        C  588   2.574   3.865   3.879
    1C        C  589   2.602   3.932   4.000
    1C        C  590   2.529   3.735   4.126
    1C        C  591   2.572   3.869   4.123
    1C        C  592   2.518   3.670   4.252
    1C        C  593   2.525   3.741   4.374
    1C        C  594   2.508   3.531   4.497
    1C        C  595   2.515   3.672   4.496
    1C        C  596   2.510   3.461   4.619
    1C        C  597   2.508   3.537   4.739
    1C        C  598   2.527   3.325   4.862
    1C        C  599   2.516   3.466   4.860
    1C        C  600   2.526   3.245   4.977
    1C        C  601   3.196   4.436   2.040
    1C        C  602   2.982   4.386   2.157
    1C        C  603   3.117   4.434   2.156
    1C        C  604   2.929   4.347   2.283
    1C        C  605   2.989   4.390   2.403
    1C        C  606   2.818   4.265   2.525
    1C        C  607   2.925   4.357   2.524
    1C        C  608   2.770   4.217   2.649
    1C        C  609   2.818   4.273   2.770
    1C        C  610   2.684   4.109   2.894
    1C        C  611   2.770   4.222   2.893
    1C        C  612   2.648   4.051   3.017
    1C        C  613   2.688   4.110   3.139
    1C        C  614   2.589   3.924   3.268
    1C        C  615   2.656   4.049   3.263
    1C        C  616   2.561   3.860   3.391
    1C        C  617   2.598   3.926   3.509
    1C        C  618   2.529   3.731   3.636
    1C        C  619   2.572   3.865   3.634
    1C        C  620   2.517   3.661   3.758
    1C        C  621   2.533   3.730   3.881
    1C        C  622   2.498   3.524   4.009
    1C        C  623   2.515   3.665   4.005
    1C        C  624   2.505   3.455   4.132
    1C        C  625   2.509   3.529   4.251
    1C        C  626   2.539   3.321   4.374
    1C        C  627   2.519   3.461   4.374
    1C        C  628   2.551   3.253   4.498
    1C        C  629   2.531   3.321   4.620
    1C        C  630   2.589   3.118   4.742
    1C        C  631   2.539   3.252   4.742
    1C        C  632   2.607   3.045   4.862
    1C        C  633   2.551   3.107   4.979
    1C        C  634   2.776   4.301   2.052
    1C        C  635   2.890   4.383   2.048
    1C        C  636   2.746   4.227   2.166
    1C        C  637   2.813   4.264   2.285
    1C        C  638   2.677   4.101   2.409
    1C        C  639   2.760   4.216   2.406
    1C        C  640   2.639   4.044   2.532
    1C        C  641   2.679   4.109   2.651
    1C        C  642   2.588   3.917   2.777
    1C        C  643   2.645   4.046   2.773
    1C        C  644   2.561   3.855   2.901
    1C        C  645   2.589   3.923   3.022
    1C        C  646   2.524   3.724   3.147
    1C        C  647   2.563   3.860   3.145
    1C        C  648   2.512   3.654   3.269
    1C        C  649   2.523   3.724   3.392
    1C        C  650   2.507   3.516   3.516
    1C        C  651   2.512   3.657   3.517
    1C        C  652   2.517   3.450   3.640
    1C        C  653   2.506   3.520   3.763
    1C        C  654   2.530   3.314   3.886
    1C        C  655   2.502   3.453   3.887
    1C        C  656   2.551   3.248   4.010
    1C        C  657   2.524   3.315   4.131
    1C        C  658   2.603   3.118   4.258
    1C        C  659   2.545   3.247   4.254
    1C        C  660   2.629   3.053   4.380
    1C        C  661   2.595   3.119   4.501
    1C        C  662   2.711   2.940   4.624
    1C        C  663   2.630   3.055   4.622
    1C        C  664   2.753   2.881   4.746
    1C        C  665   2.697   2.934   4.865
    1C        C  666   2.745   2.872   4.982
    1C        C  667   2.669   4.024   2.051
    1C        C  668   2.674   4.105   2.166
    1C        C  669   2.582   3.912   2.290
    1C        C  670   2.637   4.043   2.287
    1C        C  671   2.552   3.847   2.412
    1C        C  672   2.582   3.915   2.532
    1C        C  673   2.515   3.717   2.659
    1C        C  674   2.559   3.851   2.656
    1C        C  675   2.503   3.648   2.782
    1C        C  676   2.518   3.720   2.903
    1C        C  677   2.492   3.512   3.028
    1C        C  678   2.504   3.653   3.026
    1C        C  679   2.504   3.441   3.150
    1C        C  680   2.505   3.513   3.272
    1C        C  681   2.523   3.303   3.396
    1C        C  682   2.507   3.444   3.394
    1C        C  683   2.546   3.238   3.520
    1C        C  684   2.535   3.310   3.641
    1C        C  685   2.604   3.114   3.768
    1C        C  686   2.547   3.244   3.765
    1C        C  687   2.631   3.050   3.891
    1C        C  688   2.602   3.117   4.012
    1C        C  689   2.711   2.938   4.137
    1C        C  690   2.629   3.053   4.135
    1C        C  691   2.759   2.888   4.260
    1C        C  692   2.710   2.937   4.383
    1C        C  693   2.755   2.881   4.504
    1C        C  694   2.618   3.894   2.054
    1C        C  695   2.514   3.706   2.176
    1C        C  696   2.567   3.837   2.171
    1C        C  697   2.500   3.636   2.297
    1C        C  698   2.516   3.711   2.416
    1C        C  699   2.488   3.503   2.543
    1C        C  700   2.499   3.644   2.539
    1C        C  701   2.503   3.434   2.665
    1C        C  702   2.494   3.507   2.786
    1C        C  703   2.511   3.297   2.910
    1C        C  704   2.493   3.437   2.908
    1C        C  705   2.532   3.229   3.033
    1C        C  706   2.516   3.300   3.154
    1C        C  707   2.576   3.096   3.280
    1C        C  708   2.536   3.231   3.275
    1C        C  709   2.622   3.038   3.400
    1C        C  710   2.600   3.108   3.521
    1C        C  711   2.705   2.928   3.646
    1C        C  712   2.635   3.051   3.645
    1C        C  713   2.753   2.879   3.769
    1C        C  714   2.712   2.934   3.893
    1C        C  715   2.752   2.877   4.016
    1C        C  716   2.450   3.499   2.062
    1C        C  717   2.483   3.635   2.059
    1C        C  718   2.456   3.420   2.182
    1C        C  719   2.474   3.496   2.300
    1C        C  720   2.509   3.289   2.421
    1C        C  721   2.485   3.428   2.423
    1C        C  722   2.532   3.224   2.544
    1C        C  723   2.523   3.294   2.666
    1C        C  724   2.591   3.097   2.791
    1C        C  725   2.537   3.227   2.790
    1C        C  726   2.618   3.033   2.914
    1C        C  727   2.586   3.099   3.035
    1C        C  728   2.706   2.927   3.159
    1C        C  729   2.618   3.037   3.158
    1C        C  730   2.756   2.875   3.280
    1C        C  731   2.709   2.926   3.403
    1C        C  732   2.754   2.872   3.526
    1C        C  733   2.489   3.196   2.068
    1C        C  734   2.484   3.279   2.181
    1C        C  735   2.579   3.085   2.302
    1C        C  736   2.517   3.213   2.302
    1C        C  737   2.613   3.023   2.425
    1C        C  738   2.585   3.093   2.544
    1C        C  739   2.696   2.915   2.670
    1C        C  740   2.621   3.034   2.668
    1C        C  741   2.743   2.861   2.792
    1C        C  742   2.703   2.919   2.914
    1C        C  743   2.753   2.871   3.038
    1C        C  744   2.546   3.069   2.068
    1C        C  745   2.681   2.895   2.187
    1C        C  746   2.604   3.014   2.183
    1C        C  747   2.726   2.838   2.308
    1C        C  748   2.687   2.903   2.427
    1C        C  749   2.739   2.855   2.549
    1C        C  750   2.732   2.840   2.069
    1C        C  751   3.654   2.294   1.999
    1C        O  752   3.686   2.189   2.061
    1C        O  753   3.694   2.316   1.867
    1C        C  754   4.607   3.054   1.959
    1C        O  755   4.548   3.027   1.851
    1C        O  756   4.746   3.040   1.949
    1C        C  757   4.445   4.225   1.960
    1C        O  758   4.475   4.342   1.997
    1C        O  759   4.480   4.192   1.828
    1C        C  760   3.595   4.655   1.929
    1C        O  761   3.577   4.773   1.969
    1C        O  762   3.566   4.606   1.801
    1C        C  763   2.856   4.507   1.974
    1C        O  764   2.882   4.504   1.850
    1C        O  765   2.756   4.598   2.010
    1C        C  766   2.365   3.463   1.946
    1C        O  767   2.406   3.498   1.833
    1C        O  768   2.229   3.432   1.960
    1C        C  769   4.679   3.589   5.073
    1C        O  770   4.640   3.579   5.192
    1C        O  771   4.817   3.603   5.053
    1C        C  772   4.265   4.442   5.047
    1C        O  773   4.266   4.435   5.173
    1C        O  774   4.354   4.539   4.999
    1C        C  775   4.139   2.538   5.092
    1C        O  776   4.213   2.437   5.083
    1C        O  777   4.089   2.544   5.222
    1C        C  778   2.880   4.528   5.057
    1C        O  779   2.855   4.646   5.017
    1C        O  780   2.901   4.525   5.195
    1C        C  781   2.480   3.021   5.077
    1C        O  782   2.358   2.997   5.059
    1C        O  783   2.514   3.042   5.210
    1C        C  784   2.399   3.988   5.038
    1C        O  785   2.281   3.994   4.994
    1C        O  786   2.415   3.968   5.176
    1C        C  787   2.946   2.436   1.995
    1C        O  788   2.918   2.465   1.876
    1C        O  789   2.918   2.305   2.029
    1C        C  790   3.180   2.365   5.057
    1C        O  791   3.160   2.249   5.013
    1C        O  792   3.176   2.372   5.197
    1C        H  793   4.254   3.038   5.043
    1C        H  794   4.142   2.831   5.058
    1C        H  795   4.538   3.130   5.031
    1C        H  796   4.484   3.378   5.059
    1C        H  797   4.570   3.809   5.045
    1C        H  798   4.377   3.944   5.036
    1C        H  799   4.234   4.121   5.025
    1C        H  800   4.043   4.556   5.005
    1C        H  801   3.817   4.607   5.034
    1C        H  802   3.580   4.628   5.034
    1C        H  803   3.404   4.479   5.031
    1C        H  804   3.184   4.403   5.019
    1C        H  805   3.883   2.494   5.070
    1C        H  806   3.671   2.431   5.062
    1C        H  807   3.026   2.583   5.073
    1C        H  808   3.447   2.424   5.062
    1C        H  809   2.876   2.744   5.078
    1C        H  810   2.720   2.912   5.078
    1C        H  811   2.468   3.284   5.058
    1C        H  812   2.556   3.496   5.072
    1C        H  813   2.482   3.723   5.062
    1C        H  814   2.592   4.171   5.048
    1C        H  815   2.758   4.315   5.056
    1C        H  816   2.721   2.889   1.975
    1C        H  817   2.837   2.686   1.974
    1C        H  818   3.202   2.416   1.997
    1C        H  819   3.447   2.503   1.989
    1C        H  820   3.847   2.512   1.970
    1C        H  821   4.054   2.647   1.970
    1C        H  822   4.246   2.732   1.967
    1C        H  823   4.320   2.963   1.988
    1C        H  824   4.589   3.310   1.969
    1C        H  825   4.506   3.514   1.951
    1C        H  826   4.495   3.738   1.951
    1C        H  827   3.808   4.560   1.967
    1C        H  828   3.978   4.421   1.956
    1C        H  829   4.113   4.213   1.965
    1C        H  830   4.468   3.953   1.957
    1C        H  831   2.663   3.826   1.984
    1C        H  832   2.738   4.046   1.973
    1C        H  833   2.703   4.301   1.973
    1C        H  834   3.389   4.402   1.975
    1C        H  835   3.165   4.390   1.949
    1C        H  836   2.561   3.026   1.971
    1C        H  837   2.476   3.233   1.969
    1C        H  838   2.501   3.682   1.965
    2V3OU   H29  839   2.807   3.552   2.796
    2V3OU   C27  840   2.787   3.503   2.894
    2V3OU   H27  841   2.733   3.564   2.971
    2V3OU   H28  842   2.740   3.401   2.887
    2V3OU   O11  843   2.912   3.477   2.960
    2V3OU   C15  844   2.930   3.393   3.069
    2V3OU   C13  845   3.057   3.368   3.125
    2V3OU   C14  846   3.079   3.265   3.216
    2V3OU   C16  847   2.980   3.178   3.260
    2V3OU    H6  848   2.991   3.102   3.340
    2V3OU   C12  849   3.214   3.231   3.267
    2V3OU    O2  850   3.238   3.123   3.324
    2V3OU   C10  851   3.327   3.307   3.212
    2V3OU    C8  852   3.458   3.269   3.238
    2V3OU   O10  853   3.486   3.150   3.298
    2V3OU   H26  854   3.398   3.113   3.316
    2V3OU    C6  855   3.566   3.352   3.197
    2V3OU    C5  856   3.537   3.470   3.128
    2V3OU    C4  857   3.702   3.291   3.187
    2V3OU    H4  858   3.724   3.220   3.273
    2V3OU    H5  859   3.713   3.225   3.096
    2V3OU    C2  860   3.813   3.396   3.184
    2V3OU    O6  861   3.807   3.465   3.309
    2V3OU   H21  862   3.773   3.552   3.283
    2V3OU    C3  863   3.781   3.499   3.076
    2V3OU    H2  864   3.858   3.579   3.068
    2V3OU    H3  865   3.783   3.436   2.983
    2V3OU   C25  866   3.950   3.332   3.162
    2V3OU    O7  867   3.997   3.295   3.055
    2V3OU   C26  868   4.031   3.290   3.284
    2V3OU   H22  869   4.067   3.381   3.337
    2V3OU   H23  870   4.117   3.226   3.251
    2V3OU    O8  871   3.966   3.201   3.372
    2V3OU   H24  872   3.920   3.268   3.425
    2V3OU    C1  873   3.645   3.566   3.089
    2V3OU    H1  874   3.623   3.619   2.991
    2V3OU    O3  875   3.663   3.653   3.201
    2V3OU   C19  876   3.620   3.789   3.191
    2V3OU    H9  877   3.516   3.796   3.148
    2V3OU    O4  878   3.715   3.840   3.100
    2V3OU   C20  879   3.843   3.872   3.156
    2V3OU   H10  880   3.890   3.773   3.182
    2V3OU   C24  881   3.606   3.854   3.329
    2V3OU   H16  882   3.536   3.794   3.393
    2V3OU   H17  883   3.567   3.959   3.321
    2V3OU   C23  884   3.745   3.877   3.389
    2V3OU   H15  885   3.788   3.774   3.410
    2V3OU    N1  886   3.734   3.955   3.510
    2V3OU   H19  887   3.802   3.928   3.578
    2V3OU   H20  888   3.644   3.935   3.548
    2V3OU   C21  889   3.847   3.943   3.291
    2V3OU   H11  890   3.949   3.930   3.337
    2V3OU    O5  891   3.826   4.084   3.295
    2V3OU   H18  892   3.774   4.100   3.375
    2V3OU   C22  893   3.912   3.947   3.043
    2V3OU   H12  894   3.860   4.043   3.020
    2V3OU   H13  895   3.908   3.887   2.948
    2V3OU   H14  896   4.020   3.964   3.065
    2V3OU   C11  897   3.163   3.468   3.101
    2V3OU    O1  898   3.134   3.587   3.078
    2V3OU    C9  899   3.300   3.424   3.136
    2V3OU    C7  900   3.403   3.508   3.096
    2V3OU    O9  901   3.390   3.618   3.013
    2V3OU   H25  902   3.295   3.630   2.999
    2V3OU   C17  903   2.830   3.311   3.124
    2V3OU    H7  904   2.733   3.341   3.085
    2V3OU   C18  905   2.852   3.209   3.217
    2V3OU    H8  906   2.783   3.162   3.289
    3SOL     OW  907   2.560   5.326   6.398
    3SOL    HW1  908   2.641   5.295   6.449
    3SOL    HW2  909   2.567   5.424   6.382
    4SOL     OW  910   6.798   0.711   1.230
    4SOL    HW1  911   6.825   0.773   1.156
    4SOL    HW2  912   6.743   0.636   1.193
    5SOL     OW  913   4.247   2.281   2.209
    5SOL    HW1  914   4.264   2.267   2.111
    5SOL    HW2  915   4.278   2.372   2.236
    6SOL     OW  916   4.281   1.451   1.601
    6SOL    HW1  917   4.343   1.525   1.628
    6SOL    HW2  918   4.325   1.393   1.533
    7SOL     OW  919   0.712   4.003   3.872
    7SOL    HW1  920   0.757   3.939   3.810
    7SOL    HW2  921   0.755   4.093   3.864
    8SOL     OW  922   3.005   1.647   5.679
    8SOL    HW1  923   3.049   1.689   5.599
    8SOL    HW2  924   3.072   1.594   5.730
    9SOL     OW  925   4.701   1.322   5.768
    9SOL    HW1  926   4.694   1.400   5.830
    9SOL    HW2  927   4.673   1.239   5.816
   10SOL     OW  928   2.181   5.277   4.713
   10SOL    HW1  929   2.221   5.187   4.700
   10SOL    HW2  930   2.196   5.332   4.631
   11SOL     OW  931   2.421   0.823   5.624
   11SOL    HW1  932   2.359   0.901   5.633
   11SOL    HW2  933   2.462   0.823   5.532
   12SOL     OW  934   3.054   5.054   3.615
   12SOL    HW1  935   2.956   5.073   3.628
   12SOL    HW2  936   3.095   5.126   3.560
   13SOL     OW  937   3.281   6.600   4.260
   13SOL    HW1  938   3.249   6.516   4.216
   13SOL    HW2  939   3.255   6.599   4.357
   14SOL     OW  940   4.026   5.435   6.049
   14SOL    HW1  941   4.095   5.503   6.023
   14SOL    HW2  942   3.937   5.478   6.056
   15SOL     OW  943   0.796   6.976   0.929
   15SOL    HW1  944   0.878   6.954   0.877
   15SOL    HW2  945   0.785   6.910   1.004
   16SOL     OW  946   5.474   3.065   6.180
   16SOL    HW1  947   5.519   3.116   6.253
   16SOL    HW2  948   5.405   3.123   6.136
   17SOL     OW  949   6.026   5.796   6.731
   17SOL    HW1  950   6.090   5.812   6.807
   17SOL    HW2  951   6.002   5.884   6.689
   18SOL     OW  952   2.739   1.036   5.396
   18SOL    HW1  953   2.801   1.067   5.323
   18SOL    HW2  954   2.650   1.080   5.384
   19SOL     OW  955   0.396   2.331   3.069
   19SOL    HW1  956   0.486   2.288   3.059
   19SOL    HW2  957   0.392   2.413   3.012
   20SOL     OW  958   4.624   1.604   4.593
   20SOL    HW1  959   4.529   1.575   4.604
   20SOL    HW2  960   4.642   1.623   4.496
   21SOL     OW  961   2.619   1.348   2.152
   21SOL    HW1  962   2.619   1.265   2.208
   21SOL    HW2  963   2.705   1.398   2.167
   22SOL     OW  964   1.265   6.184   6.831
   22SOL    HW1  965   1.194   6.123   6.796
   22SOL    HW2  966   1.224   6.268   6.865
   23SOL     OW  967   4.634   5.458   2.477
   23SOL    HW1  968   4.678   5.487   2.562
   23SOL    HW2  969   4.597   5.366   2.489
   24SOL     OW  970   3.329   0.579   2.592
   24SOL    HW1  971   3.279   0.604   2.509
   24SOL    HW2  972   3.360   0.484   2.584
   25SOL     OW  973   3.505   0.183   3.630
   25SOL    HW1  974   3.572   0.198   3.557
   25SOL    HW2  975   3.438   0.115   3.600
   26SOL     OW  976   6.724   1.497   0.445
   26SOL    HW1  977   6.759   1.440   0.519
   26SOL    HW2  978   6.688   1.582   0.482
   27SOL     OW  979   1.943   1.195   2.403
   27SOL    HW1  980   2.000   1.276   2.391
   27SOL    HW2  981   1.849   1.223   2.425
   28SOL     OW  982   1.821   0.060   4.951
   28SOL    HW1  983   1.909   0.023   4.983
   28SOL    HW2  984   1.838   0.131   4.883
   29SOL     OW  985   6.216   2.053   1.699
   29SOL    HW1  986   6.220   2.134   1.641
   29SOL    HW2  987   6.152   1.987   1.660
   30SOL     OW  988   4.348   0.422   3.517
   30SOL    HW1  989   4.363   0.324   3.523
   30SOL    HW2  990   4.364   0.464   3.607
   31SOL     OW  991   0.328   2.524   6.576
   31SOL    HW1  992   0.250   2.571   6.534
   31SOL    HW2  993   0.358   2.449   6.516
   32SOL     OW  994   0.734   1.888   3.156
   32SOL    HW1  995   0.745   1.922   3.063
   32SOL    HW2  996   0.665   1.816   3.158
   33SOL     OW  997   1.464   4.539   5.012
   33SOL    HW1  998   1.451   4.494   5.099
   33SOL    HW2  999   1.392   4.607   4.998
   34SOL     OW 1000   2.587   6.676   4.914
   34SOL    HW1 1001   2.631   6.709   4.831
   34SOL    HW2 1002   2.657   6.646   4.979
   35SOL     OW 1003   4.744   2.834   6.096
   35SOL    HW1 1004   4.700   2.810   6.010
   35SOL    HW2 1005   4.818   2.770   6.114
   36SOL     OW 1006   4.949   2.002   4.118
   36SOL    HW1 1007   4.852   2.014   4.097
   36SOL    HW2 1008   4.993   1.950   4.045
   37SOL     OW 1009   1.808   1.583   5.792
   37SOL    HW1 1010   1.729   1.525   5.771
   37SOL    HW2 1011   1.872   1.581   5.715
   38SOL     OW 1012   0.965   5.246   2.197
   38SOL    HW1 1013   1.053   5.199   2.195
   38SOL    HW2 1014   0.900   5.192   2.251
   39SOL     OW 1015   6.314   4.113   6.366
   39SOL    HW1 1016   6.263   4.162   6.437
   39SOL    HW2 1017   6.380   4.051   6.408
   40SOL     OW 1018   4.449   1.696   0.724
   40SOL    HW1 1019   4.485   1.787   0.744
   40SOL    HW2 1020   4.520   1.640   0.682
   41SOL     OW 1021   6.214   3.413   3.953
   41SOL    HW1 1022   6.285   3.350   3.922
   41SOL    HW2 1023   6.186   3.471   3.876
   42SOL     OW 1024   3.530   5.549   4.086
   42SOL    HW1 1025   3.478   5.465   4.067
   42SOL    HW2 1026   3.500   5.587   4.173
   43SOL     OW 1027   4.506   0.085   5.186
   43SOL    HW1 1028   4.544   0.110   5.275
   43SOL    HW2 1029   4.419   0.037   5.198
   44SOL     OW 1030   4.737   1.963   5.714
   44SOL    HW1 1031   4.752   2.041   5.775
   44SOL    HW2 1032   4.705   1.996   5.625
   45SOL     OW 1033   4.698   4.584   1.571
   45SOL    HW1 1034   4.767   4.647   1.535
   45SOL    HW2 1035   4.742   4.510   1.621
   46SOL     OW 1036   0.433   2.925   3.898
   46SOL    HW1 1037   0.489   2.845   3.877
   46SOL    HW2 1038   0.486   2.990   3.953
   47SOL     OW 1039   4.159   3.734   0.749
   47SOL    HW1 1040   4.076   3.775   0.786
   47SOL    HW2 1041   4.158   3.739   0.649
   48SOL     OW 1042   6.415   2.658   5.811
   48SOL    HW1 1043   6.486   2.726   5.831
   48SOL    HW2 1044   6.414   2.589   5.883
   49SOL     OW 1045   6.006   3.125   2.125
   49SOL    HW1 1046   6.043   3.095   2.213
   49SOL    HW2 1047   5.906   3.116   2.126
   50SOL     OW 1048   5.882   1.012   5.190
   50SOL    HW1 1049   5.931   1.091   5.152
   50SOL    HW2 1050   5.784   1.028   5.186
   51SOL     OW 1051   2.423   6.632   3.037
   51SOL    HW1 1052   2.333   6.606   3.001
   51SOL    HW2 1053   2.490   6.631   2.963
   52SOL     OW 1054   5.851   3.153   1.835
   52SOL    HW1 1055   5.769   3.205   1.812
   52SOL    HW2 1056   5.829   3.055   1.837
   53SOL     OW 1057   5.213   1.355   3.383
   53SOL    HW1 1058   5.207   1.376   3.480
   53SOL    HW2 1059   5.142   1.288   3.359
   54SOL     OW 1060   5.333   6.069   0.814
   54SOL    HW1 1061   5.376   6.159   0.825
   54SOL    HW2 1062   5.398   5.998   0.840
   55SOL     OW 1063   2.276   2.563   5.309
   55SOL    HW1 1064   2.309   2.615   5.389
   55SOL    HW2 1065   2.259   2.626   5.233
   56SOL     OW 1066   0.599   0.799   1.203
   56SOL    HW1 1067   0.633   0.787   1.296
   56SOL    HW2 1068   0.499   0.793   1.202
   57SOL     OW 1069   4.143   0.806   1.514
   57SOL    HW1 1070   4.134   0.892   1.564
   57SOL    HW2 1071   4.138   0.823   1.416
   58SOL     OW 1072   0.620   0.057   5.429
   58SOL    HW1 1073   0.590   6.987   5.398
   58SOL    HW2 1074   0.567   0.129   5.384
   59SOL     OW 1075   0.034   2.928   6.545
   59SOL    HW1 1076   0.113   2.922   6.605
   59SOL    HW2 1077   0.064   2.933   6.449
   60SOL     OW 1078   5.475   2.888   4.901
   60SOL    HW1 1079   5.437   2.900   4.809
   60SOL    HW2 1080   5.444   2.801   4.939
   61SOL     OW 1081   6.395   1.766   4.216
   61SOL    HW1 1082   6.303   1.762   4.255
   61SOL    HW2 1083   6.442   1.679   4.234
   62SOL     OW 1084   2.088   0.974   1.764
   62SOL    HW1 1085   2.020   1.047   1.773
   62SOL    HW2 1086   2.106   0.957   1.667
   63SOL     OW 1087   4.206   0.687   4.146
   63SOL    HW1 1088   4.278   0.629   4.109
   63SOL    HW2 1089   4.180   0.655   4.237
   64SOL     OW 1090   6.688   2.905   6.123
   64SOL    HW1 1091   6.708   3.002   6.140
   64SOL    HW2 1092   6.610   2.877   6.178
   65SOL     OW 1093   0.417   4.390   6.652
   65SOL    HW1 1094   0.362   4.344   6.722
   65SOL    HW2 1095   0.498   4.336   6.633
   66SOL     OW 1096   3.229   0.554   3.913
   66SOL    HW1 1097   3.310   0.521   3.864
   66SOL    HW2 1098   3.147   0.532   3.860
   67SOL     OW 1099   6.610   2.849   5.876
   67SOL    HW1 1100   6.675   2.853   5.800
   67SOL    HW2 1101   6.655   2.877   5.961
   68SOL     OW 1102   0.336   1.354   6.688
   68SOL    HW1 1103   0.343   1.267   6.736
   68SOL    HW2 1104   0.345   1.429   6.754
   69SOL     OW 1105   1.509   2.586   5.542
   69SOL    HW1 1106   1.575   2.539   5.484
   69SOL    HW2 1107   1.551   2.667   5.582
   70SOL     OW 1108   5.213   4.787   3.976
   70SOL    HW1 1109   5.168   4.788   3.887
   70SOL    HW2 1110   5.234   4.692   4.001
   71SOL     OW 1111   4.130   2.261   3.937
   71SOL    HW1 1112   4.197   2.279   3.866
   71SOL    HW2 1113   4.177   2.234   4.021
   72SOL     OW 1114   1.199   1.539   3.418
   72SOL    HW1 1115   1.238   1.631   3.430
   72SOL    HW2 1116   1.256   1.472   3.466
   73SOL     OW 1117   3.442   7.008   0.646
   73SOL    HW1 1118   3.398   0.023   0.729
   73SOL    HW2 1119   3.475   0.065   0.591
   74SOL     OW 1120   4.106   0.632   0.252
   74SOL    HW1 1121   4.078   0.560   0.315
   74SOL    HW2 1122   4.206   0.633   0.245
   75SOL     OW 1123   4.082   0.468   1.363
   75SOL    HW1 1124   4.121   0.414   1.438
   75SOL    HW2 1125   4.156   0.512   1.313
   76SOL     OW 1126   3.035   3.698   0.381
   76SOL    HW1 1127   3.127   3.732   0.400
   76SOL    HW2 1128   3.039   3.632   0.306
   77SOL     OW 1129   1.013   0.344   3.498
   77SOL    HW1 1130   1.061   0.267   3.456
   77SOL    HW2 1131   0.971   0.315   3.584
   78SOL     OW 1132   4.980   1.431   0.603
   78SOL    HW1 1133   4.996   1.356   0.667
   78SOL    HW2 1134   5.061   1.490   0.601
   79SOL     OW 1135   2.979   5.876   1.380
   79SOL    HW1 1136   2.965   5.778   1.390
   79SOL    HW2 1137   2.899   5.925   1.416
   80SOL     OW 1138   4.757   0.928   4.192
   80SOL    HW1 1139   4.793   0.835   4.206
   80SOL    HW2 1140   4.674   0.924   4.138
   81SOL     OW 1141   1.877   0.321   2.258
   81SOL    HW1 1142   1.876   0.327   2.159
   81SOL    HW2 1143   1.816   0.247   2.288
   82SOL     OW 1144   5.358   4.927   0.781
   82SOL    HW1 1145   5.438   4.872   0.806
   82SOL    HW2 1146   5.312   4.959   0.863
   83SOL     OW 1147   0.162   0.481   0.069
   83SOL    HW1 1148   0.199   0.388   0.070
   83SOL    HW2 1149   0.201   0.533   0.145
   84SOL     OW 1150   6.207   3.522   2.954
   84SOL    HW1 1151   6.234   3.587   3.025
   84SOL    HW2 1152   6.183   3.435   2.997
   85SOL     OW 1153   1.719   1.366   2.794
   85SOL    HW1 1154   1.639   1.402   2.842
   85SOL    HW2 1155   1.780   1.441   2.770
   86SOL     OW 1156   0.015   1.322   6.569
   86SOL    HW1 1157   0.110   1.301   6.590
   86SOL    HW2 1158   0.010   1.393   6.499
   87SOL     OW 1159   4.772   4.203   1.132
   87SOL    HW1 1160   4.795   4.147   1.052
   87SOL    HW2 1161   4.832   4.283   1.135
   88SOL     OW 1162   3.005   2.112   6.082
   88SOL    HW1 1163   2.944   2.178   6.128
   88SOL    HW2 1164   3.099   2.131   6.108
   89SOL     OW 1165   2.667   3.108   0.166
   89SOL    HW1 1166   2.728   3.086   0.089
   89SOL    HW2 1167   2.621   3.025   0.196
   90SOL     OW 1168   4.157   5.428   2.220
   90SOL    HW1 1169   4.188   5.453   2.312
   90SOL    HW2 1170   4.150   5.511   2.164
   91SOL     OW 1171   6.778   4.210   6.134
   91SOL    HW1 1172   6.806   4.293   6.086
   91SOL    HW2 1173   6.723   4.234   6.214
   92SOL     OW 1174   4.508   4.199   1.132
   92SOL    HW1 1175   4.476   4.239   1.217
   92SOL    HW2 1176   4.608   4.201   1.129
   93SOL     OW 1177   3.703   3.589   0.259
   93SOL    HW1 1178   3.634   3.574   0.188
   93SOL    HW2 1179   3.682   3.673   0.309
   94SOL     OW 1180   2.896   5.749   6.611
   94SOL    HW1 1181   2.810   5.798   6.629
   94SOL    HW2 1182   2.936   5.719   6.697
   95SOL     OW 1183   1.834   1.114   2.842
   95SOL    HW1 1184   1.804   1.206   2.817
   95SOL    HW2 1185   1.900   1.081   2.775
   96SOL     OW 1186   4.143   6.073   5.307
   96SOL    HW1 1187   4.134   6.138   5.382
   96SOL    HW2 1188   4.060   6.017   5.301
   97SOL     OW 1189   2.561   3.542   6.163
   97SOL    HW1 1190   2.583   3.624   6.110
   97SOL    HW2 1191   2.473   3.555   6.209
   98SOL     OW 1192   1.165   2.336   0.270
   98SOL    HW1 1193   1.156   2.363   0.366
   98SOL    HW2 1194   1.210   2.247   0.264
   99SOL     OW 1195   4.574   3.407   1.335
   99SOL    HW1 1196   4.551   3.503   1.323
   99SOL    HW2 1197   4.583   3.363   1.245
  100SOL     OW 1198   0.689   6.929   3.998
  100SOL    HW1 1199   0.717   6.839   4.032
  100SOL    HW2 1200   0.610   6.918   3.938
  101SOL     OW 1201   0.964   4.611   2.286
  101SOL    HW1 1202   0.870   4.581   2.267
  101SOL    HW2 1203   0.978   4.614   2.385
  102SOL     OW 1204   3.781   5.410   2.005
  102SOL    HW1 1205   3.718   5.427   2.081
  102SOL    HW2 1206   3.839   5.331   2.027
  103SOL     OW 1207   2.162   2.268   1.979
  103SOL    HW1 1208   2.183   2.352   1.929
  103SOL    HW2 1209   2.208   2.191   1.936
  104SOL     OW 1210   0.918   6.220   2.542
  104SOL    HW1 1211   0.970   6.146   2.499
  104SOL    HW2 1212   0.929   6.214   2.642
  105SOL     OW 1213   5.793   1.249   6.273
  105SOL    HW1 1214   5.873   1.212   6.226
  105SOL    HW2 1215   5.713   1.244   6.212
  106SOL     OW 1216   3.473   6.380   3.529
  106SOL    HW1 1217   3.551   6.330   3.489
  106SOL    HW2 1218   3.441   6.332   3.610
  107SOL     OW 1219   0.609   0.934   6.891
  107SOL    HW1 1220   0.676   1.004   6.916
  107SOL    HW2 1221   0.651   0.844   6.899
  108SOL     OW 1222   3.870   6.642   6.473
  108SOL    HW1 1223   3.897   6.706   6.545
  108SOL    HW2 1224   3.937   6.568   6.467
  109SOL     OW 1225   2.929   1.975   2.702
  109SOL    HW1 1226   2.950   1.993   2.606
  109SOL    HW2 1227   2.982   2.037   2.760
  110SOL     OW 1228   3.174   5.100   4.421
  110SOL    HW1 1229   3.119   5.017   4.430
  110SOL    HW2 1230   3.181   5.145   4.510
  111SOL     OW 1231   2.197   1.628   4.151
  111SOL    HW1 1232   2.180   1.719   4.115
  111SOL    HW2 1233   2.177   1.560   4.080
  112SOL     OW 1234   3.511   5.948   0.344
  112SOL    HW1 1235   3.455   5.884   0.292
  112SOL    HW2 1236   3.598   5.963   0.296
  113SOL     OW 1237   0.644   6.765   3.020
  113SOL    HW1 1238   0.699   6.686   2.993
  113SOL    HW2 1239   0.555   6.735   3.053
  114SOL     OW 1240   0.779   6.232   1.506
  114SOL    HW1 1241   0.742   6.288   1.432
  114SOL    HW2 1242   0.767   6.135   1.482
  115SOL     OW 1243   5.295   0.579   2.698
  115SOL    HW1 1244   5.236   0.606   2.622
  115SOL    HW2 1245   5.360   0.510   2.666
  116SOL     OW 1246   6.722   6.332   1.385
  116SOL    HW1 1247   6.689   6.400   1.450
  116SOL    HW2 1248   6.678   6.346   1.297
  117SOL     OW 1249   0.257   1.361   0.581
  117SOL    HW1 1250   0.267   1.341   0.678
  117SOL    HW2 1251   0.178   1.311   0.545
  118SOL     OW 1252   1.324   1.399   2.242
  118SOL    HW1 1253   1.380   1.430   2.319
  118SOL    HW2 1254   1.294   1.305   2.258
  119SOL     OW 1255   0.649   0.214   0.196
  119SOL    HW1 1256   0.700   0.294   0.164
  119SOL    HW2 1257   0.575   0.244   0.258
  120SOL     OW 1258   5.230   1.053   5.346
  120SOL    HW1 1259   5.134   1.044   5.320
  120SOL    HW2 1260   5.243   1.020   5.439
  121SOL     OW 1261   1.045   3.288   0.500
  121SOL    HW1 1262   1.043   3.190   0.478
  121SOL    HW2 1263   1.140   3.319   0.504
  122SOL     OW 1264   1.774   3.697   0.466
  122SOL    HW1 1265   1.676   3.716   0.457
  122SOL    HW2 1266   1.791   3.650   0.552
  123SOL     OW 1267   1.262   2.053   2.421
  123SOL    HW1 1268   1.171   2.075   2.385
  123SOL    HW2 1269   1.315   2.138   2.429
  124SOL     OW 1270   3.309   2.644   1.129
  124SOL    HW1 1271   3.226   2.696   1.150
  124SOL    HW2 1272   3.327   2.650   1.031
  125SOL     OW 1273   4.287   2.441   0.784
  125SOL    HW1 1274   4.288   2.464   0.687
  125SOL    HW2 1275   4.312   2.345   0.796
  126SOL     OW 1276   3.606   3.519   2.209
  126SOL    HW1 1277   3.653   3.436   2.180
  126SOL    HW2 1278   3.564   3.505   2.298
  127SOL     OW 1279   0.299   5.150   6.482
  127SOL    HW1 1280   0.336   5.060   6.458
  127SOL    HW2 1281   0.231   5.178   6.414
  128SOL     OW 1282   4.887   3.198   1.172
  128SOL    HW1 1283   4.885   3.266   1.245
  128SOL    HW2 1284   4.796   3.190   1.131
  129SOL     OW 1285   2.963   3.558   0.147
  129SOL    HW1 1286   2.973   3.485   0.080
  129SOL    HW2 1287   2.876   3.606   0.132
  130SOL     OW 1288   0.198   0.428   4.546
  130SOL    HW1 1289   0.162   0.338   4.568
  130SOL    HW2 1290   0.277   0.449   4.604
  131SOL     OW 1291   5.244   0.498   3.725
  131SOL    HW1 1292   5.302   0.541   3.657
  131SOL    HW2 1293   5.207   0.567   3.786
  132SOL     OW 1294   3.128   2.421   1.676
  132SOL    HW1 1295   3.135   2.327   1.642
  132SOL    HW2 1296   3.070   2.422   1.758
  133SOL     OW 1297   5.392   0.403   4.200
  133SOL    HW1 1298   5.456   0.411   4.276
  133SOL    HW2 1299   5.410   0.318   4.150
  134SOL     OW 1300   0.516   0.618   2.382
  134SOL    HW1 1301   0.438   0.634   2.442
  134SOL    HW2 1302   0.597   0.600   2.437
  135SOL     OW 1303   5.543   3.622   4.506
  135SOL    HW1 1304   5.599   3.580   4.434
  135SOL    HW2 1305   5.585   3.606   4.595
  136SOL     OW 1306   1.602   5.053   5.071
  136SOL    HW1 1307   1.569   4.967   5.108
  136SOL    HW2 1308   1.637   5.110   5.145
  137SOL     OW 1309   4.555   1.579   3.819
  137SOL    HW1 1310   4.464   1.598   3.782
  137SOL    HW2 1311   4.605   1.519   3.757
  138SOL     OW 1312   1.265   3.611   2.982
  138SOL    HW1 1313   1.353   3.567   2.965
  138SOL    HW2 1314   1.277   3.711   2.979
  139SOL     OW 1315   2.058   6.200   5.205
  139SOL    HW1 1316   2.088   6.201   5.300
  139SOL    HW2 1317   1.959   6.199   5.201
  140SOL     OW 1318   1.712   6.200   3.320
  140SOL    HW1 1319   1.778   6.125   3.332
  140SOL    HW2 1320   1.759   6.288   3.330
  141SOL     OW 1321   0.262   2.735   4.994
  141SOL    HW1 1322   0.215   2.649   4.975
  141SOL    HW2 1323   0.199   2.799   5.038
  142SOL     OW 1324   2.089   3.517   2.157
  142SOL    HW1 1325   2.151   3.486   2.085
  142SOL    HW2 1326   2.091   3.452   2.234
  143SOL     OW 1327   5.204   5.003   0.557
  143SOL    HW1 1328   5.254   4.965   0.635
  143SOL    HW2 1329   5.202   4.936   0.483
  144SOL     OW 1330   2.119   4.937   5.886
  144SOL    HW1 1331   2.111   4.856   5.943
  144SOL    HW2 1332   2.206   4.935   5.837
  145SOL     OW 1333   2.574   5.376   1.245
  145SOL    HW1 1334   2.569   5.470   1.211
  145SOL    HW2 1335   2.494   5.325   1.213
  146SOL     OW 1336   5.353   0.359   6.327
  146SOL    HW1 1337   5.435   0.306   6.349
  146SOL    HW2 1338   5.288   0.301   6.277
  147SOL     OW 1339   5.457   1.453   5.722
  147SOL    HW1 1340   5.483   1.363   5.688
  147SOL    HW2 1341   5.361   1.470   5.702
  148SOL     OW 1342   0.023   5.495   1.418
  148SOL    HW1 1343   0.010   5.425   1.488
  148SOL    HW2 1344   0.002   5.456   1.328
  149SOL     OW 1345   3.758   2.095   5.190
  149SOL    HW1 1346   3.774   2.087   5.288
  149SOL    HW2 1347   3.838   2.135   5.146
  150SOL     OW 1348   5.550   0.037   6.624
  150SOL    HW1 1349   5.593   7.020   6.541
  150SOL    HW2 1350   5.614   0.098   6.670
  151SOL     OW 1351   3.379   0.879   1.641
  151SOL    HW1 1352   3.417   0.951   1.699
  151SOL    HW2 1353   3.454   0.827   1.600
  152SOL     OW 1354   0.118   1.624   0.598
  152SOL    HW1 1355   0.155   1.541   0.556
  152SOL    HW2 1356   0.173   1.650   0.676
  153SOL     OW 1357   2.637   6.996   2.998
  153SOL    HW1 1358   2.596   6.925   2.941
  153SOL    HW2 1359   2.582   0.059   2.992
  154SOL     OW 1360   0.484   3.302   0.647
  154SOL    HW1 1361   0.572   3.346   0.663
  154SOL    HW2 1362   0.436   3.291   0.734
  155SOL     OW 1363   0.988   1.252   3.710
  155SOL    HW1 1364   0.999   1.153   3.696
  155SOL    HW2 1365   1.074   1.298   3.687
  156SOL     OW 1366   6.739   0.655   6.993
  156SOL    HW1 1367   6.709   0.591   0.044
  156SOL    HW2 1368   6.817   0.616   6.944
  157SOL     OW 1369   5.717   3.903   0.396
  157SOL    HW1 1370   5.759   3.980   0.348
  157SOL    HW2 1371   5.670   3.844   0.330
  158SOL     OW 1372   1.656   2.978   1.634
  158SOL    HW1 1373   1.732   2.965   1.571
  158SOL    HW2 1374   1.618   2.889   1.659
  159SOL     OW 1375   4.253   4.974   1.567
  159SOL    HW1 1376   4.171   4.968   1.509
  159SOL    HW2 1377   4.282   5.069   1.574
  160SOL     OW 1378   5.887   0.207   0.493
  160SOL    HW1 1379   5.792   0.178   0.484
  160SOL    HW2 1380   5.896   0.267   0.572
  161SOL     OW 1381   1.394   0.635   3.035
  161SOL    HW1 1382   1.460   0.684   2.978
  161SOL    HW2 1383   1.380   0.685   3.120
  162SOL     OW 1384   3.848   6.352   6.710
  162SOL    HW1 1385   3.774   6.351   6.778
  162SOL    HW2 1386   3.864   6.446   6.681
  163SOL     OW 1387   0.021   6.097   2.404
  163SOL    HW1 1388   7.019   6.005   2.374
  163SOL    HW2 1389   0.056   6.150   2.327
  164SOL     OW 1390   0.716   3.605   3.074
  164SOL    HW1 1391   0.693   3.509   3.061
  164SOL    HW2 1392   0.667   3.641   3.154
  165SOL     OW 1393   4.848   4.585   6.515
  165SOL    HW1 1394   4.767   4.589   6.456
  165SOL    HW2 1395   4.921   4.535   6.468
  166SOL     OW 1396   0.161   3.259   2.226
  166SOL    HW1 1397   0.158   3.159   2.234
  166SOL    HW2 1398   0.250   3.287   2.191
  167SOL     OW 1399   6.084   1.647   6.856
  167SOL    HW1 1400   6.135   1.624   6.773
  167SOL    HW2 1401   6.085   1.746   6.870
  168SOL     OW 1402   3.952   1.742   0.738
  168SOL    HW1 1403   3.965   1.673   0.810
  168SOL    HW2 1404   4.032   1.802   0.734
  169SOL     OW 1405   5.935   2.751   0.520
  169SOL    HW1 1406   5.937   2.658   0.483
  169SOL    HW2 1407   5.883   2.752   0.606
  170SOL     OW 1408   6.534   6.261   2.316
  170SOL    HW1 1409   6.595   6.196   2.361
  170SOL    HW2 1410   6.483   6.214   2.244
  171SOL     OW 1411   2.404   4.808   0.257
  171SOL    HW1 1412   2.358   4.859   0.185
  171SOL    HW2 1413   2.367   4.715   0.262
  172SOL     OW 1414   6.338   2.020   3.348
  172SOL    HW1 1415   6.351   1.984   3.440
  172SOL    HW2 1416   6.255   2.075   3.345
  173SOL     OW 1417   5.277   1.054   4.246
  173SOL    HW1 1418   5.351   1.006   4.198
  173SOL    HW2 1419   5.316   1.117   4.313
  174SOL     OW 1420   4.896   5.328   3.866
  174SOL    HW1 1421   4.860   5.235   3.854
  174SOL    HW2 1422   4.968   5.326   3.935
  175SOL     OW 1423   3.778   0.857   1.113
  175SOL    HW1 1424   3.768   0.776   1.171
  175SOL    HW2 1425   3.816   0.932   1.167
  176SOL     OW 1426   5.874   5.053   2.003
  176SOL    HW1 1427   5.928   4.970   1.991
  176SOL    HW2 1428   5.933   5.133   1.991
  177SOL     OW 1429   5.479   3.250   4.664
  177SOL    HW1 1430   5.399   3.224   4.718
  177SOL    HW2 1431   5.503   3.175   4.602
  178SOL     OW 1432   2.975   4.392   5.858
  178SOL    HW1 1433   2.941   4.412   5.766
  178SOL    HW2 1434   3.030   4.469   5.891
  179SOL     OW 1435   3.744   0.710   6.738
  179SOL    HW1 1436   3.784   0.710   6.830
  179SOL    HW2 1437   3.644   0.703   6.745
  180SOL     OW 1438   2.242   0.855   0.995
  180SOL    HW1 1439   2.211   0.878   1.087
  180SOL    HW2 1440   2.339   0.833   0.997
  181SOL     OW 1441   2.917   3.596   5.830
  181SOL    HW1 1442   2.864   3.645   5.898
  181SOL    HW2 1443   3.007   3.640   5.819
  182SOL     OW 1444   4.167   1.806   6.161
  182SOL    HW1 1445   4.264   1.793   6.178
  182SOL    HW2 1446   4.147   1.904   6.153
  183SOL     OW 1447   3.363   1.984   3.897
  183SOL    HW1 1448   3.430   2.052   3.925
  183SOL    HW2 1449   3.316   2.015   3.814
  184SOL     OW 1450   0.238   6.721   3.413
  184SOL    HW1 1451   0.191   6.634   3.428
  184SOL    HW2 1452   0.171   6.794   3.400
  185SOL     OW 1453   1.387   1.784   4.835
  185SOL    HW1 1454   1.358   1.737   4.752
  185SOL    HW2 1455   1.437   1.719   4.894
  186SOL     OW 1456   6.494   1.517   4.277
  186SOL    HW1 1457   6.588   1.481   4.281
  186SOL    HW2 1458   6.443   1.467   4.207
  187SOL     OW 1459   5.089   7.009   2.431
  187SOL    HW1 1460   5.141   0.074   2.438
  187SOL    HW2 1461   5.027   7.001   2.510
  188SOL     OW 1462   1.030   3.467   3.550
  188SOL    HW1 1463   1.026   3.367   3.562
  188SOL    HW2 1464   0.950   3.497   3.498
  189SOL     OW 1465   1.396   5.588   0.296
  189SOL    HW1 1466   1.389   5.569   0.198
  189SOL    HW2 1467   1.492   5.582   0.323
  190SOL     OW 1468   6.415   4.269   6.154
  190SOL    HW1 1469   6.381   4.201   6.219
  190SOL    HW2 1470   6.468   4.223   6.082
  191SOL     OW 1471   6.305   1.373   6.943
  191SOL    HW1 1472   6.207   1.364   6.955
  191SOL    HW2 1473   6.346   1.413   0.005
  192SOL     OW 1474   0.145   5.163   1.663
  192SOL    HW1 1475   0.124   5.107   1.583
  192SOL    HW2 1476   0.100   5.252   1.654
  193SOL     OW 1477   5.036   3.532   5.178
  193SOL    HW1 1478   5.069   3.449   5.134
  193SOL    HW2 1479   4.948   3.559   5.140
  194SOL     OW 1480   3.878   6.628   3.539
  194SOL    HW1 1481   3.886   6.723   3.567
  194SOL    HW2 1482   3.796   6.616   3.483
  195SOL     OW 1483   1.318   1.022   4.278
  195SOL    HW1 1484   1.257   1.077   4.222
  195SOL    HW2 1485   1.413   1.039   4.251
  196SOL     OW 1486   2.696   0.067   6.586
  196SOL    HW1 1487   2.722   6.990   6.594
  196SOL    HW2 1488   2.742   0.108   6.508
  197SOL     OW 1489   2.452   0.397   1.164
  197SOL    HW1 1490   2.363   0.434   1.136
  197SOL    HW2 1491   2.520   0.470   1.164
  198SOL     OW 1492   4.251   6.724   2.329
  198SOL    HW1 1493   4.189   6.801   2.311
  198SOL    HW2 1494   4.337   6.760   2.364
  199SOL     OW 1495   6.940   0.986   3.781
  199SOL    HW1 1496   6.935   1.062   3.715
  199SOL    HW2 1497   7.017   1.001   3.843
  200SOL     OW 1498   0.985   4.106   1.839
  200SOL    HW1 1499   1.074   4.138   1.807
  200SOL    HW2 1500   0.941   4.051   1.768
  201SOL     OW 1501   5.706   6.970   6.399
  201SOL    HW1 1502   5.632   6.942   6.337
  201SOL    HW2 1503   5.794   6.937   6.363
  202SOL     OW 1504   4.988   0.163   5.486
  202SOL    HW1 1505   4.944   0.248   5.457
  202SOL    HW2 1506   4.929   0.116   5.551
  203SOL     OW 1507   5.023   2.221   4.764
  203SOL    HW1 1508   5.035   2.234   4.862
  203SOL    HW2 1509   4.936   2.176   4.746
  204SOL     OW 1510   6.328   0.567   6.210
  204SOL    HW1 1511   6.327   0.628   6.289
  204SOL    HW2 1512   6.357   0.476   6.239
  205SOL     OW 1513   0.691   0.854   2.681
  205SOL    HW1 1514   0.630   0.812   2.749
  205SOL    HW2 1515   0.782   0.813   2.688
  206SOL     OW 1516   0.543   5.058   2.202
  206SOL    HW1 1517   0.536   5.137   2.140
  206SOL    HW2 1518   0.454   5.042   2.245
  207SOL     OW 1519   4.925   0.279   3.895
  207SOL    HW1 1520   4.901   0.368   3.932
  207SOL    HW2 1521   4.987   0.232   3.958
  208SOL     OW 1522   5.472   3.774   5.252
  208SOL    HW1 1523   5.550   3.788   5.314
  208SOL    HW2 1524   5.398   3.730   5.302
  209SOL     OW 1525   1.071   5.089   4.268
  209SOL    HW1 1526   1.142   5.141   4.220
  209SOL    HW2 1527   1.094   5.084   4.366
  210SOL     OW 1528   4.297   1.982   1.602
  210SOL    HW1 1529   4.384   1.982   1.553
  210SOL    HW2 1530   4.279   2.073   1.639
  211SOL     OW 1531   1.410   6.189   3.378
  211SOL    HW1 1532   1.486   6.203   3.314
  211SOL    HW2 1533   1.433   6.226   3.467
  212SOL     OW 1534   1.740   4.836   1.794
  212SOL    HW1 1535   1.768   4.789   1.710
  212SOL    HW2 1536   1.812   4.898   1.822
  213SOL     OW 1537   3.347   0.483   5.879
  213SOL    HW1 1538   3.259   0.462   5.838
  213SOL    HW2 1539   3.412   0.509   5.809
  214SOL     OW 1540   3.923   5.464   1.779
  214SOL    HW1 1541   3.856   5.462   1.854
  214SOL    HW2 1542   3.933   5.558   1.746
  215SOL     OW 1543   2.745   3.905   1.638
  215SOL    HW1 1544   2.646   3.893   1.625
  215SOL    HW2 1545   2.770   3.999   1.617
  216SOL     OW 1546   1.559   5.957   4.848
  216SOL    HW1 1547   1.487   5.925   4.787
  216SOL    HW2 1548   1.552   5.910   4.936
  217SOL     OW 1549   2.309   2.813   3.615
  217SOL    HW1 1550   2.235   2.827   3.549
  217SOL    HW2 1551   2.397   2.825   3.570
  218SOL     OW 1552   0.908   3.043   4.477
  218SOL    HW1 1553   0.878   3.063   4.570
  218SOL    HW2 1554   0.945   3.127   4.436
  219SOL     OW 1555   3.685   6.221   5.967
  219SOL    HW1 1556   3.596   6.178   5.951
  219SOL    HW2 1557   3.757   6.163   5.929
  220SOL     OW 1558   3.548   6.419   0.113
  220SOL    HW1 1559   3.516   6.510   0.139
  220SOL    HW2 1560   3.616   6.387   0.179
  221SOL     OW 1561   6.603   4.006   2.838
  221SOL    HW1 1562   6.538   3.932   2.855
  221SOL    HW2 1563   6.573   4.059   2.759
  222SOL     OW 1564   2.430   4.875   5.548
  222SOL    HW1 1565   2.493   4.810   5.506
  222SOL    HW2 1566   2.360   4.902   5.482
  223SOL     OW 1567   5.548   3.393   0.831
  223SOL    HW1 1568   5.580   3.298   0.839
  223SOL    HW2 1569   5.497   3.402   0.745
  224SOL     OW 1570   2.939   1.838   4.144
  224SOL    HW1 1571   2.988   1.877   4.066
  224SOL    HW2 1572   2.886   1.910   4.189
  225SOL     OW 1573   5.659   1.951   5.525
  225SOL    HW1 1574   5.735   1.980   5.584
  225SOL    HW2 1575   5.621   2.030   5.478
  226SOL     OW 1576   1.595   0.357   6.151
  226SOL    HW1 1577   1.631   0.422   6.084
  226SOL    HW2 1578   1.545   0.406   6.222
  227SOL     OW 1579   1.608   3.865   2.308
  227SOL    HW1 1580   1.683   3.879   2.244
  227SOL    HW2 1581   1.535   3.813   2.263
  228SOL     OW 1582   3.220   6.327   4.176
  228SOL    HW1 1583   3.122   6.322   4.159
  228SOL    HW2 1584   3.256   6.234   4.188
  229SOL     OW 1585   5.245   6.254   0.245
  229SOL    HW1 1586   5.251   6.338   0.299
  229SOL    HW2 1587   5.201   6.183   0.299
  230SOL     OW 1588   2.561   4.811   2.812
  230SOL    HW1 1589   2.532   4.716   2.800
  230SOL    HW2 1590   2.480   4.870   2.822
  231SOL     OW 1591   6.456   1.919   6.707
  231SOL    HW1 1592   6.424   1.879   6.621
  231SOL    HW2 1593   6.477   1.847   6.772
  232SOL     OW 1594   1.291   3.893   6.167
  232SOL    HW1 1595   1.201   3.892   6.125
  232SOL    HW2 1596   1.304   3.979   6.216
  233SOL     OW 1597   2.322   1.387   4.455
  233SOL    HW1 1598   2.412   1.424   4.481
  233SOL    HW2 1599   2.314   1.387   4.356
  234SOL     OW 1600   3.478   6.023   5.446
  234SOL    HW1 1601   3.574   6.020   5.476
  234SOL    HW2 1602   3.444   6.116   5.456
  235SOL     OW 1603   3.072   3.195   1.922
  235SOL    HW1 1604   3.082   3.140   1.840
  235SOL    HW2 1605   3.162   3.226   1.953
  236SOL     OW 1606   5.794   2.840   6.140
  236SOL    HW1 1607   5.843   2.924   6.161
  236SOL    HW2 1608   5.707   2.862   6.096
  237SOL     OW 1609   6.242   5.970   1.582
  237SOL    HW1 1610   6.266   5.896   1.519
  237SOL    HW2 1611   6.268   6.058   1.543
  238SOL     OW 1612   6.128   2.143   0.624
  238SOL    HW1 1613   6.134   2.225   0.567
  238SOL    HW2 1614   6.219   2.119   0.658
  239SOL     OW 1615   0.281   5.676   6.599
  239SOL    HW1 1616   0.195   5.685   6.548
  239SOL    HW2 1617   0.333   5.761   6.592
  240SOL     OW 1618   0.050   2.527   5.709
  240SOL    HW1 1619   0.064   2.446   5.653
  240SOL    HW2 1620   7.014   2.505   5.789
  241SOL     OW 1621   1.856   6.665   4.448
  241SOL    HW1 1622   1.945   6.700   4.476
  241SOL    HW2 1623   1.835   6.697   4.355
  242SOL     OW 1624   2.603   3.022   6.297
  242SOL    HW1 1625   2.600   2.993   6.202
  242SOL    HW2 1626   2.518   3.069   6.320
  243SOL     OW 1627   5.151   0.426   5.996
  243SOL    HW1 1628   5.098   0.429   6.081
  243SOL    HW2 1629   5.109   0.362   5.932
  244SOL     OW 1630   5.113   2.659   4.829
  244SOL    HW1 1631   5.079   2.741   4.875
  244SOL    HW2 1632   5.209   2.672   4.805
  245SOL     OW 1633   6.910   2.486   5.389
  245SOL    HW1 1634   6.958   2.567   5.421
  245SOL    HW2 1635   6.821   2.512   5.352
  246SOL     OW 1636   4.897   2.783   2.404
  246SOL    HW1 1637   4.859   2.824   2.321
  246SOL    HW2 1638   4.880   2.843   2.482
  247SOL     OW 1639   2.903   1.174   1.974
  247SOL    HW1 1640   2.984   1.128   2.011
  247SOL    HW2 1641   2.824   1.114   1.983
  248SOL     OW 1642   4.520   2.236   4.591
  248SOL    HW1 1643   4.512   2.147   4.548
  248SOL    HW2 1644   4.429   2.277   4.600
  249SOL     OW 1645   5.238   7.010   5.904
  249SOL    HW1 1646   5.148   6.967   5.903
  249SOL    HW2 1647   5.234   0.079   5.858
  250SOL     OW 1648   4.963   1.777   6.536
  250SOL    HW1 1649   4.880   1.832   6.533
  250SOL    HW2 1650   4.967   1.727   6.623
  251SOL     OW 1651   4.268   4.751   6.599
  251SOL    HW1 1652   4.353   4.779   6.644
  251SOL    HW2 1653   4.205   4.829   6.594
  252SOL     OW 1654   6.366   0.351   6.417
  252SOL    HW1 1655   6.304   0.420   6.456
  252SOL    HW2 1656   6.349   0.263   6.460
  253SOL     OW 1657   1.686   4.330   0.039
  253SOL    HW1 1658   1.720   4.380   0.119
  253SOL    HW2 1659   1.754   4.334   6.986
  254SOL     OW 1660   5.424   3.476   3.514
  254SOL    HW1 1661   5.459   3.435   3.429
  254SOL    HW2 1662   5.491   3.540   3.550
  255SOL     OW 1663   1.535   3.174   4.256
  255SOL    HW1 1664   1.481   3.251   4.290
  255SOL    HW2 1665   1.586   3.133   4.331
  256SOL     OW 1666   6.177   4.250   6.580
  256SOL    HW1 1667   6.230   4.279   6.659
  256SOL    HW2 1668   6.087   4.218   6.610
  257SOL     OW 1669   4.149   6.367   4.288
  257SOL    HW1 1670   4.065   6.352   4.341
  257SOL    HW2 1671   4.227   6.375   4.350
  258SOL     OW 1672   5.867   5.047   4.947
  258SOL    HW1 1673   5.839   4.978   4.880
  258SOL    HW2 1674   5.807   5.042   5.027
  259SOL     OW 1675   1.884   3.006   2.339
  259SOL    HW1 1676   1.869   3.081   2.274
  259SOL    HW2 1677   1.982   2.986   2.345
  260SOL     OW 1678   4.412   0.953   1.358
  260SOL    HW1 1679   4.356   1.007   1.295
  260SOL    HW2 1680   4.370   0.954   1.448
  261SOL     OW 1681   6.439   3.790   1.264
  261SOL    HW1 1682   6.361   3.776   1.204
  261SOL    HW2 1683   6.474   3.883   1.253
  262SOL     OW 1684   0.516   3.749   1.516
  262SOL    HW1 1685   0.486   3.782   1.606
  262SOL    HW2 1686   0.547   3.826   1.461
  263SOL     OW 1687   0.332   1.715   3.643
  263SOL    HW1 1688   0.352   1.636   3.586
  263SOL    HW2 1689   0.233   1.734   3.641
  264SOL     OW 1690   5.224   3.671   5.322
  264SOL    HW1 1691   5.164   3.620   5.262
  264SOL    HW2 1692   5.175   3.693   5.407
  265SOL     OW 1693   4.203   4.681   3.083
  265SOL    HW1 1694   4.283   4.620   3.077
  265SOL    HW2 1695   4.162   4.692   2.993
  266SOL     OW 1696   3.655   3.622   5.715
  266SOL    HW1 1697   3.668   3.691   5.645
  266SOL    HW2 1698   3.599   3.547   5.679
  267SOL     OW 1699   6.005   2.607   5.892
  267SOL    HW1 1700   6.084   2.549   5.871
  267SOL    HW2 1701   6.023   2.657   5.977
  268SOL     OW 1702   4.862   6.477   5.344
  268SOL    HW1 1703   4.771   6.465   5.383
  268SOL    HW2 1704   4.881   6.404   5.279
  269SOL     OW 1705   1.906   2.718   0.758
  269SOL    HW1 1706   1.954   2.801   0.730
  269SOL    HW2 1707   1.838   2.740   0.827
  270SOL     OW 1708   6.461   0.041   1.851
  270SOL    HW1 1709   6.537   0.016   1.911
  270SOL    HW2 1710   6.393   0.092   1.902
  271SOL     OW 1711   2.814   2.681   0.815
  271SOL    HW1 1712   2.771   2.603   0.770
  271SOL    HW2 1713   2.745   2.736   0.860
  272SOL     OW 1714   3.385   5.314   4.024
  272SOL    HW1 1715   3.316   5.315   4.097
  272SOL    HW2 1716   3.413   5.219   4.007
  273SOL     OW 1717   1.937   5.347   5.226
  273SOL    HW1 1718   1.962   5.262   5.179
  273SOL    HW2 1719   1.982   5.424   5.181
  274SOL     OW 1720   4.647   2.183   3.770
  274SOL    HW1 1721   4.719   2.127   3.728
  274SOL    HW2 1722   4.606   2.242   3.700
  275SOL     OW 1723   6.338   6.024   6.529
  275SOL    HW1 1724   6.376   5.970   6.604
  275SOL    HW2 1725   6.272   6.089   6.566
  276SOL     OW 1726   0.193   5.520   3.295
  276SOL    HW1 1727   0.212   5.560   3.385
  276SOL    HW2 1728   0.154   5.590   3.235
  277SOL     OW 1729   2.669   2.324   0.424
  277SOL    HW1 1730   2.685   2.348   0.328
  277SOL    HW2 1731   2.703   2.231   0.441
  278SOL     OW 1732   6.858   3.786   1.684
  278SOL    HW1 1733   6.951   3.780   1.722
  278SOL    HW2 1734   6.828   3.696   1.654
  279SOL     OW 1735   6.600   2.677   4.527
  279SOL    HW1 1736   6.628   2.755   4.472
  279SOL    HW2 1737   6.626   2.692   4.623
  280SOL     OW 1738   3.533   6.811   2.701
  280SOL    HW1 1739   3.447   6.799   2.749
  280SOL    HW2 1740   3.516   6.822   2.603
  281SOL     OW 1741   3.082   4.867   2.367
  281SOL    HW1 1742   2.997   4.858   2.315
  281SOL    HW2 1743   3.156   4.894   2.305
  282SOL     OW 1744   4.117   2.265   5.394
  282SOL    HW1 1745   4.086   2.173   5.415
  282SOL    HW2 1746   4.044   2.316   5.348
  283SOL     OW 1747   6.579   1.224   5.704
  283SOL    HW1 1748   6.641   1.299   5.681
  283SOL    HW2 1749   6.632   1.139   5.709
  284SOL     OW 1750   0.439   4.252   4.984
  284SOL    HW1 1751   0.369   4.316   5.017
  284SOL    HW2 1752   0.503   4.301   4.925
  285SOL     OW 1753   5.493   5.520   6.715
  285SOL    HW1 1754   5.410   5.465   6.703
  285SOL    HW2 1755   5.568   5.477   6.665
  286SOL     OW 1756   3.494   4.818   5.210
  286SOL    HW1 1757   3.514   4.871   5.128
  286SOL    HW2 1758   3.396   4.802   5.217
  287SOL     OW 1759   0.569   5.110   6.658
  287SOL    HW1 1760   0.498   5.055   6.616
  287SOL    HW2 1761   0.570   5.201   6.617
  288SOL     OW 1762   4.128   1.526   0.543
  288SOL    HW1 1763   4.163   1.619   0.556
  288SOL    HW2 1764   4.043   1.529   0.490
  289SOL     OW 1765   0.652   5.332   4.745
  289SOL    HW1 1766   0.687   5.267   4.678
  289SOL    HW2 1767   0.596   5.284   4.812
  290SOL     OW 1768   5.045   2.150   3.811
  290SOL    HW1 1769   5.019   2.233   3.862
  290SOL    HW2 1770   5.091   2.177   3.726
  291SOL     OW 1771   3.890   0.815   4.253
  291SOL    HW1 1772   3.964   0.800   4.319
  291SOL    HW2 1773   3.924   0.797   4.160
  292SOL     OW 1774   4.230   1.919   3.238
  292SOL    HW1 1775   4.181   1.944   3.154
  292SOL    HW2 1776   4.165   1.915   3.314
  293SOL     OW 1777   4.311   5.754   2.125
  293SOL    HW1 1778   4.293   5.837   2.176
  293SOL    HW2 1779   4.247   5.746   2.049
  294SOL     OW 1780   6.780   5.375   6.680
  294SOL    HW1 1781   6.746   5.433   6.754
  294SOL    HW2 1782   6.767   5.279   6.703
  295SOL     OW 1783   3.193   1.700   4.893
  295SOL    HW1 1784   3.117   1.734   4.838
  295SOL    HW2 1785   3.278   1.741   4.860
  296SOL     OW 1786   6.449   2.094   2.287
  296SOL    HW1 1787   6.408   2.173   2.332
  296SOL    HW2 1788   6.494   2.123   2.203
  297SOL     OW 1789   2.855   4.724   2.762
  297SOL    HW1 1790   2.821   4.713   2.669
  297SOL    HW2 1791   2.796   4.674   2.826
  298SOL     OW 1792   4.199   0.071   0.273
  298SOL    HW1 1793   4.124   0.062   0.207
  298SOL    HW2 1794   4.172   0.027   0.359
  299SOL     OW 1795   5.086   2.144   6.681
  299SOL    HW1 1796   5.057   2.057   6.720
  299SOL    HW2 1797   5.120   2.203   6.754
  300SOL     OW 1798   4.456   0.878   1.908
  300SOL    HW1 1799   4.541   0.842   1.945
  300SOL    HW2 1800   4.459   0.978   1.909
  301SOL     OW 1801   5.030   2.185   0.429
  301SOL    HW1 1802   5.065   2.195   0.335
  301SOL    HW2 1803   5.105   2.200   0.494
  302SOL     OW 1804   6.758   0.822   3.266
  302SOL    HW1 1805   6.710   0.809   3.353
  302SOL    HW2 1806   6.697   0.796   3.191
  303SOL     OW 1807   5.896   6.577   2.505
  303SOL    HW1 1808   5.859   6.601   2.595
  303SOL    HW2 1809   5.923   6.660   2.457
  304SOL     OW 1810   1.806   6.338   5.923
  304SOL    HW1 1811   1.899   6.314   5.952
  304SOL    HW2 1812   1.740   6.286   5.977
  305SOL     OW 1813   1.669   2.560   0.269
  305SOL    HW1 1814   1.726   2.640   0.248
  305SOL    HW2 1815   1.655   2.507   0.185
  306SOL     OW 1816   1.218   1.047   3.382
  306SOL    HW1 1817   1.288   0.995   3.431
  306SOL    HW2 1818   1.229   1.034   3.284
  307SOL     OW 1819   4.595   4.625   0.657
  307SOL    HW1 1820   4.676   4.681   0.641
  307SOL    HW2 1821   4.573   4.573   0.575
  308SOL     OW 1822   6.122   3.794   4.937
  308SOL    HW1 1823   6.184   3.762   5.009
  308SOL    HW2 1824   6.042   3.733   4.932
  309SOL     OW 1825   1.901   6.119   0.428
  309SOL    HW1 1826   1.873   6.058   0.502
  309SOL    HW2 1827   1.999   6.108   0.411
  310SOL     OW 1828   5.152   6.018   5.675
  310SOL    HW1 1829   5.192   5.976   5.756
  310SOL    HW2 1830   5.053   6.002   5.675
  311SOL     OW 1831   3.444   5.060   3.002
  311SOL    HW1 1832   3.347   5.080   2.987
  311SOL    HW2 1833   3.478   5.003   2.927
  312SOL     OW 1834   4.582   1.225   4.214
  312SOL    HW1 1835   4.489   1.244   4.247
  312SOL    HW2 1836   4.580   1.143   4.156
  313SOL     OW 1837   3.285   3.318   2.012
  313SOL    HW1 1838   3.317   3.412   2.020
  313SOL    HW2 1839   3.285   3.275   2.102
  314SOL     OW 1840   3.040   4.802   0.085
  314SOL    HW1 1841   3.011   4.862   0.160
  314SOL    HW2 1842   2.993   4.830   0.001
  315SOL     OW 1843   1.133   3.243   3.927
  315SOL    HW1 1844   1.115   3.340   3.942
  315SOL    HW2 1845   1.049   3.190   3.942
  316SOL     OW 1846   3.119   0.880   4.898
  316SOL    HW1 1847   3.037   0.837   4.858
  316SOL    HW2 1848   3.132   0.971   4.858
  317SOL     OW 1849   0.592   1.686   1.329
  317SOL    HW1 1850   0.566   1.591   1.345
  317SOL    HW2 1851   0.647   1.692   1.245
  318SOL     OW 1852   0.261   5.939   0.398
  318SOL    HW1 1853   0.169   5.975   0.388
  318SOL    HW2 1854   0.301   5.922   0.308
  319SOL     OW 1855   6.256   1.428   3.850
  319SOL    HW1 1856   6.251   1.339   3.804
  319SOL    HW2 1857   6.341   1.432   3.903
  320SOL     OW 1858   5.562   2.422   6.934
  320SOL    HW1 1859   5.624   2.383   6.866
  320SOL    HW2 1860   5.584   2.518   6.949
  321SOL     OW 1861   3.367   1.563   6.128
  321SOL    HW1 1862   3.412   1.543   6.215
  321SOL    HW2 1863   3.435   1.569   6.055
  322SOL     OW 1864   3.343   3.626   3.450
  322SOL    HW1 1865   3.429   3.582   3.426
  322SOL    HW2 1866   3.327   3.618   3.549
  323SOL     OW 1867   1.624   3.105   6.145
  323SOL    HW1 1868   1.535   3.128   6.107
  323SOL    HW2 1869   1.692   3.100   6.072
  324SOL     OW 1870   3.156   0.860   3.122
  324SOL    HW1 1871   3.199   0.791   3.062
  324SOL    HW2 1872   3.062   0.833   3.140
  325SOL     OW 1873   0.371   2.702   2.397
  325SOL    HW1 1874   0.348   2.657   2.483
  325SOL    HW2 1875   0.350   2.800   2.404
  326SOL     OW 1876   1.422   5.106   6.480
  326SOL    HW1 1877   1.415   5.087   6.578
  326SOL    HW2 1878   1.398   5.201   6.463
  327SOL     OW 1879   1.719   4.546   2.118
  327SOL    HW1 1880   1.802   4.499   2.086
  327SOL    HW2 1881   1.646   4.479   2.130
  328SOL     OW 1882   1.245   5.944   1.824
  328SOL    HW1 1883   1.183   6.007   1.871
  328SOL    HW2 1884   1.192   5.887   1.760
  329SOL     OW 1885   2.969   3.173   4.319
  329SOL    HW1 1886   2.940   3.182   4.224
  329SOL    HW2 1887   3.050   3.113   4.323
  330SOL     OW 1888   3.433   6.308   1.324
  330SOL    HW1 1889   3.396   6.243   1.390
  330SOL    HW2 1890   3.468   6.258   1.244
  331SOL     OW 1891   4.045   5.814   0.565
  331SOL    HW1 1892   3.973   5.884   0.569
  331SOL    HW2 1893   4.048   5.774   0.474
  332SOL     OW 1894   5.000   1.879   5.637
  332SOL    HW1 1895   5.000   1.849   5.542
  332SOL    HW2 1896   4.906   1.882   5.671
  333SOL     OW 1897   4.152   0.363   6.057
  333SOL    HW1 1898   4.205   0.281   6.079
  333SOL    HW2 1899   4.193   0.408   5.978
  334SOL     OW 1900   3.424   1.096   0.385
  334SOL    HW1 1901   3.495   1.028   0.371
  334SOL    HW2 1902   3.355   1.061   0.449
  335SOL     OW 1903   4.473   6.483   5.887
  335SOL    HW1 1904   4.424   6.556   5.934
  335SOL    HW2 1905   4.522   6.427   5.954
  336SOL     OW 1906   2.970   0.905   3.428
  336SOL    HW1 1907   2.957   0.830   3.362
  336SOL    HW2 1908   2.959   0.993   3.381
  337SOL     OW 1909   0.314   2.827   6.347
  337SOL    HW1 1910   0.324   2.924   6.324
  337SOL    HW2 1911   0.333   2.771   6.267
  338SOL     OW 1912   2.836   2.585   1.366
  338SOL    HW1 1913   2.812   2.506   1.423
  338SOL    HW2 1914   2.796   2.573   1.275
  339SOL     OW 1915   4.687   5.833   4.787
  339SOL    HW1 1916   4.738   5.890   4.722
  339SOL    HW2 1917   4.599   5.876   4.807
  340SOL     OW 1918   4.836   4.007   4.929
  340SOL    HW1 1919   4.849   3.941   4.855
  340SOL    HW2 1920   4.784   4.085   4.894
  341SOL     OW 1921   6.361   6.709   4.287
  341SOL    HW1 1922   6.379   6.650   4.366
  341SOL    HW2 1923   6.336   6.800   4.319
  342SOL     OW 1924   5.550   3.819   0.596
  342SOL    HW1 1925   5.599   3.871   0.525
  342SOL    HW2 1926   5.487   3.880   0.644
  343SOL     OW 1927   1.492   5.992   1.499
  343SOL    HW1 1928   1.411   6.003   1.441
  343SOL    HW2 1929   1.565   6.053   1.467
  344SOL     OW 1930   1.153   3.115   1.995
  344SOL    HW1 1931   1.164   3.201   2.046
  344SOL    HW2 1932   1.159   3.038   2.058
  345SOL     OW 1933   4.681   2.047   4.034
  345SOL    HW1 1934   4.678   1.953   3.998
  345SOL    HW2 1935   4.654   2.110   3.961
  346SOL     OW 1936   2.021   1.106   3.344
  346SOL    HW1 1937   2.114   1.129   3.317
  346SOL    HW2 1938   1.968   1.082   3.263
  347SOL     OW 1939   2.572   5.469   6.690
  347SOL    HW1 1940   2.495   5.406   6.704
  347SOL    HW2 1941   2.647   5.421   6.646
  348SOL     OW 1942   4.804   4.231   2.303
  348SOL    HW1 1943   4.772   4.219   2.210
  348SOL    HW2 1944   4.780   4.151   2.358
  349SOL     OW 1945   6.856   5.270   1.345
  349SOL    HW1 1946   6.854   5.193   1.410
  349SOL    HW2 1947   6.767   5.278   1.301
  350SOL     OW 1948   3.025   3.040   1.092
  350SOL    HW1 1949   3.052   3.091   1.174
  350SOL    HW2 1950   3.041   2.942   1.107
  351SOL     OW 1951   2.329   4.018   0.935
  351SOL    HW1 1952   2.340   4.106   0.982
  351SOL    HW2 1953   2.372   3.946   0.990
  352SOL     OW 1954   3.181   6.872   4.236
  352SOL    HW1 1955   3.229   6.917   4.160
  352SOL    HW2 1956   3.207   6.775   4.237
  353SOL     OW 1957   2.891   0.274   0.361
  353SOL    HW1 1958   2.895   0.234   0.453
  353SOL    HW2 1959   2.807   0.245   0.316
  354SOL     OW 1960   3.982   2.796   0.722
  354SOL    HW1 1961   3.884   2.776   0.718
  354SOL    HW2 1962   4.020   2.796   0.629
  355SOL     OW 1963   1.240   3.550   2.683
  355SOL    HW1 1964   1.303   3.486   2.638
  355SOL    HW2 1965   1.266   3.560   2.779
  356SOL     OW 1966   2.396   6.898   6.003
  356SOL    HW1 1967   2.345   6.955   5.938
  356SOL    HW2 1968   2.493   6.902   5.980
  357SOL     OW 1969   0.063   5.754   5.440
  357SOL    HW1 1970   7.005   5.764   5.379
  357SOL    HW2 1971   0.035   5.706   5.524
  358SOL     OW 1972   4.591   6.235   0.791
  358SOL    HW1 1973   4.514   6.293   0.766
  358SOL    HW2 1974   4.660   6.289   0.840
  359SOL     OW 1975   2.912   2.208   1.725
  359SOL    HW1 1976   3.000   2.189   1.680
  359SOL    HW2 1977   2.926   2.274   1.798
  360SOL     OW 1978   1.282   4.838   6.283
  360SOL    HW1 1979   1.369   4.885   6.268
  360SOL    HW2 1980   1.297   4.739   6.283
  361SOL     OW 1981   6.282   0.042   2.600
  361SOL    HW1 1982   6.270   6.963   2.597
  361SOL    HW2 1983   6.366   0.067   2.553
  362SOL     OW 1984   3.810   3.132   1.124
  362SOL    HW1 1985   3.818   3.220   1.077
  362SOL    HW2 1986   3.839   3.058   1.063
  363SOL     OW 1987   5.460   4.002   3.057
  363SOL    HW1 1988   5.461   3.966   2.964
  363SOL    HW2 1989   5.548   3.987   3.100
  364SOL     OW 1990   6.235   5.134   6.977
  364SOL    HW1 1991   6.300   5.144   6.901
  364SOL    HW2 1992   6.152   5.187   6.957
  365SOL     OW 1993   5.649   6.586   1.474
  365SOL    HW1 1994   5.736   6.543   1.452
  365SOL    HW2 1995   5.604   6.536   1.547
  366SOL     OW 1996   5.652   0.329   6.360
  366SOL    HW1 1997   5.688   0.261   6.296
  366SOL    HW2 1998   5.728   0.373   6.408
  367SOL     OW 1999   5.334   2.908   1.604
  367SOL    HW1 2000   5.331   3.007   1.617
  367SOL    HW2 2001   5.241   2.874   1.591
  368SOL     OW 2002   0.642   2.788   5.295
  368SOL    HW1 2003   0.633   2.717   5.225
  368SOL    HW2 2004   0.693   2.751   5.373
  369SOL     OW 2005   6.148   5.188   2.009
  369SOL    HW1 2006   6.185   5.095   2.009
  369SOL    HW2 2007   6.170   5.233   2.095
  370SOL     OW 2008   2.251   1.252   5.108
  370SOL    HW1 2009   2.200   1.290   5.185
  370SOL    HW2 2010   2.187   1.211   5.043
  371SOL     OW 2011   2.088   4.266   5.860
  371SOL    HW1 2012   1.994   4.280   5.830
  371SOL    HW2 2013   2.124   4.183   5.818
  372SOL     OW 2014   0.827   6.847   6.662
  372SOL    HW1 2015   0.803   6.923   6.601
  372SOL    HW2 2016   0.849   6.766   6.607
  373SOL     OW 2017   5.860   6.004   4.378
  373SOL    HW1 2018   5.840   6.032   4.284
  373SOL    HW2 2019   5.933   6.062   4.415
  374SOL     OW 2020   3.035   1.966   3.915
  374SOL    HW1 2021   3.021   2.021   3.997
  374SOL    HW2 2022   3.102   2.012   3.856
  375SOL     OW 2023   1.211   4.776   3.956
  375SOL    HW1 2024   1.282   4.716   3.993
  375SOL    HW2 2025   1.143   4.721   3.908
  376SOL     OW 2026   2.477   0.778   5.137
  376SOL    HW1 2027   2.502   0.733   5.051
  376SOL    HW2 2028   2.470   0.876   5.123
  377SOL     OW 2029   1.066   2.183   0.910
  377SOL    HW1 2030   1.053   2.084   0.906
  377SOL    HW2 2031   1.010   2.222   0.983
  378SOL     OW 2032   4.894   2.648   6.260
  378SOL    HW1 2033   4.987   2.687   6.264
  378SOL    HW2 2034   4.900   2.548   6.267
  379SOL     OW 2035   5.917   2.984   1.248
  379SOL    HW1 2036   5.926   2.889   1.277
  379SOL    HW2 2037   5.922   2.989   1.148
  380SOL     OW 2038   2.318   1.353   0.817
  380SOL    HW1 2039   2.340   1.397   0.730
  380SOL    HW2 2040   2.285   1.260   0.799
  381SOL     OW 2041   0.973   3.823   2.641
  381SOL    HW1 2042   1.067   3.844   2.667
  381SOL    HW2 2043   0.919   3.802   2.722
  382SOL     OW 2044   5.666   0.278   6.724
  382SOL    HW1 2045   5.610   0.328   6.657
  382SOL    HW2 2046   5.762   0.304   6.712
  383SOL     OW 2047   3.908   3.871   6.358
  383SOL    HW1 2048   3.808   3.869   6.356
  383SOL    HW2 2049   3.943   3.778   6.369
  384SOL     OW 2050   0.194   5.601   3.809
  384SOL    HW1 2051   0.247   5.519   3.829
  384SOL    HW2 2052   0.154   5.637   3.894
  385SOL     OW 2053   3.154   4.673   5.512
  385SOL    HW1 2054   3.137   4.707   5.420
  385SOL    HW2 2055   3.120   4.739   5.579
  386SOL     OW 2056   2.536   0.110   5.388
  386SOL    HW1 2057   2.580   0.198   5.410
  386SOL    HW2 2058   2.451   0.127   5.339
  387SOL     OW 2059   1.425   6.601   2.709
  387SOL    HW1 2060   1.348   6.664   2.707
  387SOL    HW2 2061   1.407   6.524   2.647
  388SOL     OW 2062   1.576   1.617   4.958
  388SOL    HW1 2063   1.643   1.671   5.009
  388SOL    HW2 2064   1.624   1.553   4.898
  389SOL     OW 2065   4.141   4.041   1.413
  389SOL    HW1 2066   4.126   4.040   1.314
  389SOL    HW2 2067   4.233   4.006   1.433
  390SOL     OW 2068   3.339   1.424   0.873
  390SOL    HW1 2069   3.388   1.490   0.816
  390SOL    HW2 2070   3.404   1.377   0.933
  391SOL     OW 2071   2.126   3.172   6.730
  391SOL    HW1 2072   2.058   3.178   6.804
  391SOL    HW2 2073   2.208   3.127   6.764
  392SOL     OW 2074   1.256   4.413   0.855
  392SOL    HW1 2075   1.290   4.320   0.867
  392SOL    HW2 2076   1.175   4.412   0.795
  393SOL     OW 2077   1.576   4.252   6.535
  393SOL    HW1 2078   1.560   4.181   6.603
  393SOL    HW2 2079   1.511   4.326   6.547
  394SOL     OW 2080   6.959   2.047   0.558
  394SOL    HW1 2081   0.034   2.079   0.567
  394SOL    HW2 2082   6.906   2.115   0.507
  395SOL     OW 2083   5.243   4.072   3.269
  395SOL    HW1 2084   5.301   4.065   3.188
  395SOL    HW2 2085   5.155   4.027   3.251
  396SOL     OW 2086   3.091   3.588   1.404
  396SOL    HW1 2087   3.028   3.656   1.442
  396SOL    HW2 2088   3.159   3.563   1.473
  397SOL     OW 2089   6.019   1.256   5.573
  397SOL    HW1 2090   6.055   1.229   5.662
  397SOL    HW2 2091   5.990   1.174   5.522
  398SOL     OW 2092   1.471   0.171   2.726
  398SOL    HW1 2093   1.443   0.267   2.729
  398SOL    HW2 2094   1.415   0.117   2.789
  399SOL     OW 2095   5.731   5.973   2.356
  399SOL    HW1 2096   5.763   5.880   2.375
  399SOL    HW2 2097   5.651   5.992   2.413
  400SOL     OW 2098   6.792   6.313   5.275
  400SOL    HW1 2099   6.808   6.310   5.373
  400SOL    HW2 2100   6.798   6.408   5.243
  401SOL     OW 2101   5.912   0.129   6.437
  401SOL    HW1 2102   5.833   0.081   6.400
  401SOL    HW2 2103   5.893   0.159   6.530
  402SOL     OW 2104   6.267   0.277   3.638
  402SOL    HW1 2105   6.311   0.197   3.596
  402SOL    HW2 2106   6.200   0.315   3.575
  403SOL     OW 2107   3.954   1.956   4.565
  403SOL    HW1 2108   3.882   1.974   4.498
  403SOL    HW2 2109   3.945   2.019   4.642
  404SOL     OW 2110   1.914   5.142   3.885
  404SOL    HW1 2111   1.937   5.126   3.981
  404SOL    HW2 2112   1.997   5.136   3.829
  405SOL     OW 2113   2.161   3.164   2.531
  405SOL    HW1 2114   2.170   3.094   2.460
  405SOL    HW2 2115   2.236   3.155   2.597
  406SOL     OW 2116   1.102   4.359   4.521
  406SOL    HW1 2117   1.089   4.287   4.453
  406SOL    HW2 2118   1.196   4.355   4.556
  407SOL     OW 2119   1.084   1.157   4.975
  407SOL    HW1 2120   1.047   1.066   4.955
  407SOL    HW2 2121   1.150   1.182   4.904
  408SOL     OW 2122   1.273   2.276   2.884
  408SOL    HW1 2123   1.365   2.266   2.846
  408SOL    HW2 2124   1.224   2.348   2.834
  409SOL     OW 2125   6.740   2.916   2.421
  409SOL    HW1 2126   6.820   2.859   2.441
  409SOL    HW2 2127   6.717   2.969   2.503
  410SOL     OW 2128   1.771   1.743   0.896
  410SOL    HW1 2129   1.738   1.708   0.984
  410SOL    HW2 2130   1.840   1.813   0.913
  411SOL     OW 2131   6.552   0.722   1.737
  411SOL    HW1 2132   6.514   0.658   1.804
  411SOL    HW2 2133   6.624   0.677   1.685
  412SOL     OW 2134   2.802   5.899   3.444
  412SOL    HW1 2135   2.888   5.922   3.399
  412SOL    HW2 2136   2.806   5.806   3.480
  413SOL     OW 2137   5.610   4.011   1.543
  413SOL    HW1 2138   5.650   4.046   1.627
  413SOL    HW2 2139   5.582   4.087   1.484
  414SOL     OW 2140   3.083   5.159   3.272
  414SOL    HW1 2141   3.005   5.220   3.256
  414SOL    HW2 2142   3.145   5.201   3.338
  415SOL     OW 2143   0.708   6.238   6.954
  415SOL    HW1 2144   0.722   6.309   0.003
  415SOL    HW2 2145   0.733   6.149   6.993
  416SOL     OW 2146   4.662   6.545   4.909
  416SOL    HW1 2147   4.645   6.591   4.996
  416SOL    HW2 2148   4.574   6.523   4.865
  417SOL     OW 2149   1.620   6.194   6.078
  417SOL    HW1 2150   1.601   6.118   6.140
  417SOL    HW2 2151   1.535   6.230   6.041
  418SOL     OW 2152   3.833   0.044   6.790
  418SOL    HW1 2153   3.865   6.990   6.850
  418SOL    HW2 2154   3.841   0.131   6.838
  419SOL     OW 2155   1.779   6.416   1.442
  419SOL    HW1 2156   1.839   6.478   1.390
  419SOL    HW2 2157   1.684   6.429   1.412
  420SOL     OW 2158   6.267   1.211   0.313
  420SOL    HW1 2159   6.221   1.268   0.245
  420SOL    HW2 2160   6.362   1.243   0.323
  421SOL     OW 2161   0.125   4.088   5.063
  421SOL    HW1 2162   0.101   4.050   4.974
  421SOL    HW2 2163   0.073   4.041   5.134
  422SOL     OW 2164   5.425   3.693   1.387
  422SOL    HW1 2165   5.329   3.664   1.393
  422SOL    HW2 2166   5.454   3.730   1.476
  423SOL     OW 2167   0.403   2.147   6.013
  423SOL    HW1 2168   0.494   2.144   6.055
  423SOL    HW2 2169   0.377   2.055   5.984
  424SOL     OW 2170   1.292   5.518   1.085
  424SOL    HW1 2171   1.309   5.586   1.015
  424SOL    HW2 2172   1.379   5.487   1.124
  425SOL     OW 2173   4.651   1.827   3.869
  425SOL    HW1 2174   4.604   1.744   3.841
  425SOL    HW2 2175   4.750   1.814   3.858
  426SOL     OW 2176   3.720   1.921   4.365
  426SOL    HW1 2177   3.652   1.988   4.337
  426SOL    HW2 2178   3.793   1.917   4.297
  427SOL     OW 2179   5.601   6.098   3.982
  427SOL    HW1 2180   5.557   6.186   3.997
  427SOL    HW2 2181   5.616   6.084   3.884
  428SOL     OW 2182   4.710   0.031   3.488
  428SOL    HW1 2183   4.716   0.101   3.558
  428SOL    HW2 2184   4.615   0.023   3.457
  429SOL     OW 2185   1.109   4.852   1.890
  429SOL    HW1 2186   1.127   4.887   1.799
  429SOL    HW2 2187   1.019   4.883   1.921
  430SOL     OW 2188   0.770   0.101   4.194
  430SOL    HW1 2189   0.769   0.063   4.286
  430SOL    HW2 2190   0.737   0.033   4.129
  431SOL     OW 2191   2.884   0.721   1.350
  431SOL    HW1 2192   2.925   0.810   1.334
  431SOL    HW2 2193   2.954   0.655   1.377
  432SOL     OW 2194   6.237   1.724   0.879
  432SOL    HW1 2195   6.252   1.781   0.960
  432SOL    HW2 2196   6.323   1.712   0.830
  433SOL     OW 2197   2.145   6.459   4.753
  433SOL    HW1 2198   2.059   6.456   4.703
  433SOL    HW2 2199   2.129   6.436   4.849
  434SOL     OW 2200   3.605   5.378   3.679
  434SOL    HW1 2201   3.637   5.470   3.658
  434SOL    HW2 2202   3.660   5.339   3.752
  435SOL     OW 2203   4.554   2.377   6.754
  435SOL    HW1 2204   4.456   2.384   6.737
  435SOL    HW2 2205   4.577   2.282   6.778
  436SOL     OW 2206   3.303   5.605   1.890
  436SOL    HW1 2207   3.341   5.554   1.968
  436SOL    HW2 2208   3.323   5.556   1.805
  437SOL     OW 2209   0.835   1.229   6.701
  437SOL    HW1 2210   0.831   1.179   6.787
  437SOL    HW2 2211   0.795   1.174   6.628
  438SOL     OW 2212   2.133   4.030   3.742
  438SOL    HW1 2213   2.160   3.934   3.735
  438SOL    HW2 2214   2.179   4.083   3.670
  439SOL     OW 2215   6.153   5.681   2.225
  439SOL    HW1 2216   6.183   5.774   2.244
  439SOL    HW2 2217   6.074   5.683   2.163
  440SOL     OW 2218   2.674   1.941   5.247
  440SOL    HW1 2219   2.574   1.938   5.257
  440SOL    HW2 2220   2.700   1.893   5.162
  441SOL     OW 2221   0.768   3.475   3.898
  441SOL    HW1 2222   0.842   3.441   3.956
  441SOL    HW2 2223   0.680   3.456   3.941
  442SOL     OW 2224   3.698   6.005   5.595
  442SOL    HW1 2225   3.695   5.978   5.691
  442SOL    HW2 2226   3.763   5.947   5.546
  443SOL     OW 2227   5.957   4.369   4.060
  443SOL    HW1 2228   6.056   4.360   4.064
  443SOL    HW2 2229   5.919   4.361   4.153
  444SOL     OW 2230   5.562   0.581   6.599
  444SOL    HW1 2231   5.604   0.546   6.514
  444SOL    HW2 2232   5.466   0.604   6.582
  445SOL     OW 2233   1.687   5.532   2.912
  445SOL    HW1 2234   1.769   5.588   2.923
  445SOL    HW2 2235   1.636   5.531   2.998
  446SOL     OW 2236   3.432   5.039   3.281
  446SOL    HW1 2237   3.367   4.968   3.304
  446SOL    HW2 2238   3.460   5.030   3.185
  447SOL     OW 2239   0.339   2.934   6.051
  447SOL    HW1 2240   0.310   2.998   5.979
  447SOL    HW2 2241   0.394   2.984   6.119
  448SOL     OW 2242   2.416   0.864   3.046
  448SOL    HW1 2243   2.325   0.903   3.061
  448SOL    HW2 2244   2.407   0.775   3.001
  449SOL     OW 2245   2.889   1.432   4.159
  449SOL    HW1 2246   2.911   1.468   4.068
  449SOL    HW2 2247   2.943   1.350   4.176
  450SOL     OW 2248   1.162   5.064   3.079
  450SOL    HW1 2249   1.186   5.137   3.142
  450SOL    HW2 2250   1.077   5.088   3.031
  451SOL     OW 2251   1.394   2.171   4.540
  451SOL    HW1 2252   1.318   2.136   4.594
  451SOL    HW2 2253   1.372   2.163   4.443
  452SOL     OW 2254   5.442   6.658   0.491
  452SOL    HW1 2255   5.388   6.714   0.429
  452SOL    HW2 2256   5.522   6.622   0.442
  453SOL     OW 2257   4.081   0.319   6.767
  453SOL    HW1 2258   4.146   0.253   6.729
  453SOL    HW2 2259   4.081   0.402   6.711
  454SOL     OW 2260   0.330   4.288   6.404
  454SOL    HW1 2261   0.380   4.202   6.398
  454SOL    HW2 2262   0.373   4.347   6.472
  455SOL     OW 2263   5.355   2.126   4.655
  455SOL    HW1 2264   5.290   2.198   4.680
  455SOL    HW2 2265   5.448   2.160   4.669
  456SOL     OW 2266   0.619   0.175   3.872
  456SOL    HW1 2267   0.625   0.269   3.838
  456SOL    HW2 2268   0.693   0.159   3.936
  457SOL     OW 2269   1.718   3.471   4.513
  457SOL    HW1 2270   1.691   3.567   4.504
  457SOL    HW2 2271   1.746   3.452   4.607
  458SOL     OW 2272   3.243   6.093   2.600
  458SOL    HW1 2273   3.234   6.181   2.554
  458SOL    HW2 2274   3.337   6.082   2.633
  459SOL     OW 2275   2.071   6.973   6.007
  459SOL    HW1 2276   2.104   6.899   6.066
  459SOL    HW2 2277   1.993   7.018   6.051
  460SOL     OW 2278   2.355   6.870   4.774
  460SOL    HW1 2279   2.351   6.782   4.727
  460SOL    HW2 2280   2.357   6.854   4.873
  461SOL     OW 2281   0.106   5.347   5.636
  461SOL    HW1 2282   0.181   5.372   5.575
  461SOL    HW2 2283   0.019   5.375   5.596
  462SOL     OW 2284   3.706   3.365   6.863
  462SOL    HW1 2285   3.749   3.433   6.923
  462SOL    HW2 2286   3.771   3.338   6.792
  463SOL     OW 2287   5.863   6.093   4.079
  463SOL    HW1 2288   5.768   6.096   4.048
  463SOL    HW2 2289   5.920   6.050   4.009
  464SOL     OW 2290   2.987   1.165   5.133
  464SOL    HW1 2291   3.024   1.225   5.204
  464SOL    HW2 2292   3.037   1.179   5.048
  465SOL     OW 2293   0.901   2.411   0.212
  465SOL    HW1 2294   0.994   2.376   0.207
  465SOL    HW2 2295   0.903   2.509   0.228
  466SOL     OW 2296   1.696   6.508   4.081
  466SOL    HW1 2297   1.766   6.437   4.088
  466SOL    HW2 2298   1.732   6.595   4.115
  467SOL     OW 2299   1.894   1.181   1.225
  467SOL    HW1 2300   1.976   1.236   1.209
  467SOL    HW2 2301   1.837   1.225   1.295
  468SOL     OW 2302   3.708   6.311   5.571
  468SOL    HW1 2303   3.660   6.376   5.630
  468SOL    HW2 2304   3.678   6.218   5.592
  469SOL     OW 2305   2.709   3.593   6.510
  469SOL    HW1 2306   2.749   3.502   6.502
  469SOL    HW2 2307   2.757   3.645   6.580
  470SOL     OW 2308   5.010   6.586   0.914
  470SOL    HW1 2309   5.090   6.527   0.904
  470SOL    HW2 2310   5.038   6.675   0.952
  471SOL     OW 2311   2.434   2.463   4.129
  471SOL    HW1 2312   2.437   2.562   4.134
  471SOL    HW2 2313   2.344   2.431   4.158
  472SOL     OW 2314   5.102   4.491   6.135
  472SOL    HW1 2315   5.116   4.433   6.055
  472SOL    HW2 2316   5.064   4.436   6.210
  473SOL     OW 2317   1.270   2.512   2.399
  473SOL    HW1 2318   1.203   2.554   2.338
  473SOL    HW2 2319   1.336   2.582   2.428
  474SOL     OW 2320   5.297   6.150   4.773
  474SOL    HW1 2321   5.325   6.060   4.806
  474SOL    HW2 2322   5.198   6.160   4.782
  475SOL     OW 2323   6.037   1.926   6.871
  475SOL    HW1 2324   6.027   1.950   6.774
  475SOL    HW2 2325   5.951   1.946   6.918
  476SOL     OW 2326   6.976   3.517   2.425
  476SOL    HW1 2327   6.878   3.495   2.428
  476SOL    HW2 2328   7.002   3.536   2.330
  477SOL     OW 2329   2.735   6.108   2.906
  477SOL    HW1 2330   2.716   6.025   2.958
  477SOL    HW2 2331   2.822   6.098   2.858
  478SOL     OW 2332   3.237   6.523   2.188
  478SOL    HW1 2333   3.330   6.517   2.224
  478SOL    HW2 2334   3.196   6.609   2.218
  479SOL     OW 2335   3.689   3.058   5.378
  479SOL    HW1 2336   3.743   3.079   5.459
  479SOL    HW2 2337   3.592   3.063   5.400
  480SOL     OW 2338   2.481   1.026   0.555
  480SOL    HW1 2339   2.430   1.066   0.631
  480SOL    HW2 2340   2.417   0.978   0.494
  481SOL     OW 2341   1.266   6.475   1.508
  481SOL    HW1 2342   1.302   6.550   1.564
  481SOL    HW2 2343   1.209   6.415   1.565
  482SOL     OW 2344   4.182   4.742   2.068
  482SOL    HW1 2345   4.228   4.831   2.074
  482SOL    HW2 2346   4.177   4.714   1.973
  483SOL     OW 2347   6.288   2.426   3.187
  483SOL    HW1 2348   6.317   2.331   3.205
  483SOL    HW2 2349   6.356   2.489   3.224
  484SOL     OW 2350   2.203   3.232   5.539
  484SOL    HW1 2351   2.258   3.246   5.457
  484SOL    HW2 2352   2.177   3.321   5.577
  485SOL     OW 2353   4.127   4.730   2.478
  485SOL    HW1 2354   4.117   4.635   2.506
  485SOL    HW2 2355   4.068   4.748   2.399
  486SOL     OW 2356   0.128   1.137   0.173
  486SOL    HW1 2357   0.154   1.051   0.129
  486SOL    HW2 2358   0.054   1.180   0.121
  487SOL     OW 2359   0.948   0.624   3.596
  487SOL    HW1 2360   0.850   0.639   3.589
  487SOL    HW2 2361   0.973   0.541   3.547
  488SOL     OW 2362   1.355   0.763   2.575
  488SOL    HW1 2363   1.301   0.736   2.654
  488SOL    HW2 2364   1.448   0.785   2.604
  489SOL     OW 2365   5.282   5.873   5.493
  489SOL    HW1 2366   5.268   5.959   5.542
  489SOL    HW2 2367   5.353   5.820   5.539
  490SOL     OW 2368   1.022   6.580   3.446
  490SOL    HW1 2369   1.060   6.625   3.527
  490SOL    HW2 2370   0.982   6.493   3.473
  491SOL     OW 2371   0.987   3.400   1.968
  491SOL    HW1 2372   0.955   3.489   1.937
  491SOL    HW2 2373   1.060   3.368   1.907
  492SOL     OW 2374   1.675   0.499   5.627
  492SOL    HW1 2375   1.702   0.507   5.531
  492SOL    HW2 2376   1.657   0.590   5.664
  493SOL     OW 2377   3.885   6.468   5.444
  493SOL    HW1 2378   3.967   6.428   5.404
  493SOL    HW2 2379   3.825   6.395   5.478
  494SOL     OW 2380   0.867   0.061   6.486
  494SOL    HW1 2381   0.773   0.075   6.453
  494SOL    HW2 2382   0.932   0.091   6.417
  495SOL     OW 2383   4.047   5.728   3.562
  495SOL    HW1 2384   4.122   5.791   3.583
  495SOL    HW2 2385   3.983   5.772   3.498
  496SOL     OW 2386   5.584   2.843   1.426
  496SOL    HW1 2387   5.607   2.937   1.401
  496SOL    HW2 2388   5.514   2.844   1.497
  497SOL     OW 2389   3.495   1.581   4.379
  497SOL    HW1 2390   3.574   1.616   4.329
  497SOL    HW2 2391   3.523   1.556   4.471
  498SOL     OW 2392   0.863   4.913   1.960
  498SOL    HW1 2393   0.832   4.982   1.894
  498SOL    HW2 2394   0.783   4.866   1.998
  499SOL     OW 2395   1.911   5.294   4.597
  499SOL    HW1 2396   1.867   5.383   4.592
  499SOL    HW2 2397   1.869   5.232   4.531
  500SOL     OW 2398   0.049   2.217   6.015
  500SOL    HW1 2399   6.999   2.286   6.034
  500SOL    HW2 2400   0.116   2.216   6.089
  501SOL     OW 2401   4.239   0.296   1.114
  501SOL    HW1 2402   4.272   0.381   1.073
  501SOL    HW2 2403   4.273   0.288   1.207
  502SOL     OW 2404   0.725   4.378   5.572
  502SOL    HW1 2405   0.811   4.426   5.559
  502SOL    HW2 2406   0.653   4.443   5.596
  503SOL     OW 2407   0.087   4.786   6.566
  503SOL    HW1 2408   0.025   4.855   6.604
  503SOL    HW2 2409   0.073   4.780   6.467
  504SOL     OW 2410   0.822   5.381   2.486
  504SOL    HW1 2411   0.801   5.286   2.461
  504SOL    HW2 2412   0.916   5.402   2.459
  505SOL     OW 2413   3.292   5.992   4.618
  505SOL    HW1 2414   3.287   5.909   4.673
  505SOL    HW2 2415   3.282   5.969   4.521
  506SOL     OW 2416   3.603   5.686   3.244
  506SOL    HW1 2417   3.627   5.608   3.186
  506SOL    HW2 2418   3.558   5.756   3.188
  507SOL     OW 2419   3.649   0.276   3.412
  507SOL    HW1 2420   3.741   0.241   3.393
  507SOL    HW2 2421   3.582   0.226   3.356
  508SOL     OW 2422   6.917   3.605   3.035
  508SOL    HW1 2423   6.978   3.683   3.051
  508SOL    HW2 2424   6.918   3.580   2.938
  509SOL     OW 2425   3.286   1.675   1.388
  509SOL    HW1 2426   3.287   1.704   1.484
  509SOL    HW2 2427   3.289   1.576   1.382
  510SOL     OW 2428   6.417   4.147   0.120
  510SOL    HW1 2429   6.460   4.066   0.082
  510SOL    HW2 2430   6.353   4.120   0.193
  511SOL     OW 2431   1.093   2.500   5.801
  511SOL    HW1 2432   1.098   2.563   5.879
  511SOL    HW2 2433   1.185   2.476   5.772
  512SOL     OW 2434   0.239   2.239   6.741
  512SOL    HW1 2435   0.271   2.309   6.806
  512SOL    HW2 2436   0.317   2.194   6.699
  513SOL     OW 2437   5.914   6.540   3.506
  513SOL    HW1 2438   5.896   6.541   3.604
  513SOL    HW2 2439   5.866   6.617   3.462
  514SOL     OW 2440   6.362   0.218   4.486
  514SOL    HW1 2441   6.329   0.185   4.575
  514SOL    HW2 2442   6.440   0.279   4.501
  515SOL     OW 2443   1.261   0.343   1.366
  515SOL    HW1 2444   1.237   0.252   1.400
  515SOL    HW2 2445   1.177   0.394   1.347
  516SOL     OW 2446   2.627   4.809   2.036
  516SOL    HW1 2447   2.690   4.731   2.036
  516SOL    HW2 2448   2.634   4.857   1.949
  517SOL     OW 2449   3.630   5.167   1.666
  517SOL    HW1 2450   3.693   5.091   1.650
  517SOL    HW2 2451   3.538   5.132   1.681
  518SOL     OW 2452   2.336   2.135   4.106
  518SOL    HW1 2453   2.332   2.158   4.009
  518SOL    HW2 2454   2.291   2.205   4.160
  519SOL     OW 2455   0.754   6.446   3.599
  519SOL    HW1 2456   0.656   6.444   3.618
  519SOL    HW2 2457   0.789   6.539   3.613
  520SOL     OW 2458   5.701   3.801   6.814
  520SOL    HW1 2459   5.768   3.758   6.875
  520SOL    HW2 2460   5.625   3.837   6.868
  521SOL     OW 2461   6.264   5.710   5.228
  521SOL    HW1 2462   6.207   5.634   5.197
  521SOL    HW2 2463   6.281   5.773   5.152
  522SOL     OW 2464   3.537   3.240   3.539
  522SOL    HW1 2465   3.520   3.202   3.449
  522SOL    HW2 2466   3.619   3.198   3.578
  523SOL     OW 2467   0.221   6.206   1.851
  523SOL    HW1 2468   0.225   6.297   1.809
  523SOL    HW2 2469   0.148   6.153   1.809
  524SOL     OW 2470   0.712   2.038   2.600
  524SOL    HW1 2471   0.655   1.971   2.552
  524SOL    HW2 2472   0.808   2.010   2.593
  525SOL     OW 2473   1.845   4.332   6.372
  525SOL    HW1 2474   1.851   4.232   6.381
  525SOL    HW2 2475   1.937   4.368   6.353
  526SOL     OW 2476   3.479   6.400   4.441
  526SOL    HW1 2477   3.396   6.420   4.390
  526SOL    HW2 2478   3.504   6.479   4.497
  527SOL     OW 2479   6.950   2.818   0.705
  527SOL    HW1 2480   7.019   2.789   0.771
  527SOL    HW2 2481   6.984   2.897   0.653
  528SOL     OW 2482   1.533   2.849   3.727
  528SOL    HW1 2483   1.530   2.802   3.815
  528SOL    HW2 2484   1.468   2.925   3.729
  529SOL     OW 2485   1.414   5.457   5.164
  529SOL    HW1 2486   1.359   5.529   5.208
  529SOL    HW2 2487   1.510   5.467   5.190
  530SOL     OW 2488   4.094   3.340   3.689
  530SOL    HW1 2489   4.120   3.373   3.779
  530SOL    HW2 2490   4.101   3.414   3.622
  531SOL     OW 2491   0.537   2.182   2.768
  531SOL    HW1 2492   0.593   2.250   2.815
  531SOL    HW2 2493   0.595   2.125   2.711
  532SOL     OW 2494   0.688   3.046   0.103
  532SOL    HW1 2495   0.746   3.114   0.148
  532SOL    HW2 2496   0.745   2.968   0.077
  533SOL     OW 2497   4.362   0.170   3.867
  533SOL    HW1 2498   4.369   0.118   3.781
  533SOL    HW2 2499   4.404   0.118   3.941
  534SOL     OW 2500   5.315   6.141   2.850
  534SOL    HW1 2501   5.315   6.080   2.930
  534SOL    HW2 2502   5.254   6.218   2.868
  535SOL     OW 2503   6.886   3.890   4.354
  535SOL    HW1 2504   6.919   3.799   4.378
  535SOL    HW2 2505   6.795   3.883   4.314
  536SOL     OW 2506   5.961   5.007   2.800
  536SOL    HW1 2507   6.057   5.002   2.770
  536SOL    HW2 2508   5.901   4.991   2.722
  537SOL     OW 2509   2.785   6.543   5.052
  537SOL    HW1 2510   2.795   6.495   5.139
  537SOL    HW2 2511   2.826   6.488   4.979
  538SOL     OW 2512   1.175   4.548   3.763
  538SOL    HW1 2513   1.158   4.504   3.675
  538SOL    HW2 2514   1.094   4.601   3.790
  539SOL     OW 2515   1.457   5.304   1.355
  539SOL    HW1 2516   1.489   5.267   1.268
  539SOL    HW2 2517   1.368   5.265   1.376
  540SOL     OW 2518   1.383   1.888   2.657
  540SOL    HW1 2519   1.348   1.941   2.580
  540SOL    HW2 2520   1.442   1.815   2.623
  541SOL     OW 2521   5.455   5.598   3.659
  541SOL    HW1 2522   5.449   5.697   3.671
  541SOL    HW2 2523   5.492   5.557   3.742
  542SOL     OW 2524   5.848   6.520   6.594
  542SOL    HW1 2525   5.880   6.580   6.668
  542SOL    HW2 2526   5.752   6.496   6.610
  543SOL     OW 2527   0.253   3.750   4.815
  543SOL    HW1 2528   0.214   3.842   4.813
  543SOL    HW2 2529   0.229   3.705   4.900
  544SOL     OW 2530   1.346   4.908   0.244
  544SOL    HW1 2531   1.365   4.944   0.153
  544SOL    HW2 2532   1.432   4.893   0.292
  545SOL     OW 2533   3.340   1.704   0.727
  545SOL    HW1 2534   3.280   1.644   0.675
  545SOL    HW2 2535   3.342   1.795   0.684
  546SOL     OW 2536   2.143   3.409   0.593
  546SOL    HW1 2537   2.112   3.462   0.514
  546SOL    HW2 2538   2.076   3.338   0.614
  547SOL     OW 2539   3.518   1.460   0.058
  547SOL    HW1 2540   3.453   1.385   0.062
  547SOL    HW2 2541   3.471   1.544   0.033
  548SOL     OW 2542   3.239   3.224   2.258
  548SOL    HW1 2543   3.193   3.137   2.240
  548SOL    HW2 2544   3.293   3.217   2.342
  549SOL     OW 2545   6.015   2.971   1.003
  549SOL    HW1 2546   6.019   3.071   1.011
  549SOL    HW2 2547   6.096   2.939   0.953
  550SOL     OW 2548   1.273   5.673   4.007
  550SOL    HW1 2549   1.245   5.728   3.928
  550SOL    HW2 2550   1.341   5.606   3.978
  551SOL     OW 2551   1.405   0.039   2.328
  551SOL    HW1 2552   1.431   0.126   2.286
  551SOL    HW2 2553   1.343   0.057   2.404
  552SOL     OW 2554   6.655   4.722   6.781
  552SOL    HW1 2555   6.555   4.718   6.786
  552SOL    HW2 2556   6.684   4.718   6.685
  553SOL     OW 2557   2.618   6.317   3.286
  553SOL    HW1 2558   2.607   6.393   3.351
  553SOL    HW2 2559   2.709   6.278   3.296
  554SOL     OW 2560   6.611   6.964   6.694
  554SOL    HW1 2561   6.514   6.939   6.688
  554SOL    HW2 2562   6.661   6.924   6.618
  555SOL     OW 2563   2.494   4.440   4.622
  555SOL    HW1 2564   2.448   4.356   4.650
  555SOL    HW2 2565   2.522   4.492   4.703
  556SOL     OW 2566   4.277   1.924   3.911
  556SOL    HW1 2567   4.295   1.966   4.000
  556SOL    HW2 2568   4.326   1.974   3.839
  557SOL     OW 2569   6.896   5.885   1.297
  557SOL    HW1 2570   6.893   5.970   1.350
  557SOL    HW2 2571   6.984   5.878   1.250
  558SOL     OW 2572   3.064   3.492   3.439
  558SOL    HW1 2573   3.001   3.556   3.396
  558SOL    HW2 2574   3.158   3.528   3.431
  559SOL     OW 2575   0.001   5.592   6.788
  559SOL    HW1 2576   6.933   5.576   6.741
  559SOL    HW2 2577   0.074   5.545   6.738
  560SOL     OW 2578   5.449   4.828   5.166
  560SOL    HW1 2579   5.381   4.896   5.138
  560SOL    HW2 2580   5.408   4.766   5.233
  561SOL     OW 2581   0.865   2.001   1.417
  561SOL    HW1 2582   0.838   1.921   1.470
  561SOL    HW2 2583   0.879   1.975   1.322
  562SOL     OW 2584   4.364   6.764   6.150
  562SOL    HW1 2585   4.329   6.695   6.213
  562SOL    HW2 2586   4.458   6.787   6.175
  563SOL     OW 2587   3.009   0.022   3.211
  563SOL    HW1 2588   2.968   6.956   3.180
  563SOL    HW2 2589   2.936   0.089   3.225
  564SOL     OW 2590   1.540   2.488   6.472
  564SOL    HW1 2591   1.453   2.492   6.423
  564SOL    HW2 2592   1.553   2.395   6.508
  565SOL     OW 2593   2.973   3.157   4.903
  565SOL    HW1 2594   2.897   3.137   4.965
  565SOL    HW2 2595   3.035   3.222   4.946
  566SOL     OW 2596   6.996   4.731   3.385
  566SOL    HW1 2597   6.912   4.757   3.338
  566SOL    HW2 2598   6.974   4.675   3.465
  567SOL     OW 2599   3.031   3.043   1.369
  567SOL    HW1 2600   3.046   2.947   1.394
  567SOL    HW2 2601   2.945   3.074   1.408
  568SOL     OW 2602   5.012   0.580   6.592
  568SOL    HW1 2603   4.944   0.598   6.663
  568SOL    HW2 2604   5.102   0.570   6.635
  569SOL     OW 2605   1.975   2.947   6.677
  569SOL    HW1 2606   1.897   3.006   6.659
  569SOL    HW2 2607   2.050   3.002   6.713
  570SOL     OW 2608   3.994   5.854   6.628
  570SOL    HW1 2609   3.957   5.947   6.625
  570SOL    HW2 2610   4.027   5.835   6.721
  571SOL     OW 2611   3.186   6.596   1.894
  571SOL    HW1 2612   3.243   6.674   1.920
  571SOL    HW2 2613   3.170   6.538   1.974
  572SOL     OW 2614   2.577   4.682   5.429
  572SOL    HW1 2615   2.563   4.583   5.418
  572SOL    HW2 2616   2.616   4.719   5.344
  573SOL     OW 2617   5.336   1.256   5.190
  573SOL    HW1 2618   5.420   1.276   5.240
  573SOL    HW2 2619   5.270   1.213   5.251
  574SOL     OW 2620   3.798   1.624   4.312
  574SOL    HW1 2621   3.821   1.698   4.375
  574SOL    HW2 2622   3.765   1.663   4.226
  575SOL     OW 2623   4.897   3.842   6.850
  575SOL    HW1 2624   4.903   3.761   6.792
  575SOL    HW2 2625   4.863   3.816   6.940
  576SOL     OW 2626   0.906   1.883   3.405
  576SOL    HW1 2627   0.850   1.863   3.325
  576SOL    HW2 2628   0.914   1.802   3.463
  577SOL     OW 2629   1.575   1.545   2.969
  577SOL    HW1 2630   1.540   1.498   3.050
  577SOL    HW2 2631   1.535   1.636   2.964
  578SOL     OW 2632   5.548   5.502   3.899
  578SOL    HW1 2633   5.606   5.442   3.953
  578SOL    HW2 2634   5.452   5.476   3.911
  579SOL     OW 2635   1.802   3.291   3.311
  579SOL    HW1 2636   1.887   3.241   3.330
  579SOL    HW2 2637   1.801   3.319   3.214
  580SOL     OW 2638   4.655   5.648   6.619
  580SOL    HW1 2639   4.651   5.746   6.599
  580SOL    HW2 2640   4.747   5.614   6.597
  581SOL     OW 2641   1.964   3.556   1.664
  581SOL    HW1 2642   1.987   3.493   1.590
  581SOL    HW2 2643   1.892   3.516   1.721
  582SOL     OW 2644   4.158   6.397   1.846
  582SOL    HW1 2645   4.168   6.491   1.813
  582SOL    HW2 2646   4.248   6.359   1.865
  583SOL     OW 2647   3.291   6.216   5.503
  583SOL    HW1 2648   3.336   6.254   5.585
  583SOL    HW2 2649   3.193   6.212   5.518
  584SOL     OW 2650   3.164   5.084   6.781
  584SOL    HW1 2651   3.183   5.124   6.870
  584SOL    HW2 2652   3.139   5.157   6.716
  585SOL     OW 2653   5.278   2.295   6.487
  585SOL    HW1 2654   5.187   2.258   6.507
  585SOL    HW2 2655   5.272   2.394   6.474
  586SOL     OW 2656   3.406   0.716   6.020
  586SOL    HW1 2657   3.454   0.694   6.105
  586SOL    HW2 2658   3.374   0.631   5.977
  587SOL     OW 2659   4.463   1.732   4.932
  587SOL    HW1 2660   4.514   1.802   4.981
  587SOL    HW2 2661   4.508   1.643   4.942
  588SOL     OW 2662   1.603   4.933   2.296
  588SOL    HW1 2663   1.592   4.973   2.205
  588SOL    HW2 2664   1.556   4.845   2.300
  589SOL     OW 2665   3.316   4.640   1.487
  589SOL    HW1 2666   3.321   4.673   1.393
  589SOL    HW2 2667   3.395   4.674   1.538
  590SOL     OW 2668   4.845   2.982   2.887
  590SOL    HW1 2669   4.856   3.078   2.912
  590SOL    HW2 2670   4.932   2.934   2.897
  591SOL     OW 2671   3.037   5.290   3.855
  591SOL    HW1 2672   3.012   5.331   3.942
  591SOL    HW2 2673   3.029   5.191   3.861
  592SOL     OW 2674   4.009   1.277   1.354
  592SOL    HW1 2675   3.922   1.325   1.338
  592SOL    HW2 2676   4.062   1.326   1.423
  593SOL     OW 2677   4.588   2.591   4.497
  593SOL    HW1 2678   4.649   2.633   4.564
  593SOL    HW2 2679   4.631   2.510   4.458
  594SOL     OW 2680   6.937   1.896   0.174
  594SOL    HW1 2681   6.927   1.813   0.230
  594SOL    HW2 2682   6.988   1.874   0.091
  595SOL     OW 2683   6.002   0.197   3.273
  595SOL    HW1 2684   6.046   0.139   3.205
  595SOL    HW2 2685   5.932   0.253   3.229
  596SOL     OW 2686   0.805   5.636   3.347
  596SOL    HW1 2687   0.817   5.735   3.342
  596SOL    HW2 2688   0.710   5.613   3.324
  597SOL     OW 2689   3.093   0.458   6.831
  597SOL    HW1 2690   3.166   0.453   6.899
  597SOL    HW2 2691   3.006   0.433   6.873
  598SOL     OW 2692   4.157   4.728   5.608
  598SOL    HW1 2693   4.106   4.800   5.561
  598SOL    HW2 2694   4.099   4.647   5.616
  599SOL     OW 2695   2.487   6.314   1.702
  599SOL    HW1 2696   2.452   6.394   1.751
  599SOL    HW2 2697   2.493   6.335   1.604
  600SOL     OW 2698   6.771   1.101   6.237
  600SOL    HW1 2699   6.751   1.198   6.222
  600SOL    HW2 2700   6.692   1.056   6.279
  601SOL     OW 2701   1.381   0.413   4.493
  601SOL    HW1 2702   1.347   0.329   4.535
  601SOL    HW2 2703   1.480   0.418   4.503
  602SOL     OW 2704   2.087   1.993   6.447
  602SOL    HW1 2705   2.038   2.028   6.367
  602SOL    HW2 2706   2.071   2.054   6.524
  603SOL     OW 2707   2.797   2.183   5.173
  603SOL    HW1 2708   2.756   2.112   5.231
  603SOL    HW2 2709   2.860   2.238   5.228
  604SOL     OW 2710   1.318   2.723   1.722
  604SOL    HW1 2711   1.294   2.736   1.626
  604SOL    HW2 2712   1.244   2.756   1.780
  605SOL     OW 2713   6.533   6.616   0.611
  605SOL    HW1 2714   6.518   6.654   0.702
  605SOL    HW2 2715   6.615   6.558   0.612
  606SOL     OW 2716   4.282   6.746   6.781
  606SOL    HW1 2717   4.321   6.812   6.716
  606SOL    HW2 2718   4.355   6.687   6.815
  607SOL     OW 2719   6.991   6.057   5.992
  607SOL    HW1 2720   7.010   6.019   5.902
  607SOL    HW2 2721   6.892   6.055   6.009
  608SOL     OW 2722   3.623   6.014   6.747
  608SOL    HW1 2723   3.548   6.072   6.778
  608SOL    HW2 2724   3.596   5.966   6.663
  609SOL     OW 2725   3.928   3.100   2.884
  609SOL    HW1 2726   3.881   3.029   2.936
  609SOL    HW2 2727   3.954   3.175   2.945
  610SOL     OW 2728   5.432   3.972   1.820
  610SOL    HW1 2729   5.423   3.946   1.916
  610SOL    HW2 2730   5.494   4.050   1.812
  611SOL     OW 2731   4.029   6.965   0.891
  611SOL    HW1 2732   3.992   6.875   0.913
  611SOL    HW2 2733   4.114   6.979   0.943
  612SOL     OW 2734   4.018   6.729   5.388
  612SOL    HW1 2735   3.967   6.662   5.442
  612SOL    HW2 2736   4.116   6.710   5.395
  613SOL     OW 2737   4.169   6.248   5.515
  613SOL    HW1 2738   4.096   6.222   5.578
  613SOL    HW2 2739   4.231   6.313   5.560
  614SOL     OW 2740   5.093   5.388   0.753
  614SOL    HW1 2741   5.058   5.383   0.846
  614SOL    HW2 2742   5.099   5.484   0.724
  615SOL     OW 2743   6.476   2.350   1.766
  615SOL    HW1 2744   6.508   2.429   1.714
  615SOL    HW2 2745   6.376   2.355   1.776
  616SOL     OW 2746   0.162   2.955   3.945
  616SOL    HW1 2747   0.260   2.941   3.928
  616SOL    HW2 2748   0.147   2.965   4.044
  617SOL     OW 2749   6.432   4.466   6.388
  617SOL    HW1 2750   6.466   4.419   6.469
  617SOL    HW2 2751   6.429   4.403   6.311
  618SOL     OW 2752   6.824   2.193   6.657
  618SOL    HW1 2753   6.905   2.213   6.602
  618SOL    HW2 2754   6.812   2.094   6.664
  619SOL     OW 2755   4.326   1.163   0.100
  619SOL    HW1 2756   4.370   1.248   0.071
  619SOL    HW2 2757   4.389   1.087   0.084
  620SOL     OW 2758   4.568   2.840   1.461
  620SOL    HW1 2759   4.567   2.940   1.451
  620SOL    HW2 2760   4.493   2.813   1.522
  621SOL     OW 2761   2.733   6.818   6.658
  621SOL    HW1 2762   2.704   6.728   6.625
  621SOL    HW2 2763   2.677   6.845   6.736
  622SOL     OW 2764   1.579   0.430   5.031
  622SOL    HW1 2765   1.582   0.442   4.932
  622SOL    HW2 2766   1.597   0.335   5.054
  623SOL     OW 2767   0.745   5.421   5.660
  623SOL    HW1 2768   0.843   5.417   5.639
  623SOL    HW2 2769   0.693   5.392   5.579
  624SOL     OW 2770   7.010   2.276   1.465
  624SOL    HW1 2771   6.963   2.190   1.443
  624SOL    HW2 2772   6.982   2.347   1.400
  625SOL     OW 2773   1.689   1.505   2.295
  625SOL    HW1 2774   1.679   1.450   2.212
  625SOL    HW2 2775   1.733   1.592   2.272
  626SOL     OW 2776   2.187   5.871   3.128
  626SOL    HW1 2777   2.254   5.899   3.196
  626SOL    HW2 2778   2.224   5.888   3.036
  627SOL     OW 2779   5.899   6.455   0.048
  627SOL    HW1 2780   5.893   6.396   0.129
  627SOL    HW2 2781   5.811   6.455   0.001
  628SOL     OW 2782   6.443   5.531   5.923
  628SOL    HW1 2783   6.397   5.532   5.834
  628SOL    HW2 2784   6.529   5.581   5.918
  629SOL     OW 2785   0.097   0.056   6.504
  629SOL    HW1 2786   0.026   0.051   6.575
  629SOL    HW2 2787   0.053   0.071   6.415
  630SOL     OW 2788   0.591   1.395   1.052
  630SOL    HW1 2789   0.561   1.357   1.139
  630SOL    HW2 2790   0.547   1.347   0.977
  631SOL     OW 2791   3.717   0.063   5.117
  631SOL    HW1 2792   3.620   0.057   5.141
  631SOL    HW2 2793   3.764   7.001   5.150
  632SOL     OW 2794   3.201   1.232   0.737
  632SOL    HW1 2795   3.268   1.304   0.755
  632SOL    HW2 2796   3.235   1.173   0.663
  633SOL     OW 2797   3.304   3.940   6.970
  633SOL    HW1 2798   3.206   3.921   6.962
  633SOL    HW2 2799   3.338   3.906   0.038
  634SOL     OW 2800   3.924   3.573   1.455
  634SOL    HW1 2801   3.931   3.659   1.507
  634SOL    HW2 2802   3.830   3.562   1.422
  635SOL     OW 2803   4.449   5.421   1.762
  635SOL    HW1 2804   4.385   5.497   1.751
  635SOL    HW2 2805   4.425   5.369   1.844
  636SOL     OW 2806   2.701   5.824   0.359
  636SOL    HW1 2807   2.668   5.814   0.265
  636SOL    HW2 2808   2.790   5.868   0.359
  637SOL     OW 2809   6.497   3.383   3.366
  637SOL    HW1 2810   6.470   3.288   3.355
  637SOL    HW2 2811   6.592   3.395   3.336
  638SOL     OW 2812   5.274   2.200   4.045
  638SOL    HW1 2813   5.198   2.251   4.005
  638SOL    HW2 2814   5.361   2.234   4.009
  639SOL     OW 2815   5.113   3.488   2.717
  639SOL    HW1 2816   5.110   3.389   2.729
  639SOL    HW2 2817   5.047   3.516   2.648
  640SOL     OW 2818   0.650   5.510   3.620
  640SOL    HW1 2819   0.627   5.590   3.565
  640SOL    HW2 2820   0.599   5.431   3.586
  641SOL     OW 2821   6.763   4.903   4.555
  641SOL    HW1 2822   6.823   4.861   4.487
  641SOL    HW2 2823   6.808   4.982   4.595
  642SOL     OW 2824   6.676   3.168   4.833
  642SOL    HW1 2825   6.703   3.261   4.809
  642SOL    HW2 2826   6.608   3.171   4.906
  643SOL     OW 2827   6.283   5.514   5.652
  643SOL    HW1 2828   6.246   5.595   5.606
  643SOL    HW2 2829   6.324   5.453   5.584
  644SOL     OW 2830   1.497   6.423   4.757
  644SOL    HW1 2831   1.466   6.346   4.701
  644SOL    HW2 2832   1.541   6.491   4.698
  645SOL     OW 2833   3.699   1.218   4.038
  645SOL    HW1 2834   3.780   1.161   4.022
  645SOL    HW2 2835   3.698   1.249   4.134
  646SOL     OW 2836   3.501   1.186   4.684
  646SOL    HW1 2837   3.481   1.245   4.605
  646SOL    HW2 2838   3.492   1.240   4.768
  647SOL     OW 2839   5.031   1.300   4.742
  647SOL    HW1 2840   5.095   1.340   4.806
  647SOL    HW2 2841   5.061   1.317   4.648
  648SOL     OW 2842   0.906   3.671   4.145
  648SOL    HW1 2843   0.970   3.747   4.148
  648SOL    HW2 2844   0.940   3.600   4.084
  649SOL     OW 2845   2.970   4.051   0.802
  649SOL    HW1 2846   2.955   4.068   0.705
  649SOL    HW2 2847   2.938   3.958   0.825
  650SOL     OW 2848   6.087   4.160   0.606
  650SOL    HW1 2849   6.057   4.226   0.537
  650SOL    HW2 2850   6.140   4.207   0.676
  651SOL     OW 2851   0.118   5.567   5.936
  651SOL    HW1 2852   0.104   5.658   5.974
  651SOL    HW2 2853   0.210   5.560   5.897
  652SOL     OW 2854   4.858   6.700   3.382
  652SOL    HW1 2855   4.869   6.662   3.474
  652SOL    HW2 2856   4.876   6.799   3.384
  653SOL     OW 2857   1.407   5.569   5.610
  653SOL    HW1 2858   1.339   5.642   5.600
  653SOL    HW2 2859   1.397   5.504   5.535
  654SOL     OW 2860   0.577   4.038   6.261
  654SOL    HW1 2861   0.536   4.065   6.348
  654SOL    HW2 2862   0.588   4.118   6.202
  655SOL     OW 2863   0.238   5.742   2.250
  655SOL    HW1 2864   0.271   5.795   2.328
  655SOL    HW2 2865   0.240   5.799   2.168
  656SOL     OW 2866   1.033   5.818   1.659
  656SOL    HW1 2867   1.076   5.768   1.584
  656SOL    HW2 2868   0.956   5.765   1.694
  657SOL     OW 2869   1.917   3.102   1.748
  657SOL    HW1 2870   1.830   3.058   1.725
  657SOL    HW2 2871   1.979   3.096   1.670
  658SOL     OW 2872   2.611   4.493   6.607
  658SOL    HW1 2873   2.693   4.519   6.556
  658SOL    HW2 2874   2.626   4.513   6.704
  659SOL     OW 2875   1.814   5.944   5.529
  659SOL    HW1 2876   1.773   5.871   5.583
  659SOL    HW2 2877   1.892   5.983   5.578
  660SOL     OW 2878   5.444   4.761   2.398
  660SOL    HW1 2879   5.542   4.761   2.419
  660SOL    HW2 2880   5.416   4.671   2.364
  661SOL     OW 2881   4.796   4.952   3.700
  661SOL    HW1 2882   4.882   4.968   3.651
  661SOL    HW2 2883   4.722   4.940   3.634
  662SOL     OW 2884   3.653   0.548   5.073
  662SOL    HW1 2885   3.562   0.587   5.083
  662SOL    HW2 2886   3.672   0.488   5.150
  663SOL     OW 2887   2.214   3.899   0.066
  663SOL    HW1 2888   2.278   3.835   0.108
  663SOL    HW2 2889   2.258   3.989   0.056
  664SOL     OW 2890   0.159   5.216   6.187
  664SOL    HW1 2891   0.186   5.219   6.091
  664SOL    HW2 2892   0.136   5.308   6.218
  665SOL     OW 2893   4.947   4.968   1.371
  665SOL    HW1 2894   4.961   4.894   1.436
  665SOL    HW2 2895   4.868   5.022   1.398
  666SOL     OW 2896   4.908   2.013   2.438
  666SOL    HW1 2897   4.870   1.997   2.529
  666SOL    HW2 2898   4.883   2.104   2.406
  667SOL     OW 2899   6.694   4.616   3.725
  667SOL    HW1 2900   6.791   4.598   3.741
  667SOL    HW2 2901   6.645   4.529   3.720
  668SOL     OW 2902   5.295   6.453   6.447
  668SOL    HW1 2903   5.251   6.366   6.470
  668SOL    HW2 2904   5.330   6.450   6.354
  669SOL     OW 2905   3.935   0.361   3.747
  669SOL    HW1 2906   3.953   0.432   3.815
  669SOL    HW2 2907   3.904   0.278   3.792
  670SOL     OW 2908   2.745   3.180   0.853
  670SOL    HW1 2909   2.709   3.212   0.940
  670SOL    HW2 2910   2.802   3.251   0.811
  671SOL     OW 2911   1.837   6.361   1.080
  671SOL    HW1 2912   1.797   6.431   1.021
  671SOL    HW2 2913   1.936   6.364   1.072
  672SOL     OW 2914   1.279   5.095   1.667
  672SOL    HW1 2915   1.365   5.068   1.711
  672SOL    HW2 2916   1.222   5.143   1.733
  673SOL     OW 2917   0.412   0.320   1.691
  673SOL    HW1 2918   0.459   0.392   1.640
  673SOL    HW2 2919   0.480   0.261   1.735
  674SOL     OW 2920   0.511   2.607   5.120
  674SOL    HW1 2921   0.532   2.589   5.024
  674SOL    HW2 2922   0.419   2.646   5.127
  675SOL     OW 2923   0.402   0.819   4.003
  675SOL    HW1 2924   0.501   0.825   4.010
  675SOL    HW2 2925   0.364   0.797   4.093
  676SOL     OW 2926   3.727   6.143   2.963
  676SOL    HW1 2927   3.816   6.189   2.960
  676SOL    HW2 2928   3.741   6.044   2.961
  677SOL     OW 2929   6.870   1.551   0.222
  677SOL    HW1 2930   6.837   1.510   0.307
  677SOL    HW2 2931   6.969   1.543   0.217
  678SOL     OW 2932   1.988   1.043   5.298
  678SOL    HW1 2933   1.996   1.093   5.212
  678SOL    HW2 2934   1.983   1.108   5.374
  679SOL     OW 2935   4.379   1.765   4.329
  679SOL    HW1 2936   4.437   1.818   4.391
  679SOL    HW2 2937   4.437   1.713   4.266
  680SOL     OW 2938   5.577   5.219   5.469
  680SOL    HW1 2939   5.498   5.228   5.407
  680SOL    HW2 2940   5.545   5.188   5.558
  681SOL     OW 2941   5.325   5.267   1.154
  681SOL    HW1 2942   5.232   5.299   1.174
  681SOL    HW2 2943   5.390   5.341   1.169
  682SOL     OW 2944   0.939   0.919   0.160
  682SOL    HW1 2945   0.853   0.871   0.175
  682SOL    HW2 2946   0.924   0.996   0.098
  683SOL     OW 2947   3.781   3.706   0.622
  683SOL    HW1 2948   3.765   3.725   0.525
  683SOL    HW2 2949   3.842   3.626   0.630
  684SOL     OW 2950   0.192   0.720   6.700
  684SOL    HW1 2951   0.143   0.805   6.682
  684SOL    HW2 2952   0.281   0.722   6.654
  685SOL     OW 2953   4.835   1.173   4.074
  685SOL    HW1 2954   4.901   1.107   4.108
  685SOL    HW2 2955   4.760   1.183   4.140
  686SOL     OW 2956   5.257   2.611   3.905
  686SOL    HW1 2957   5.230   2.692   3.956
  686SOL    HW2 2958   5.357   2.603   3.904
  687SOL     OW 2959   0.536   2.607   4.613
  687SOL    HW1 2960   0.619   2.578   4.566
  687SOL    HW2 2961   0.456   2.569   4.566
  688SOL     OW 2962   1.198   1.989   0.505
  688SOL    HW1 2963   1.235   1.982   0.597
  688SOL    HW2 2964   1.103   1.957   0.504
  689SOL     OW 2965   6.366   3.665   6.418
  689SOL    HW1 2966   6.429   3.612   6.361
  689SOL    HW2 2967   6.316   3.603   6.479
  690SOL     OW 2968   0.234   4.762   2.884
  690SOL    HW1 2969   0.158   4.771   2.948
  690SOL    HW2 2970   0.306   4.706   2.925
  691SOL     OW 2971   2.352   6.708   6.762
  691SOL    HW1 2972   2.391   6.653   6.688
  691SOL    HW2 2973   2.292   6.651   6.818
  692SOL     OW 2974   3.057   6.364   3.248
  692SOL    HW1 2975   3.013   6.347   3.336
  692SOL    HW2 2976   2.996   6.333   3.174
  693SOL     OW 2977   6.348   0.640   3.228
  693SOL    HW1 2978   6.257   0.636   3.269
  693SOL    HW2 2979   6.410   0.579   3.276
  694SOL     OW 2980   4.022   5.802   2.662
  694SOL    HW1 2981   4.105   5.840   2.704
  694SOL    HW2 2982   3.957   5.777   2.734
  695SOL     OW 2983   4.078   6.095   3.888
  695SOL    HW1 2984   4.027   6.082   3.973
  695SOL    HW2 2985   4.048   6.180   3.844
  696SOL     OW 2986   3.958   4.792   2.250
  696SOL    HW1 2987   4.006   4.755   2.170
  696SOL    HW2 2988   3.864   4.817   2.224
  697SOL     OW 2989   1.934   3.306   3.610
  697SOL    HW1 2990   1.971   3.285   3.700
  697SOL    HW2 2991   1.906   3.402   3.606
  698SOL     OW 2992   5.370   6.656   6.895
  698SOL    HW1 2993   5.312   6.698   6.826
  698SOL    HW2 2994   5.348   6.558   6.902
  699SOL     OW 2995   2.132   3.359   6.527
  699SOL    HW1 2996   2.041   3.374   6.489
  699SOL    HW2 2997   2.129   3.282   6.591
  700SOL     OW 2998   3.154   1.397   2.765
  700SOL    HW1 2999   3.179   1.433   2.675
  700SOL    HW2 3000   3.091   1.321   2.754
  701SOL     OW 3001   6.685   3.411   5.555
  701SOL    HW1 3002   6.591   3.440   5.568
  701SOL    HW2 3003   6.698   3.320   5.596
  702SOL     OW 3004   1.021   5.541   5.173
  702SOL    HW1 3005   0.991   5.619   5.117
  702SOL    HW2 3006   1.113   5.558   5.206
  703SOL     OW 3007   3.391   4.496   6.156
  703SOL    HW1 3008   3.446   4.552   6.094
  703SOL    HW2 3009   3.418   4.400   6.147
  704SOL     OW 3010   1.648   2.304   0.375
  704SOL    HW1 3011   1.662   2.399   0.347
  704SOL    HW2 3012   1.660   2.243   0.296
  705SOL     OW 3013   6.268   6.161   2.523
  705SOL    HW1 3014   6.240   6.255   2.503
  705SOL    HW2 3015   6.187   6.105   2.540
  706SOL     OW 3016   4.655   2.562   4.882
  706SOL    HW1 3017   4.575   2.541   4.826
  706SOL    HW2 3018   4.718   2.620   4.829
  707SOL     OW 3019   4.722   5.466   2.735
  707SOL    HW1 3020   4.662   5.396   2.773
  707SOL    HW2 3021   4.817   5.439   2.747
  708SOL     OW 3022   4.407   6.672   1.530
  708SOL    HW1 3023   4.320   6.711   1.499
  708SOL    HW2 3024   4.416   6.685   1.629
  709SOL     OW 3025   0.670   5.972   1.448
  709SOL    HW1 3026   0.647   5.961   1.545
  709SOL    HW2 3027   0.623   5.902   1.394
  710SOL     OW 3028   4.030   3.248   2.066
  710SOL    HW1 3029   4.027   3.283   1.972
  710SOL    HW2 3030   4.017   3.149   2.065
  711SOL     OW 3031   6.995   3.289   5.670
  711SOL    HW1 3032   0.036   3.360   5.636
  711SOL    HW2 3033   6.937   3.257   5.594
  712SOL     OW 3034   4.378   3.035   1.250
  712SOL    HW1 3035   4.412   3.037   1.156
  712SOL    HW2 3036   4.325   3.118   1.268
  713SOL     OW 3037   4.522   2.272   5.712
  713SOL    HW1 3038   4.430   2.278   5.674
  713SOL    HW2 3039   4.588   2.301   5.643
  714SOL     OW 3040   6.191   4.027   3.558
  714SOL    HW1 3041   6.249   4.029   3.640
  714SOL    HW2 3042   6.149   4.117   3.546
  715SOL     OW 3043   5.884   5.594   0.319
  715SOL    HW1 3044   5.791   5.628   0.305
  715SOL    HW2 3045   5.913   5.614   0.413
  716SOL     OW 3046   0.507   0.664   1.771
  716SOL    HW1 3047   0.473   0.708   1.688
  716SOL    HW2 3048   0.505   0.565   1.760
  717SOL     OW 3049   6.454   4.312   5.670
  717SOL    HW1 3050   6.466   4.405   5.706
  717SOL    HW2 3051   6.514   4.300   5.590
  718SOL     OW 3052   5.322   2.633   6.096
  718SOL    HW1 3053   5.403   2.587   6.132
  718SOL    HW2 3054   5.306   2.604   6.002
  719SOL     OW 3055   6.194   0.938   1.692
  719SOL    HW1 3056   6.151   0.979   1.611
  719SOL    HW2 3057   6.252   1.005   1.738
  720SOL     OW 3058   3.049   0.344   5.890
  720SOL    HW1 3059   3.036   0.418   5.956
  720SOL    HW2 3060   2.986   0.357   5.813
  721SOL     OW 3061   2.588   2.023   3.731
  721SOL    HW1 3062   2.662   1.956   3.736
  721SOL    HW2 3063   2.567   2.057   3.822
  722SOL     OW 3064   2.889   0.446   5.379
  722SOL    HW1 3065   2.819   0.459   5.310
  722SOL    HW2 3066   2.883   0.353   5.417
  723SOL     OW 3067   1.949   4.897   3.067
  723SOL    HW1 3068   1.888   4.842   3.010
  723SOL    HW2 3069   1.896   4.969   3.113
  724SOL     OW 3070   1.244   3.157   4.815
  724SOL    HW1 3071   1.273   3.068   4.849
  724SOL    HW2 3072   1.294   3.178   4.731
  725SOL     OW 3073   2.575   5.652   1.105
  725SOL    HW1 3074   2.583   5.723   1.176
  725SOL    HW2 3075   2.488   5.662   1.057
  726SOL     OW 3076   3.876   5.273   1.173
  726SOL    HW1 3077   3.947   5.290   1.104
  726SOL    HW2 3078   3.916   5.279   1.264
  727SOL     OW 3079   5.730   4.801   5.232
  727SOL    HW1 3080   5.737   4.714   5.282
  727SOL    HW2 3081   5.635   4.820   5.210
  728SOL     OW 3082   6.704   2.922   5.169
  728SOL    HW1 3083   6.776   2.877   5.116
  728SOL    HW2 3084   6.615   2.882   5.144
  729SOL     OW 3085   1.178   2.399   1.343
  729SOL    HW1 3086   1.144   2.314   1.382
  729SOL    HW2 3087   1.261   2.427   1.391
  730SOL     OW 3088   5.217   0.164   4.965
  730SOL    HW1 3089   5.181   0.076   4.934
  730SOL    HW2 3090   5.143   0.232   4.966
  731SOL     OW 3091   5.198   4.365   5.887
  731SOL    HW1 3092   5.147   4.279   5.892
  731SOL    HW2 3093   5.220   4.385   5.791
  732SOL     OW 3094   0.033   2.733   1.507
  732SOL    HW1 3095   6.972   2.729   1.566
  732SOL    HW2 3096   0.019   2.674   1.427
  733SOL     OW 3097   5.303   6.716   5.400
  733SOL    HW1 3098   5.258   6.750   5.482
  733SOL    HW2 3099   5.355   6.633   5.421
  734SOL     OW 3100   0.019   5.088   2.841
  734SOL    HW1 3101   0.086   5.162   2.832
  734SOL    HW2 3102   0.029   5.045   2.930
  735SOL     OW 3103   4.450   1.869   0.307
  735SOL    HW1 3104   4.483   1.798   0.246
  735SOL    HW2 3105   4.415   1.946   0.254
  736SOL     OW 3106   0.050   1.430   3.997
  736SOL    HW1 3107   0.037   1.375   4.080
  736SOL    HW2 3108   0.147   1.450   3.985
  737SOL     OW 3109   5.221   1.771   4.740
  737SOL    HW1 3110   5.210   1.835   4.663
  737SOL    HW2 3111   5.133   1.727   4.759
  738SOL     OW 3112   2.321   4.238   1.546
  738SOL    HW1 3113   2.390   4.168   1.526
  738SOL    HW2 3114   2.331   4.313   1.480
  739SOL     OW 3115   4.949   0.216   4.234
  739SOL    HW1 3116   5.006   0.217   4.152
  739SOL    HW2 3117   4.878   0.147   4.225
  740SOL     OW 3118   6.482   0.664   1.064
  740SOL    HW1 3119   6.475   0.726   0.986
  740SOL    HW2 3120   6.460   0.714   1.148
  741SOL     OW 3121   2.159   6.397   3.115
  741SOL    HW1 3122   2.251   6.356   3.116
  741SOL    HW2 3123   2.156   6.468   3.046
  742SOL     OW 3124   2.806   6.659   2.401
  742SOL    HW1 3125   2.893   6.611   2.413
  742SOL    HW2 3126   2.811   6.716   2.319
  743SOL     OW 3127   6.814   4.643   2.951
  743SOL    HW1 3128   6.826   4.673   3.046
  743SOL    HW2 3129   6.851   4.713   2.890
  744SOL     OW 3130   5.803   0.435   0.015
  744SOL    HW1 3131   5.756   0.476   6.957
  744SOL    HW2 3132   5.886   0.486   0.035
  745SOL     OW 3133   1.596   4.684   4.581
  745SOL    HW1 3134   1.671   4.640   4.631
  745SOL    HW2 3135   1.557   4.757   4.636
  746SOL     OW 3136   6.862   3.925   6.790
  746SOL    HW1 3137   6.822   3.931   6.881
  746SOL    HW2 3138   6.790   3.913   6.723
  747SOL     OW 3139   3.608   6.618   4.261
  747SOL    HW1 3140   3.527   6.626   4.202
  747SOL    HW2 3141   3.686   6.587   4.207
  748SOL     OW 3142   3.862   5.139   2.038
  748SOL    HW1 3143   3.912   5.153   1.952
  748SOL    HW2 3144   3.829   5.045   2.043
  749SOL     OW 3145   5.980   3.778   5.360
  749SOL    HW1 3146   5.961   3.689   5.319
  749SOL    HW2 3147   6.025   3.837   5.293
  750SOL     OW 3148   1.871   2.310   1.500
  750SOL    HW1 3149   1.778   2.309   1.538
  750SOL    HW2 3150   1.933   2.353   1.565
  751SOL     OW 3151   3.828   2.199   0.127
  751SOL    HW1 3152   3.898   2.132   0.152
  751SOL    HW2 3153   3.822   2.269   0.197
  752SOL     OW 3154   3.165   1.083   1.759
  752SOL    HW1 3155   3.153   1.010   1.692
  752SOL    HW2 3156   3.231   1.149   1.724
  753SOL     OW 3157   2.333   2.964   5.680
  753SOL    HW1 3158   2.384   2.967   5.595
  753SOL    HW2 3159   2.236   2.948   5.661
  754SOL     OW 3160   4.984   2.756   5.475
  754SOL    HW1 3161   4.906   2.695   5.462
  754SOL    HW2 3162   5.013   2.793   5.386
  755SOL     OW 3163   1.774   4.764   6.126
  755SOL    HW1 3164   1.862   4.740   6.086
  755SOL    HW2 3165   1.750   4.696   6.196
  756SOL     OW 3166   3.152   6.802   6.264
  756SOL    HW1 3167   3.071   6.849   6.297
  756SOL    HW2 3168   3.169   6.720   6.320
  757SOL     OW 3169   0.052   0.557   3.722
  757SOL    HW1 3170   7.012   0.503   3.663
  757SOL    HW2 3171   0.128   0.501   3.753
  758SOL     OW 3172   3.497   0.819   2.612
  758SOL    HW1 3173   3.416   0.760   2.601
  758SOL    HW2 3174   3.529   0.816   2.707
  759SOL     OW 3175   0.040   1.568   1.731
  759SOL    HW1 3176   6.998   1.498   1.768
  759SOL    HW2 3177   0.051   1.552   1.633
  760SOL     OW 3178   5.803   6.941   4.976
  760SOL    HW1 3179   5.847   6.888   5.047
  760SOL    HW2 3180   5.808   6.892   4.889
  761SOL     OW 3181   4.949   3.764   5.970
  761SOL    HW1 3182   4.933   3.824   6.048
  761SOL    HW2 3183   4.936   3.815   5.885
  762SOL     OW 3184   1.929   0.358   4.528
  762SOL    HW1 3185   1.972   0.300   4.460
  762SOL    HW2 3186   1.984   0.441   4.541
  763SOL     OW 3187   4.375   5.396   6.407
  763SOL    HW1 3188   4.294   5.374   6.352
  763SOL    HW2 3189   4.435   5.317   6.411
  764SOL     OW 3190   4.887   0.803   4.828
  764SOL    HW1 3191   4.894   0.724   4.889
  764SOL    HW2 3192   4.939   0.880   4.867
  765SOL     OW 3193   1.992   5.890   1.552
  765SOL    HW1 3194   1.933   5.876   1.473
  765SOL    HW2 3195   1.991   5.987   1.578
  766SOL     OW 3196   2.651   2.944   6.031
  766SOL    HW1 3197   2.731   2.920   5.976
  766SOL    HW2 3198   2.572   2.959   5.971
  767SOL     OW 3199   6.127   5.355   1.448
  767SOL    HW1 3200   6.033   5.334   1.421
  767SOL    HW2 3201   6.153   5.299   1.526
  768SOL     OW 3202   2.547   6.819   2.451
  768SOL    HW1 3203   2.474   6.782   2.395
  768SOL    HW2 3204   2.633   6.773   2.429
  769SOL     OW 3205   2.566   0.638   4.883
  769SOL    HW1 3206   2.535   0.562   4.827
  769SOL    HW2 3207   2.576   0.720   4.825
  770SOL     OW 3208   2.049   5.006   2.835
  770SOL    HW1 3209   2.016   4.945   2.764
  770SOL    HW2 3210   2.020   4.972   2.925
  771SOL     OW 3211   1.313   5.564   2.043
  771SOL    HW1 3212   1.310   5.487   2.108
  771SOL    HW2 3213   1.253   5.545   1.966
  772SOL     OW 3214   5.599   5.948   0.006
  772SOL    HW1 3215   5.636   5.932   0.097
  772SOL    HW2 3216   5.520   5.888   7.011
  773SOL     OW 3217   0.162   4.424   4.032
  773SOL    HW1 3218   0.201   4.335   4.056
  773SOL    HW2 3219   0.172   4.440   3.934
  774SOL     OW 3220   1.995   1.407   1.708
  774SOL    HW1 3221   2.030   1.393   1.800
  774SOL    HW2 3222   2.068   1.443   1.649
  775SOL     OW 3223   1.038   2.452   3.612
  775SOL    HW1 3224   1.040   2.395   3.694
  775SOL    HW2 3225   1.101   2.529   3.624
  776SOL     OW 3226   1.449   0.244   5.932
  776SOL    HW1 3227   1.446   0.303   5.852
  776SOL    HW2 3228   1.484   0.295   6.010
  777SOL     OW 3229   1.928   4.468   1.861
  777SOL    HW1 3230   1.978   4.383   1.845
  777SOL    HW2 3231   1.834   4.457   1.830
  778SOL     OW 3232   2.235   1.599   2.121
  778SOL    HW1 3233   2.304   1.578   2.191
  778SOL    HW2 3234   2.235   1.697   2.104
  779SOL     OW 3235   6.261   2.353   2.011
  779SOL    HW1 3236   6.355   2.363   2.042
  779SOL    HW2 3237   6.221   2.444   1.998
  780SOL     OW 3238   6.926   4.176   3.745
  780SOL    HW1 3239   6.917   4.119   3.827
  780SOL    HW2 3240   6.935   4.117   3.665
  781SOL     OW 3241   6.197   6.687   6.801
  781SOL    HW1 3242   6.248   6.739   6.869
  781SOL    HW2 3243   6.100   6.708   6.809
  782SOL     OW 3244   1.967   3.809   6.393
  782SOL    HW1 3245   2.049   3.849   6.433
  782SOL    HW2 3246   1.991   3.724   6.345
  783SOL     OW 3247   4.722   5.063   1.919
  783SOL    HW1 3248   4.802   5.118   1.896
  783SOL    HW2 3249   4.655   5.119   1.968
  784SOL     OW 3250   4.757   4.852   0.934
  784SOL    HW1 3251   4.824   4.818   0.867
  784SOL    HW2 3252   4.683   4.785   0.943
  785SOL     OW 3253   0.261   2.699   3.605
  785SOL    HW1 3254   0.303   2.725   3.692
  785SOL    HW2 3255   0.261   2.778   3.544
  786SOL     OW 3256   1.402   1.346   2.882
  786SOL    HW1 3257   1.417   1.279   2.955
  786SOL    HW2 3258   1.437   1.435   2.911
  787SOL     OW 3259   2.300   0.554   6.806
  787SOL    HW1 3260   2.340   0.537   6.716
  787SOL    HW2 3261   2.338   0.637   6.845
  788SOL     OW 3262   3.699   2.517   6.548
  788SOL    HW1 3263   3.729   2.536   6.641
  788SOL    HW2 3264   3.664   2.602   6.507
  789SOL     OW 3265   4.417   4.232   0.500
  789SOL    HW1 3266   4.338   4.277   0.459
  789SOL    HW2 3267   4.417   4.135   0.476
  790SOL     OW 3268   2.474   1.440   3.862
  790SOL    HW1 3269   2.552   1.438   3.925
  790SOL    HW2 3270   2.393   1.472   3.910
  791SOL     OW 3271   2.143   5.810   3.805
  791SOL    HW1 3272   2.174   5.806   3.710
  791SOL    HW2 3273   2.191   5.740   3.858
  792SOL     OW 3274   1.005   0.822   1.012
  792SOL    HW1 3275   0.935   0.775   0.958
  792SOL    HW2 3276   1.036   0.762   1.086
  793SOL     OW 3277   4.779   4.828   3.304
  793SOL    HW1 3278   4.859   4.805   3.361
  793SOL    HW2 3279   4.786   4.923   3.274
  794SOL     OW 3280   3.319   3.930   5.629
  794SOL    HW1 3281   3.415   3.923   5.604
  794SOL    HW2 3282   3.286   4.022   5.610
  795SOL     OW 3283   2.915   6.787   4.249
  795SOL    HW1 3284   2.874   6.776   4.158
  795SOL    HW2 3285   3.009   6.820   4.239
  796SOL     OW 3286   0.226   1.736   6.603
  796SOL    HW1 3287   0.305   1.698   6.652
  796SOL    HW2 3288   0.149   1.746   6.667
  797SOL     OW 3289   5.783   2.679   0.732
  797SOL    HW1 3290   5.791   2.579   0.725
  797SOL    HW2 3291   5.835   2.710   0.811
  798SOL     OW 3292   3.463   6.194   1.988
  798SOL    HW1 3293   3.511   6.249   2.056
  798SOL    HW2 3294   3.367   6.222   1.983
  799SOL     OW 3295   0.130   6.511   5.407
  799SOL    HW1 3296   0.080   6.596   5.422
  799SOL    HW2 3297   0.229   6.528   5.415
  800SOL     OW 3298   5.287   1.907   2.808
  800SOL    HW1 3299   5.357   1.930   2.876
  800SOL    HW2 3300   5.278   1.808   2.802
  801SOL     OW 3301   1.630   3.739   4.563
  801SOL    HW1 3302   1.710   3.763   4.619
  801SOL    HW2 3303   1.551   3.790   4.596
  802SOL     OW 3304   3.736   2.309   0.903
  802SOL    HW1 3305   3.834   2.296   0.888
  802SOL    HW2 3306   3.712   2.275   0.994
  803SOL     OW 3307   0.248   6.813   5.521
  803SOL    HW1 3308   0.346   6.790   5.518
  803SOL    HW2 3309   0.229   6.885   5.455
  804SOL     OW 3310   5.841   5.479   6.409
  804SOL    HW1 3311   5.770   5.510   6.346
  804SOL    HW2 3312   5.831   5.381   6.425
  805SOL     OW 3313   2.971   0.402   4.327
  805SOL    HW1 3314   2.991   0.304   4.334
  805SOL    HW2 3315   3.057   0.453   4.326
  806SOL     OW 3316   4.697   1.474   4.298
  806SOL    HW1 3317   4.664   1.396   4.245
  806SOL    HW2 3318   4.780   1.510   4.255
  807SOL     OW 3319   1.346   1.107   5.708
  807SOL    HW1 3320   1.250   1.113   5.734
  807SOL    HW2 3321   1.354   1.075   5.614
  808SOL     OW 3322   3.763   3.578   6.548
  808SOL    HW1 3323   3.777   3.552   6.452
  808SOL    HW2 3324   3.697   3.653   6.553
  809SOL     OW 3325   0.401   4.768   1.201
  809SOL    HW1 3326   0.478   4.803   1.255
  809SOL    HW2 3327   0.433   4.740   1.111
  810SOL     OW 3328   3.655   3.362   0.967
  810SOL    HW1 3329   3.569   3.334   1.009
  810SOL    HW2 3330   3.638   3.432   0.898
  811SOL     OW 3331   4.462   5.366   5.355
  811SOL    HW1 3332   4.426   5.459   5.354
  811SOL    HW2 3333   4.398   5.306   5.404
  812SOL     OW 3334   0.349   1.070   2.348
  812SOL    HW1 3335   0.332   1.014   2.267
  812SOL    HW2 3336   0.393   1.015   2.419
  813SOL     OW 3337   4.066   6.982   3.874
  813SOL    HW1 3338   4.112   6.956   3.789
  813SOL    HW2 3339   4.127   6.967   3.952
  814SOL     OW 3340   6.107   6.412   2.514
  814SOL    HW1 3341   6.034   6.478   2.501
  814SOL    HW2 3342   6.195   6.456   2.499
  815SOL     OW 3343   0.429   3.930   3.416
  815SOL    HW1 3344   0.365   4.004   3.440
  815SOL    HW2 3345   0.521   3.968   3.405
  816SOL     OW 3346   6.359   6.731   0.008
  816SOL    HW1 3347   6.368   6.642   6.984
  816SOL    HW2 3348   6.269   6.737   0.052
  817SOL     OW 3349   1.196   4.869   0.873
  817SOL    HW1 3350   1.126   4.939   0.886
  817SOL    HW2 3351   1.235   4.878   0.782
  818SOL     OW 3352   6.154   2.828   2.887
  818SOL    HW1 3353   6.245   2.840   2.845
  818SOL    HW2 3354   6.093   2.783   2.821
  819SOL     OW 3355   5.606   2.437   2.578
  819SOL    HW1 3356   5.510   2.428   2.603
  819SOL    HW2 3357   5.618   2.517   2.520
  820SOL     OW 3358   3.573   1.850   5.209
  820SOL    HW1 3359   3.638   1.909   5.160
  820SOL    HW2 3360   3.486   1.849   5.160
  821SOL     OW 3361   0.816   4.286   0.998
  821SOL    HW1 3362   0.762   4.225   0.940
  821SOL    HW2 3363   0.757   4.359   1.033
  822SOL     OW 3364   1.496   4.471   3.469
  822SOL    HW1 3365   1.446   4.544   3.421
  822SOL    HW2 3366   1.544   4.414   3.402
  823SOL     OW 3367   4.625   3.659   6.644
  823SOL    HW1 3368   4.663   3.622   6.559
  823SOL    HW2 3369   4.582   3.747   6.625
  824SOL     OW 3370   5.233   1.439   6.334
  824SOL    HW1 3371   5.290   1.452   6.253
  824SOL    HW2 3372   5.212   1.528   6.374
  825SOL     OW 3373   6.780   4.661   1.454
  825SOL    HW1 3374   6.710   4.720   1.413
  825SOL    HW2 3375   6.851   4.717   1.495
  826SOL     OW 3376   3.994   2.952   5.819
  826SOL    HW1 3377   3.985   3.024   5.750
  826SOL    HW2 3378   4.000   2.863   5.774
  827SOL     OW 3379   2.862   4.487   5.621
  827SOL    HW1 3380   2.893   4.484   5.527
  827SOL    HW2 3381   2.776   4.538   5.627
  828SOL     OW 3382   6.065   6.408   6.857
  828SOL    HW1 3383   6.014   6.410   6.943
  828SOL    HW2 3384   6.137   6.477   6.860
  829SOL     OW 3385   3.785   4.011   2.737
  829SOL    HW1 3386   3.734   4.089   2.772
  829SOL    HW2 3387   3.721   3.941   2.703
  830SOL     OW 3388   4.888   5.386   6.354
  830SOL    HW1 3389   4.903   5.304   6.409
  830SOL    HW2 3390   4.906   5.467   6.410
  831SOL     OW 3391   6.354   0.242   0.210
  831SOL    HW1 3392   6.295   0.297   0.268
  831SOL    HW2 3393   6.369   0.288   0.122
  832SOL     OW 3394   3.626   0.633   2.425
  832SOL    HW1 3395   3.682   0.663   2.347
  832SOL    HW2 3396   3.600   0.712   2.480
  833SOL     OW 3397   1.301   3.875   5.837
  833SOL    HW1 3398   1.308   3.927   5.923
  833SOL    HW2 3399   1.236   3.800   5.849
  834SOL     OW 3400   3.611   3.563   0.798
  834SOL    HW1 3401   3.673   3.615   0.739
  834SOL    HW2 3402   3.521   3.556   0.754
  835SOL     OW 3403   3.722   0.321   5.582
  835SOL    HW1 3404   3.755   0.410   5.613
  835SOL    HW2 3405   3.791   0.278   5.524
  836SOL     OW 3406   4.026   5.879   5.803
  836SOL    HW1 3407   4.121   5.911   5.802
  836SOL    HW2 3408   4.013   5.813   5.730
  837SOL     OW 3409   5.487   0.446   0.632
  837SOL    HW1 3410   5.495   0.499   0.547
  837SOL    HW2 3411   5.410   0.481   0.685
  838SOL     OW 3412   2.379   0.566   4.268
  838SOL    HW1 3413   2.360   0.587   4.364
  838SOL    HW2 3414   2.340   0.477   4.245
  839SOL     OW 3415   1.077   2.372   2.553
  839SOL    HW1 3416   1.143   2.396   2.482
  839SOL    HW2 3417   1.026   2.454   2.580
  840SOL     OW 3418   6.653   5.570   0.838
  840SOL    HW1 3419   6.638   5.597   0.743
  840SOL    HW2 3420   6.714   5.636   0.883
  841SOL     OW 3421   3.779   5.062   0.023
  841SOL    HW1 3422   3.771   5.002   6.963
  841SOL    HW2 3423   3.867   5.110   0.020
  842SOL     OW 3424   3.999   0.461   4.481
  842SOL    HW1 3425   4.000   0.417   4.391
  842SOL    HW2 3426   3.952   0.402   4.546
  843SOL     OW 3427   0.860   1.427   1.028
  843SOL    HW1 3428   0.898   1.464   1.112
  843SOL    HW2 3429   0.760   1.433   1.031
  844SOL     OW 3430   5.482   0.675   0.376
  844SOL    HW1 3431   5.512   0.769   0.359
  844SOL    HW2 3432   5.480   0.624   0.290
  845SOL     OW 3433   4.848   4.251   5.129
  845SOL    HW1 3434   4.909   4.231   5.052
  845SOL    HW2 3435   4.822   4.166   5.174
  846SOL     OW 3436   2.160   1.622   6.141
  846SOL    HW1 3437   2.097   1.656   6.211
  846SOL    HW2 3438   2.230   1.565   6.185
  847SOL     OW 3439   1.229   3.272   1.467
  847SOL    HW1 3440   1.143   3.248   1.510
  847SOL    HW2 3441   1.270   3.191   1.425
  848SOL     OW 3442   6.087   0.622   5.760
  848SOL    HW1 3443   6.122   0.608   5.667
  848SOL    HW2 3444   6.163   0.620   5.825
  849SOL     OW 3445   0.168   3.256   5.976
  849SOL    HW1 3446   0.097   3.224   6.039
  849SOL    HW2 3447   0.199   3.179   5.919
  850SOL     OW 3448   5.381   0.584   3.013
  850SOL    HW1 3449   5.431   0.623   2.936
  850SOL    HW2 3450   5.283   0.591   2.996
  851SOL     OW 3451   6.857   2.077   2.842
  851SOL    HW1 3452   6.791   2.008   2.873
  851SOL    HW2 3453   6.903   2.117   2.921
  852SOL     OW 3454   0.877   3.710   6.976
  852SOL    HW1 3455   0.885   3.686   0.053
  852SOL    HW2 3456   0.782   3.699   6.947
  853SOL     OW 3457   1.307   4.413   1.407
  853SOL    HW1 3458   1.241   4.471   1.359
  853SOL    HW2 3459   1.400   4.446   1.389
  854SOL     OW 3460   5.142   5.754   0.535
  854SOL    HW1 3461   5.048   5.722   0.545
  854SOL    HW2 3462   5.204   5.675   0.538
  855SOL     OW 3463   6.733   0.026   1.670
  855SOL    HW1 3464   6.776   0.053   1.757
  855SOL    HW2 3465   6.774   0.078   1.595
  856SOL     OW 3466   1.246   2.577   5.380
  856SOL    HW1 3467   1.341   2.547   5.371
  856SOL    HW2 3468   1.187   2.516   5.327
  857SOL     OW 3469   5.703   4.249   2.133
  857SOL    HW1 3470   5.653   4.306   2.067
  857SOL    HW2 3471   5.764   4.188   2.084
  858SOL     OW 3472   2.611   3.558   1.079
  858SOL    HW1 3473   2.512   3.539   1.077
  858SOL    HW2 3474   2.633   3.613   1.159
  859SOL     OW 3475   6.165   5.713   5.498
  859SOL    HW1 3476   6.252   5.715   5.449
  859SOL    HW2 3477   6.100   5.656   5.449
  860SOL     OW 3478   5.696   2.907   0.472
  860SOL    HW1 3479   5.636   2.837   0.512
  860SOL    HW2 3480   5.783   2.866   0.448
  861SOL     OW 3481   2.733   5.538   3.305
  861SOL    HW1 3482   2.761   5.608   3.371
  861SOL    HW2 3483   2.696   5.582   3.224
  862SOL     OW 3484   1.467   4.023   4.701
  862SOL    HW1 3485   1.407   4.070   4.766
  862SOL    HW2 3486   1.556   4.068   4.700
  863SOL     OW 3487   6.277   1.277   0.731
  863SOL    HW1 3488   6.348   1.207   0.725
  863SOL    HW2 3489   6.318   1.368   0.727
  864SOL     OW 3490   4.545   5.314   4.144
  864SOL    HW1 3491   4.504   5.285   4.057
  864SOL    HW2 3492   4.476   5.313   4.216
  865SOL     OW 3493   1.257   6.659   5.794
  865SOL    HW1 3494   1.177   6.706   5.831
  865SOL    HW2 3495   1.256   6.666   5.694
  866SOL     OW 3496   2.025   2.229   2.210
  866SOL    HW1 3497   1.951   2.161   2.210
  866SOL    HW2 3498   2.060   2.239   2.117
  867SOL     OW 3499   4.193   3.561   0.442
  867SOL    HW1 3500   4.199   3.519   0.532
  867SOL    HW2 3501   4.123   3.514   0.388
  868SOL     OW 3502   5.940   1.315   0.986
  868SOL    HW1 3503   5.969   1.239   0.929
  868SOL    HW2 3504   5.874   1.371   0.936
  869SOL     OW 3505   0.458   4.656   2.997
  869SOL    HW1 3506   0.518   4.585   2.960
  869SOL    HW2 3507   0.469   4.660   3.096
  870SOL     OW 3508   4.482   3.115   0.613
  870SOL    HW1 3509   4.464   3.210   0.640
  870SOL    HW2 3510   4.413   3.055   0.653
  871SOL     OW 3511   4.672   2.236   2.935
  871SOL    HW1 3512   4.600   2.277   2.879
  871SOL    HW2 3513   4.632   2.168   2.996
  872SOL     OW 3514   5.524   2.887   3.919
  872SOL    HW1 3515   5.613   2.854   3.888
  872SOL    HW2 3516   5.460   2.888   3.842
  873SOL     OW 3517   5.698   0.119   4.171
  873SOL    HW1 3518   5.746   0.115   4.083
  873SOL    HW2 3519   5.764   0.106   4.245
  874SOL     OW 3520   0.982   3.998   5.795
  874SOL    HW1 3521   0.961   3.956   5.707
  874SOL    HW2 3522   1.034   4.083   5.780
  875SOL     OW 3523   3.958   3.464   0.629
  875SOL    HW1 3524   3.927   3.418   0.546
  875SOL    HW2 3525   4.049   3.430   0.653
  876SOL     OW 3526   0.390   4.327   2.313
  876SOL    HW1 3527   0.356   4.290   2.226
  876SOL    HW2 3528   0.490   4.327   2.313
  877SOL     OW 3529   3.823   4.914   6.474
  877SOL    HW1 3530   3.864   4.923   6.383
  877SOL    HW2 3531   3.742   4.972   6.481
  878SOL     OW 3532   3.527   6.182   5.138
  878SOL    HW1 3533   3.442   6.233   5.141
  878SOL    HW2 3534   3.510   6.089   5.104
  879SOL     OW 3535   4.024   2.252   0.904
  879SOL    HW1 3536   4.123   2.238   0.899
  879SOL    HW2 3537   3.978   2.163   0.906
  880SOL     OW 3538   3.131   3.948   4.429
  880SOL    HW1 3539   3.168   3.990   4.512
  880SOL    HW2 3540   3.048   3.897   4.452
  881SOL     OW 3541   5.214   3.776   4.808
  881SOL    HW1 3542   5.308   3.809   4.798
  881SOL    HW2 3543   5.179   3.799   4.899
  882SOL     OW 3544   0.684   2.614   4.279
  882SOL    HW1 3545   0.604   2.576   4.232
  882SOL    HW2 3546   0.662   2.706   4.313
  883SOL     OW 3547   4.573   0.037   6.594
  883SOL    HW1 3548   4.510   6.987   6.559
  883SOL    HW2 3549   4.561   0.045   6.693
  884SOL     OW 3550   0.001   4.262   0.402
  884SOL    HW1 3551   6.956   4.186   0.396
  884SOL    HW2 3552   0.092   4.227   0.426
  885SOL     OW 3553   4.455   6.048   6.456
  885SOL    HW1 3554   4.410   5.978   6.510
  885SOL    HW2 3555   4.489   6.008   6.370
  886SOL     OW 3556   4.078   0.780   1.232
  886SOL    HW1 3557   4.031   0.860   1.194
  886SOL    HW2 3558   4.111   0.722   1.158
  887SOL     OW 3559   3.734   5.642   3.859
  887SOL    HW1 3560   3.699   5.735   3.846
  887SOL    HW2 3561   3.667   5.589   3.911
  888SOL     OW 3562   6.612   5.511   2.457
  888SOL    HW1 3563   6.553   5.432   2.473
  888SOL    HW2 3564   6.635   5.515   2.360
  889SOL     OW 3565   0.843   0.280   5.768
  889SOL    HW1 3566   0.836   0.234   5.857
  889SOL    HW2 3567   0.751   0.304   5.736
  890SOL     OW 3568   1.623   5.584   2.134
  890SOL    HW1 3569   1.550   5.579   2.066
  890SOL    HW2 3570   1.679   5.501   2.129
  891SOL     OW 3571   6.427   3.402   0.471
  891SOL    HW1 3572   6.470   3.322   0.429
  891SOL    HW2 3573   6.352   3.373   0.530
  892SOL     OW 3574   3.607   4.682   6.076
  892SOL    HW1 3575   3.625   4.777   6.099
  892SOL    HW2 3576   3.685   4.644   6.026
  893SOL     OW 3577   2.212   0.749   2.176
  893SOL    HW1 3578   2.204   0.790   2.085
  893SOL    HW2 3579   2.159   0.665   2.179
  894SOL     OW 3580   0.847   2.633   3.499
  894SOL    HW1 3581   0.847   2.648   3.401
  894SOL    HW2 3582   0.921   2.571   3.524
  895SOL     OW 3583   0.944   5.315   3.779
  895SOL    HW1 3584   1.042   5.335   3.778
  895SOL    HW2 3585   0.919   5.263   3.697
  896SOL     OW 3586   6.008   6.810   1.220
  896SOL    HW1 3587   5.940   6.850   1.282
  896SOL    HW2 3588   6.086   6.776   1.274
  897SOL     OW 3589   4.233   0.869   6.496
  897SOL    HW1 3590   4.315   0.920   6.470
  897SOL    HW2 3591   4.153   0.930   6.495
  898SOL     OW 3592   3.517   6.637   3.105
  898SOL    HW1 3593   3.470   6.663   3.190
  898SOL    HW2 3594   3.525   6.717   3.046
  899SOL     OW 3595   0.448   5.773   1.011
  899SOL    HW1 3596   0.452   5.767   0.912
  899SOL    HW2 3597   0.378   5.711   1.046
  900SOL     OW 3598   4.935   6.179   0.189
  900SOL    HW1 3599   4.984   6.108   0.239
  900SOL    HW2 3600   4.988   6.206   0.109
  901SOL     OW 3601   1.328   1.037   5.414
  901SOL    HW1 3602   1.351   0.940   5.420
  901SOL    HW2 3603   1.234   1.047   5.380
  902SOL     OW 3604   0.852   2.759   0.840
  902SOL    HW1 3605   0.898   2.678   0.802
  902SOL    HW2 3606   0.803   2.806   0.767
  903SOL     OW 3607   6.919   3.229   6.595
  903SOL    HW1 3608   6.892   3.316   6.635
  903SOL    HW2 3609   6.841   3.167   6.593
  904SOL     OW 3610   2.131   2.371   2.731
  904SOL    HW1 3611   2.099   2.464   2.712
  904SOL    HW2 3612   2.173   2.333   2.648
  905SOL     OW 3613   5.111   3.757   5.563
  905SOL    HW1 3614   5.171   3.826   5.602
  905SOL    HW2 3615   5.019   3.795   5.553
  906SOL     OW 3616   0.775   3.173   6.504
  906SOL    HW1 3617   0.680   3.165   6.533
  906SOL    HW2 3618   0.821   3.085   6.516
  907SOL     OW 3619   4.978   2.326   2.501
  907SOL    HW1 3620   4.968   2.330   2.402
  907SOL    HW2 3621   5.014   2.413   2.535
  908SOL     OW 3622   2.316   4.925   2.772
  908SOL    HW1 3623   2.231   4.973   2.791
  908SOL    HW2 3624   2.376   4.984   2.718
  909SOL     OW 3625   2.754   5.987   1.850
  909SOL    HW1 3626   2.678   5.925   1.835
  909SOL    HW2 3627   2.743   6.068   1.792
  910SOL     OW 3628   2.599   1.208   0.157
  910SOL    HW1 3629   2.626   1.227   0.251
  910SOL    HW2 3630   2.525   1.141   0.155
  911SOL     OW 3631   6.599   5.662   0.559
  911SOL    HW1 3632   6.666   5.644   0.488
  911SOL    HW2 3633   6.600   5.759   0.582
  912SOL     OW 3634   5.543   0.424   3.799
  912SOL    HW1 3635   5.540   0.325   3.785
  912SOL    HW2 3636   5.489   0.469   3.728
  913SOL     OW 3637   2.012   0.975   3.597
  913SOL    HW1 3638   1.943   1.012   3.659
  913SOL    HW2 3639   2.040   1.045   3.532
  914SOL     OW 3640   1.854   5.927   5.073
  914SOL    HW1 3641   1.801   5.972   5.145
  914SOL    HW2 3642   1.822   5.833   5.062
  915SOL     OW 3643   1.080   3.036   0.851
  915SOL    HW1 3644   1.094   3.135   0.856
  915SOL    HW2 3645   1.037   3.004   0.936
  916SOL     OW 3646   1.458   2.893   2.306
  916SOL    HW1 3647   1.402   2.901   2.388
  916SOL    HW2 3648   1.512   2.977   2.294
  917SOL     OW 3649   5.642   0.760   2.233
  917SOL    HW1 3650   5.688   0.709   2.306
  917SOL    HW2 3651   5.583   0.829   2.273
  918SOL     OW 3652   3.179   0.222   0.562
  918SOL    HW1 3653   3.178   0.252   0.466
  918SOL    HW2 3654   3.170   0.122   0.566
  919SOL     OW 3655   6.541   5.969   3.128
  919SOL    HW1 3656   6.478   5.984   3.052
  919SOL    HW2 3657   6.571   6.057   3.164
  920SOL     OW 3658   2.135   5.209   2.694
  920SOL    HW1 3659   2.119   5.301   2.731
  920SOL    HW2 3660   2.096   5.141   2.757
  921SOL     OW 3661   4.857   4.393   3.237
  921SOL    HW1 3662   4.868   4.315   3.298
  921SOL    HW2 3663   4.930   4.459   3.254
  922SOL     OW 3664   3.266   3.622   6.103
  922SOL    HW1 3665   3.240   3.542   6.050
  922SOL    HW2 3666   3.223   3.703   6.063
  923SOL     OW 3667   2.929   4.744   5.937
  923SOL    HW1 3668   3.010   4.693   5.908
  923SOL    HW2 3669   2.908   4.722   6.032
  924SOL     OW 3670   5.918   2.686   3.121
  924SOL    HW1 3671   5.895   2.766   3.066
  924SOL    HW2 3672   5.880   2.697   3.213
  925SOL     OW 3673   0.605   1.458   6.572
  925SOL    HW1 3674   0.588   1.360   6.583
  925SOL    HW2 3675   0.526   1.500   6.528
  926SOL     OW 3676   6.100   0.746   0.633
  926SOL    HW1 3677   6.125   0.717   0.726
  926SOL    HW2 3678   6.004   0.774   0.632
  927SOL     OW 3679   5.999   4.059   3.184
  927SOL    HW1 3680   6.051   3.987   3.229
  927SOL    HW2 3681   6.024   4.148   3.224
  928SOL     OW 3682   1.009   5.821   0.922
  928SOL    HW1 3683   0.988   5.778   1.010
  928SOL    HW2 3684   0.924   5.854   0.881
  929SOL     OW 3685   0.365   0.964   1.038
  929SOL    HW1 3686   0.287   0.910   1.008
  929SOL    HW2 3687   0.444   0.943   0.979
  930SOL     OW 3688   5.477   5.894   4.141
  930SOL    HW1 3689   5.510   5.985   4.114
  930SOL    HW2 3690   5.547   5.826   4.121
  931SOL     OW 3691   6.174   2.232   3.362
  931SOL    HW1 3692   6.093   2.195   3.407
  931SOL    HW2 3693   6.147   2.307   3.302
  932SOL     OW 3694   3.215   6.571   3.089
  932SOL    HW1 3695   3.222   6.560   3.188
  932SOL    HW2 3696   3.225   6.482   3.045
  933SOL     OW 3697   1.150   6.135   3.271
  933SOL    HW1 3698   1.136   6.088   3.184
  933SOL    HW2 3699   1.248   6.140   3.291
  934SOL     OW 3700   2.249   0.150   5.885
  934SOL    HW1 3701   2.206   0.199   5.808
  934SOL    HW2 3702   2.186   0.079   5.918
  935SOL     OW 3703   4.600   4.841   4.859
  935SOL    HW1 3704   4.611   4.940   4.852
  935SOL    HW2 3705   4.508   4.820   4.891
  936SOL     OW 3706   1.248   0.492   5.908
  936SOL    HW1 3707   1.208   0.581   5.933
  936SOL    HW2 3708   1.282   0.495   5.814
  937SOL     OW 3709   5.063   1.021   4.843
  937SOL    HW1 3710   5.024   1.112   4.834
  937SOL    HW2 3711   5.119   1.001   4.762
  938SOL     OW 3712   6.567   5.327   5.656
  938SOL    HW1 3713   6.651   5.370   5.687
  938SOL    HW2 3714   6.507   5.310   5.734
  939SOL     OW 3715   6.071   0.086   5.342
  939SOL    HW1 3716   6.051   0.031   5.423
  939SOL    HW2 3717   6.082   0.182   5.369
  940SOL     OW 3718   0.330   2.551   2.171
  940SOL    HW1 3719   0.251   2.494   2.193
  940SOL    HW2 3720   0.345   2.618   2.244
  941SOL     OW 3721   5.410   1.199   5.566
  941SOL    HW1 3722   5.340   1.154   5.622
  941SOL    HW2 3723   5.469   1.130   5.525
  942SOL     OW 3724   5.225   6.818   3.250
  942SOL    HW1 3725   5.189   6.741   3.303
  942SOL    HW2 3726   5.318   6.838   3.280
  943SOL     OW 3727   2.056   3.226   3.862
  943SOL    HW1 3728   2.114   3.157   3.817
  943SOL    HW2 3729   2.049   3.204   3.959
  944SOL     OW 3730   0.409   4.026   5.797
  944SOL    HW1 3731   0.412   3.965   5.877
  944SOL    HW2 3732   0.496   4.075   5.790
  945SOL     OW 3733   6.029   4.238   4.735
  945SOL    HW1 3734   6.115   4.286   4.717
  945SOL    HW2 3735   5.996   4.196   4.650
  946SOL     OW 3736   5.009   2.481   6.543
  946SOL    HW1 3737   5.107   2.497   6.554
  946SOL    HW2 3738   4.991   2.446   6.451
  947SOL     OW 3739   3.908   3.078   4.199
  947SOL    HW1 3740   3.910   3.031   4.111
  947SOL    HW2 3741   3.981   3.145   4.203
  948SOL     OW 3742   3.771   0.140   1.413
  948SOL    HW1 3743   3.757   0.128   1.511
  948SOL    HW2 3744   3.740   0.058   1.364
  949SOL     OW 3745   0.864   6.479   6.627
  949SOL    HW1 3746   0.951   6.503   6.583
  949SOL    HW2 3747   0.870   6.386   6.664
  950SOL     OW 3748   4.748   5.350   1.701
  950SOL    HW1 3749   4.810   5.409   1.752
  950SOL    HW2 3750   4.654   5.363   1.734
  951SOL     OW 3751   2.153   1.447   3.942
  951SOL    HW1 3752   2.201   1.362   3.923
  951SOL    HW2 3753   2.070   1.452   3.886
  952SOL     OW 3754   5.168   1.717   3.016
  952SOL    HW1 3755   5.118   1.674   3.091
  952SOL    HW2 3756   5.115   1.706   2.931
  953SOL     OW 3757   5.393   5.232   4.193
  953SOL    HW1 3758   5.369   5.135   4.187
  953SOL    HW2 3759   5.313   5.284   4.224
  954SOL     OW 3760   4.221   5.426   0.541
  954SOL    HW1 3761   4.255   5.515   0.570
  954SOL    HW2 3762   4.201   5.370   0.621
  955SOL     OW 3763   7.012   3.605   3.467
  955SOL    HW1 3764   0.058   3.640   3.400
  955SOL    HW2 3765   6.966   3.681   3.512
  956SOL     OW 3766   6.676   1.898   2.547
  956SOL    HW1 3767   6.674   1.873   2.450
  956SOL    HW2 3768   6.753   1.959   2.564
  957SOL     OW 3769   6.578   4.127   4.909
  957SOL    HW1 3770   6.534   4.092   4.826
  957SOL    HW2 3771   6.507   4.154   4.974
  958SOL     OW 3772   4.285   1.848   1.846
  958SOL    HW1 3773   4.298   1.923   1.780
  958SOL    HW2 3774   4.210   1.790   1.816
  959SOL     OW 3775   3.656   5.792   2.635
  959SOL    HW1 3776   3.692   5.767   2.725
  959SOL    HW2 3777   3.622   5.886   2.638
  960SOL     OW 3778   0.993   6.352   1.646
  960SOL    HW1 3779   0.903   6.335   1.606
  960SOL    HW2 3780   0.982   6.396   1.735
  961SOL     OW 3781   5.347   0.016   3.594
  961SOL    HW1 3782   5.300   7.002   3.676
  961SOL    HW2 3783   5.279   0.042   3.525
  962SOL     OW 3784   0.633   0.808   5.270
  962SOL    HW1 3785   0.615   0.817   5.172
  962SOL    HW2 3786   0.558   0.850   5.321
  963SOL     OW 3787   6.637   1.783   6.245
  963SOL    HW1 3788   6.626   1.721   6.322
  963SOL    HW2 3789   6.730   1.820   6.246
  964SOL     OW 3790   5.873   4.355   0.146
  964SOL    HW1 3791   5.775   4.364   0.127
  964SOL    HW2 3792   5.922   4.334   0.061
  965SOL     OW 3793   5.429   1.998   1.036
  965SOL    HW1 3794   5.427   1.911   0.987
  965SOL    HW2 3795   5.392   1.986   1.128
  966SOL     OW 3796   5.182   2.115   2.038
  966SOL    HW1 3797   5.232   2.147   1.958
  966SOL    HW2 3798   5.214   2.164   2.119
  967SOL     OW 3799   2.470   4.418   1.321
  967SOL    HW1 3800   2.526   4.337   1.340
  967SOL    HW2 3801   2.476   4.439   1.223
  968SOL     OW 3802   3.575   1.143   1.411
  968SOL    HW1 3803   3.655   1.089   1.387
  968SOL    HW2 3804   3.532   1.106   1.494
  969SOL     OW 3805   3.305   6.017   6.183
  969SOL    HW1 3806   3.312   5.927   6.226
  969SOL    HW2 3807   3.267   6.083   6.248
  970SOL     OW 3808   5.347   0.522   5.844
  970SOL    HW1 3809   5.300   0.495   5.760
  970SOL    HW2 3810   5.287   0.506   5.922
  971SOL     OW 3811   6.482   2.075   3.152
  971SOL    HW1 3812   6.524   2.161   3.183
  971SOL    HW2 3813   6.417   2.044   3.220
  972SOL     OW 3814   5.363   3.669   2.178
  972SOL    HW1 3815   5.368   3.725   2.096
  972SOL    HW2 3816   5.436   3.697   2.242
  973SOL     OW 3817   0.203   4.681   0.375
  973SOL    HW1 3818   0.235   4.769   0.342
  973SOL    HW2 3819   0.278   4.634   0.421
  974SOL     OW 3820   5.253   6.554   2.315
  974SOL    HW1 3821   5.181   6.533   2.249
  974SOL    HW2 3822   5.322   6.482   2.313
  975SOL     OW 3823   0.968   6.643   6.826
  975SOL    HW1 3824   0.923   6.577   6.765
  975SOL    HW2 3825   0.956   6.735   6.789
  976SOL     OW 3826   6.759   3.465   3.209
  976SOL    HW1 3827   6.821   3.523   3.158
  976SOL    HW2 3828   6.803   3.377   3.229
  977SOL     OW 3829   1.469   0.675   2.171
  977SOL    HW1 3830   1.473   0.616   2.252
  977SOL    HW2 3831   1.526   0.636   2.098
  978SOL     OW 3832   4.017   3.876   5.656
  978SOL    HW1 3833   3.917   3.878   5.650
  978SOL    HW2 3834   4.057   3.875   5.565
  979SOL     OW 3835   6.873   1.935   0.799
  979SOL    HW1 3836   6.925   1.990   0.734
  979SOL    HW2 3837   6.795   1.893   0.752
  980SOL     OW 3838   4.743   2.379   4.493
  980SOL    HW1 3839   4.672   2.313   4.516
  980SOL    HW2 3840   4.801   2.341   4.421
  981SOL     OW 3841   0.305   1.873   4.837
  981SOL    HW1 3842   0.293   1.958   4.888
  981SOL    HW2 3843   0.376   1.818   4.882
  982SOL     OW 3844   2.554   2.411   4.373
  982SOL    HW1 3845   2.537   2.403   4.274
  982SOL    HW2 3846   2.570   2.507   4.396
  983SOL     OW 3847   5.925   2.322   5.210
  983SOL    HW1 3848   5.874   2.317   5.296
  983SOL    HW2 3849   6.022   2.310   5.228
  984SOL     OW 3850   2.211   1.637   4.688
  984SOL    HW1 3851   2.298   1.671   4.652
  984SOL    HW2 3852   2.225   1.606   4.782
  985SOL     OW 3853   5.613   4.024   5.185
  985SOL    HW1 3854   5.573   4.060   5.100
  985SOL    HW2 3855   5.614   3.924   5.181
  986SOL     OW 3856   5.905   4.680   1.091
  986SOL    HW1 3857   5.856   4.700   1.175
  986SOL    HW2 3858   5.870   4.596   1.050
  987SOL     OW 3859   4.697   6.722   2.160
  987SOL    HW1 3860   4.755   6.713   2.240
  987SOL    HW2 3861   4.651   6.811   2.161
  988SOL     OW 3862   3.275   3.432   2.708
  988SOL    HW1 3863   3.274   3.349   2.651
  988SOL    HW2 3864   3.181   3.462   2.725
  989SOL     OW 3865   6.002   0.920   5.821
  989SOL    HW1 3866   6.000   0.858   5.743
  989SOL    HW2 3867   5.941   0.886   5.893
  990SOL     OW 3868   3.998   0.518   2.054
  990SOL    HW1 3869   4.012   0.500   2.151
  990SOL    HW2 3870   3.981   0.615   2.040
  991SOL     OW 3871   0.765   2.623   5.496
  991SOL    HW1 3872   0.855   2.588   5.470
  991SOL    HW2 3873   0.694   2.562   5.461
  992SOL     OW 3874   6.853   2.717   2.158
  992SOL    HW1 3875   6.793   2.656   2.210
  992SOL    HW2 3876   6.802   2.759   2.084
  993SOL     OW 3877   0.803   4.558   1.348
  993SOL    HW1 3878   0.819   4.515   1.437
  993SOL    HW2 3879   0.754   4.644   1.362
  994SOL     OW 3880   3.827   4.311   1.710
  994SOL    HW1 3881   3.904   4.295   1.647
  994SOL    HW2 3882   3.802   4.408   1.707
  995SOL     OW 3883   3.782   2.891   4.757
  995SOL    HW1 3884   3.794   2.951   4.836
  995SOL    HW2 3885   3.817   2.800   4.779
  996SOL     OW 3886   3.150   4.911   4.783
  996SOL    HW1 3887   3.088   4.907   4.704
  996SOL    HW2 3888   3.101   4.883   4.865
  997SOL     OW 3889   0.992   0.842   2.869
  997SOL    HW1 3890   0.910   0.889   2.899
  997SOL    HW2 3891   1.072   0.885   2.910
  998SOL     OW 3892   4.579   0.246   4.135
  998SOL    HW1 3893   4.508   0.182   4.167
  998SOL    HW2 3894   4.643   0.197   4.077
  999SOL     OW 3895   5.028   3.968   2.854
  999SOL    HW1 3896   4.988   3.877   2.857
  999SOL    HW2 3897   4.970   4.028   2.798
 1000SOL     OW 3898   2.652   1.041   2.002
 1000SOL    HW1 3899   2.654   1.056   2.100
 1000SOL    HW2 3900   2.558   1.047   1.969
 1001SOL     OW 3901   4.712   5.964   0.227
 1001SOL    HW1 3902   4.809   5.981   0.212
 1001SOL    HW2 3903   4.690   5.979   0.323
 1002SOL     OW 3904   6.075   1.819   1.543
 1002SOL    HW1 3905   6.070   1.792   1.447
 1002SOL    HW2 3906   5.997   1.779   1.592
 1003SOL     OW 3907   2.081   6.433   2.169
 1003SOL    HW1 3908   2.073   6.410   2.266
 1003SOL    HW2 3909   2.072   6.349   2.114
 1004SOL     OW 3910   0.379   6.995   2.555
 1004SOL    HW1 3911   0.413   6.916   2.505
 1004SOL    HW2 3912   0.341   0.042   2.491
 1005SOL     OW 3913   2.268   2.968   4.059
 1005SOL    HW1 3914   2.260   3.053   4.111
 1005SOL    HW2 3915   2.238   2.984   3.965
 1006SOL     OW 3916   0.515   4.778   1.716
 1006SOL    HW1 3917   0.450   4.816   1.650
 1006SOL    HW2 3918   0.540   4.849   1.782
 1007SOL     OW 3919   4.363   6.752   4.983
 1007SOL    HW1 3920   4.445   6.792   5.023
 1007SOL    HW2 3921   4.319   6.817   4.922
 1008SOL     OW 3922   1.672   2.996   5.326
 1008SOL    HW1 3923   1.615   3.038   5.255
 1008SOL    HW2 3924   1.619   2.988   5.411
 1009SOL     OW 3925   0.456   5.537   5.078
 1009SOL    HW1 3926   0.478   5.445   5.109
 1009SOL    HW2 3927   0.520   5.602   5.119
 1010SOL     OW 3928   3.581   2.927   6.149
 1010SOL    HW1 3929   3.519   3.003   6.167
 1010SOL    HW2 3930   3.661   2.960   6.099
 1011SOL     OW 3931   2.477   4.453   2.533
 1011SOL    HW1 3932   2.469   4.388   2.609
 1011SOL    HW2 3933   2.471   4.546   2.568
 1012SOL     OW 3934   7.008   0.688   2.171
 1012SOL    HW1 3935   6.912   0.676   2.197
 1012SOL    HW2 3936   0.040   0.605   2.191
 1013SOL     OW 3937   1.375   0.763   5.465
 1013SOL    HW1 3938   1.355   0.700   5.390
 1013SOL    HW2 3939   1.307   0.752   5.537
 1014SOL     OW 3940   6.104   5.443   6.422
 1014SOL    HW1 3941   6.013   5.481   6.401
 1014SOL    HW2 3942   6.136   5.390   6.344
 1015SOL     OW 3943   2.291   6.628   5.824
 1015SOL    HW1 3944   2.269   6.698   5.891
 1015SOL    HW2 3945   2.338   6.552   5.869
 1016SOL     OW 3946   4.003   3.605   6.672
 1016SOL    HW1 3947   4.034   3.510   6.671
 1016SOL    HW2 3948   3.908   3.610   6.641
 1017SOL     OW 3949   4.271   2.489   1.180
 1017SOL    HW1 3950   4.364   2.505   1.214
 1017SOL    HW2 3951   4.257   2.390   1.169
 1018SOL     OW 3952   0.211   4.503   3.765
 1018SOL    HW1 3953   0.291   4.554   3.731
 1018SOL    HW2 3954   0.220   4.407   3.740
 1019SOL     OW 3955   6.889   6.817   1.026
 1019SOL    HW1 3956   6.984   6.806   0.995
 1019SOL    HW2 3957   6.857   6.909   1.003
 1020SOL     OW 3958   0.312   0.918   1.301
 1020SOL    HW1 3959   0.238   0.967   1.348
 1020SOL    HW2 3960   0.327   0.959   1.212
 1021SOL     OW 3961   5.461   0.643   1.303
 1021SOL    HW1 3962   5.516   0.560   1.295
 1021SOL    HW2 3963   5.364   0.619   1.304
 1022SOL     OW 3964   3.429   4.537   5.511
 1022SOL    HW1 3965   3.449   4.493   5.599
 1022SOL    HW2 3966   3.335   4.569   5.511
 1023SOL     OW 3967   1.114   0.027   3.132
 1023SOL    HW1 3968   1.023   7.006   3.122
 1023SOL    HW2 3969   1.114   0.091   3.208
 1024SOL     OW 3970   0.530   2.475   4.040
 1024SOL    HW1 3971   0.531   2.460   3.942
 1024SOL    HW2 3972   0.545   2.388   4.088
 1025SOL     OW 3973   3.521   3.077   1.105
 1025SOL    HW1 3974   3.617   3.086   1.134
 1025SOL    HW2 3975   3.464   3.059   1.185
 1026SOL     OW 3976   2.216   2.717   0.701
 1026SOL    HW1 3977   2.195   2.690   0.795
 1026SOL    HW2 3978   2.154   2.669   0.639
 1027SOL     OW 3979   3.115   6.389   1.298
 1027SOL    HW1 3980   3.195   6.336   1.329
 1027SOL    HW2 3981   3.033   6.333   1.306
 1028SOL     OW 3982   2.720   6.224   0.603
 1028SOL    HW1 3983   2.620   6.220   0.593
 1028SOL    HW2 3984   2.752   6.138   0.644
 1029SOL     OW 3985   1.696   0.119   6.848
 1029SOL    HW1 3986   1.784   0.086   6.816
 1029SOL    HW2 3987   1.707   0.160   6.939
 1030SOL     OW 3988   3.189   2.764   1.841
 1030SOL    HW1 3989   3.138   2.706   1.905
 1030SOL    HW2 3990   3.199   2.717   1.754
 1031SOL     OW 3991   5.631   4.319   1.176
 1031SOL    HW1 3992   5.722   4.342   1.143
 1031SOL    HW2 3993   5.573   4.401   1.177
 1032SOL     OW 3994   2.124   2.299   5.499
 1032SOL    HW1 3995   2.110   2.309   5.401
 1032SOL    HW2 3996   2.038   2.273   5.543
 1033SOL     OW 3997   1.479   6.736   1.432
 1033SOL    HW1 3998   1.550   6.784   1.380
 1033SOL    HW2 3999   1.467   6.779   1.521
 1034SOL     OW 4000   0.718   5.121   4.600
 1034SOL    HW1 4001   0.710   5.156   4.507
 1034SOL    HW2 4002   0.636   5.066   4.622
 1035SOL     OW 4003   0.108   0.821   5.127
 1035SOL    HW1 4004   0.068   0.783   5.211
 1035SOL    HW2 4005   0.145   0.912   5.146
 1036SOL     OW 4006   3.511   1.477   1.785
 1036SOL    HW1 4007   3.583   1.476   1.716
 1036SOL    HW2 4008   3.552   1.486   1.876
 1037SOL     OW 4009   1.888   1.174   1.822
 1037SOL    HW1 4010   1.913   1.269   1.806
 1037SOL    HW2 4011   1.816   1.169   1.892
 1038SOL     OW 4012   1.002   0.472   4.885
 1038SOL    HW1 4013   0.988   0.543   4.955
 1038SOL    HW2 4014   1.084   0.493   4.832
 1039SOL     OW 4015   3.228   3.794   5.409
 1039SOL    HW1 4016   3.163   3.850   5.357
 1039SOL    HW2 4017   3.263   3.846   5.487
 1040SOL     OW 4018   4.335   1.879   2.874
 1040SOL    HW1 4019   4.362   1.815   2.946
 1040SOL    HW2 4020   4.416   1.907   2.823
 1041SOL     OW 4021   6.999   0.093   3.615
 1041SOL    HW1 4022   6.939   0.114   3.692
 1041SOL    HW2 4023   6.952   0.115   3.529
 1042SOL     OW 4024   4.740   5.146   2.271
 1042SOL    HW1 4025   4.764   5.172   2.365
 1042SOL    HW2 4026   4.758   5.048   2.258
 1043SOL     OW 4027   3.740   1.246   5.188
 1043SOL    HW1 4028   3.798   1.290   5.255
 1043SOL    HW2 4029   3.741   1.297   5.102
 1044SOL     OW 4030   5.269   5.263   2.574
 1044SOL    HW1 4031   5.369   5.262   2.565
 1044SOL    HW2 4032   5.242   5.328   2.644
 1045SOL     OW 4033   4.000   6.585   2.236
 1045SOL    HW1 4034   4.097   6.567   2.251
 1045SOL    HW2 4035   3.964   6.641   2.311
 1046SOL     OW 4036   1.468   0.789   0.451
 1046SOL    HW1 4037   1.395   0.724   0.474
 1046SOL    HW2 4038   1.479   0.855   0.526
 1047SOL     OW 4039   1.827   1.263   3.466
 1047SOL    HW1 4040   1.899   1.220   3.412
 1047SOL    HW2 4041   1.849   1.360   3.479
 1048SOL     OW 4042   4.813   6.226   4.046
 1048SOL    HW1 4043   4.824   6.241   4.145
 1048SOL    HW2 4044   4.804   6.127   4.029
 1049SOL     OW 4045   6.478   6.187   3.713
 1049SOL    HW1 4046   6.569   6.208   3.676
 1049SOL    HW2 4047   6.478   6.093   3.747
 1050SOL     OW 4048   4.220   5.166   1.163
 1050SOL    HW1 4049   4.278   5.213   1.229
 1050SOL    HW2 4050   4.175   5.234   1.104
 1051SOL     OW 4051   2.299   6.230   1.021
 1051SOL    HW1 4052   2.289   6.198   1.115
 1051SOL    HW2 4053   2.391   6.210   0.988
 1052SOL     OW 4054   3.786   0.972   4.675
 1052SOL    HW1 4055   3.875   0.951   4.715
 1052SOL    HW2 4056   3.713   0.948   4.739
 1053SOL     OW 4057   5.767   5.153   3.129
 1053SOL    HW1 4058   5.834   5.106   3.071
 1053SOL    HW2 4059   5.815   5.211   3.194
 1054SOL     OW 4060   3.175   4.191   6.267
 1054SOL    HW1 4061   3.272   4.169   6.277
 1054SOL    HW2 4062   3.154   4.204   6.170
 1055SOL     OW 4063   3.500   6.722   5.070
 1055SOL    HW1 4064   3.567   6.660   5.110
 1055SOL    HW2 4065   3.475   6.691   4.979
 1056SOL     OW 4066   1.483   5.309   6.189
 1056SOL    HW1 4067   1.580   5.289   6.185
 1056SOL    HW2 4068   1.437   5.272   6.108
 1057SOL     OW 4069   2.753   3.287   1.840
 1057SOL    HW1 4070   2.783   3.275   1.934
 1057SOL    HW2 4071   2.828   3.326   1.786
 1058SOL     OW 4072   5.189   1.267   3.062
 1058SOL    HW1 4073   5.242   1.295   3.142
 1058SOL    HW2 4074   5.173   1.168   3.065
 1059SOL     OW 4075   2.457   0.763   1.733
 1059SOL    HW1 4076   2.416   0.687   1.682
 1059SOL    HW2 4077   2.525   0.809   1.676
 1060SOL     OW 4078   0.142   4.407   4.770
 1060SOL    HW1 4079   0.155   4.394   4.868
 1060SOL    HW2 4080   0.058   4.362   4.742
 1061SOL     OW 4081   6.238   2.833   0.871
 1061SOL    HW1 4082   6.295   2.914   0.861
 1061SOL    HW2 4083   6.267   2.763   0.807
 1062SOL     OW 4084   5.678   3.724   6.132
 1062SOL    HW1 4085   5.604   3.785   6.160
 1062SOL    HW2 4086   5.654   3.682   6.044
 1063SOL     OW 4087   1.883   4.994   1.988
 1063SOL    HW1 4088   1.941   5.052   1.930
 1063SOL    HW2 4089   1.941   4.934   2.043
 1064SOL     OW 4090   1.698   4.070   1.947
 1064SOL    HW1 4091   1.710   4.064   1.848
 1064SOL    HW2 4092   1.604   4.097   1.967
 1065SOL     OW 4093   3.470   0.108   3.909
 1065SOL    HW1 4094   3.405   0.180   3.936
 1065SOL    HW2 4095   3.490   0.117   3.811
 1066SOL     OW 4096   4.679   6.344   3.093
 1066SOL    HW1 4097   4.745   6.411   3.128
 1066SOL    HW2 4098   4.708   6.252   3.118
 1067SOL     OW 4099   0.704   3.421   0.855
 1067SOL    HW1 4100   0.656   3.334   0.866
 1067SOL    HW2 4101   0.782   3.424   0.918
 1068SOL     OW 4102   5.517   5.772   3.104
 1068SOL    HW1 4103   5.515   5.761   3.204
 1068SOL    HW2 4104   5.509   5.682   3.061
 1069SOL     OW 4105   4.423   5.307   1.311
 1069SOL    HW1 4106   4.400   5.280   1.405
 1069SOL    HW2 4107   4.397   5.402   1.297
 1070SOL     OW 4108   6.903   0.330   2.175
 1070SOL    HW1 4109   6.867   0.265   2.242
 1070SOL    HW2 4110   6.827   0.378   2.131
 1071SOL     OW 4111   1.376   0.509   3.851
 1071SOL    HW1 4112   1.341   0.420   3.881
 1071SOL    HW2 4113   1.476   0.504   3.846
 1072SOL     OW 4114   2.377   1.085   1.198
 1072SOL    HW1 4115   2.370   1.161   1.262
 1072SOL    HW2 4116   2.435   1.111   1.121
 1073SOL     OW 4117   5.067   6.986   1.853
 1073SOL    HW1 4118   5.132   6.945   1.917
 1073SOL    HW2 4119   5.001   0.021   1.904
 1074SOL     OW 4120   1.727   5.195   1.180
 1074SOL    HW1 4121   1.776   5.236   1.103
 1074SOL    HW2 4122   1.784   5.199   1.261
 1075SOL     OW 4123   5.114   6.892   4.068
 1075SOL    HW1 4124   5.200   6.905   4.118
 1075SOL    HW2 4125   5.121   6.810   4.011
 1076SOL     OW 4126   7.014   2.705   5.503
 1076SOL    HW1 4127   7.005   2.690   5.601
 1076SOL    HW2 4128   0.018   2.801   5.486
 1077SOL     OW 4129   5.888   0.772   1.255
 1077SOL    HW1 4130   5.951   0.849   1.247
 1077SOL    HW2 4131   5.930   0.700   1.310
 1078SOL     OW 4132   1.212   1.451   2.590
 1078SOL    HW1 4133   1.300   1.484   2.557
 1078SOL    HW2 4134   1.218   1.353   2.610
 1079SOL     OW 4135   2.429   6.082   2.241
 1079SOL    HW1 4136   2.332   6.078   2.221
 1079SOL    HW2 4137   2.476   6.132   2.168
 1080SOL     OW 4138   0.995   4.067   3.645
 1080SOL    HW1 4139   1.021   4.017   3.562
 1080SOL    HW2 4140   1.019   4.012   3.726
 1081SOL     OW 4141   0.631   5.425   5.904
 1081SOL    HW1 4142   0.542   5.467   5.888
 1081SOL    HW2 4143   0.682   5.422   5.819
 1082SOL     OW 4144   4.088   2.118   5.665
 1082SOL    HW1 4145   4.156   2.081   5.602
 1082SOL    HW2 4146   4.011   2.055   5.674
 1083SOL     OW 4147   4.242   3.801   0.031
 1083SOL    HW1 4148   4.284   3.723   0.079
 1083SOL    HW2 4149   4.293   3.819   6.967
 1084SOL     OW 4150   5.615   5.986   6.709
 1084SOL    HW1 4151   5.636   5.890   6.694
 1084SOL    HW2 4152   5.619   6.007   6.806
 1085SOL     OW 4153   1.296   3.714   4.001
 1085SOL    HW1 4154   1.362   3.783   4.029
 1085SOL    HW2 4155   1.333   3.623   4.018
 1086SOL     OW 4156   6.671   6.353   0.867
 1086SOL    HW1 4157   6.577   6.334   0.837
 1086SOL    HW2 4158   6.702   6.439   0.827
 1087SOL     OW 4159   5.450   1.504   4.681
 1087SOL    HW1 4160   5.405   1.556   4.754
 1087SOL    HW2 4161   5.548   1.502   4.698
 1088SOL     OW 4162   6.757   4.731   3.223
 1088SOL    HW1 4163   6.723   4.652   3.274
 1088SOL    HW2 4164   6.686   4.802   3.221
 1089SOL     OW 4165   1.898   6.323   4.126
 1089SOL    HW1 4166   1.987   6.302   4.085
 1089SOL    HW2 4167   1.867   6.245   4.181
 1090SOL     OW 4168   2.236   2.300   3.877
 1090SOL    HW1 4169   2.295   2.283   3.798
 1090SOL    HW2 4170   2.245   2.395   3.906
 1091SOL     OW 4171   3.363   1.526   5.043
 1091SOL    HW1 4172   3.290   1.583   5.006
 1091SOL    HW2 4173   3.369   1.539   5.142
 1092SOL     OW 4174   1.993   3.817   1.523
 1092SOL    HW1 4175   2.026   3.776   1.438
 1092SOL    HW2 4176   1.952   3.746   1.580
 1093SOL     OW 4177   2.129   1.388   1.975
 1093SOL    HW1 4178   2.191   1.314   2.003
 1093SOL    HW2 4179   2.161   1.474   2.015
 1094SOL     OW 4180   0.781   0.030   3.510
 1094SOL    HW1 4181   0.728   0.092   3.453
 1094SOL    HW2 4182   0.813   6.973   3.455
 1095SOL     OW 4183   0.584   2.803   6.492
 1095SOL    HW1 4184   0.608   2.894   6.524
 1095SOL    HW2 4185   0.507   2.809   6.429
 1096SOL     OW 4186   3.457   4.372   1.726
 1096SOL    HW1 4187   3.522   4.365   1.651
 1096SOL    HW2 4188   3.478   4.453   1.781
 1097SOL     OW 4189   2.117   4.514   4.009
 1097SOL    HW1 4190   2.152   4.579   4.076
 1097SOL    HW2 4191   2.017   4.507   4.019
 1098SOL     OW 4192   3.982   3.543   6.940
 1098SOL    HW1 4193   3.911   3.608   6.966
 1098SOL    HW2 4194   4.014   3.565   6.848
 1099SOL     OW 4195   4.213   1.750   5.667
 1099SOL    HW1 4196   4.170   1.727   5.754
 1099SOL    HW2 4197   4.155   1.718   5.592
 1100SOL     OW 4198   3.399   1.765   5.444
 1100SOL    HW1 4199   3.326   1.833   5.450
 1100SOL    HW2 4200   3.472   1.802   5.386
 1101SOL     OW 4201   6.228   2.139   6.958
 1101SOL    HW1 4202   6.160   2.081   6.913
 1101SOL    HW2 4203   6.316   2.129   6.911
 1102SOL     OW 4204   0.515   6.343   5.269
 1102SOL    HW1 4205   0.611   6.370   5.269
 1102SOL    HW2 4206   0.498   6.278   5.196
 1103SOL     OW 4207   3.810   1.421   0.122
 1103SOL    HW1 4208   3.880   1.364   0.079
 1103SOL    HW2 4209   3.719   1.387   0.096
 1104SOL     OW 4210   2.373   2.705   5.519
 1104SOL    HW1 4211   2.461   2.682   5.561
 1104SOL    HW2 4212   2.384   2.786   5.461
 1105SOL     OW 4213   6.544   3.992   5.308
 1105SOL    HW1 4214   6.488   4.065   5.347
 1105SOL    HW2 4215   6.518   3.977   5.213
 1106SOL     OW 4216   0.676   2.231   1.818
 1106SOL    HW1 4217   0.687   2.307   1.755
 1106SOL    HW2 4218   0.605   2.169   1.785
 1107SOL     OW 4219   1.337   0.587   6.850
 1107SOL    HW1 4220   1.379   0.654   6.789
 1107SOL    HW2 4221   1.277   0.634   6.915
 1108SOL     OW 4222   3.808   0.565   5.709
 1108SOL    HW1 4223   3.835   0.509   5.788
 1108SOL    HW2 4224   3.850   0.656   5.718
 1109SOL     OW 4225   5.209   0.651   4.350
 1109SOL    HW1 4226   5.204   0.557   4.384
 1109SOL    HW2 4227   5.302   0.686   4.362
 1110SOL     OW 4228   2.483   1.463   3.321
 1110SOL    HW1 4229   2.561   1.474   3.383
 1110SOL    HW2 4230   2.516   1.451   3.227
 1111SOL     OW 4231   4.475   5.215   6.190
 1111SOL    HW1 4232   4.396   5.233   6.132
 1111SOL    HW2 4233   4.542   5.289   6.178
 1112SOL     OW 4234   5.007   1.386   2.262
 1112SOL    HW1 4235   5.025   1.293   2.228
 1112SOL    HW2 4236   4.938   1.382   2.334
 1113SOL     OW 4237   6.159   4.020   1.980
 1113SOL    HW1 4238   6.202   4.045   1.893
 1113SOL    HW2 4239   6.181   3.925   2.002
 1114SOL     OW 4240   3.860   2.031   6.773
 1114SOL    HW1 4241   3.911   2.105   6.729
 1114SOL    HW2 4242   3.766   2.061   6.789
 1115SOL     OW 4243   4.085   3.376   6.556
 1115SOL    HW1 4244   4.085   3.395   6.458
 1115SOL    HW2 4245   4.169   3.329   6.581
 1116SOL     OW 4246   5.072   6.541   5.538
 1116SOL    HW1 4247   5.027   6.540   5.449
 1116SOL    HW2 4248   5.087   6.636   5.567
 1117SOL     OW 4249   2.166   2.233   2.468
 1117SOL    HW1 4250   2.262   2.241   2.441
 1117SOL    HW2 4251   2.109   2.230   2.385
 1118SOL     OW 4252   2.733   4.647   1.169
 1118SOL    HW1 4253   2.779   4.625   1.255
 1118SOL    HW2 4254   2.656   4.585   1.156
 1119SOL     OW 4255   4.063   4.476   1.407
 1119SOL    HW1 4256   3.977   4.512   1.370
 1119SOL    HW2 4257   4.045   4.397   1.464
 1120SOL     OW 4258   6.266   6.825   6.196
 1120SOL    HW1 4259   6.270   6.769   6.113
 1120SOL    HW2 4260   6.191   6.891   6.188
 1121SOL     OW 4261   5.051   4.974   3.530
 1121SOL    HW1 4262   5.119   5.033   3.488
 1121SOL    HW2 4263   5.040   4.891   3.476
 1122SOL     OW 4264   5.361   2.834   6.953
 1122SOL    HW1 4265   5.349   2.809   0.029
 1122SOL    HW2 4266   5.276   2.818   6.904
 1123SOL     OW 4267   4.736   0.856   3.269
 1123SOL    HW1 4268   4.716   0.780   3.207
 1123SOL    HW2 4269   4.676   0.933   3.247
 1124SOL     OW 4270   0.385   3.837   5.144
 1124SOL    HW1 4271   0.364   3.791   5.231
 1124SOL    HW2 4272   0.370   3.935   5.154
 1125SOL     OW 4273   3.515   2.105   4.545
 1125SOL    HW1 4274   3.427   2.077   4.582
 1125SOL    HW2 4275   3.506   2.127   4.448
 1126SOL     OW 4276   6.144   4.894   6.862
 1126SOL    HW1 4277   6.095   4.905   6.775
 1126SOL    HW2 4278   6.154   4.982   6.907
 1127SOL     OW 4279   5.334   5.318   4.936
 1127SOL    HW1 4280   5.422   5.293   4.896
 1127SOL    HW2 4281   5.348   5.356   5.027
 1128SOL     OW 4282   5.840   1.615   5.477
 1128SOL    HW1 4283   5.790   1.546   5.423
 1128SOL    HW2 4284   5.827   1.705   5.435
 1129SOL     OW 4285   2.033   0.492   6.824
 1129SOL    HW1 4286   2.122   0.529   6.848
 1129SOL    HW2 4287   2.039   0.445   6.735
 1130SOL     OW 4288   2.677   4.701   0.678
 1130SOL    HW1 4289   2.716   4.691   0.769
 1130SOL    HW2 4290   2.631   4.790   0.671
 1131SOL     OW 4291   6.956   5.365   5.970
 1131SOL    HW1 4292   7.000   5.279   5.948
 1131SOL    HW2 4293   0.004   5.439   5.968
 1132SOL     OW 4294   5.380   0.581   1.660
 1132SOL    HW1 4295   5.440   0.586   1.581
 1132SOL    HW2 4296   5.338   0.490   1.664
 1133SOL     OW 4297   0.739   0.230   1.411
 1133SOL    HW1 4298   0.757   0.295   1.336
 1133SOL    HW2 4299   0.814   0.165   1.418
 1134SOL     OW 4300   5.086   0.569   1.854
 1134SOL    HW1 4301   5.044   0.638   1.794
 1134SOL    HW2 4302   5.107   0.610   1.943
 1135SOL     OW 4303   2.574   0.803   2.669
 1135SOL    HW1 4304   2.624   0.793   2.754
 1135SOL    HW2 4305   2.638   0.799   2.592
 1136SOL     OW 4306   3.631   5.101   3.435
 1136SOL    HW1 4307   3.630   5.198   3.461
 1136SOL    HW2 4308   3.568   5.085   3.360
 1137SOL     OW 4309   1.404   0.967   6.479
 1137SOL    HW1 4310   1.386   0.929   6.388
 1137SOL    HW2 4311   1.462   1.048   6.470
 1138SOL     OW 4312   6.862   0.522   5.726
 1138SOL    HW1 4313   6.783   0.468   5.694
 1138SOL    HW2 4314   6.830   0.600   5.779
 1139SOL     OW 4315   3.364   5.050   1.574
 1139SOL    HW1 4316   3.374   4.965   1.523
 1139SOL    HW2 4317   3.279   5.095   1.549
 1140SOL     OW 4318   4.238   1.350   1.858
 1140SOL    HW1 4319   4.254   1.425   1.922
 1140SOL    HW2 4320   4.247   1.384   1.765
 1141SOL     OW 4321   0.259   5.909   6.962
 1141SOL    HW1 4322   0.165   5.877   6.946
 1141SOL    HW2 4323   0.273   5.995   6.914
 1142SOL     OW 4324   2.734   6.868   4.420
 1142SOL    HW1 4325   2.655   6.812   4.394
 1142SOL    HW2 4326   2.813   6.844   4.364
 1143SOL     OW 4327   1.544   3.845   2.765
 1143SOL    HW1 4328   1.516   3.858   2.670
 1143SOL    HW2 4329   1.637   3.877   2.778
 1144SOL     OW 4330   6.490   4.863   4.504
 1144SOL    HW1 4331   6.583   4.879   4.472
 1144SOL    HW2 4332   6.492   4.808   4.587
 1145SOL     OW 4333   6.619   3.494   2.674
 1145SOL    HW1 4334   6.597   3.590   2.656
 1145SOL    HW2 4335   6.539   3.448   2.713
 1146SOL     OW 4336   6.581   0.489   2.403
 1146SOL    HW1 4337   6.647   0.559   2.427
 1146SOL    HW2 4338   6.573   0.423   2.478
 1147SOL     OW 4339   2.368   5.133   1.392
 1147SOL    HW1 4340   2.297   5.066   1.415
 1147SOL    HW2 4341   2.345   5.222   1.431
 1148SOL     OW 4342   4.872   6.124   0.677
 1148SOL    HW1 4343   4.936   6.049   0.692
 1148SOL    HW2 4344   4.809   6.131   0.754
 1149SOL     OW 4345   0.015   4.217   3.384
 1149SOL    HW1 4346   0.032   4.311   3.356
 1149SOL    HW2 4347   6.956   4.216   3.447
 1150SOL     OW 4348   2.341   3.664   0.378
 1150SOL    HW1 4349   2.392   3.580   0.396
 1150SOL    HW2 4350   2.247   3.654   0.409
 1151SOL     OW 4351   5.041   4.602   6.710
 1151SOL    HW1 4352   4.973   4.565   6.646
 1151SOL    HW2 4353   5.071   4.529   6.771
 1152SOL     OW 4354   5.396   4.968   6.273
 1152SOL    HW1 4355   5.422   4.980   6.369
 1152SOL    HW2 4356   5.379   5.058   6.232
 1153SOL     OW 4357   1.648   0.638   1.578
 1153SOL    HW1 4358   1.647   0.735   1.601
 1153SOL    HW2 4359   1.742   0.606   1.573
 1154SOL     OW 4360   0.111   4.223   1.059
 1154SOL    HW1 4361   0.210   4.221   1.047
 1154SOL    HW2 4362   0.077   4.129   1.066
 1155SOL     OW 4363   2.511   5.569   6.946
 1155SOL    HW1 4364   2.432   5.518   6.979
 1155SOL    HW2 4365   2.542   5.530   6.859
 1156SOL     OW 4366   4.167   1.657   4.752
 1156SOL    HW1 4367   4.204   1.749   4.754
 1156SOL    HW2 4368   4.241   1.590   4.748
 1157SOL     OW 4369   5.669   0.693   5.460
 1157SOL    HW1 4370   5.694   0.597   5.477
 1157SOL    HW2 4371   5.641   0.704   5.365
 1158SOL     OW 4372   6.948   5.147   5.266
 1158SOL    HW1 4373   6.934   5.114   5.360
 1158SOL    HW2 4374   0.024   5.133   5.241
 1159SOL     OW 4375   6.414   6.696   4.015
 1159SOL    HW1 4376   6.511   6.699   4.038
 1159SOL    HW2 4377   6.360   6.729   4.092
 1160SOL     OW 4378   4.416   3.768   0.802
 1160SOL    HW1 4379   4.320   3.742   0.790
 1160SOL    HW2 4380   4.428   3.864   0.775
 1161SOL     OW 4381   6.291   0.102   6.483
 1161SOL    HW1 4382   6.245   0.092   6.572
 1161SOL    HW2 4383   6.329   0.014   6.455
 1162SOL     OW 4384   3.252   1.992   6.472
 1162SOL    HW1 4385   3.217   2.079   6.507
 1162SOL    HW2 4386   3.181   1.923   6.477
 1163SOL     OW 4387   6.401   3.224   2.120
 1163SOL    HW1 4388   6.374   3.315   2.152
 1163SOL    HW2 4389   6.419   3.164   2.198
 1164SOL     OW 4390   6.328   3.142   4.743
 1164SOL    HW1 4391   6.292   3.181   4.828
 1164SOL    HW2 4392   6.367   3.052   4.762
 1165SOL     OW 4393   3.050   4.886   3.817
 1165SOL    HW1 4394   3.148   4.874   3.832
 1165SOL    HW2 4395   3.035   4.947   3.739
 1166SOL     OW 4396   4.133   6.689   0.219
 1166SOL    HW1 4397   4.204   6.717   0.284
 1166SOL    HW2 4398   4.127   6.758   0.146
 1167SOL     OW 4399   4.085   6.464   6.476
 1167SOL    HW1 4400   4.102   6.434   6.570
 1167SOL    HW2 4401   4.123   6.396   6.412
 1168SOL     OW 4402   5.143   2.249   3.570
 1168SOL    HW1 4403   5.194   2.316   3.624
 1168SOL    HW2 4404   5.165   2.260   3.473
 1169SOL     OW 4405   5.034   2.101   5.799
 1169SOL    HW1 4406   4.957   2.113   5.862
 1169SOL    HW2 4407   5.026   2.012   5.754
 1170SOL     OW 4408   5.077   0.713   3.115
 1170SOL    HW1 4409   5.103   0.773   3.190
 1170SOL    HW2 4410   5.083   0.618   3.144
 1171SOL     OW 4411   2.951   6.143   6.972
 1171SOL    HW1 4412   2.932   6.241   6.973
 1171SOL    HW2 4413   3.020   6.122   0.021
 1172SOL     OW 4414   2.858   4.153   1.583
 1172SOL    HW1 4415   2.920   4.138   1.660
 1172SOL    HW2 4416   2.824   4.247   1.586
 1173SOL     OW 4417   2.894   0.675   6.250
 1173SOL    HW1 4418   2.823   0.698   6.184
 1173SOL    HW2 4419   2.878   0.725   6.335
 1174SOL     OW 4420   3.437   4.856   0.931
 1174SOL    HW1 4421   3.475   4.793   0.863
 1174SOL    HW2 4422   3.460   4.824   1.023
 1175SOL     OW 4423   3.746   3.712   6.934
 1175SOL    HW1 4424   3.650   3.734   6.918
 1175SOL    HW2 4425   3.793   3.791   6.974
 1176SOL     OW 4426   6.170   4.941   6.535
 1176SOL    HW1 4427   6.190   4.977   6.444
 1176SOL    HW2 4428   6.210   4.850   6.545
 1177SOL     OW 4429   6.826   1.982   5.493
 1177SOL    HW1 4430   6.863   1.921   5.424
 1177SOL    HW2 4431   6.750   2.034   5.454
 1178SOL     OW 4432   3.221   3.904   0.857
 1178SOL    HW1 4433   3.168   3.972   0.909
 1178SOL    HW2 4434   3.195   3.908   0.761
 1179SOL     OW 4435   3.260   6.190   0.618
 1179SOL    HW1 4436   3.242   6.170   0.715
 1179SOL    HW2 4437   3.349   6.234   0.610
 1180SOL     OW 4438   1.929   5.911   3.961
 1180SOL    HW1 4439   1.991   5.866   3.897
 1180SOL    HW2 4440   1.852   5.950   3.912
 1181SOL     OW 4441   0.325   3.085   5.807
 1181SOL    HW1 4442   0.405   3.026   5.811
 1181SOL    HW2 4443   0.341   3.157   5.739
 1182SOL     OW 4444   2.981   4.862   2.969
 1182SOL    HW1 4445   2.951   4.807   2.890
 1182SOL    HW2 4446   2.949   4.819   3.053
 1183SOL     OW 4447   3.497   5.457   2.226
 1183SOL    HW1 4448   3.425   5.496   2.283
 1183SOL    HW2 4449   3.458   5.428   2.138
 1184SOL     OW 4450   5.935   6.786   5.820
 1184SOL    HW1 4451   6.033   6.797   5.834
 1184SOL    HW2 4452   5.894   6.740   5.899
 1185SOL     OW 4453   0.581   0.929   0.805
 1185SOL    HW1 4454   0.628   0.968   0.884
 1185SOL    HW2 4455   0.594   0.988   0.726
 1186SOL     OW 4456   5.787   5.707   5.711
 1186SOL    HW1 4457   5.713   5.702   5.778
 1186SOL    HW2 4458   5.849   5.781   5.736
 1187SOL     OW 4459   5.272   6.466   5.814
 1187SOL    HW1 4460   5.248   6.439   5.721
 1187SOL    HW2 4461   5.339   6.402   5.852
 1188SOL     OW 4462   3.108   5.299   6.046
 1188SOL    HW1 4463   3.073   5.252   5.965
 1188SOL    HW2 4464   3.148   5.387   6.019
 1189SOL     OW 4465   6.357   0.556   0.814
 1189SOL    HW1 4466   6.395   0.468   0.783
 1189SOL    HW2 4467   6.303   0.542   0.897
 1190SOL     OW 4468   3.024   5.621   2.457
 1190SOL    HW1 4469   3.047   5.694   2.392
 1190SOL    HW2 4470   3.105   5.598   2.511
 1191SOL     OW 4471   2.600   6.311   4.557
 1191SOL    HW1 4472   2.684   6.265   4.528
 1191SOL    HW2 4473   2.556   6.257   4.629
 1192SOL     OW 4474   6.010   6.116   3.420
 1192SOL    HW1 4475   6.077   6.088   3.351
 1192SOL    HW2 4476   6.058   6.139   3.505
 1193SOL     OW 4477   0.037   0.380   5.207
 1193SOL    HW1 4478   0.030   0.443   5.130
 1193SOL    HW2 4479   0.132   0.352   5.219
 1194SOL     OW 4480   6.834   1.353   1.447
 1194SOL    HW1 4481   6.850   1.274   1.507
 1194SOL    HW2 4482   6.913   1.414   1.450
 1195SOL     OW 4483   6.909   3.319   0.481
 1195SOL    HW1 4484   6.915   3.340   0.579
 1195SOL    HW2 4485   6.902   3.405   0.429
 1196SOL     OW 4486   6.295   4.480   3.650
 1196SOL    HW1 4487   6.270   4.544   3.723
 1196SOL    HW2 4488   6.380   4.433   3.674
 1197SOL     OW 4489   4.380   6.418   4.460
 1197SOL    HW1 4490   4.336   6.504   4.484
 1197SOL    HW2 4491   4.466   6.436   4.414
 1198SOL     OW 4492   1.165   3.640   2.099
 1198SOL    HW1 4493   1.114   3.672   2.178
 1198SOL    HW2 4494   1.121   3.672   2.015
 1199SOL     OW 4495   3.237   3.806   2.881
 1199SOL    HW1 4496   3.336   3.790   2.886
 1199SOL    HW2 4497   3.217   3.900   2.906
 1200SOL     OW 4498   3.896   4.013   4.484
 1200SOL    HW1 4499   3.873   4.052   4.395
 1200SOL    HW2 4500   3.850   4.065   4.556
 1201SOL     OW 4501   6.489   0.994   5.185
 1201SOL    HW1 4502   6.543   0.996   5.269
 1201SOL    HW2 4503   6.538   1.045   5.113
 1202SOL     OW 4504   0.233   6.095   5.636
 1202SOL    HW1 4505   0.176   6.133   5.562
 1202SOL    HW2 4506   0.328   6.122   5.622
 1203SOL     OW 4507   0.626   6.531   0.487
 1203SOL    HW1 4508   0.542   6.534   0.433
 1203SOL    HW2 4509   0.698   6.580   0.437
 1204SOL     OW 4510   4.504   1.174   1.572
 1204SOL    HW1 4511   4.470   1.091   1.617
 1204SOL    HW2 4512   4.595   1.156   1.535
 1205SOL     OW 4513   3.514   4.019   0.432
 1205SOL    HW1 4514   3.421   4.048   0.453
 1205SOL    HW2 4515   3.562   4.093   0.385
 1206SOL     OW 4516   1.044   3.310   4.939
 1206SOL    HW1 4517   1.051   3.242   5.012
 1206SOL    HW2 4518   1.108   3.287   4.866
 1207SOL     OW 4519   0.386   0.735   0.606
 1207SOL    HW1 4520   0.357   0.824   0.642
 1207SOL    HW2 4521   0.482   0.739   0.580
 1208SOL     OW 4522   3.328   3.034   1.308
 1208SOL    HW1 4523   3.320   3.022   1.407
 1208SOL    HW2 4524   3.280   3.117   1.280
 1209SOL     OW 4525   5.359   0.086   4.326
 1209SOL    HW1 4526   5.408   0.142   4.392
 1209SOL    HW2 4527   5.423   0.023   4.281
 1210SOL     OW 4528   4.208   6.334   3.644
 1210SOL    HW1 4529   4.109   6.343   3.634
 1210SOL    HW2 4530   4.239   6.392   3.720
 1211SOL     OW 4531   0.772   3.387   2.769
 1211SOL    HW1 4532   0.720   3.361   2.850
 1211SOL    HW2 4533   0.869   3.370   2.785
 1212SOL     OW 4534   6.700   6.800   5.994
 1212SOL    HW1 4535   6.631   6.867   5.971
 1212SOL    HW2 4536   6.656   6.718   6.031
 1213SOL     OW 4537   5.597   2.517   1.908
 1213SOL    HW1 4538   5.640   2.606   1.894
 1213SOL    HW2 4539   5.574   2.506   2.005
 1214SOL     OW 4540   0.865   2.424   6.776
 1214SOL    HW1 4541   0.802   2.399   6.703
 1214SOL    HW2 4542   0.845   2.368   6.857
 1215SOL     OW 4543   1.354   4.974   2.728
 1215SOL    HW1 4544   1.397   5.001   2.642
 1215SOL    HW2 4545   1.366   4.875   2.742
 1216SOL     OW 4546   5.287   1.344   0.796
 1216SOL    HW1 4547   5.326   1.319   0.885
 1216SOL    HW2 4548   5.256   1.439   0.800
 1217SOL     OW 4549   2.378   4.884   0.521
 1217SOL    HW1 4550   2.459   4.921   0.567
 1217SOL    HW2 4551   2.398   4.867   0.425
 1218SOL     OW 4552   1.922   2.443   5.062
 1218SOL    HW1 4553   1.829   2.468   5.034
 1218SOL    HW2 4554   1.961   2.517   5.116
 1219SOL     OW 4555   5.659   5.672   1.977
 1219SOL    HW1 4556   5.574   5.631   1.942
 1219SOL    HW2 4557   5.713   5.706   1.901
 1220SOL     OW 4558   6.994   3.968   2.450
 1220SOL    HW1 4559   6.919   4.035   2.445
 1220SOL    HW2 4560   0.013   3.955   2.359
 1221SOL     OW 4561   4.972   3.552   6.504
 1221SOL    HW1 4562   4.942   3.629   6.447
 1221SOL    HW2 4563   4.984   3.583   6.598
 1222SOL     OW 4564   6.544   1.139   6.527
 1222SOL    HW1 4565   6.498   1.227   6.539
 1222SOL    HW2 4566   6.623   1.133   6.587
 1223SOL     OW 4567   4.164   0.907   0.091
 1223SOL    HW1 4568   4.132   0.875   0.179
 1223SOL    HW2 4569   4.258   0.941   0.100
 1224SOL     OW 4570   2.819   6.390   6.705
 1224SOL    HW1 4571   2.875   6.419   6.628
 1224SOL    HW2 4572   2.722   6.394   6.680
 1225SOL     OW 4573   3.491   2.532   6.805
 1225SOL    HW1 4574   3.501   2.449   6.751
 1225SOL    HW2 4575   3.571   2.544   6.864
 1226SOL     OW 4576   3.769   6.364   0.230
 1226SOL    HW1 4577   3.854   6.401   0.194
 1226SOL    HW2 4578   3.785   6.272   0.266
 1227SOL     OW 4579   5.010   4.835   5.669
 1227SOL    HW1 4580   5.067   4.756   5.694
 1227SOL    HW2 4581   5.066   4.903   5.621
 1228SOL     OW 4582   3.007   2.444   6.403
 1228SOL    HW1 4583   3.043   2.478   6.490
 1228SOL    HW2 4584   2.908   2.461   6.399
 1229SOL     OW 4585   2.372   5.284   0.112
 1229SOL    HW1 4586   2.354   5.277   0.210
 1229SOL    HW2 4587   2.320   5.361   0.075
 1230SOL     OW 4588   5.520   6.517   1.697
 1230SOL    HW1 4589   5.434   6.548   1.655
 1230SOL    HW2 4590   5.507   6.509   1.796
 1231SOL     OW 4591   1.966   1.867   5.478
 1231SOL    HW1 4592   1.956   1.959   5.439
 1231SOL    HW2 4593   1.966   1.800   5.404
 1232SOL     OW 4594   6.735   1.121   5.082
 1232SOL    HW1 4595   6.828   1.153   5.068
 1232SOL    HW2 4596   6.674   1.162   5.014
 1233SOL     OW 4597   1.042   5.534   4.867
 1233SOL    HW1 4598   0.962   5.550   4.925
 1233SOL    HW2 4599   1.015   5.482   4.786
 1234SOL     OW 4600   5.907   3.075   5.948
 1234SOL    HW1 4601   5.836   3.012   5.916
 1234SOL    HW2 4602   5.914   3.152   5.885
 1235SOL     OW 4603   5.960   5.373   1.881
 1235SOL    HW1 4604   5.997   5.433   1.809
 1235SOL    HW2 4605   6.035   5.331   1.931
 1236SOL     OW 4606   4.409   0.675   1.012
 1236SOL    HW1 4607   4.314   0.673   0.980
 1236SOL    HW2 4608   4.445   0.768   1.004
 1237SOL     OW 4609   2.062   4.463   6.042
 1237SOL    HW1 4610   2.097   4.382   5.995
 1237SOL    HW2 4611   1.966   4.449   6.066
 1238SOL     OW 4612   1.386   0.818   6.232
 1238SOL    HW1 4613   1.397   0.905   6.183
 1238SOL    HW2 4614   1.319   0.761   6.185
 1239SOL     OW 4615   0.172   0.180   0.368
 1239SOL    HW1 4616   0.107   0.141   0.303
 1239SOL    HW2 4617   0.123   0.238   0.434
 1240SOL     OW 4618   5.606   5.875   0.909
 1240SOL    HW1 4619   5.684   5.937   0.923
 1240SOL    HW2 4620   5.612   5.835   0.818
 1241SOL     OW 4621   5.791   4.075   5.503
 1241SOL    HW1 4622   5.726   4.133   5.455
 1241SOL    HW2 4623   5.869   4.056   5.444
 1242SOL     OW 4624   1.943   3.411   1.333
 1242SOL    HW1 4625   1.957   3.350   1.412
 1242SOL    HW2 4626   1.847   3.409   1.305
 1243SOL     OW 4627   1.039   0.335   5.150
 1243SOL    HW1 4628   1.116   0.390   5.119
 1243SOL    HW2 4629   0.974   0.324   5.075
 1244SOL     OW 4630   5.382   6.521   4.199
 1244SOL    HW1 4631   5.450   6.551   4.132
 1244SOL    HW2 4632   5.427   6.497   4.285
 1245SOL     OW 4633   5.548   4.334   0.366
 1245SOL    HW1 4634   5.461   4.339   0.415
 1245SOL    HW2 4635   5.616   4.288   0.424
 1246SOL     OW 4636   3.377   1.260   1.258
 1246SOL    HW1 4637   3.341   1.192   1.193
 1246SOL    HW2 4638   3.455   1.221   1.307
 1247SOL     OW 4639   0.080   6.440   5.783
 1247SOL    HW1 4640   0.015   6.461   5.856
 1247SOL    HW2 4641   0.095   6.523   5.728
 1248SOL     OW 4642   2.072   6.733   4.642
 1248SOL    HW1 4643   2.134   6.657   4.662
 1248SOL    HW2 4644   1.993   6.729   4.704
 1249SOL     OW 4645   6.806   2.166   2.153
 1249SOL    HW1 4646   6.736   2.220   2.108
 1249SOL    HW2 4647   6.816   2.078   2.106
 1250SOL     OW 4648   5.630   5.431   3.358
 1250SOL    HW1 4649   5.602   5.525   3.342
 1250SOL    HW2 4650   5.716   5.429   3.409
 1251SOL     OW 4651   2.682   1.121   3.176
 1251SOL    HW1 4652   2.641   1.133   3.267
 1251SOL    HW2 4653   2.610   1.117   3.107
 1252SOL     OW 4654   4.469   4.185   6.554
 1252SOL    HW1 4655   4.437   4.232   6.471
 1252SOL    HW2 4656   4.484   4.253   6.626
 1253SOL     OW 4657   3.087   6.282   1.752
 1253SOL    HW1 4658   3.133   6.361   1.710
 1253SOL    HW2 4659   3.108   6.200   1.700
 1254SOL     OW 4660   0.391   3.119   3.663
 1254SOL    HW1 4661   0.480   3.144   3.703
 1254SOL    HW2 4662   0.377   3.021   3.673
 1255SOL     OW 4663   5.665   1.321   6.019
 1255SOL    HW1 4664   5.665   1.412   5.975
 1255SOL    HW2 4665   5.758   1.298   6.048
 1256SOL     OW 4666   6.785   0.100   3.093
 1256SOL    HW1 4667   6.690   0.133   3.097
 1256SOL    HW2 4668   6.793   0.032   3.020
 1257SOL     OW 4669   0.330   5.039   4.373
 1257SOL    HW1 4670   0.330   5.082   4.463
 1257SOL    HW2 4671   0.255   4.972   4.368
 1258SOL     OW 4672   1.451   5.225   2.843
 1258SOL    HW1 4673   1.403   5.150   2.796
 1258SOL    HW2 4674   1.549   5.205   2.845
 1259SOL     OW 4675   3.219   0.576   4.315
 1259SOL    HW1 4676   3.272   0.566   4.400
 1259SOL    HW2 4677   3.282   0.595   4.240
 1260SOL     OW 4678   3.016   2.163   6.807
 1260SOL    HW1 4679   2.974   2.201   6.890
 1260SOL    HW2 4680   3.085   2.096   6.832
 1261SOL     OW 4681   6.659   5.469   6.429
 1261SOL    HW1 4682   6.707   5.453   6.515
 1261SOL    HW2 4683   6.593   5.543   6.440
 1262SOL     OW 4684   6.091   3.944   1.567
 1262SOL    HW1 4685   6.140   3.857   1.571
 1262SOL    HW2 4686   6.010   3.935   1.510
 1263SOL     OW 4687   0.338   1.949   1.486
 1263SOL    HW1 4688   0.347   1.911   1.394
 1263SOL    HW2 4689   0.288   1.885   1.544
 1264SOL     OW 4690   6.679   3.636   1.928
 1264SOL    HW1 4691   6.730   3.567   1.978
 1264SOL    HW2 4692   6.665   3.605   1.834
 1265SOL     OW 4693   4.855   5.954   4.068
 1265SOL    HW1 4694   4.895   5.873   4.024
 1265SOL    HW2 4695   4.897   5.966   4.158
 1266SOL     OW 4696   0.104   1.649   4.789
 1266SOL    HW1 4697   0.118   1.730   4.845
 1266SOL    HW2 4698   0.092   1.569   4.847
 1267SOL     OW 4699   4.628   6.513   1.162
 1267SOL    HW1 4700   4.643   6.600   1.113
 1267SOL    HW2 4701   4.617   6.532   1.260
 1268SOL     OW 4702   3.187   2.742   0.231
 1268SOL    HW1 4703   3.164   2.691   0.148
 1268SOL    HW2 4704   3.109   2.798   0.259
 1269SOL     OW 4705   5.612   5.293   4.891
 1269SOL    HW1 4706   5.633   5.267   4.797
 1269SOL    HW2 4707   5.644   5.222   4.953
 1270SOL     OW 4708   1.720   3.541   3.404
 1270SOL    HW1 4709   1.623   3.563   3.420
 1270SOL    HW2 4710   1.727   3.447   3.370
 1271SOL     OW 4711   2.757   2.281   3.627
 1271SOL    HW1 4712   2.750   2.367   3.676
 1271SOL    HW2 4713   2.692   2.215   3.664
 1272SOL     OW 4714   5.594   5.618   0.214
 1272SOL    HW1 4715   5.496   5.637   0.205
 1272SOL    HW2 4716   5.627   5.569   0.134
 1273SOL     OW 4717   0.077   3.770   0.579
 1273SOL    HW1 4718   0.119   3.828   0.649
 1273SOL    HW2 4719   0.101   3.674   0.596
 1274SOL     OW 4720   6.580   4.433   1.190
 1274SOL    HW1 4721   6.550   4.523   1.158
 1274SOL    HW2 4722   6.674   4.439   1.223
 1275SOL     OW 4723   3.813   1.948   4.815
 1275SOL    HW1 4724   3.828   2.046   4.801
 1275SOL    HW2 4725   3.756   1.912   4.742
 1276SOL     OW 4726   0.418   5.635   4.337
 1276SOL    HW1 4727   0.431   5.657   4.240
 1276SOL    HW2 4728   0.464   5.549   4.358
 1277SOL     OW 4729   1.203   5.820   6.345
 1277SOL    HW1 4730   1.165   5.738   6.303
 1277SOL    HW2 4731   1.272   5.859   6.284
 1278SOL     OW 4732   0.541   6.925   4.787
 1278SOL    HW1 4733   0.454   6.877   4.775
 1278SOL    HW2 4734   0.579   6.905   4.877
 1279SOL     OW 4735   2.291   6.054   0.746
 1279SOL    HW1 4736   2.365   6.004   0.790
 1279SOL    HW2 4737   2.223   6.080   0.815
 1280SOL     OW 4738   3.462   6.541   4.816
 1280SOL    HW1 4739   3.501   6.455   4.850
 1280SOL    HW2 4740   3.368   6.525   4.788
 1281SOL     OW 4741   2.015   6.642   3.351
 1281SOL    HW1 4742   2.000   6.685   3.262
 1281SOL    HW2 4743   2.045   6.710   3.417
 1282SOL     OW 4744   0.604   1.983   6.914
 1282SOL    HW1 4745   0.697   1.948   6.902
 1282SOL    HW2 4746   0.605   2.083   6.907
 1283SOL     OW 4747   0.766   3.560   5.563
 1283SOL    HW1 4748   0.668   3.567   5.544
 1283SOL    HW2 4749   0.801   3.473   5.529
 1284SOL     OW 4750   4.672   2.240   1.237
 1284SOL    HW1 4751   4.721   2.328   1.236
 1284SOL    HW2 4752   4.705   2.183   1.162
 1285SOL     OW 4753   4.636   2.442   6.302
 1285SOL    HW1 4754   4.616   2.487   6.215
 1285SOL    HW2 4755   4.657   2.512   6.371
 1286SOL     OW 4756   4.826   3.500   1.292
 1286SOL    HW1 4757   4.785   3.526   1.205
 1286SOL    HW2 4758   4.766   3.529   1.367
 1287SOL     OW 4759   5.917   5.464   5.630
 1287SOL    HW1 4760   5.856   5.542   5.618
 1287SOL    HW2 4761   5.877   5.384   5.585
 1288SOL     OW 4762   4.139   3.198   6.115
 1288SOL    HW1 4763   4.111   3.217   6.021
 1288SOL    HW2 4764   4.236   3.173   6.117
 1289SOL     OW 4765   0.100   6.816   1.503
 1289SOL    HW1 4766   0.133   6.812   1.409
 1289SOL    HW2 4767   0.168   6.774   1.563
 1290SOL     OW 4768   0.441   5.883   6.536
 1290SOL    HW1 4769   0.471   5.923   6.450
 1290SOL    HW2 4770   0.511   5.821   6.571
 1291SOL     OW 4771   0.080   4.005   4.789
 1291SOL    HW1 4772   7.001   4.005   4.804
 1291SOL    HW2 4773   0.100   4.036   4.697
 1292SOL     OW 4774   0.294   5.933   2.476
 1292SOL    HW1 4775   0.305   6.031   2.484
 1292SOL    HW2 4776   0.228   5.901   2.545
 1293SOL     OW 4777   0.841   1.755   6.973
 1293SOL    HW1 4778   0.823   1.698   0.034
 1293SOL    HW2 4779   0.831   1.700   6.890
 1294SOL     OW 4780   0.857   2.897   6.469
 1294SOL    HW1 4781   0.826   2.835   6.397
 1294SOL    HW2 4782   0.945   2.865   6.505
 1295SOL     OW 4783   6.801   3.441   2.056
 1295SOL    HW1 4784   6.755   3.391   2.129
 1295SOL    HW2 4785   6.900   3.429   2.066
 1296SOL     OW 4786   3.985   6.715   5.781
 1296SOL    HW1 4787   3.940   6.626   5.790
 1296SOL    HW2 4788   3.936   6.783   5.836
 1297SOL     OW 4789   0.077   0.833   1.595
 1297SOL    HW1 4790   0.076   0.820   1.694
 1297SOL    HW2 4791   7.003   0.829   1.560
 1298SOL     OW 4792   5.794   5.450   2.664
 1298SOL    HW1 4793   5.823   5.527   2.721
 1298SOL    HW2 4794   5.800   5.476   2.568
 1299SOL     OW 4795   1.362   3.865   2.994
 1299SOL    HW1 4796   1.391   3.948   3.042
 1299SOL    HW2 4797   1.414   3.855   2.909
 1300SOL     OW 4798   2.812   3.232   1.488
 1300SOL    HW1 4799   2.731   3.191   1.529
 1300SOL    HW2 4800   2.814   3.330   1.509
 1301SOL     OW 4801   0.744   6.594   1.111
 1301SOL    HW1 4802   0.828   6.635   1.144
 1301SOL    HW2 4803   0.756   6.495   1.102
 1302SOL     OW 4804   4.869   0.091   5.745
 1302SOL    HW1 4805   4.841   0.009   5.695
 1302SOL    HW2 4806   4.789   0.146   5.767
 1303SOL     OW 4807   4.569   2.245   1.497
 1303SOL    HW1 4808   4.582   2.228   1.399
 1303SOL    HW2 4809   4.636   2.312   1.529
 1304SOL     OW 4810   2.157   1.116   6.744
 1304SOL    HW1 4811   2.100   1.154   6.672
 1304SOL    HW2 4812   2.126   1.023   6.766
 1305SOL     OW 4813   5.480   3.585   0.286
 1305SOL    HW1 4814   5.482   3.493   0.248
 1305SOL    HW2 4815   5.431   3.584   0.373
 1306SOL     OW 4816   0.998   5.189   3.483
 1306SOL    HW1 4817   1.093   5.159   3.470
 1306SOL    HW2 4818   0.984   5.276   3.436
 1307SOL     OW 4819   0.971   4.670   3.859
 1307SOL    HW1 4820   0.958   4.762   3.896
 1307SOL    HW2 4821   0.883   4.634   3.828
 1308SOL     OW 4822   6.226   6.211   5.116
 1308SOL    HW1 4823   6.201   6.152   5.193
 1308SOL    HW2 4824   6.146   6.263   5.086
 1309SOL     OW 4825   5.693   3.786   5.475
 1309SOL    HW1 4826   5.696   3.881   5.505
 1309SOL    HW2 4827   5.785   3.755   5.453
 1310SOL     OW 4828   6.683   4.183   4.079
 1310SOL    HW1 4829   6.770   4.223   4.107
 1310SOL    HW2 4830   6.690   4.084   4.081
 1311SOL     OW 4831   0.407   6.185   4.783
 1311SOL    HW1 4832   0.345   6.255   4.748
 1311SOL    HW2 4833   0.499   6.199   4.745
 1312SOL     OW 4834   1.360   6.809   6.791
 1312SOL    HW1 4835   1.360   6.709   6.790
 1312SOL    HW2 4836   1.372   6.841   6.885
 1313SOL     OW 4837   0.547   4.411   3.277
 1313SOL    HW1 4838   0.504   4.338   3.225
 1313SOL    HW2 4839   0.645   4.416   3.256
 1314SOL     OW 4840   4.263   1.447   5.780
 1314SOL    HW1 4841   4.343   1.507   5.774
 1314SOL    HW2 4842   4.270   1.389   5.861
 1315SOL     OW 4843   0.612   1.338   1.910
 1315SOL    HW1 4844   0.632   1.387   1.995
 1315SOL    HW2 4845   0.513   1.334   1.897
 1316SOL     OW 4846   1.731   5.637   4.961
 1316SOL    HW1 4847   1.748   5.576   5.038
 1316SOL    HW2 4848   1.662   5.705   4.987
 1317SOL     OW 4849   2.424   4.770   6.554
 1317SOL    HW1 4850   2.472   4.684   6.573
 1317SOL    HW2 4851   2.363   4.791   6.630
 1318SOL     OW 4852   0.761   1.710   1.118
 1318SOL    HW1 4853   0.815   1.791   1.097
 1318SOL    HW2 4854   0.818   1.628   1.105
 1319SOL     OW 4855   6.750   6.828   0.229
 1319SOL    HW1 4856   6.837   6.812   0.183
 1319SOL    HW2 4857   6.751   6.917   0.273
 1320SOL     OW 4858   4.684   4.177   0.678
 1320SOL    HW1 4859   4.611   4.232   0.719
 1320SOL    HW2 4860   4.694   4.201   0.582
 1321SOL     OW 4861   5.820   1.443   6.477
 1321SOL    HW1 4862   5.869   1.436   6.563
 1321SOL    HW2 4863   5.802   1.352   6.440
 1322SOL     OW 4864   3.891   0.937   3.436
 1322SOL    HW1 4865   3.827   1.014   3.433
 1322SOL    HW2 4866   3.950   0.946   3.517
 1323SOL     OW 4867   4.437   0.511   5.494
 1323SOL    HW1 4868   4.502   0.498   5.568
 1323SOL    HW2 4869   4.485   0.511   5.406
 1324SOL     OW 4870   1.312   3.406   0.622
 1324SOL    HW1 4871   1.268   3.367   0.704
 1324SOL    HW2 4872   1.280   3.500   0.609
 1325SOL     OW 4873   2.503   0.473   2.779
 1325SOL    HW1 4874   2.557   0.390   2.768
 1325SOL    HW2 4875   2.435   0.479   2.706
 1326SOL     OW 4876   4.858   3.360   4.962
 1326SOL    HW1 4877   4.957   3.352   4.969
 1326SOL    HW2 4878   4.830   3.452   4.991
 1327SOL     OW 4879   0.573   6.073   1.787
 1327SOL    HW1 4880   0.629   5.991   1.791
 1327SOL    HW2 4881   0.489   6.054   1.737
 1328SOL     OW 4882   1.400   3.110   0.238
 1328SOL    HW1 4883   1.450   3.046   0.297
 1328SOL    HW2 4884   1.328   3.060   0.189
 1329SOL     OW 4885   0.172   2.340   1.650
 1329SOL    HW1 4886   0.176   2.296   1.739
 1329SOL    HW2 4887   0.104   2.293   1.592
 1330SOL     OW 4888   0.597   1.457   1.666
 1330SOL    HW1 4889   0.627   1.414   1.751
 1330SOL    HW2 4890   0.602   1.556   1.675
 1331SOL     OW 4891   5.163   2.634   3.175
 1331SOL    HW1 4892   5.231   2.566   3.201
 1331SOL    HW2 4893   5.109   2.660   3.255
 1332SOL     OW 4894   2.727   6.872   6.316
 1332SOL    HW1 4895   2.811   6.917   6.345
 1332SOL    HW2 4896   2.649   6.915   6.361
 1333SOL     OW 4897   3.743   3.793   4.250
 1333SOL    HW1 4898   3.779   3.737   4.324
 1333SOL    HW2 4899   3.650   3.823   4.274
 1334SOL     OW 4900   6.020   1.472   4.399
 1334SOL    HW1 4901   6.079   1.442   4.324
 1334SOL    HW2 4902   5.955   1.399   4.421
 1335SOL     OW 4903   2.372   2.123   3.074
 1335SOL    HW1 4904   2.320   2.207   3.091
 1335SOL    HW2 4905   2.467   2.135   3.103
 1336SOL     OW 4906   1.703   2.673   4.952
 1336SOL    HW1 4907   1.768   2.742   4.982
 1336SOL    HW2 4908   1.613   2.693   4.991
 1337SOL     OW 4909   1.934   2.520   4.739
 1337SOL    HW1 4910   1.907   2.449   4.674
 1337SOL    HW2 4911   1.986   2.479   4.814
 1338SOL     OW 4912   5.355   2.037   5.304
 1338SOL    HW1 4913   5.260   2.014   5.282
 1338SOL    HW2 4914   5.376   2.129   5.271
 1339SOL     OW 4915   0.055   1.807   6.398
 1339SOL    HW1 4916   0.062   1.756   6.313
 1339SOL    HW2 4917   0.120   1.771   6.465
 1340SOL     OW 4918   6.885   2.240   2.428
 1340SOL    HW1 4919   6.961   2.184   2.460
 1340SOL    HW2 4920   6.847   2.202   2.344
 1341SOL     OW 4921   5.356   6.658   6.129
 1341SOL    HW1 4922   5.387   6.720   6.057
 1341SOL    HW2 4923   5.317   6.712   6.204
 1342SOL     OW 4924   2.075   5.676   5.764
 1342SOL    HW1 4925   2.093   5.772   5.782
 1342SOL    HW2 4926   2.059   5.628   5.851
 1343SOL     OW 4927   4.354   5.753   2.966
 1343SOL    HW1 4928   4.443   5.721   2.998
 1343SOL    HW2 4929   4.282   5.712   3.022
 1344SOL     OW 4930   6.512   5.528   4.400
 1344SOL    HW1 4931   6.588   5.570   4.351
 1344SOL    HW2 4932   6.533   5.525   4.498
 1345SOL     OW 4933   1.565   0.725   2.851
 1345SOL    HW1 4934   1.546   0.820   2.827
 1345SOL    HW2 4935   1.599   0.676   2.770
 1346SOL     OW 4936   0.815   6.310   5.022
 1346SOL    HW1 4937   0.734   6.366   5.012
 1346SOL    HW2 4938   0.799   6.239   5.090
 1347SOL     OW 4939   6.471   6.471   4.850
 1347SOL    HW1 4940   6.457   6.380   4.888
 1347SOL    HW2 4941   6.407   6.535   4.892
 1348SOL     OW 4942   5.788   5.713   2.421
 1348SOL    HW1 4943   5.721   5.682   2.354
 1348SOL    HW2 4944   5.878   5.677   2.399
 1349SOL     OW 4945   4.538   2.515   5.873
 1349SOL    HW1 4946   4.634   2.501   5.896
 1349SOL    HW2 4947   4.514   2.457   5.795
 1350SOL     OW 4948   5.165   5.001   5.322
 1350SOL    HW1 4949   5.200   4.983   5.230
 1350SOL    HW2 4950   5.085   4.944   5.339
 1351SOL     OW 4951   5.995   1.842   3.377
 1351SOL    HW1 4952   5.912   1.800   3.413
 1351SOL    HW2 4953   6.000   1.937   3.408
 1352SOL     OW 4954   0.035   6.418   2.425
 1352SOL    HW1 4955   6.978   6.455   2.374
 1352SOL    HW2 4956   0.002   6.348   2.488
 1353SOL     OW 4957   0.402   2.949   0.204
 1353SOL    HW1 4958   0.500   2.952   0.183
 1353SOL    HW2 4959   0.388   2.981   0.298
 1354SOL     OW 4960   1.120   3.579   1.384
 1354SOL    HW1 4961   1.042   3.526   1.417
 1354SOL    HW2 4962   1.196   3.517   1.365
 1355SOL     OW 4963   0.003   2.657   4.831
 1355SOL    HW1 4964   0.050   2.670   4.743
 1355SOL    HW2 4965   0.004   2.560   4.855
 1356SOL     OW 4966   3.046   3.060   2.900
 1356SOL    HW1 4967   2.961   3.010   2.880
 1356SOL    HW2 4968   3.047   3.145   2.847
 1357SOL     OW 4969   1.358   3.051   5.746
 1357SOL    HW1 4970   1.343   3.024   5.651
 1357SOL    HW2 4971   1.378   3.149   5.750
 1358SOL     OW 4972   4.217   0.293   5.724
 1358SOL    HW1 4973   4.244   0.295   5.628
 1358SOL    HW2 4974   4.291   0.329   5.780
 1359SOL     OW 4975   5.603   4.414   1.909
 1359SOL    HW1 4976   5.513   4.457   1.901
 1359SOL    HW2 4977   5.657   4.434   1.827
 1360SOL     OW 4978   3.665   2.964   0.258
 1360SOL    HW1 4979   3.623   2.912   0.184
 1360SOL    HW2 4980   3.646   2.918   0.345
 1361SOL     OW 4981   0.186   5.242   4.896
 1361SOL    HW1 4982   0.179   5.337   4.865
 1361SOL    HW2 4983   0.096   5.209   4.925
 1362SOL     OW 4984   3.327   4.085   4.256
 1362SOL    HW1 4985   3.332   4.096   4.157
 1362SOL    HW2 4986   3.237   4.047   4.281
 1363SOL     OW 4987   6.845   5.717   3.211
 1363SOL    HW1 4988   6.748   5.693   3.217
 1363SOL    HW2 4989   6.898   5.651   3.264
 1364SOL     OW 4990   6.331   2.582   1.042
 1364SOL    HW1 4991   6.253   2.641   1.059
 1364SOL    HW2 4992   6.339   2.515   1.115
 1365SOL     OW 4993   1.348   3.286   6.470
 1365SOL    HW1 4994   1.284   3.326   6.404
 1365SOL    HW2 4995   1.435   3.336   6.467
 1366SOL     OW 4996   0.955   4.593   6.910
 1366SOL    HW1 4997   0.968   4.667   6.844
 1366SOL    HW2 4998   0.991   4.508   6.872
 1367SOL     OW 4999   2.272   6.934   2.844
 1367SOL    HW1 5000   2.302   6.929   2.939
 1367SOL    HW2 5001   2.206   7.009   2.834
 1368SOL     OW 5002   6.426   0.529   3.605
 1368SOL    HW1 5003   6.382   0.450   3.647
 1368SOL    HW2 5004   6.465   0.503   3.517
 1369SOL     OW 5005   2.412   0.172   1.636
 1369SOL    HW1 5006   2.398   0.217   1.548
 1369SOL    HW2 5007   2.411   0.241   1.709
 1370SOL     OW 5008   4.442   1.672   1.451
 1370SOL    HW1 5009   4.357   1.706   1.412
 1370SOL    HW2 5010   4.484   1.606   1.389
 1371SOL     OW 5011   6.114   1.352   4.158
 1371SOL    HW1 5012   6.016   1.356   4.137
 1371SOL    HW2 5013   6.167   1.355   4.073
 1372SOL     OW 5014   1.401   3.367   0.356
 1372SOL    HW1 5015   1.382   3.276   0.321
 1372SOL    HW2 5016   1.374   3.373   0.452
 1373SOL     OW 5017   4.656   2.439   0.010
 1373SOL    HW1 5018   4.608   2.413   6.946
 1373SOL    HW2 5019   4.742   2.485   7.007
 1374SOL     OW 5020   5.003   1.929   0.098
 1374SOL    HW1 5021   5.055   2.015   0.096
 1374SOL    HW2 5022   5.057   1.858   0.143
 1375SOL     OW 5023   0.563   4.154   6.500
 1375SOL    HW1 5024   0.612   4.237   6.470
 1375SOL    HW2 5025   0.620   4.103   6.563
 1376SOL     OW 5026   4.126   4.891   5.177
 1376SOL    HW1 5027   4.027   4.906   5.174
 1376SOL    HW2 5028   4.145   4.795   5.155
 1377SOL     OW 5029   0.540   3.692   5.778
 1377SOL    HW1 5030   0.495   3.610   5.741
 1377SOL    HW2 5031   0.487   3.727   5.855
 1378SOL     OW 5032   5.895   0.839   4.888
 1378SOL    HW1 5033   5.909   0.759   4.829
 1378SOL    HW2 5034   5.807   0.881   4.867
 1379SOL     OW 5035   3.759   0.076   3.026
 1379SOL    HW1 5036   3.707   0.124   3.096
 1379SOL    HW2 5037   3.855   0.105   3.030
 1380SOL     OW 5038   0.057   6.899   2.530
 1380SOL    HW1 5039   0.112   6.979   2.507
 1380SOL    HW2 5040   0.094   6.855   2.612
 1381SOL     OW 5041   6.077   2.319   6.776
 1381SOL    HW1 5042   6.157   2.318   6.717
 1381SOL    HW2 5043   6.098   2.271   6.861
 1382SOL     OW 5044   4.755   3.409   0.269
 1382SOL    HW1 5045   4.675   3.350   0.279
 1382SOL    HW2 5046   4.813   3.374   0.195
 1383SOL     OW 5047   1.144   0.341   2.043
 1383SOL    HW1 5048   1.137   0.376   1.949
 1383SOL    HW2 5049   1.091   0.399   2.104
 1384SOL     OW 5050   4.707   0.020   1.706
 1384SOL    HW1 5051   4.617   7.011   1.738
 1384SOL    HW2 5052   4.764   6.959   1.692
 1385SOL     OW 5053   1.884   3.848   4.030
 1385SOL    HW1 5054   1.898   3.944   4.005
 1385SOL    HW2 5055   1.898   3.836   4.128
 1386SOL     OW 5056   3.448   1.069   4.268
 1386SOL    HW1 5057   3.498   1.000   4.321
 1386SOL    HW2 5058   3.455   1.158   4.313
 1387SOL     OW 5059   3.754   5.710   2.329
 1387SOL    HW1 5060   3.808   5.695   2.412
 1387SOL    HW2 5061   3.674   5.650   2.331
 1388SOL     OW 5062   0.554   7.006   3.098
 1388SOL    HW1 5063   0.600   6.917   3.094
 1388SOL    HW2 5064   0.513   0.006   3.009
 1389SOL     OW 5065   6.875   0.752   3.674
 1389SOL    HW1 5066   6.899   0.847   3.694
 1389SOL    HW2 5067   6.952   0.693   3.694
 1390SOL     OW 5068   5.837   3.324   6.393
 1390SOL    HW1 5069   5.755   3.346   6.340
 1390SOL    HW2 5070   5.855   3.398   6.457
 1391SOL     OW 5071   6.161   6.918   5.156
 1391SOL    HW1 5072   6.168   6.860   5.237
 1391SOL    HW2 5073   6.098   6.993   5.174
 1392SOL     OW 5074   5.591   6.480   6.646
 1392SOL    HW1 5075   5.578   6.579   6.637
 1392SOL    HW2 5076   5.523   6.432   6.591
 1393SOL     OW 5077   6.936   3.602   5.761
 1393SOL    HW1 5078   6.868   3.530   5.777
 1393SOL    HW2 5079   6.890   3.685   5.730
 1394SOL     OW 5080   3.885   5.837   4.399
 1394SOL    HW1 5081   3.944   5.801   4.471
 1394SOL    HW2 5082   3.891   5.778   4.318
 1395SOL     OW 5083   1.415   4.568   3.875
 1395SOL    HW1 5084   1.438   4.470   3.867
 1395SOL    HW2 5085   1.323   4.583   3.840
 1396SOL     OW 5086   0.666   0.512   4.141
 1396SOL    HW1 5087   0.727   0.551   4.072
 1396SOL    HW2 5088   0.707   0.521   4.231
 1397SOL     OW 5089   0.559   5.825   4.852
 1397SOL    HW1 5090   0.574   5.868   4.763
 1397SOL    HW2 5091   0.565   5.725   4.841
 1398SOL     OW 5092   2.160   1.790   6.621
 1398SOL    HW1 5093   2.240   1.761   6.569
 1398SOL    HW2 5094   2.121   1.872   6.578
 1399SOL     OW 5095   3.893   6.921   0.274
 1399SOL    HW1 5096   3.862   6.831   0.245
 1399SOL    HW2 5097   3.893   6.926   0.374
 1400SOL     OW 5098   0.226   2.247   4.521
 1400SOL    HW1 5099   0.193   2.298   4.442
 1400SOL    HW2 5100   0.319   2.215   4.504
 1401SOL     OW 5101   5.837   6.758   4.352
 1401SOL    HW1 5102   5.864   6.853   4.370
 1401SOL    HW2 5103   5.913   6.697   4.374
 1402SOL     OW 5104   5.610   4.500   6.180
 1402SOL    HW1 5105   5.694   4.554   6.187
 1402SOL    HW2 5106   5.538   4.543   6.234
 1403SOL     OW 5107   2.032   2.089   1.549
 1403SOL    HW1 5108   2.109   2.144   1.515
 1403SOL    HW2 5109   1.947   2.122   1.508
 1404SOL     OW 5110   6.717   0.152   0.169
 1404SOL    HW1 5111   6.673   0.173   0.256
 1404SOL    HW2 5112   6.651   0.162   0.095
 1405SOL     OW 5113   2.764   4.427   0.781
 1405SOL    HW1 5114   2.799   4.433   0.688
 1405SOL    HW2 5115   2.715   4.340   0.793
 1406SOL     OW 5116   1.855   5.590   1.415
 1406SOL    HW1 5117   1.859   5.681   1.374
 1406SOL    HW2 5118   1.884   5.522   1.348
 1407SOL     OW 5119   1.873   4.189   3.470
 1407SOL    HW1 5120   1.913   4.251   3.538
 1407SOL    HW2 5121   1.886   4.095   3.499
 1408SOL     OW 5122   5.911   6.874   6.262
 1408SOL    HW1 5123   5.972   6.932   6.209
 1408SOL    HW2 5124   5.965   6.816   6.323
 1409SOL     OW 5125   0.383   0.060   5.106
 1409SOL    HW1 5126   0.365   0.034   5.011
 1409SOL    HW2 5127   0.341   0.149   5.124
 1410SOL     OW 5128   3.023   3.959   6.959
 1410SOL    HW1 5129   3.058   4.051   6.978
 1410SOL    HW2 5130   2.924   3.959   6.968
 1411SOL     OW 5131   3.445   5.665   6.734
 1411SOL    HW1 5132   3.484   5.575   6.752
 1411SOL    HW2 5133   3.416   5.707   6.820
 1412SOL     OW 5134   0.619   4.013   1.410
 1412SOL    HW1 5135   0.525   4.021   1.378
 1412SOL    HW2 5136   0.654   4.104   1.434
 1413SOL     OW 5137   2.029   1.457   4.495
 1413SOL    HW1 5138   1.984   1.382   4.542
 1413SOL    HW2 5139   2.127   1.456   4.515
 1414SOL     OW 5140   2.518   2.150   1.749
 1414SOL    HW1 5141   2.580   2.204   1.805
 1414SOL    HW2 5142   2.568   2.073   1.709
 1415SOL     OW 5143   3.145   1.640   4.103
 1415SOL    HW1 5144   3.057   1.688   4.104
 1415SOL    HW2 5145   3.197   1.664   4.185
 1416SOL     OW 5146   3.651   6.920   4.886
 1416SOL    HW1 5147   3.552   6.909   4.881
 1416SOL    HW2 5148   3.683   6.898   4.978
 1417SOL     OW 5149   3.202   2.870   6.785
 1417SOL    HW1 5150   3.147   2.928   6.844
 1417SOL    HW2 5151   3.182   2.890   6.690
 1418SOL     OW 5152   2.892   4.129   0.509
 1418SOL    HW1 5153   2.819   4.062   0.524
 1418SOL    HW2 5154   2.915   4.131   0.412
 1419SOL     OW 5155   2.878   5.647   4.041
 1419SOL    HW1 5156   2.867   5.601   3.953
 1419SOL    HW2 5157   2.809   5.718   4.051
 1420SOL     OW 5158   3.485   6.006   3.470
 1420SOL    HW1 5159   3.414   6.076   3.475
 1420SOL    HW2 5160   3.502   5.983   3.374
 1421SOL     OW 5161   0.732   4.249   3.800
 1421SOL    HW1 5162   0.769   4.262   3.708
 1421SOL    HW2 5163   0.647   4.300   3.810
 1422SOL     OW 5164   3.085   4.631   6.738
 1422SOL    HW1 5165   3.114   4.718   6.698
 1422SOL    HW2 5166   3.151   4.603   6.808
 1423SOL     OW 5167   3.632   0.860   4.399
 1423SOL    HW1 5168   3.644   0.905   4.488
 1423SOL    HW2 5169   3.721   0.846   4.356
 1424SOL     OW 5170   6.963   3.679   6.403
 1424SOL    HW1 5171   6.865   3.691   6.421
 1424SOL    HW2 5172   6.993   3.746   6.335
 1425SOL     OW 5173   2.117   5.537   5.128
 1425SOL    HW1 5174   2.183   5.462   5.131
 1425SOL    HW2 5175   2.093   5.564   5.222
 1426SOL     OW 5176   2.354   1.980   5.732
 1426SOL    HW1 5177   2.284   1.932   5.785
 1426SOL    HW2 5178   2.378   2.065   5.779
 1427SOL     OW 5179   6.909   6.683   3.955
 1427SOL    HW1 5180   6.987   6.709   3.899
 1427SOL    HW2 5181   6.897   6.749   4.029
 1428SOL     OW 5182   0.824   1.819   1.685
 1428SOL    HW1 5183   0.846   1.815   1.783
 1428SOL    HW2 5184   0.731   1.785   1.671
 1429SOL     OW 5185   6.396   1.696   0.218
 1429SOL    HW1 5186   6.337   1.687   0.298
 1429SOL    HW2 5187   6.339   1.700   0.135
 1430SOL     OW 5188   2.255   4.973   3.504
 1430SOL    HW1 5189   2.317   5.050   3.488
 1430SOL    HW2 5190   2.254   4.952   3.602
 1431SOL     OW 5191   2.739   2.494   6.367
 1431SOL    HW1 5192   2.657   2.480   6.423
 1431SOL    HW2 5193   2.725   2.575   6.309
 1432SOL     OW 5194   2.949   0.810   0.971
 1432SOL    HW1 5195   2.991   0.822   1.061
 1432SOL    HW2 5196   2.871   0.870   0.962
 1433SOL     OW 5197   4.297   6.975   4.804
 1433SOL    HW1 5198   4.365   6.972   4.731
 1433SOL    HW2 5199   4.210   7.008   4.767
 1434SOL     OW 5200   0.302   0.763   5.922
 1434SOL    HW1 5201   0.359   0.716   5.989
 1434SOL    HW2 5202   0.242   0.698   5.877
 1435SOL     OW 5203   6.750   0.410   2.995
 1435SOL    HW1 5204   6.783   0.500   3.024
 1435SOL    HW2 5205   6.791   0.339   3.053
 1436SOL     OW 5206   5.275   3.676   6.882
 1436SOL    HW1 5207   5.263   3.630   6.794
 1436SOL    HW2 5208   5.372   3.674   6.907
 1437SOL     OW 5209   2.964   0.898   6.032
 1437SOL    HW1 5210   2.869   0.869   6.045
 1437SOL    HW2 5211   2.995   0.870   5.941
 1438SOL     OW 5212   2.627   0.241   1.417
 1438SOL    HW1 5213   2.707   0.263   1.360
 1438SOL    HW2 5214   2.544   0.262   1.367
 1439SOL     OW 5215   0.409   5.178   0.932
 1439SOL    HW1 5216   0.363   5.124   0.862
 1439SOL    HW2 5217   0.493   5.217   0.894
 1440SOL     OW 5218   3.214   2.970   5.676
 1440SOL    HW1 5219   3.198   3.045   5.611
 1440SOL    HW2 5220   3.219   2.883   5.626
 1441SOL     OW 5221   6.391   3.879   4.401
 1441SOL    HW1 5222   6.416   3.794   4.449
 1441SOL    HW2 5223   6.314   3.861   4.340
 1442SOL     OW 5224   6.757   5.101   6.810
 1442SOL    HW1 5225   6.765   5.080   6.907
 1442SOL    HW2 5226   6.668   5.071   6.776
 1443SOL     OW 5227   1.111   2.417   5.199
 1443SOL    HW1 5228   1.032   2.456   5.151
 1443SOL    HW2 5229   1.120   2.320   5.174
 1444SOL     OW 5230   4.299   5.643   1.626
 1444SOL    HW1 5231   4.305   5.704   1.705
 1444SOL    HW2 5232   4.254   5.690   1.550
 1445SOL     OW 5233   6.991   2.781   2.426
 1445SOL    HW1 5234   0.002   2.686   2.430
 1445SOL    HW2 5235   7.011   2.819   2.335
 1446SOL     OW 5236   4.916   2.137   6.462
 1446SOL    HW1 5237   4.995   2.129   6.524
 1446SOL    HW2 5238   4.834   2.104   6.509
 1447SOL     OW 5239   6.184   6.775   5.421
 1447SOL    HW1 5240   6.114   6.822   5.475
 1447SOL    HW2 5241   6.149   6.685   5.392
 1448SOL     OW 5242   6.628   2.506   7.000
 1448SOL    HW1 5243   6.648   2.411   6.977
 1448SOL    HW2 5244   6.549   2.537   6.947
 1449SOL     OW 5245   6.114   0.936   0.025
 1449SOL    HW1 5246   6.026   0.979   0.041
 1449SOL    HW2 5247   6.161   0.921   0.112
 1450SOL     OW 5248   0.880   2.375   2.167
 1450SOL    HW1 5249   0.819   2.365   2.089
 1450SOL    HW2 5250   0.828   2.362   2.252
 1451SOL     OW 5251   3.158   1.013   2.660
 1451SOL    HW1 5252   3.082   1.068   2.694
 1451SOL    HW2 5253   3.137   0.981   2.567
 1452SOL     OW 5254   4.228   1.117   3.914
 1452SOL    HW1 5255   4.232   1.216   3.902
 1452SOL    HW2 5256   4.285   1.073   3.845
 1453SOL     OW 5257   0.291   3.704   5.374
 1453SOL    HW1 5258   0.284   3.739   5.467
 1453SOL    HW2 5259   0.201   3.709   5.330
 1454SOL     OW 5260   6.023   2.482   3.279
 1454SOL    HW1 5261   6.113   2.475   3.235
 1454SOL    HW2 5262   5.963   2.539   3.223
 1455SOL     OW 5263   1.740   0.790   1.222
 1455SOL    HW1 5264   1.706   0.844   1.298
 1455SOL    HW2 5265   1.673   0.719   1.198
 1456SOL     OW 5266   6.381   0.087   5.365
 1456SOL    HW1 5267   6.283   0.067   5.357
 1456SOL    HW2 5268   6.408   0.083   5.461
 1457SOL     OW 5269   1.578   0.019   1.395
 1457SOL    HW1 5270   1.515   0.028   1.472
 1457SOL    HW2 5271   1.563   0.095   1.331
 1458SOL     OW 5272   6.448   6.567   3.523
 1458SOL    HW1 5273   6.428   6.470   3.510
 1458SOL    HW2 5274   6.364   6.614   3.552
 1459SOL     OW 5275   2.167   5.191   5.781
 1459SOL    HW1 5276   2.105   5.142   5.842
 1459SOL    HW2 5277   2.261   5.183   5.814
 1460SOL     OW 5278   0.229   4.917   5.618
 1460SOL    HW1 5279   0.169   4.981   5.667
 1460SOL    HW2 5280   0.312   4.965   5.588
 1461SOL     OW 5281   0.678   5.300   3.343
 1461SOL    HW1 5282   0.739   5.370   3.381
 1461SOL    HW2 5283   0.588   5.307   3.386
 1462SOL     OW 5284   0.755   0.827   5.730
 1462SOL    HW1 5285   0.656   0.838   5.722
 1462SOL    HW2 5286   0.775   0.756   5.799
 1463SOL     OW 5287   0.322   5.216   6.983
 1463SOL    HW1 5288   0.390   5.150   7.013
 1463SOL    HW2 5289   0.322   5.221   6.883
 1464SOL     OW 5290   5.946   6.644   1.018
 1464SOL    HW1 5291   5.985   6.707   1.085
 1464SOL    HW2 5292   5.987   6.660   0.928
 1465SOL     OW 5293   1.918   1.894   3.899
 1465SOL    HW1 5294   1.949   1.907   3.805
 1465SOL    HW2 5295   1.820   1.874   3.900
 1466SOL     OW 5296   1.197   0.967   2.479
 1466SOL    HW1 5297   1.264   0.892   2.472
 1466SOL    HW2 5298   1.216   1.020   2.562
 1467SOL     OW 5299   1.975   1.784   2.117
 1467SOL    HW1 5300   2.067   1.804   2.082
 1467SOL    HW2 5301   1.982   1.731   2.201
 1468SOL     OW 5302   5.344   5.373   2.988
 1468SOL    HW1 5303   5.341   5.396   3.086
 1468SOL    HW2 5304   5.431   5.328   2.967
 1469SOL     OW 5305   0.973   1.125   2.215
 1469SOL    HW1 5306   0.980   1.031   2.182
 1469SOL    HW2 5307   0.975   1.188   2.137
 1470SOL     OW 5308   1.877   1.081   3.115
 1470SOL    HW1 5309   1.788   1.108   3.151
 1470SOL    HW2 5310   1.883   1.105   3.018
 1471SOL     OW 5311   0.931   0.506   0.869
 1471SOL    HW1 5312   0.852   0.564   0.888
 1471SOL    HW2 5313   0.920   0.463   0.779
 1472SOL     OW 5314   3.894   5.878   5.174
 1472SOL    HW1 5315   3.823   5.827   5.125
 1472SOL    HW2 5316   3.891   5.974   5.148
 1473SOL     OW 5317   5.898   5.808   3.615
 1473SOL    HW1 5318   5.891   5.710   3.595
 1473SOL    HW2 5319   5.994   5.836   3.611
 1474SOL     OW 5320   6.117   5.660   3.029
 1474SOL    HW1 5321   6.028   5.615   3.019
 1474SOL    HW2 5322   6.159   5.671   2.939
 1475SOL     OW 5323   6.691   0.546   1.576
 1475SOL    HW1 5324   6.713   0.492   1.658
 1475SOL    HW2 5325   6.621   0.499   1.523
 1476SOL     OW 5326   2.173   1.599   1.483
 1476SOL    HW1 5327   2.133   1.686   1.514
 1476SOL    HW2 5328   2.238   1.566   1.551
 1477SOL     OW 5329   3.122   0.870   6.885
 1477SOL    HW1 5330   3.024   0.879   6.905
 1477SOL    HW2 5331   3.144   0.923   6.804
 1478SOL     OW 5332   5.442   4.644   0.182
 1478SOL    HW1 5333   5.383   4.563   0.174
 1478SOL    HW2 5334   5.461   4.662   0.278
 1479SOL     OW 5335   1.481   3.391   6.843
 1479SOL    HW1 5336   1.422   3.316   6.813
 1479SOL    HW2 5337   1.433   3.448   6.909
 1480SOL     OW 5338   3.088   0.143   6.061
 1480SOL    HW1 5339   3.081   0.213   5.990
 1480SOL    HW2 5340   3.117   0.185   6.147
 1481SOL     OW 5341   0.287   2.389   5.400
 1481SOL    HW1 5342   0.356   2.320   5.379
 1481SOL    HW2 5343   0.307   2.430   5.488
 1482SOL     OW 5344   5.158   2.425   0.658
 1482SOL    HW1 5345   5.215   2.348   0.630
 1482SOL    HW2 5346   5.205   2.476   0.731
 1483SOL     OW 5347   5.928   1.898   6.397
 1483SOL    HW1 5348   5.855   1.961   6.370
 1483SOL    HW2 5349   5.976   1.935   6.477
 1484SOL     OW 5350   5.645   5.260   4.018
 1484SOL    HW1 5351   5.568   5.244   4.080
 1484SOL    HW2 5352   5.681   5.172   3.987
 1485SOL     OW 5353   3.761   1.741   3.279
 1485SOL    HW1 5354   3.741   1.752   3.377
 1485SOL    HW2 5355   3.748   1.645   3.254
 1486SOL     OW 5356   5.337   2.361   2.856
 1486SOL    HW1 5357   5.281   2.324   2.782
 1486SOL    HW2 5358   5.278   2.390   2.931
 1487SOL     OW 5359   6.936   2.985   0.013
 1487SOL    HW1 5360   6.916   2.974   6.936
 1487SOL    HW2 5361   0.014   2.971   0.029
 1488SOL     OW 5362   5.459   2.006   3.586
 1488SOL    HW1 5363   5.540   1.962   3.624
 1488SOL    HW2 5364   5.470   2.105   3.588
 1489SOL     OW 5365   4.228   5.128   3.726
 1489SOL    HW1 5366   4.170   5.209   3.716
 1489SOL    HW2 5367   4.175   5.053   3.765
 1490SOL     OW 5368   1.240   3.047   1.220
 1490SOL    HW1 5369   1.247   2.958   1.266
 1490SOL    HW2 5370   1.145   3.066   1.199
 1491SOL     OW 5371   6.020   4.083   4.102
 1491SOL    HW1 5372   5.962   4.009   4.134
 1491SOL    HW2 5373   5.985   4.170   4.135
 1492SOL     OW 5374   5.784   1.659   2.617
 1492SOL    HW1 5375   5.772   1.598   2.538
 1492SOL    HW2 5376   5.829   1.743   2.588
 1493SOL     OW 5377   4.814   6.881   3.682
 1493SOL    HW1 5378   4.746   6.868   3.755
 1493SOL    HW2 5379   4.771   6.931   3.607
 1494SOL     OW 5380   5.783   1.971   5.783
 1494SOL    HW1 5381   5.786   2.070   5.776
 1494SOL    HW2 5382   5.694   1.942   5.819
 1495SOL     OW 5383   6.599   2.677   4.810
 1495SOL    HW1 5384   6.661   2.601   4.826
 1495SOL    HW2 5385   6.595   2.735   4.892
 1496SOL     OW 5386   0.875   1.698   2.539
 1496SOL    HW1 5387   0.917   1.632   2.478
 1496SOL    HW2 5388   0.940   1.723   2.611
 1497SOL     OW 5389   6.934   2.761   3.900
 1497SOL    HW1 5390   6.935   2.731   3.805
 1497SOL    HW2 5391   6.996   2.839   3.911
 1498SOL     OW 5392   2.060   4.570   6.602
 1498SOL    HW1 5393   1.977   4.515   6.608
 1498SOL    HW2 5394   2.037   4.667   6.605
 1499SOL     OW 5395   1.175   3.409   6.292
 1499SOL    HW1 5396   1.090   3.375   6.252
 1499SOL    HW2 5397   1.166   3.506   6.312
 1500SOL     OW 5398   6.646   6.618   6.770
 1500SOL    HW1 5399   6.695   6.688   6.822
 1500SOL    HW2 5400   6.571   6.582   6.825
 1501SOL     OW 5401   4.919   1.700   6.058
 1501SOL    HW1 5402   4.921   1.623   6.121
 1501SOL    HW2 5403   4.950   1.783   6.106
 1502SOL     OW 5404   5.975   0.445   1.007
 1502SOL    HW1 5405   5.933   0.427   1.095
 1502SOL    HW2 5406   5.925   0.397   0.935
 1503SOL     OW 5407   2.494   1.720   2.386
 1503SOL    HW1 5408   2.589   1.741   2.408
 1503SOL    HW2 5409   2.457   1.790   2.325
 1504SOL     OW 5410   0.725   0.716   4.658
 1504SOL    HW1 5411   0.630   0.742   4.673
 1504SOL    HW2 5412   0.757   0.661   4.735
 1505SOL     OW 5413   6.230   0.273   5.663
 1505SOL    HW1 5414   6.183   0.313   5.585
 1505SOL    HW2 5415   6.221   0.333   5.742
 1506SOL     OW 5416   1.916   5.297   1.382
 1506SOL    HW1 5417   1.926   5.294   1.482
 1506SOL    HW2 5418   2.005   5.315   1.340
 1507SOL     OW 5419   0.719   1.988   5.681
 1507SOL    HW1 5420   0.636   1.951   5.640
 1507SOL    HW2 5421   0.726   1.958   5.776
 1508SOL     OW 5422   6.930   0.612   1.834
 1508SOL    HW1 5423   6.888   0.600   1.924
 1508SOL    HW2 5424   6.920   0.528   1.781
 1509SOL     OW 5425   4.472   2.314   6.054
 1509SOL    HW1 5426   4.564   2.293   6.090
 1509SOL    HW2 5427   4.479   2.344   5.959
 1510SOL     OW 5428   6.053   2.704   5.010
 1510SOL    HW1 5429   6.056   2.739   4.916
 1510SOL    HW2 5430   5.985   2.631   5.015
 1511SOL     OW 5431   3.321   2.703   1.615
 1511SOL    HW1 5432   3.262   2.685   1.537
 1511SOL    HW2 5433   3.404   2.646   1.608
 1512SOL     OW 5434   0.068   6.047   1.664
 1512SOL    HW1 5435   7.020   6.060   1.591
 1512SOL    HW2 5436   0.038   5.972   1.723
 1513SOL     OW 5437   3.429   0.623   4.106
 1513SOL    HW1 5438   3.477   0.706   4.079
 1513SOL    HW2 5439   3.357   0.603   4.039
 1514SOL     OW 5440   5.022   2.358   5.721
 1514SOL    HW1 5441   5.005   2.260   5.722
 1514SOL    HW2 5442   5.014   2.393   5.627
 1515SOL     OW 5443   6.191   3.099   4.977
 1515SOL    HW1 5444   6.109   3.094   4.920
 1515SOL    HW2 5445   6.166   3.098   5.073
 1516SOL     OW 5446   0.535   0.096   1.157
 1516SOL    HW1 5447   0.469   0.170   1.145
 1516SOL    HW2 5448   0.627   0.131   1.140
 1517SOL     OW 5449   3.896   5.854   3.377
 1517SOL    HW1 5450   3.827   5.902   3.431
 1517SOL    HW2 5451   3.948   5.921   3.323
 1518SOL     OW 5452   0.754   2.895   0.640
 1518SOL    HW1 5453   0.681   2.843   0.595
 1518SOL    HW2 5454   0.811   2.939   0.570
 1519SOL     OW 5455   6.305   4.947   2.003
 1519SOL    HW1 5456   6.286   4.876   1.934
 1519SOL    HW2 5457   6.402   4.945   2.026
 1520SOL     OW 5458   0.392   3.686   2.344
 1520SOL    HW1 5459   0.328   3.620   2.384
 1520SOL    HW2 5460   0.457   3.716   2.414
 1521SOL     OW 5461   2.304   4.348   0.177
 1521SOL    HW1 5462   2.220   4.368   0.126
 1521SOL    HW2 5463   2.286   4.274   0.242
 1522SOL     OW 5464   6.465   0.052   4.841
 1522SOL    HW1 5465   6.392   7.018   4.799
 1522SOL    HW2 5466   6.439   0.078   4.933
 1523SOL     OW 5467   4.953   4.090   6.958
 1523SOL    HW1 5468   4.950   4.164   6.891
 1523SOL    HW2 5469   4.957   4.002   6.911
 1524SOL     OW 5470   1.166   2.214   1.690
 1524SOL    HW1 5471   1.148   2.284   1.760
 1524SOL    HW2 5472   1.263   2.189   1.692
 1525SOL     OW 5473   6.690   2.343   0.237
 1525SOL    HW1 5474   6.725   2.419   0.183
 1525SOL    HW2 5475   6.756   2.320   0.309
 1526SOL     OW 5476   0.973   0.357   6.697
 1526SOL    HW1 5477   0.917   0.397   6.624
 1526SOL    HW2 5478   0.977   0.258   6.686
 1527SOL     OW 5479   3.684   0.921   5.716
 1527SOL    HW1 5480   3.637   0.944   5.631
 1527SOL    HW2 5481   3.624   0.942   5.794
 1528SOL     OW 5482   5.317   5.816   2.241
 1528SOL    HW1 5483   5.404   5.765   2.242
 1528SOL    HW2 5484   5.309   5.864   2.154
 1529SOL     OW 5485   4.103   6.980   0.564
 1529SOL    HW1 5486   4.163   6.948   0.637
 1529SOL    HW2 5487   4.068   0.051   0.588
 1530SOL     OW 5488   3.370   1.134   2.756
 1530SOL    HW1 5489   3.353   1.226   2.720
 1530SOL    HW2 5490   3.308   1.069   2.711
 1531SOL     OW 5491   5.410   0.719   4.692
 1531SOL    HW1 5492   5.323   0.767   4.706
 1531SOL    HW2 5493   5.427   0.657   4.768
 1532SOL     OW 5494   2.740   3.750   6.021
 1532SOL    HW1 5495   2.787   3.716   6.102
 1532SOL    HW2 5496   2.669   3.815   6.048
 1533SOL     OW 5497   0.200   3.284   0.464
 1533SOL    HW1 5498   0.269   3.213   0.451
 1533SOL    HW2 5499   0.123   3.268   0.402
 1534SOL     OW 5500   1.509   4.980   6.268
 1534SOL    HW1 5501   1.598   4.934   6.270
 1534SOL    HW2 5502   1.490   5.020   6.357
 1535SOL     OW 5503   4.983   6.026   4.296
 1535SOL    HW1 5504   5.024   6.012   4.386
 1535SOL    HW2 5505   4.971   6.124   4.280
 1536SOL     OW 5506   4.253   4.329   5.409
 1536SOL    HW1 5507   4.220   4.400   5.471
 1536SOL    HW2 5508   4.265   4.366   5.317
 1537SOL     OW 5509   3.520   6.131   3.211
 1537SOL    HW1 5510   3.422   6.145   3.199
 1537SOL    HW2 5511   3.562   6.115   3.121
 1538SOL     OW 5512   3.456   5.605   6.070
 1538SOL    HW1 5513   3.459   5.513   6.108
 1538SOL    HW2 5514   3.365   5.621   6.030
 1539SOL     OW 5515   4.165   3.838   1.823
 1539SOL    HW1 5516   4.115   3.806   1.904
 1539SOL    HW2 5517   4.219   3.762   1.785
 1540SOL     OW 5518   1.002   0.081   5.668
 1540SOL    HW1 5519   0.932   0.145   5.702
 1540SOL    HW2 5520   1.079   0.133   5.632
 1541SOL     OW 5521   3.665   2.827   2.128
 1541SOL    HW1 5522   3.749   2.793   2.169
 1541SOL    HW2 5523   3.666   2.927   2.126
 1542SOL     OW 5524   6.596   6.536   1.551
 1542SOL    HW1 5525   6.592   6.621   1.603
 1542SOL    HW2 5526   6.609   6.459   1.614
 1543SOL     OW 5527   3.180   3.903   3.950
 1543SOL    HW1 5528   3.128   3.893   4.035
 1543SOL    HW2 5529   3.117   3.921   3.875
 1544SOL     OW 5530   3.135   3.481   2.264
 1544SOL    HW1 5531   3.163   3.386   2.254
 1544SOL    HW2 5532   3.040   3.485   2.295
 1545SOL     OW 5533   5.410   0.453   4.831
 1545SOL    HW1 5534   5.439   0.368   4.876
 1545SOL    HW2 5535   5.358   0.431   4.748
 1546SOL     OW 5536   4.817   6.585   6.187
 1546SOL    HW1 5537   4.864   6.585   6.099
 1546SOL    HW2 5538   4.863   6.647   6.250
 1547SOL     OW 5539   1.839   4.030   3.095
 1547SOL    HW1 5540   1.889   3.949   3.062
 1547SOL    HW2 5541   1.790   4.072   3.018
 1548SOL     OW 5542   4.325   4.219   6.094
 1548SOL    HW1 5543   4.313   4.121   6.107
 1548SOL    HW2 5544   4.409   4.235   6.041
 1549SOL     OW 5545   4.585   1.427   2.591
 1549SOL    HW1 5546   4.545   1.473   2.512
 1549SOL    HW2 5547   4.512   1.397   2.653
 1550SOL     OW 5548   3.075   5.276   6.613
 1550SOL    HW1 5549   3.126   5.361   6.595
 1550SOL    HW2 5550   3.042   5.239   6.526
 1551SOL     OW 5551   2.774   3.845   0.334
 1551SOL    HW1 5552   2.867   3.822   0.363
 1551SOL    HW2 5553   2.728   3.898   0.406
 1552SOL     OW 5554   0.328   0.254   1.081
 1552SOL    HW1 5555   0.280   0.211   1.157
 1552SOL    HW2 5556   0.292   0.346   1.067
 1553SOL     OW 5557   6.455   0.464   5.460
 1553SOL    HW1 5558   6.434   0.515   5.543
 1553SOL    HW2 5559   6.420   0.513   5.381
 1554SOL     OW 5560   3.942   2.157   3.657
 1554SOL    HW1 5561   3.980   2.092   3.723
 1554SOL    HW2 5562   3.965   2.250   3.685
 1555SOL     OW 5563   5.099   1.919   5.992
 1555SOL    HW1 5564   5.194   1.904   6.021
 1555SOL    HW2 5565   5.052   1.975   6.061
 1556SOL     OW 5566   3.900   1.217   0.391
 1556SOL    HW1 5567   3.898   1.295   0.454
 1556SOL    HW2 5568   3.946   1.140   0.435
 1557SOL     OW 5569   1.941   1.492   6.602
 1557SOL    HW1 5570   1.859   1.491   6.659
 1557SOL    HW2 5571   1.927   1.552   6.524
 1558SOL     OW 5572   5.591   1.332   4.082
 1558SOL    HW1 5573   5.586   1.242   4.126
 1558SOL    HW2 5574   5.594   1.403   4.152
 1559SOL     OW 5575   6.989   2.635   0.243
 1559SOL    HW1 5576   6.895   2.661   0.222
 1559SOL    HW2 5577   0.008   2.585   0.166
 1560SOL     OW 5578   3.382   1.195   6.448
 1560SOL    HW1 5579   3.308   1.261   6.446
 1560SOL    HW2 5580   3.348   1.108   6.484
 1561SOL     OW 5581   6.143   6.694   2.803
 1561SOL    HW1 5582   6.082   6.618   2.781
 1561SOL    HW2 5583   6.177   6.736   2.719
 1562SOL     OW 5584   4.181   6.363   1.427
 1562SOL    HW1 5585   4.252   6.369   1.497
 1562SOL    HW2 5586   4.124   6.283   1.445
 1563SOL     OW 5587   2.288   1.048   6.081
 1563SOL    HW1 5588   2.271   1.015   5.989
 1563SOL    HW2 5589   2.361   1.117   6.079
 1564SOL     OW 5590   1.426   2.278   2.440
 1564SOL    HW1 5591   1.492   2.259   2.367
 1564SOL    HW2 5592   1.381   2.366   2.423
 1565SOL     OW 5593   3.895   5.736   4.092
 1565SOL    HW1 5594   3.822   5.700   4.035
 1565SOL    HW2 5595   3.973   5.674   4.089
 1566SOL     OW 5596   5.832   4.841   4.770
 1566SOL    HW1 5597   5.922   4.813   4.738
 1566SOL    HW2 5598   5.763   4.776   4.737
 1567SOL     OW 5599   6.493   5.910   6.996
 1567SOL    HW1 5600   6.582   5.949   0.002
 1567SOL    HW2 5601   6.420   5.962   0.019
 1568SOL     OW 5602   1.808   6.570   1.788
 1568SOL    HW1 5603   1.824   6.517   1.871
 1568SOL    HW2 5604   1.873   6.647   1.785
 1569SOL     OW 5605   2.924   6.740   3.525
 1569SOL    HW1 5606   2.858   6.781   3.589
 1569SOL    HW2 5607   2.890   6.750   3.431
 1570SOL     OW 5608   2.503   6.917   0.080
 1570SOL    HW1 5609   2.454   6.830   0.087
 1570SOL    HW2 5610   2.549   6.937   0.166
 1571SOL     OW 5611   6.349   1.769   3.124
 1571SOL    HW1 5612   6.335   1.858   3.167
 1571SOL    HW2 5613   6.321   1.697   3.187
 1572SOL     OW 5614   1.966   6.075   1.132
 1572SOL    HW1 5615   1.955   6.174   1.121
 1572SOL    HW2 5616   2.050   6.056   1.183
 1573SOL     OW 5617   6.411   3.736   1.533
 1573SOL    HW1 5618   6.416   3.750   1.435
 1573SOL    HW2 5619   6.324   3.693   1.557
 1574SOL     OW 5620   6.485   1.990   4.068
 1574SOL    HW1 5621   6.492   2.061   4.138
 1574SOL    HW2 5622   6.472   1.901   4.112
 1575SOL     OW 5623   2.563   1.823   1.233
 1575SOL    HW1 5624   2.484   1.763   1.220
 1575SOL    HW2 5625   2.647   1.771   1.220
 1576SOL     OW 5626   1.348   0.353   3.124
 1576SOL    HW1 5627   1.253   0.377   3.147
 1576SOL    HW2 5628   1.397   0.436   3.098
 1577SOL     OW 5629   2.610   0.434   5.738
 1577SOL    HW1 5630   2.588   0.353   5.794
 1577SOL    HW2 5631   2.530   0.494   5.733
 1578SOL     OW 5632   5.351   1.674   5.449
 1578SOL    HW1 5633   5.348   1.575   5.458
 1578SOL    HW2 5634   5.371   1.715   5.538
 1579SOL     OW 5635   0.242   1.921   1.975
 1579SOL    HW1 5636   0.311   1.938   2.045
 1579SOL    HW2 5637   0.179   1.850   2.007
 1580SOL     OW 5638   3.587   4.162   4.091
 1580SOL    HW1 5639   3.518   4.129   4.026
 1580SOL    HW2 5640   3.565   4.129   4.182
 1581SOL     OW 5641   6.230   4.950   4.899
 1581SOL    HW1 5642   6.217   4.892   4.819
 1581SOL    HW2 5643   6.175   5.032   4.891
 1582SOL     OW 5644   1.926   6.425   4.590
 1582SOL    HW1 5645   1.881   6.502   4.546
 1582SOL    HW2 5646   1.862   6.349   4.599
 1583SOL     OW 5647   0.350   6.137   3.471
 1583SOL    HW1 5648   0.380   6.212   3.412
 1583SOL    HW2 5649   0.333   6.055   3.416
 1584SOL     OW 5650   0.780   5.721   5.400
 1584SOL    HW1 5651   0.860   5.692   5.348
 1584SOL    HW2 5652   0.801   5.806   5.450
 1585SOL     OW 5653   4.459   1.923   3.406
 1585SOL    HW1 5654   4.445   1.961   3.498
 1585SOL    HW2 5655   4.376   1.936   3.352
 1586SOL     OW 5656   3.547   5.018   2.377
 1586SOL    HW1 5657   3.560   5.117   2.384
 1586SOL    HW2 5658   3.502   4.984   2.460
 1587SOL     OW 5659   2.215   5.932   5.815
 1587SOL    HW1 5660   2.304   5.944   5.771
 1587SOL    HW2 5661   2.228   5.909   5.911
 1588SOL     OW 5662   4.374   0.811   2.389
 1588SOL    HW1 5663   4.347   0.867   2.310
 1588SOL    HW2 5664   4.346   0.717   2.374
 1589SOL     OW 5665   6.894   3.003   1.955
 1589SOL    HW1 5666   6.957   2.927   1.938
 1589SOL    HW2 5667   6.914   3.043   2.044
 1590SOL     OW 5668   4.252   0.266   4.211
 1590SOL    HW1 5669   4.175   0.328   4.226
 1590SOL    HW2 5670   4.275   0.266   4.113
 1591SOL     OW 5671   6.858   5.673   1.476
 1591SOL    HW1 5672   6.926   5.607   1.444
 1591SOL    HW2 5673   6.871   5.760   1.428
 1592SOL     OW 5674   2.690   4.089   6.548
 1592SOL    HW1 5675   2.756   4.015   6.564
 1592SOL    HW2 5676   2.738   4.167   6.506
 1593SOL     OW 5677   0.865   6.898   5.561
 1593SOL    HW1 5678   0.847   6.821   5.623
 1593SOL    HW2 5679   0.892   6.978   5.614
 1594SOL     OW 5680   1.255   6.743   1.670
 1594SOL    HW1 5681   1.292   6.836   1.671
 1594SOL    HW2 5682   1.305   6.687   1.736
 1595SOL     OW 5683   1.260   5.333   0.427
 1595SOL    HW1 5684   1.246   5.348   0.525
 1595SOL    HW2 5685   1.227   5.413   0.377
 1596SOL     OW 5686   0.199   3.264   4.141
 1596SOL    HW1 5687   0.099   3.272   4.144
 1596SOL    HW2 5688   0.228   3.254   4.045
 1597SOL     OW 5689   1.230   6.094   0.227
 1597SOL    HW1 5690   1.157   6.057   0.283
 1597SOL    HW2 5691   1.212   6.190   0.206
 1598SOL     OW 5692   6.923   4.459   5.760
 1598SOL    HW1 5693   6.877   4.540   5.724
 1598SOL    HW2 5694   6.999   4.434   5.700
 1599SOL     OW 5695   4.664   5.587   4.702
 1599SOL    HW1 5696   4.684   5.683   4.721
 1599SOL    HW2 5697   4.574   5.563   4.738
 1600SOL     OW 5698   3.680   1.107   3.466
 1600SOL    HW1 5699   3.625   1.052   3.529
 1600SOL    HW2 5700   3.699   1.196   3.509
 1601SOL     OW 5701   7.019   6.497   4.258
 1601SOL    HW1 5702   6.942   6.441   4.229
 1601SOL    HW2 5703   0.057   6.445   4.321
 1602SOL     OW 5704   4.133   5.077   4.216
 1602SOL    HW1 5705   4.128   5.162   4.164
 1602SOL    HW2 5706   4.078   5.007   4.170
 1603SOL     OW 5707   1.481   6.647   2.979
 1603SOL    HW1 5708   1.411   6.690   3.036
 1603SOL    HW2 5709   1.438   6.601   2.901
 1604SOL     OW 5710   5.047   4.238   1.315
 1604SOL    HW1 5711   5.074   4.147   1.283
 1604SOL    HW2 5712   5.068   4.247   1.412
 1605SOL     OW 5713   6.737   5.562   1.886
 1605SOL    HW1 5714   6.729   5.466   1.861
 1605SOL    HW2 5715   6.645   5.599   1.902
 1606SOL     OW 5716   4.018   6.332   5.947
 1606SOL    HW1 5717   4.011   6.309   5.850
 1606SOL    HW2 5718   3.933   6.375   5.977
 1607SOL     OW 5719   4.116   0.684   0.685
 1607SOL    HW1 5720   4.172   0.712   0.607
 1607SOL    HW2 5721   4.045   0.753   0.700
 1608SOL     OW 5722   0.294   1.203   3.867
 1608SOL    HW1 5723   0.234   1.164   3.937
 1608SOL    HW2 5724   0.323   1.131   3.804
 1609SOL     OW 5725   4.673   0.311   0.134
 1609SOL    HW1 5726   4.693   0.228   0.185
 1609SOL    HW2 5727   4.664   0.388   0.198
 1610SOL     OW 5728   6.040   4.679   6.988
 1610SOL    HW1 5729   6.072   4.764   6.946
 1610SOL    HW2 5730   5.945   4.662   6.961
 1611SOL     OW 5731   2.617   3.995   0.507
 1611SOL    HW1 5732   2.551   3.949   0.447
 1611SOL    HW2 5733   2.592   4.091   0.516
 1612SOL     OW 5734   2.629   0.594   0.440
 1612SOL    HW1 5735   2.621   0.536   0.359
 1612SOL    HW2 5736   2.539   0.604   0.483
 1613SOL     OW 5737   1.617   5.853   2.176
 1613SOL    HW1 5738   1.528   5.880   2.140
 1613SOL    HW2 5739   1.629   5.754   2.166
 1614SOL     OW 5740   5.335   2.076   6.290
 1614SOL    HW1 5741   5.390   2.118   6.218
 1614SOL    HW2 5742   5.322   2.140   6.365
 1615SOL     OW 5743   6.111   5.646   0.781
 1615SOL    HW1 5744   6.190   5.657   0.721
 1615SOL    HW2 5745   6.027   5.653   0.727
 1616SOL     OW 5746   3.759   0.992   5.210
 1616SOL    HW1 5747   3.734   1.088   5.204
 1616SOL    HW2 5748   3.788   0.960   5.120
 1617SOL     OW 5749   5.280   6.960   2.894
 1617SOL    HW1 5750   5.209   6.890   2.886
 1617SOL    HW2 5751   5.271   0.005   2.818
 1618SOL     OW 5752   1.465   5.627   2.699
 1618SOL    HW1 5753   1.508   5.601   2.613
 1618SOL    HW2 5754   1.523   5.599   2.776
 1619SOL     OW 5755   0.750   4.208   1.581
 1619SOL    HW1 5756   0.831   4.150   1.580
 1619SOL    HW2 5757   0.707   4.204   1.671
 1620SOL     OW 5758   2.794   4.423   1.596
 1620SOL    HW1 5759   2.709   4.475   1.595
 1620SOL    HW2 5760   2.845   4.445   1.679
 1621SOL     OW 5761   6.739   1.186   0.497
 1621SOL    HW1 5762   6.779   1.248   0.565
 1621SOL    HW2 5763   6.812   1.141   0.446
 1622SOL     OW 5764   0.503   3.533   5.455
 1622SOL    HW1 5765   0.456   3.471   5.392
 1622SOL    HW2 5766   0.457   3.622   5.456
 1623SOL     OW 5767   1.533   2.887   5.038
 1623SOL    HW1 5768   1.589   2.962   5.005
 1623SOL    HW2 5769   1.453   2.875   4.979
 1624SOL     OW 5770   3.595   1.568   4.894
 1624SOL    HW1 5771   3.508   1.566   4.943
 1624SOL    HW2 5772   3.603   1.654   4.844
 1625SOL     OW 5773   1.108   4.596   0.390
 1625SOL    HW1 5774   1.048   4.621   0.314
 1625SOL    HW2 5775   1.200   4.579   0.355
 1626SOL     OW 5776   3.915   1.244   0.721
 1626SOL    HW1 5777   3.841   1.296   0.765
 1626SOL    HW2 5778   3.988   1.307   0.694
 1627SOL     OW 5779   6.125   3.039   3.749
 1627SOL    HW1 5780   6.172   2.951   3.741
 1627SOL    HW2 5781   6.160   3.102   3.680
 1628SOL     OW 5782   4.623   4.940   0.634
 1628SOL    HW1 5783   4.607   5.039   0.639
 1628SOL    HW2 5784   4.535   4.893   0.640
 1629SOL     OW 5785   2.790   1.167   3.824
 1629SOL    HW1 5786   2.886   1.193   3.834
 1629SOL    HW2 5787   2.757   1.131   3.911
 1630SOL     OW 5788   1.039   4.860   6.124
 1630SOL    HW1 5789   1.029   4.829   6.030
 1630SOL    HW2 5790   1.136   4.859   6.149
 1631SOL     OW 5791   0.958   3.044   0.375
 1631SOL    HW1 5792   0.943   3.052   0.277
 1631SOL    HW2 5793   0.960   2.947   0.400
 1632SOL     OW 5794   5.662   2.142   1.170
 1632SOL    HW1 5795   5.573   2.179   1.144
 1632SOL    HW2 5796   5.650   2.074   1.243
 1633SOL     OW 5797   5.582   4.047   4.593
 1633SOL    HW1 5798   5.531   4.101   4.525
 1633SOL    HW2 5799   5.614   3.962   4.551
 1634SOL     OW 5800   4.122   5.608   4.127
 1634SOL    HW1 5801   4.156   5.693   4.167
 1634SOL    HW2 5802   4.165   5.593   4.038
 1635SOL     OW 5803   0.076   5.064   6.927
 1635SOL    HW1 5804   0.153   5.127   6.918
 1635SOL    HW2 5805   0.030   5.055   6.838
 1636SOL     OW 5806   3.139   4.361   1.192
 1636SOL    HW1 5807   3.239   4.364   1.187
 1636SOL    HW2 5808   3.104   4.303   1.119
 1637SOL     OW 5809   6.883   0.935   2.968
 1637SOL    HW1 5810   6.820   0.988   3.025
 1637SOL    HW2 5811   6.940   0.877   3.027
 1638SOL     OW 5812   0.081   4.472   3.341
 1638SOL    HW1 5813   0.054   4.568   3.347
 1638SOL    HW2 5814   0.164   4.464   3.286
 1639SOL     OW 5815   5.618   6.269   1.701
 1639SOL    HW1 5816   5.608   6.364   1.728
 1639SOL    HW2 5817   5.669   6.219   1.772
 1640SOL     OW 5818   6.227   0.323   6.795
 1640SOL    HW1 5819   6.266   0.320   6.887
 1640SOL    HW2 5820   6.273   0.393   6.741
 1641SOL     OW 5821   4.442   2.314   2.783
 1641SOL    HW1 5822   4.346   2.298   2.759
 1641SOL    HW2 5823   4.501   2.260   2.724
 1642SOL     OW 5824   0.185   3.369   6.939
 1642SOL    HW1 5825   0.143   3.288   6.898
 1642SOL    HW2 5826   0.197   3.439   6.869
 1643SOL     OW 5827   2.541   4.943   4.273
 1643SOL    HW1 5828   2.636   4.923   4.253
 1643SOL    HW2 5829   2.528   5.042   4.278
 1644SOL     OW 5830   5.949   4.033   6.394
 1644SOL    HW1 5831   5.993   4.093   6.328
 1644SOL    HW2 5832   5.861   4.001   6.357
 1645SOL     OW 5833   3.412   5.356   6.206
 1645SOL    HW1 5834   3.475   5.356   6.285
 1645SOL    HW2 5835   3.375   5.264   6.193
 1646SOL     OW 5836   2.741   0.120   7.010
 1646SOL    HW1 5837   2.648   0.084   7.017
 1646SOL    HW2 5838   2.792   0.099   0.074
 1647SOL     OW 5839   6.191   3.675   4.589
 1647SOL    HW1 5840   6.281   3.715   4.573
 1647SOL    HW2 5841   6.197   3.603   4.658
 1648SOL     OW 5842   5.637   5.599   0.510
 1648SOL    HW1 5843   5.606   5.585   0.415
 1648SOL    HW2 5844   5.594   5.530   0.568
 1649SOL     OW 5845   3.636   1.585   3.645
 1649SOL    HW1 5846   3.556   1.567   3.703
 1649SOL    HW2 5847   3.633   1.680   3.612
 1650SOL     OW 5848   1.020   6.225   5.312
 1650SOL    HW1 5849   1.046   6.177   5.395
 1650SOL    HW2 5850   0.939   6.182   5.272
 1651SOL     OW 5851   0.294   1.809   1.732
 1651SOL    HW1 5852   0.289   1.867   1.813
 1651SOL    HW2 5853   0.286   1.713   1.759
 1652SOL     OW 5854   1.109   3.156   2.828
 1652SOL    HW1 5855   1.076   3.229   2.888
 1652SOL    HW2 5856   1.130   3.195   2.738
 1653SOL     OW 5857   1.182   0.088   6.963
 1653SOL    HW1 5858   1.191   0.187   6.976
 1653SOL    HW2 5859   1.141   0.070   6.874
 1654SOL     OW 5860   0.034   3.500   2.143
 1654SOL    HW1 5861   0.074   3.414   2.177
 1654SOL    HW2 5862   0.080   3.527   2.058
 1655SOL     OW 5863   0.269   2.120   4.940
 1655SOL    HW1 5864   0.309   2.178   4.869
 1655SOL    HW2 5865   0.243   2.176   5.019
 1656SOL     OW 5866   2.355   4.385   2.793
 1656SOL    HW1 5867   2.310   4.310   2.841
 1656SOL    HW2 5868   2.330   4.472   2.835
 1657SOL     OW 5869   6.921   0.932   4.480
 1657SOL    HW1 5870   6.967   0.843   4.475
 1657SOL    HW2 5871   6.987   1.002   4.504
 1658SOL     OW 5872   6.537   0.144   1.330
 1658SOL    HW1 5873   6.519   0.191   1.416
 1658SOL    HW2 5874   6.523   0.046   1.342
 1659SOL     OW 5875   3.647   0.019   0.197
 1659SOL    HW1 5876   3.743   7.017   0.217
 1659SOL    HW2 5877   3.628   0.001   0.101
 1660SOL     OW 5878   1.812   5.673   2.578
 1660SOL    HW1 5879   1.748   5.736   2.534
 1660SOL    HW2 5880   1.867   5.627   2.508
 1661SOL     OW 5881   2.681   6.707   1.312
 1661SOL    HW1 5882   2.691   6.621   1.362
 1661SOL    HW2 5883   2.592   6.708   1.265
 1662SOL     OW 5884   0.443   0.645   4.266
 1662SOL    HW1 5885   0.514   0.612   4.204
 1662SOL    HW2 5886   0.368   0.578   4.270
 1663SOL     OW 5887   4.028   6.151   3.429
 1663SOL    HW1 5888   3.951   6.090   3.451
 1663SOL    HW2 5889   4.020   6.235   3.483
 1664SOL     OW 5890   1.955   6.410   4.980
 1664SOL    HW1 5891   1.974   6.342   5.051
 1664SOL    HW2 5892   1.890   6.372   4.914
 1665SOL     OW 5893   6.761   2.662   2.643
 1665SOL    HW1 5894   6.829   2.633   2.711
 1665SOL    HW2 5895   6.759   2.596   2.568
 1666SOL     OW 5896   5.317   1.821   6.151
 1666SOL    HW1 5897   5.375   1.765   6.211
 1666SOL    HW2 5898   5.294   1.906   6.198
 1667SOL     OW 5899   0.537   6.662   0.727
 1667SOL    HW1 5900   0.543   6.637   0.630
 1667SOL    HW2 5901   0.516   6.580   0.781
 1668SOL     OW 5902   4.853   6.185   3.399
 1668SOL    HW1 5903   4.917   6.251   3.361
 1668SOL    HW2 5904   4.895   6.095   3.404
 1669SOL     OW 5905   6.492   5.051   6.745
 1669SOL    HW1 5906   6.526   4.986   6.678
 1669SOL    HW2 5907   6.468   5.137   6.700
 1670SOL     OW 5908   0.360   3.812   5.975
 1670SOL    HW1 5909   0.283   3.752   5.954
 1670SOL    HW2 5910   0.377   3.811   6.074
 1671SOL     OW 5911   5.552   1.334   2.959
 1671SOL    HW1 5912   5.560   1.270   3.035
 1671SOL    HW2 5913   5.506   1.417   2.991
 1672SOL     OW 5914   1.503   2.848   0.943
 1672SOL    HW1 5915   1.476   2.909   0.868
 1672SOL    HW2 5916   1.431   2.780   0.957
 1673SOL     OW 5917   0.852   1.447   4.756
 1673SOL    HW1 5918   0.855   1.460   4.657
 1673SOL    HW2 5919   0.872   1.533   4.802
 1674SOL     OW 5920   1.020   2.818   2.418
 1674SOL    HW1 5921   1.078   2.815   2.499
 1674SOL    HW2 5922   1.023   2.730   2.371
 1675SOL     OW 5923   5.293   6.789   0.302
 1675SOL    HW1 5924   5.195   6.771   0.292
 1675SOL    HW2 5925   5.338   6.776   0.214
 1676SOL     OW 5926   2.434   2.576   1.550
 1676SOL    HW1 5927   2.444   2.479   1.529
 1676SOL    HW2 5928   2.501   2.603   1.619
 1677SOL     OW 5929   3.356   3.206   3.978
 1677SOL    HW1 5930   3.362   3.108   3.957
 1677SOL    HW2 5931   3.438   3.234   4.027
 1678SOL     OW 5932   6.085   4.294   3.569
 1678SOL    HW1 5933   6.050   4.256   3.654
 1678SOL    HW2 5934   6.160   4.357   3.589
 1679SOL     OW 5935   2.366   2.614   4.534
 1679SOL    HW1 5936   2.360   2.698   4.587
 1679SOL    HW2 5937   2.432   2.552   4.577
 1680SOL     OW 5938   0.104   3.001   5.109
 1680SOL    HW1 5939   0.146   3.087   5.081
 1680SOL    HW2 5940   0.127   2.982   5.205
 1681SOL     OW 5941   0.022   5.394   6.563
 1681SOL    HW1 5942   6.953   5.355   6.587
 1681SOL    HW2 5943   0.017   5.436   6.473
 1682SOL     OW 5944   1.955   0.522   5.318
 1682SOL    HW1 5945   1.958   0.608   5.369
 1682SOL    HW2 5946   1.863   0.485   5.321
 1683SOL     OW 5947   4.607   4.828   2.033
 1683SOL    HW1 5948   4.613   4.833   2.133
 1683SOL    HW2 5949   4.676   4.888   1.993
 1684SOL     OW 5950   1.229   6.306   2.418
 1684SOL    HW1 5951   1.251   6.215   2.452
 1684SOL    HW2 5952   1.187   6.298   2.328
 1685SOL     OW 5953   2.296   1.010   4.861
 1685SOL    HW1 5954   2.200   1.010   4.833
 1685SOL    HW2 5955   2.342   1.089   4.821
 1686SOL     OW 5956   2.473   5.944   4.371
 1686SOL    HW1 5957   2.378   5.938   4.339
 1686SOL    HW2 5958   2.502   6.039   4.374
 1687SOL     OW 5959   1.889   3.224   2.184
 1687SOL    HW1 5960   1.961   3.213   2.115
 1687SOL    HW2 5961   1.834   3.304   2.162
 1688SOL     OW 5962   2.350   2.232   4.478
 1688SOL    HW1 5963   2.426   2.176   4.445
 1688SOL    HW2 5964   2.288   2.252   4.402
 1689SOL     OW 5965   6.282   1.349   3.047
 1689SOL    HW1 5966   6.369   1.381   3.008
 1689SOL    HW2 5967   6.300   1.273   3.110
 1690SOL     OW 5968   1.279   2.948   4.452
 1690SOL    HW1 5969   1.249   2.940   4.547
 1690SOL    HW2 5970   1.371   2.909   4.443
 1691SOL     OW 5971   5.381   3.643   3.790
 1691SOL    HW1 5972   5.420   3.711   3.728
 1691SOL    HW2 5973   5.448   3.572   3.809
 1692SOL     OW 5974   5.149   6.429   1.423
 1692SOL    HW1 5975   5.164   6.515   1.472
 1692SOL    HW2 5976   5.163   6.443   1.325
 1693SOL     OW 5977   6.612   1.880   2.282
 1693SOL    HW1 5978   6.541   1.950   2.290
 1693SOL    HW2 5979   6.667   1.897   2.200
 1694SOL     OW 5980   5.609   1.286   2.705
 1694SOL    HW1 5981   5.692   1.312   2.656
 1694SOL    HW2 5982   5.621   1.303   2.803
 1695SOL     OW 5983   4.058   0.658   6.391
 1695SOL    HW1 5984   4.029   0.619   6.479
 1695SOL    HW2 5985   4.134   0.721   6.407
 1696SOL     OW 5986   4.289   5.688   0.641
 1696SOL    HW1 5987   4.336   5.715   0.725
 1696SOL    HW2 5988   4.222   5.759   0.616
 1697SOL     OW 5989   6.286   0.938   0.253
 1697SOL    HW1 5990   6.286   0.870   0.327
 1697SOL    HW2 5991   6.279   1.029   0.292
 1698SOL     OW 5992   3.296   0.476   7.010
 1698SOL    HW1 5993   3.355   0.438   0.061
 1698SOL    HW2 5994   3.245   0.554   0.027
 1699SOL     OW 5995   2.549   1.327   6.740
 1699SOL    HW1 5996   2.530   1.357   6.647
 1699SOL    HW2 5997   2.547   1.227   6.744
 1700SOL     OW 5998   6.280   3.768   3.769
 1700SOL    HW1 5999   6.299   3.865   3.787
 1700SOL    HW2 6000   6.185   3.748   3.794
 1701SOL     OW 6001   4.845   4.412   5.505
 1701SOL    HW1 6002   4.802   4.338   5.556
 1701SOL    HW2 6003   4.933   4.381   5.468
 1702SOL     OW 6004   6.527   1.289   0.353
 1702SOL    HW1 6005   6.600   1.226   0.382
 1702SOL    HW2 6006   6.532   1.373   0.406
 1703SOL     OW 6007   3.514   2.440   0.761
 1703SOL    HW1 6008   3.489   2.522   0.811
 1703SOL    HW2 6009   3.571   2.382   0.818
 1704SOL     OW 6010   1.090   1.797   1.589
 1704SOL    HW1 6011   0.994   1.818   1.610
 1704SOL    HW2 6012   1.136   1.879   1.556
 1705SOL     OW 6013   2.932   2.145   2.477
 1705SOL    HW1 6014   2.921   2.169   2.381
 1705SOL    HW2 6015   2.895   2.218   2.535
 1706SOL     OW 6016   5.091   1.121   2.155
 1706SOL    HW1 6017   5.188   1.118   2.182
 1706SOL    HW2 6018   5.084   1.130   2.056
 1707SOL     OW 6019   5.027   2.218   1.705
 1707SOL    HW1 6020   4.976   2.135   1.729
 1707SOL    HW2 6021   5.122   2.210   1.736
 1708SOL     OW 6022   4.947   5.267   2.105
 1708SOL    HW1 6023   4.883   5.190   2.104
 1708SOL    HW2 6024   4.900   5.349   2.074
 1709SOL     OW 6025   3.209   6.229   2.137
 1709SOL    HW1 6026   3.123   6.233   2.087
 1709SOL    HW2 6027   3.242   6.322   2.154
 1710SOL     OW 6028   4.921   4.548   3.767
 1710SOL    HW1 6029   4.968   4.633   3.791
 1710SOL    HW2 6030   4.954   4.474   3.826
 1711SOL     OW 6031   1.505   4.253   4.252
 1711SOL    HW1 6032   1.507   4.329   4.317
 1711SOL    HW2 6033   1.550   4.173   4.292
 1712SOL     OW 6034   6.493   2.195   4.941
 1712SOL    HW1 6035   6.409   2.141   4.954
 1712SOL    HW2 6036   6.552   2.149   4.875
 1713SOL     OW 6037   5.067   2.384   2.191
 1713SOL    HW1 6038   4.989   2.326   2.168
 1713SOL    HW2 6039   5.042   2.480   2.179
 1714SOL     OW 6040   3.500   0.940   5.915
 1714SOL    HW1 6041   3.423   1.004   5.916
 1714SOL    HW2 6042   3.466   0.848   5.935
 1715SOL     OW 6043   1.297   5.442   2.808
 1715SOL    HW1 6044   1.350   5.364   2.841
 1715SOL    HW2 6045   1.358   5.510   2.767
 1716SOL     OW 6046   4.954   0.213   2.815
 1716SOL    HW1 6047   4.857   0.226   2.797
 1716SOL    HW2 6048   4.979   0.262   2.898
 1717SOL     OW 6049   2.865   5.734   5.733
 1717SOL    HW1 6050   2.872   5.834   5.729
 1717SOL    HW2 6051   2.944   5.697   5.781
 1718SOL     OW 6052   2.839   1.470   1.952
 1718SOL    HW1 6053   2.829   1.459   1.853
 1718SOL    HW2 6054   2.841   1.380   1.995
 1719SOL     OW 6055   1.862   2.992   1.428
 1719SOL    HW1 6056   1.960   3.008   1.441
 1719SOL    HW2 6057   1.835   3.024   1.337
 1720SOL     OW 6058   0.175   2.921   0.051
 1720SOL    HW1 6059   0.158   2.823   0.039
 1720SOL    HW2 6060   0.264   2.934   0.094
 1721SOL     OW 6061   2.175   0.038   1.787
 1721SOL    HW1 6062   2.262   0.056   1.741
 1721SOL    HW2 6063   2.188   0.044   1.886
 1722SOL     OW 6064   3.180   1.219   3.585
 1722SOL    HW1 6065   3.114   1.223   3.510
 1722SOL    HW2 6066   3.212   1.125   3.596
 1723SOL     OW 6067   5.871   2.255   1.619
 1723SOL    HW1 6068   5.884   2.231   1.716
 1723SOL    HW2 6069   5.773   2.263   1.600
 1724SOL     OW 6070   6.529   2.997   2.243
 1724SOL    HW1 6071   6.587   2.929   2.288
 1724SOL    HW2 6072   6.488   2.958   2.161
 1725SOL     OW 6073   2.136   5.021   6.180
 1725SOL    HW1 6074   2.087   4.963   6.115
 1725SOL    HW2 6075   2.185   4.964   6.246
 1726SOL     OW 6076   6.338   4.595   5.450
 1726SOL    HW1 6077   6.259   4.599   5.511
 1726SOL    HW2 6078   6.415   4.643   5.493
 1727SOL     OW 6079   3.267   2.903   3.473
 1727SOL    HW1 6080   3.355   2.856   3.473
 1727SOL    HW2 6081   3.256   2.953   3.387
 1728SOL     OW 6082   5.368   5.227   5.300
 1728SOL    HW1 6083   5.354   5.322   5.273
 1728SOL    HW2 6084   5.282   5.177   5.291
 1729SOL     OW 6085   1.988   4.219   3.213
 1729SOL    HW1 6086   1.939   4.248   3.295
 1729SOL    HW2 6087   1.929   4.159   3.159
 1730SOL     OW 6088   1.360   6.958   5.544
 1730SOL    HW1 6089   1.366   0.038   5.548
 1730SOL    HW2 6090   1.272   6.931   5.505
 1731SOL     OW 6091   0.316   4.262   3.688
 1731SOL    HW1 6092   0.344   4.187   3.749
 1731SOL    HW2 6093   0.344   4.240   3.594
 1732SOL     OW 6094   2.393   4.900   5.816
 1732SOL    HW1 6095   2.458   4.833   5.852
 1732SOL    HW2 6096   2.393   4.897   5.716
 1733SOL     OW 6097   1.678   4.358   1.759
 1733SOL    HW1 6098   1.637   4.409   1.683
 1733SOL    HW2 6099   1.724   4.277   1.724
 1734SOL     OW 6100   4.640   3.232   1.093
 1734SOL    HW1 6101   4.642   3.290   1.012
 1734SOL    HW2 6102   4.588   3.149   1.074
 1735SOL     OW 6103   4.979   5.179   0.037
 1735SOL    HW1 6104   4.910   5.239   7.018
 1735SOL    HW2 6105   4.935   5.096   0.072
 1736SOL     OW 6106   3.643   3.960   0.674
 1736SOL    HW1 6107   3.600   3.983   0.587
 1736SOL    HW2 6108   3.695   3.875   0.664
 1737SOL     OW 6109   4.047   1.148   4.199
 1737SOL    HW1 6110   4.077   1.241   4.222
 1737SOL    HW2 6111   4.017   1.146   4.103
 1738SOL     OW 6112   1.685   2.737   4.270
 1738SOL    HW1 6113   1.629   2.748   4.353
 1738SOL    HW2 6114   1.649   2.660   4.217
 1739SOL     OW 6115   6.779   1.418   5.620
 1739SOL    HW1 6116   6.764   1.513   5.649
 1739SOL    HW2 6117   6.862   1.412   5.565
 1740SOL     OW 6118   0.069   2.299   5.525
 1740SOL    HW1 6119   0.149   2.313   5.467
 1740SOL    HW2 6120   7.012   2.352   5.490
 1741SOL     OW 6121   2.311   0.552   3.841
 1741SOL    HW1 6122   2.369   0.619   3.887
 1741SOL    HW2 6123   2.322   0.462   3.884
 1742SOL     OW 6124   5.719   0.649   6.230
 1742SOL    HW1 6125   5.634   0.617   6.190
 1742SOL    HW2 6126   5.715   0.749   6.240
 1743SOL     OW 6127   0.791   2.222   2.392
 1743SOL    HW1 6128   0.891   2.232   2.394
 1743SOL    HW2 6129   0.762   2.169   2.472
 1744SOL     OW 6130   5.825   2.785   3.374
 1744SOL    HW1 6131   5.894   2.857   3.363
 1744SOL    HW2 6132   5.834   2.744   3.465
 1745SOL     OW 6133   5.573   5.663   2.240
 1745SOL    HW1 6134   5.606   5.692   2.151
 1745SOL    HW2 6135   5.535   5.571   2.234
 1746SOL     OW 6136   1.918   4.117   4.672
 1746SOL    HW1 6137   1.896   4.020   4.676
 1746SOL    HW2 6138   1.958   4.146   4.759
 1747SOL     OW 6139   4.664   1.805   3.038
 1747SOL    HW1 6140   4.662   1.825   2.940
 1747SOL    HW2 6141   4.757   1.779   3.065
 1748SOL     OW 6142   0.533   1.552   5.191
 1748SOL    HW1 6143   0.503   1.577   5.284
 1748SOL    HW2 6144   0.561   1.456   5.190
 1749SOL     OW 6145   2.300   6.856   5.052
 1749SOL    HW1 6146   2.221   6.918   5.054
 1749SOL    HW2 6147   2.270   6.763   5.073
 1750SOL     OW 6148   5.117   6.312   3.718
 1750SOL    HW1 6149   5.079   6.219   3.712
 1750SOL    HW2 6150   5.214   6.308   3.741
 1751SOL     OW 6151   4.017   0.422   4.175
 1751SOL    HW1 6152   4.054   0.496   4.120
 1751SOL    HW2 6153   3.924   0.401   4.144
 1752SOL     OW 6154   6.458   1.641   2.388
 1752SOL    HW1 6155   6.408   1.679   2.466
 1752SOL    HW2 6156   6.512   1.713   2.345
 1753SOL     OW 6157   6.401   1.129   1.206
 1753SOL    HW1 6158   6.466   1.201   1.182
 1753SOL    HW2 6159   6.385   1.130   1.304
 1754SOL     OW 6160   1.569   4.772   6.788
 1754SOL    HW1 6161   1.567   4.805   6.694
 1754SOL    HW2 6162   1.657   4.794   6.829
 1755SOL     OW 6163   0.340   6.407   1.093
 1755SOL    HW1 6164   0.411   6.468   1.129
 1755SOL    HW2 6165   0.330   6.329   1.154
 1756SOL     OW 6166   4.077   5.331   5.541
 1756SOL    HW1 6167   4.046   5.402   5.478
 1756SOL    HW2 6168   4.042   5.352   5.633
 1757SOL     OW 6169   2.123   5.332   4.419
 1757SOL    HW1 6170   2.169   5.247   4.445
 1757SOL    HW2 6171   2.051   5.353   4.485
 1758SOL     OW 6172   2.527   0.832   4.448
 1758SOL    HW1 6173   2.456   0.819   4.379
 1758SOL    HW2 6174   2.612   0.789   4.416
 1759SOL     OW 6175   1.872   6.705   5.062
 1759SOL    HW1 6176   1.889   6.607   5.050
 1759SOL    HW2 6177   1.781   6.718   5.102
 1760SOL     OW 6178   5.707   1.120   3.417
 1760SOL    HW1 6179   5.758   1.119   3.503
 1760SOL    HW2 6180   5.651   1.037   3.411
 1761SOL     OW 6181   0.223   0.691   1.212
 1761SOL    HW1 6182   0.264   0.774   1.249
 1761SOL    HW2 6183   0.151   0.659   1.273
 1762SOL     OW 6184   0.949   1.331   4.225
 1762SOL    HW1 6185   1.008   1.270   4.278
 1762SOL    HW2 6186   0.890   1.278   4.165
 1763SOL     OW 6187   0.827   4.446   4.120
 1763SOL    HW1 6188   0.864   4.538   4.112
 1763SOL    HW2 6189   0.730   4.447   4.098
 1764SOL     OW 6190   2.087   3.388   2.385
 1764SOL    HW1 6191   1.994   3.353   2.397
 1764SOL    HW2 6192   2.148   3.343   2.450
 1765SOL     OW 6193   3.825   1.123   1.707
 1765SOL    HW1 6194   3.838   1.099   1.803
 1765SOL    HW2 6195   3.728   1.126   1.686
 1766SOL     OW 6196   5.561   4.521   3.016
 1766SOL    HW1 6197   5.500   4.596   3.038
 1766SOL    HW2 6198   5.617   4.545   2.936
 1767SOL     OW 6199   0.964   4.045   2.463
 1767SOL    HW1 6200   1.026   4.065   2.387
 1767SOL    HW2 6201   0.982   3.953   2.498
 1768SOL     OW 6202   3.664   1.168   6.597
 1768SOL    HW1 6203   3.616   1.157   6.684
 1768SOL    HW2 6204   3.598   1.188   6.524
 1769SOL     OW 6205   4.485   1.537   6.430
 1769SOL    HW1 6206   4.400   1.497   6.464
 1769SOL    HW2 6207   4.490   1.525   6.331
 1770SOL     OW 6208   6.922   4.756   4.753
 1770SOL    HW1 6209   6.893   4.670   4.795
 1770SOL    HW2 6210   6.849   4.790   4.694
 1771SOL     OW 6211   1.727   5.415   0.837
 1771SOL    HW1 6212   1.761   5.444   0.747
 1771SOL    HW2 6213   1.782   5.337   0.869
 1772SOL     OW 6214   3.809   6.499   2.936
 1772SOL    HW1 6215   3.801   6.494   3.035
 1772SOL    HW2 6216   3.864   6.422   2.903
 1773SOL     OW 6217   2.892   3.150   6.351
 1773SOL    HW1 6218   2.924   3.226   6.409
 1773SOL    HW2 6219   2.796   3.165   6.326
 1774SOL     OW 6220   4.813   6.553   1.593
 1774SOL    HW1 6221   4.764   6.561   1.506
 1774SOL    HW2 6222   4.869   6.471   1.592
 1775SOL     OW 6223   2.064   4.786   5.292
 1775SOL    HW1 6224   2.058   4.729   5.210
 1775SOL    HW2 6225   2.140   4.754   5.349
 1776SOL     OW 6226   5.226   1.096   5.730
 1776SOL    HW1 6227   5.227   1.137   5.821
 1776SOL    HW2 6228   5.132   1.097   5.694
 1777SOL     OW 6229   3.443   6.085   5.956
 1777SOL    HW1 6230   3.456   6.002   5.901
 1777SOL    HW2 6231   3.427   6.059   6.052
 1778SOL     OW 6232   4.889   2.174   4.359
 1778SOL    HW1 6233   4.850   2.114   4.289
 1778SOL    HW2 6234   4.896   2.123   4.445
 1779SOL     OW 6235   3.905   1.342   4.715
 1779SOL    HW1 6236   3.896   1.272   4.645
 1779SOL    HW2 6237   3.996   1.337   4.756
 1780SOL     OW 6238   2.369   4.025   6.313
 1780SOL    HW1 6239   2.462   3.991   6.332
 1780SOL    HW2 6240   2.304   3.979   6.373
 1781SOL     OW 6241   5.259   5.414   3.884
 1781SOL    HW1 6242   5.186   5.455   3.830
 1781SOL    HW2 6243   5.219   5.351   3.951
 1782SOL     OW 6244   3.321   1.726   3.319
 1782SOL    HW1 6245   3.356   1.653   3.377
 1782SOL    HW2 6246   3.228   1.704   3.289
 1783SOL     OW 6247   2.547   3.264   6.117
 1783SOL    HW1 6248   2.564   3.355   6.155
 1783SOL    HW2 6249   2.628   3.232   6.067
 1784SOL     OW 6250   2.318   1.210   2.043
 1784SOL    HW1 6251   2.397   1.266   2.021
 1784SOL    HW2 6252   2.334   1.163   2.130
 1785SOL     OW 6253   6.100   6.184   3.652
 1785SOL    HW1 6254   6.053   6.216   3.735
 1785SOL    HW2 6255   6.158   6.106   3.675
 1786SOL     OW 6256   1.437   3.943   0.753
 1786SOL    HW1 6257   1.433   4.021   0.815
 1786SOL    HW2 6258   1.465   3.974   0.662
 1787SOL     OW 6259   2.589   1.573   5.363
 1787SOL    HW1 6260   2.615   1.665   5.392
 1787SOL    HW2 6261   2.650   1.506   5.405
 1788SOL     OW 6262   3.569   4.314   0.409
 1788SOL    HW1 6263   3.549   4.334   0.505
 1788SOL    HW2 6264   3.489   4.333   0.353
 1789SOL     OW 6265   5.415   2.749   2.020
 1789SOL    HW1 6266   5.318   2.755   1.997
 1789SOL    HW2 6267   5.456   2.840   2.013
 1790SOL     OW 6268   3.455   0.654   4.473
 1790SOL    HW1 6269   3.487   0.729   4.414
 1790SOL    HW2 6270   3.526   0.585   4.481
 1791SOL     OW 6271   6.381   1.055   4.237
 1791SOL    HW1 6272   6.395   0.957   4.247
 1791SOL    HW2 6273   6.288   1.078   4.267
 1792SOL     OW 6274   0.391   1.560   4.734
 1792SOL    HW1 6275   0.300   1.583   4.768
 1792SOL    HW2 6276   0.460   1.597   4.796
 1793SOL     OW 6277   6.386   0.770   4.249
 1793SOL    HW1 6278   6.469   0.732   4.210
 1793SOL    HW2 6279   6.362   0.721   4.333
 1794SOL     OW 6280   4.650   6.242   5.914
 1794SOL    HW1 6281   4.646   6.291   6.001
 1794SOL    HW2 6282   4.741   6.204   5.902
 1795SOL     OW 6283   6.446   5.148   2.264
 1795SOL    HW1 6284   6.471   5.208   2.187
 1795SOL    HW2 6285   6.466   5.053   2.239
 1796SOL     OW 6286   2.054   1.170   4.655
 1796SOL    HW1 6287   2.079   1.243   4.718
 1796SOL    HW2 6288   2.125   1.161   4.585
 1797SOL     OW 6289   1.584   6.759   5.441
 1797SOL    HW1 6290   1.614   6.699   5.515
 1797SOL    HW2 6291   1.496   6.800   5.465
 1798SOL     OW 6292   3.901   3.148   5.174
 1798SOL    HW1 6293   3.939   3.233   5.138
 1798SOL    HW2 6294   3.817   3.168   5.224
 1799SOL     OW 6295   5.814   3.086   6.275
 1799SOL    HW1 6296   5.843   3.174   6.312
 1799SOL    HW2 6297   5.717   3.071   6.294
 1800SOL     OW 6298   5.036   4.742   3.408
 1800SOL    HW1 6299   5.116   4.723   3.351
 1800SOL    HW2 6300   5.006   4.657   3.451
 1801SOL     OW 6301   1.276   1.573   3.096
 1801SOL    HW1 6302   1.350   1.634   3.067
 1801SOL    HW2 6303   1.189   1.609   3.063
 1802SOL     OW 6304   6.522   6.559   2.869
 1802SOL    HW1 6305   6.456   6.532   2.939
 1802SOL    HW2 6306   6.519   6.492   2.794
 1803SOL     OW 6307   6.498   6.740   2.456
 1803SOL    HW1 6308   6.490   6.641   2.464
 1803SOL    HW2 6309   6.582   6.763   2.406
 1804SOL     OW 6310   3.690   3.345   5.185
 1804SOL    HW1 6311   3.691   3.430   5.133
 1804SOL    HW2 6312   3.606   3.294   5.163
 1805SOL     OW 6313   1.317   4.385   5.971
 1805SOL    HW1 6314   1.228   4.429   5.975
 1805SOL    HW2 6315   1.388   4.449   6.002
 1806SOL     OW 6316   0.601   2.448   1.615
 1806SOL    HW1 6317   0.669   2.494   1.672
 1806SOL    HW2 6318   0.640   2.427   1.526
 1807SOL     OW 6319   6.766   2.092   6.315
 1807SOL    HW1 6320   6.749   2.023   6.385
 1807SOL    HW2 6321   6.692   2.090   6.247
 1808SOL     OW 6322   5.683   4.658   4.554
 1808SOL    HW1 6323   5.601   4.674   4.498
 1808SOL    HW2 6324   5.703   4.561   4.557
 1809SOL     OW 6325   2.860   2.017   4.973
 1809SOL    HW1 6326   2.906   1.938   5.015
 1809SOL    HW2 6327   2.825   2.077   5.045
 1810SOL     OW 6328   1.173   0.596   4.409
 1810SOL    HW1 6329   1.251   0.534   4.418
 1810SOL    HW2 6330   1.201   0.689   4.434
 1811SOL     OW 6331   5.086   4.394   2.616
 1811SOL    HW1 6332   5.105   4.424   2.522
 1811SOL    HW2 6333   5.159   4.331   2.645
 1812SOL     OW 6334   4.688   0.190   6.380
 1812SOL    HW1 6335   4.774   0.146   6.352
 1812SOL    HW2 6336   4.645   0.135   6.451
 1813SOL     OW 6337   4.968   5.143   1.802
 1813SOL    HW1 6338   5.025   5.072   1.760
 1813SOL    HW2 6339   5.020   5.228   1.810
 1814SOL     OW 6340   5.884   0.310   0.740
 1814SOL    HW1 6341   5.904   0.233   0.800
 1814SOL    HW2 6342   5.791   0.342   0.757
 1815SOL     OW 6343   6.260   0.368   2.964
 1815SOL    HW1 6344   6.303   0.355   3.053
 1815SOL    HW2 6345   6.328   0.403   2.899
 1816SOL     OW 6346   3.048   5.201   0.207
 1816SOL    HW1 6347   2.996   5.118   0.227
 1816SOL    HW2 6348   3.092   5.234   0.291
 1817SOL     OW 6349   4.621   0.374   2.948
 1817SOL    HW1 6350   4.636   0.328   2.860
 1817SOL    HW2 6351   4.636   0.310   3.023
 1818SOL     OW 6352   1.926   6.343   0.757
 1818SOL    HW1 6353   1.973   6.353   0.670
 1818SOL    HW2 6354   1.990   6.358   0.832
 1819SOL     OW 6355   1.333   6.624   2.059
 1819SOL    HW1 6356   1.288   6.538   2.034
 1819SOL    HW2 6357   1.355   6.622   2.157
 1820SOL     OW 6358   3.641   0.190   2.732
 1820SOL    HW1 6359   3.541   0.194   2.729
 1820SOL    HW2 6360   3.678   0.283   2.733
 1821SOL     OW 6361   2.576   1.302   1.568
 1821SOL    HW1 6362   2.615   1.238   1.634
 1821SOL    HW2 6363   2.614   1.394   1.584
 1822SOL     OW 6364   0.728   2.534   1.870
 1822SOL    HW1 6365   0.680   2.617   1.841
 1822SOL    HW2 6366   0.667   2.479   1.927
 1823SOL     OW 6367   3.206   6.095   3.075
 1823SOL    HW1 6368   3.182   6.056   3.164
 1823SOL    HW2 6369   3.156   6.046   3.003
 1824SOL     OW 6370   3.954   4.242   1.003
 1824SOL    HW1 6371   3.950   4.327   1.055
 1824SOL    HW2 6372   3.864   4.198   1.003
 1825SOL     OW 6373   0.755   2.461   4.536
 1825SOL    HW1 6374   0.815   2.383   4.550
 1825SOL    HW2 6375   0.760   2.490   4.440
 1826SOL     OW 6376   3.364   1.713   1.696
 1826SOL    HW1 6377   3.423   1.641   1.732
 1826SOL    HW2 6378   3.406   1.803   1.712
 1827SOL     OW 6379   6.226   5.413   1.193
 1827SOL    HW1 6380   6.249   5.325   1.151
 1827SOL    HW2 6381   6.187   5.397   1.284
 1828SOL     OW 6382   1.213   2.896   6.368
 1828SOL    HW1 6383   1.300   2.934   6.401
 1828SOL    HW2 6384   1.183   2.946   6.288
 1829SOL     OW 6385   4.221   0.641   2.913
 1829SOL    HW1 6386   4.249   0.736   2.925
 1829SOL    HW2 6387   4.127   0.638   2.879
 1830SOL     OW 6388   5.630   5.846   4.758
 1830SOL    HW1 6389   5.706   5.787   4.784
 1830SOL    HW2 6390   5.662   5.915   4.694
 1831SOL     OW 6391   5.607   6.660   2.453
 1831SOL    HW1 6392   5.592   6.564   2.478
 1831SOL    HW2 6393   5.577   6.719   2.527
 1832SOL     OW 6394   4.265   1.544   0.841
 1832SOL    HW1 6395   4.300   1.624   0.793
 1832SOL    HW2 6396   4.294   1.461   0.793
 1833SOL     OW 6397   5.872   0.626   1.688
 1833SOL    HW1 6398   5.881   0.587   1.779
 1833SOL    HW2 6399   5.868   0.725   1.694
 1834SOL     OW 6400   2.223   4.115   0.704
 1834SOL    HW1 6401   2.134   4.162   0.708
 1834SOL    HW2 6402   2.252   4.091   0.797
 1835SOL     OW 6403   0.334   4.554   1.958
 1835SOL    HW1 6404   0.321   4.576   1.861
 1835SOL    HW2 6405   0.432   4.549   1.977
 1836SOL     OW 6406   5.355   2.455   1.760
 1836SOL    HW1 6407   5.443   2.455   1.806
 1836SOL    HW2 6408   5.359   2.517   1.681
 1837SOL     OW 6409   1.118   6.881   5.436
 1837SOL    HW1 6410   1.116   6.790   5.395
 1837SOL    HW2 6411   1.032   6.898   5.483
 1838SOL     OW 6412   5.771   1.087   5.707
 1838SOL    HW1 6413   5.817   1.176   5.700
 1838SOL    HW2 6414   5.839   1.014   5.703
 1839SOL     OW 6415   0.219   1.190   5.639
 1839SOL    HW1 6416   0.296   1.169   5.579
 1839SOL    HW2 6417   0.142   1.223   5.585
 1840SOL     OW 6418   3.710   0.281   1.933
 1840SOL    HW1 6419   3.740   0.217   2.003
 1840SOL    HW2 6420   3.777   0.355   1.924
 1841SOL     OW 6421   2.665   0.781   3.211
 1841SOL    HW1 6422   2.611   0.787   3.127
 1841SOL    HW2 6423   2.605   0.762   3.288
 1842SOL     OW 6424   1.145   5.731   1.217
 1842SOL    HW1 6425   1.165   5.744   1.315
 1842SOL    HW2 6426   1.184   5.644   1.187
 1843SOL     OW 6427   5.765   0.407   4.742
 1843SOL    HW1 6428   5.813   0.433   4.826
 1843SOL    HW2 6429   5.668   0.433   4.751
 1844SOL     OW 6430   3.625   0.278   4.861
 1844SOL    HW1 6431   3.691   0.348   4.833
 1844SOL    HW2 6432   3.644   0.193   4.811
 1845SOL     OW 6433   2.436   6.513   4.461
 1845SOL    HW1 6434   2.392   6.559   4.538
 1845SOL    HW2 6435   2.482   6.430   4.493
 1846SOL     OW 6436   4.103   0.912   2.526
 1846SOL    HW1 6437   4.185   0.863   2.556
 1846SOL    HW2 6438   4.128   1.004   2.498
 1847SOL     OW 6439   1.751   0.158   5.609
 1847SOL    HW1 6440   1.724   0.203   5.693
 1847SOL    HW2 6441   1.831   0.100   5.626
 1848SOL     OW 6442   1.688   6.464   3.093
 1848SOL    HW1 6443   1.603   6.514   3.075
 1848SOL    HW2 6444   1.730   6.438   3.006
 1849SOL     OW 6445   4.523   2.520   1.290
 1849SOL    HW1 6446   4.499   2.535   1.386
 1849SOL    HW2 6447   4.619   2.493   1.284
 1850SOL     OW 6448   0.016   2.528   2.213
 1850SOL    HW1 6449   0.031   2.517   2.311
 1850SOL    HW2 6450   6.990   2.615   2.195
 1851SOL     OW 6451   0.719   3.380   0.312
 1851SOL    HW1 6452   0.753   3.363   0.404
 1851SOL    HW2 6453   0.779   3.336   0.246
 1852SOL     OW 6454   6.756   4.455   2.597
 1852SOL    HW1 6455   6.852   4.425   2.600
 1852SOL    HW2 6456   6.745   4.520   2.523
 1853SOL     OW 6457   6.470   2.620   3.236
 1853SOL    HW1 6458   6.550   2.662   3.279
 1853SOL    HW2 6459   6.472   2.637   3.137
 1854SOL     OW 6460   2.015   5.585   2.390
 1854SOL    HW1 6461   2.007   5.488   2.367
 1854SOL    HW2 6462   2.027   5.637   2.305
 1855SOL     OW 6463   5.790   3.348   5.319
 1855SOL    HW1 6464   5.797   3.283   5.244
 1855SOL    HW2 6465   5.872   3.405   5.321
 1856SOL     OW 6466   4.601   3.172   6.192
 1856SOL    HW1 6467   4.665   3.118   6.137
 1856SOL    HW2 6468   4.640   3.187   6.283
 1857SOL     OW 6469   4.062   1.799   0.285
 1857SOL    HW1 6470   3.978   1.788   0.232
 1857SOL    HW2 6471   4.119   1.718   0.274
 1858SOL     OW 6472   5.226   3.366   3.120
 1858SOL    HW1 6473   5.208   3.362   3.218
 1858SOL    HW2 6474   5.146   3.332   3.070
 1859SOL     OW 6475   4.320   1.681   3.758
 1859SOL    HW1 6476   4.252   1.655   3.689
 1859SOL    HW2 6477   4.281   1.751   3.818
 1860SOL     OW 6478   0.181   1.363   5.376
 1860SOL    HW1 6479   0.214   1.293   5.312
 1860SOL    HW2 6480   0.084   1.348   5.395
 1861SOL     OW 6481   5.494   0.413   2.691
 1861SOL    HW1 6482   5.538   0.332   2.651
 1861SOL    HW2 6483   5.550   0.447   2.767
 1862SOL     OW 6484   2.514   0.043   6.358
 1862SOL    HW1 6485   2.488   0.118   6.298
 1862SOL    HW2 6486   2.557   0.079   6.441
 1863SOL     OW 6487   0.055   2.920   3.600
 1863SOL    HW1 6488   0.013   2.837   3.636
 1863SOL    HW2 6489   0.142   2.898   3.556
 1864SOL     OW 6490   3.214   5.746   4.766
 1864SOL    HW1 6491   3.195   5.681   4.693
 1864SOL    HW2 6492   3.257   5.699   4.843
 1865SOL     OW 6493   3.789   0.401   0.339
 1865SOL    HW1 6494   3.772   0.442   0.428
 1865SOL    HW2 6495   3.886   0.379   0.330
 1866SOL     OW 6496   6.972   4.860   3.688
 1866SOL    HW1 6497   6.898   4.917   3.722
 1866SOL    HW2 6498   7.012   4.902   3.606
 1867SOL     OW 6499   1.636   4.354   1.349
 1867SOL    HW1 6500   1.622   4.418   1.424
 1867SOL    HW2 6501   1.730   4.320   1.350
 1868SOL     OW 6502   4.859   3.336   6.409
 1868SOL    HW1 6503   4.896   3.418   6.454
 1868SOL    HW2 6504   4.887   3.255   6.461
 1869SOL     OW 6505   6.364   3.294   5.040
 1869SOL    HW1 6506   6.445   3.251   5.080
 1869SOL    HW2 6507   6.295   3.224   5.022
 1870SOL     OW 6508   1.245   3.312   5.211
 1870SOL    HW1 6509   1.171   3.246   5.221
 1870SOL    HW2 6510   1.211   3.404   5.231
 1871SOL     OW 6511   0.310   0.303   0.742
 1871SOL    HW1 6512   0.283   0.245   0.819
 1871SOL    HW2 6513   0.392   0.265   0.698
 1872SOL     OW 6514   4.375   2.022   0.077
 1872SOL    HW1 6515   4.324   2.093   0.029
 1872SOL    HW2 6516   4.470   2.050   0.087
 1873SOL     OW 6517   5.810   0.679   5.761
 1873SOL    HW1 6518   5.813   0.705   5.665
 1873SOL    HW2 6519   5.899   0.640   5.787
 1874SOL     OW 6520   1.761   1.201   0.100
 1874SOL    HW1 6521   1.801   1.269   0.038
 1874SOL    HW2 6522   1.689   1.245   0.155
 1875SOL     OW 6523   6.058   0.479   0.554
 1875SOL    HW1 6524   6.005   0.427   0.621
 1875SOL    HW2 6525   6.080   0.569   0.593
 1876SOL     OW 6526   3.583   5.664   6.346
 1876SOL    HW1 6527   3.656   5.607   6.307
 1876SOL    HW2 6528   3.563   5.635   6.439
 1877SOL     OW 6529   1.182   1.728   3.742
 1877SOL    HW1 6530   1.084   1.722   3.761
 1877SOL    HW2 6531   1.197   1.766   3.650
 1878SOL     OW 6532   6.722   3.106   4.013
 1878SOL    HW1 6533   6.642   3.165   4.025
 1878SOL    HW2 6534   6.757   3.116   3.920
 1879SOL     OW 6535   2.803   6.225   3.898
 1879SOL    HW1 6536   2.786   6.269   3.810
 1879SOL    HW2 6537   2.825   6.128   3.883
 1880SOL     OW 6538   0.023   2.164   3.042
 1880SOL    HW1 6539   0.090   2.160   2.967
 1880SOL    HW2 6540   0.059   2.221   3.116
 1881SOL     OW 6541   1.315   2.009   3.979
 1881SOL    HW1 6542   1.219   2.022   3.956
 1881SOL    HW2 6543   1.360   2.099   3.986
 1882SOL     OW 6544   0.958   4.810   6.743
 1882SOL    HW1 6545   0.884   4.870   6.774
 1882SOL    HW2 6546   1.018   4.861   6.681
 1883SOL     OW 6547   1.196   3.535   3.756
 1883SOL    HW1 6548   1.233   3.442   3.755
 1883SOL    HW2 6549   1.115   3.540   3.698
 1884SOL     OW 6550   5.912   2.430   1.096
 1884SOL    HW1 6551   5.819   2.450   1.066
 1884SOL    HW2 6552   5.920   2.448   1.194
 1885SOL     OW 6553   0.302   2.016   0.367
 1885SOL    HW1 6554   0.247   2.086   0.414
 1885SOL    HW2 6555   0.381   1.992   0.424
 1886SOL     OW 6556   2.628   1.917   0.840
 1886SOL    HW1 6557   2.590   1.866   0.917
 1886SOL    HW2 6558   2.709   1.967   0.870
 1887SOL     OW 6559   0.598   4.575   5.381
 1887SOL    HW1 6560   0.675   4.538   5.328
 1887SOL    HW2 6561   0.631   4.647   5.441
 1888SOL     OW 6562   2.928   1.869   6.056
 1888SOL    HW1 6563   2.970   1.960   6.056
 1888SOL    HW2 6564   2.889   1.851   6.147
 1889SOL     OW 6565   5.509   2.612   6.595
 1889SOL    HW1 6566   5.519   2.703   6.555
 1889SOL    HW2 6567   5.600   2.571   6.606
 1890SOL     OW 6568   1.155   5.205   5.433
 1890SOL    HW1 6569   1.124   5.221   5.339
 1890SOL    HW2 6570   1.121   5.117   5.465
 1891SOL     OW 6571   5.440   3.239   4.303
 1891SOL    HW1 6572   5.399   3.148   4.305
 1891SOL    HW2 6573   5.380   3.304   4.348
 1892SOL     OW 6574   3.945   0.120   0.710
 1892SOL    HW1 6575   3.989   0.075   0.788
 1892SOL    HW2 6576   3.914   0.211   0.737
 1893SOL     OW 6577   3.201   1.488   5.773
 1893SOL    HW1 6578   3.289   1.457   5.807
 1893SOL    HW2 6579   3.145   1.409   5.748
 1894SOL     OW 6580   3.847   4.053   2.210
 1894SOL    HW1 6581   3.773   4.119   2.222
 1894SOL    HW2 6582   3.853   4.025   2.114
 1895SOL     OW 6583   5.009   0.989   2.584
 1895SOL    HW1 6584   5.010   0.912   2.520
 1895SOL    HW2 6585   4.984   1.073   2.536
 1896SOL     OW 6586   0.662   0.642   3.331
 1896SOL    HW1 6587   0.674   0.681   3.422
 1896SOL    HW2 6588   0.677   0.544   3.334
 1897SOL     OW 6589   0.770   5.111   2.349
 1897SOL    HW1 6590   0.675   5.105   2.319
 1897SOL    HW2 6591   0.782   5.055   2.432
 1898SOL     OW 6592   3.299   4.938   2.210
 1898SOL    HW1 6593   3.369   4.995   2.252
 1898SOL    HW2 6594   3.342   4.873   2.147
 1899SOL     OW 6595   0.895   2.573   2.566
 1899SOL    HW1 6596   0.804   2.585   2.605
 1899SOL    HW2 6597   0.894   2.599   2.469
 1900SOL     OW 6598   0.955   0.326   5.411
 1900SOL    HW1 6599   0.979   0.335   5.315
 1900SOL    HW2 6600   0.909   0.239   5.426
 1901SOL     OW 6601   2.314   1.519   1.685
 1901SOL    HW1 6602   2.279   1.496   1.775
 1901SOL    HW2 6603   2.414   1.518   1.686
 1902SOL     OW 6604   2.765   2.295   4.770
 1902SOL    HW1 6605   2.859   2.264   4.782
 1902SOL    HW2 6606   2.728   2.327   4.857
 1903SOL     OW 6607   6.563   4.130   3.703
 1903SOL    HW1 6608   6.616   4.057   3.748
 1903SOL    HW2 6609   6.466   4.107   3.706
 1904SOL     OW 6610   6.053   6.306   3.889
 1904SOL    HW1 6611   6.147   6.322   3.859
 1904SOL    HW2 6612   6.052   6.286   3.987
 1905SOL     OW 6613   1.600   1.383   4.570
 1905SOL    HW1 6614   1.674   1.320   4.544
 1905SOL    HW2 6615   1.517   1.360   4.520
 1906SOL     OW 6616   3.079   0.113   5.066
 1906SOL    HW1 6617   3.108   0.028   5.020
 1906SOL    HW2 6618   3.048   0.092   5.159
 1907SOL     OW 6619   3.715   6.910   3.331
 1907SOL    HW1 6620   3.646   6.973   3.296
 1907SOL    HW2 6621   3.671   6.827   3.363
 1908SOL     OW 6622   4.368   0.896   4.507
 1908SOL    HW1 6623   4.287   0.841   4.527
 1908SOL    HW2 6624   4.372   0.914   4.409
 1909SOL     OW 6625   1.235   4.100   2.750
 1909SOL    HW1 6626   1.259   4.099   2.847
 1909SOL    HW2 6627   1.257   4.011   2.710
 1910SOL     OW 6628   0.017   2.604   6.697
 1910SOL    HW1 6629   0.044   2.641   6.608
 1910SOL    HW2 6630   6.950   2.555   6.688
 1911SOL     OW 6631   6.085   2.323   5.588
 1911SOL    HW1 6632   6.045   2.403   5.544
 1911SOL    HW2 6633   6.125   2.350   5.676
 1912SOL     OW 6634   3.788   0.009   1.084
 1912SOL    HW1 6635   3.791   6.993   1.177
 1912SOL    HW2 6636   3.869   6.997   1.034
 1913SOL     OW 6637   1.227   5.741   5.554
 1913SOL    HW1 6638   1.146   5.747   5.613
 1913SOL    HW2 6639   1.270   5.831   5.547
 1914SOL     OW 6640   3.270   2.257   0.021
 1914SOL    HW1 6641   3.365   2.238   7.014
 1914SOL    HW2 6642   3.269   2.304   0.109
 1915SOL     OW 6643   3.822   1.639   5.223
 1915SOL    HW1 6644   3.843   1.636   5.125
 1915SOL    HW2 6645   3.727   1.665   5.237
 1916SOL     OW 6646   3.410   6.388   0.860
 1916SOL    HW1 6647   3.318   6.354   0.882
 1916SOL    HW2 6648   3.452   6.426   0.942
 1917SOL     OW 6649   3.328   2.917   3.919
 1917SOL    HW1 6650   3.259   2.909   3.847
 1917SOL    HW2 6651   3.285   2.901   4.008
 1918SOL     OW 6652   0.311   0.556   6.447
 1918SOL    HW1 6653   0.240   0.609   6.402
 1918SOL    HW2 6654   0.270   0.496   6.516
 1919SOL     OW 6655   2.007   0.156   1.522
 1919SOL    HW1 6656   2.077   0.119   1.583
 1919SOL    HW2 6657   2.038   0.243   1.484
 1920SOL     OW 6658   1.065   5.467   2.937
 1920SOL    HW1 6659   1.046   5.369   2.939
 1920SOL    HW2 6660   1.155   5.483   2.896
 1921SOL     OW 6661   1.361   4.559   0.309
 1921SOL    HW1 6662   1.408   4.476   0.340
 1921SOL    HW2 6663   1.403   4.591   0.224
 1922SOL     OW 6664   3.374   4.543   1.113
 1922SOL    HW1 6665   3.315   4.595   1.051
 1922SOL    HW2 6666   3.436   4.485   1.060
 1923SOL     OW 6667   3.289   0.911   6.176
 1923SOL    HW1 6668   3.287   0.831   6.116
 1923SOL    HW2 6669   3.331   0.988   6.128
 1924SOL     OW 6670   5.145   5.351   1.684
 1924SOL    HW1 6671   5.143   5.430   1.622
 1924SOL    HW2 6672   5.227   5.296   1.665
 1925SOL     OW 6673   2.484   3.810   1.421
 1925SOL    HW1 6674   2.561   3.754   1.392
 1925SOL    HW2 6675   2.428   3.759   1.486
 1926SOL     OW 6676   1.301   6.825   3.101
 1926SOL    HW1 6677   1.328   6.828   3.197
 1926SOL    HW2 6678   1.226   6.889   3.086
 1927SOL     OW 6679   3.277   5.117   6.182
 1927SOL    HW1 6680   3.207   5.167   6.131
 1927SOL    HW2 6681   3.245   5.024   6.198
 1928SOL     OW 6682   0.225   3.796   5.617
 1928SOL    HW1 6683   0.236   3.774   5.714
 1928SOL    HW2 6684   0.218   3.895   5.606
 1929SOL     OW 6685   0.585   6.483   1.598
 1929SOL    HW1 6686   0.517   6.467   1.526
 1929SOL    HW2 6687   0.663   6.423   1.584
 1930SOL     OW 6688   3.734   4.431   6.701
 1930SOL    HW1 6689   3.821   4.406   6.743
 1930SOL    HW2 6690   3.740   4.524   6.665
 1931SOL     OW 6691   6.996   2.919   2.673
 1931SOL    HW1 6692   6.995   2.856   2.596
 1931SOL    HW2 6693   6.912   2.908   2.726
 1932SOL     OW 6694   4.926   3.546   3.189
 1932SOL    HW1 6695   4.951   3.486   3.113
 1932SOL    HW2 6696   4.908   3.491   3.271
 1933SOL     OW 6697   2.411   4.461   0.806
 1933SOL    HW1 6698   2.465   4.426   0.730
 1933SOL    HW2 6699   2.322   4.493   0.771
 1934SOL     OW 6700   0.432   0.575   4.583
 1934SOL    HW1 6701   0.433   0.621   4.494
 1934SOL    HW2 6702   0.453   0.642   4.655
 1935SOL     OW 6703   3.496   6.845   4.417
 1935SOL    HW1 6704   3.531   6.760   4.377
 1935SOL    HW2 6705   3.534   6.923   4.367
 1936SOL     OW 6706   6.318   4.020   4.104
 1936SOL    HW1 6707   6.330   3.922   4.120
 1936SOL    HW2 6708   6.224   4.046   4.128
 1937SOL     OW 6709   5.256   0.549   0.758
 1937SOL    HW1 6710   5.159   0.572   0.768
 1937SOL    HW2 6711   5.312   0.624   0.793
 1938SOL     OW 6712   2.807   0.857   1.844
 1938SOL    HW1 6713   2.766   0.885   1.757
 1938SOL    HW2 6714   2.748   0.887   1.919
 1939SOL     OW 6715   0.305   0.064   4.484
 1939SOL    HW1 6716   0.229   0.125   4.505
 1939SOL    HW2 6717   0.270   6.992   4.464
 1940SOL     OW 6718   4.426   4.520   0.075
 1940SOL    HW1 6719   4.441   4.545   0.170
 1940SOL    HW2 6720   4.370   4.589   0.030
 1941SOL     OW 6721   0.283   4.488   3.159
 1941SOL    HW1 6722   0.349   4.424   3.199
 1941SOL    HW2 6723   0.235   4.443   3.084
 1942SOL     OW 6724   5.582   0.313   1.595
 1942SOL    HW1 6725   5.596   0.409   1.572
 1942SOL    HW2 6726   5.485   0.291   1.587
 1943SOL     OW 6727   2.516   6.546   2.304
 1943SOL    HW1 6728   2.435   6.558   2.246
 1943SOL    HW2 6729   2.592   6.598   2.265
 1944SOL     OW 6730   5.867   2.398   0.711
 1944SOL    HW1 6731   5.956   2.377   0.752
 1944SOL    HW2 6732   5.824   2.313   0.680
 1945SOL     OW 6733   3.403   5.312   2.026
 1945SOL    HW1 6734   3.303   5.306   2.025
 1945SOL    HW2 6735   3.442   5.222   2.008
 1946SOL     OW 6736   0.000   0.622   1.354
 1946SOL    HW1 6737   6.928   0.606   1.320
 1946SOL    HW2 6738   0.007   0.715   1.389
 1947SOL     OW 6739   4.498   6.886   4.387
 1947SOL    HW1 6740   4.587   6.899   4.343
 1947SOL    HW2 6741   4.490   6.950   4.465
 1948SOL     OW 6742   5.757   5.365   3.689
 1948SOL    HW1 6743   5.710   5.380   3.776
 1948SOL    HW2 6744   5.709   5.295   3.637
 1949SOL     OW 6745   3.490   4.576   6.417
 1949SOL    HW1 6746   3.398   4.577   6.457
 1949SOL    HW2 6747   3.485   4.609   6.323
 1950SOL     OW 6748   3.600   4.419   0.977
 1950SOL    HW1 6749   3.614   4.486   0.903
 1950SOL    HW2 6750   3.655   4.445   1.056
 1951SOL     OW 6751   5.962   4.150   6.677
 1951SOL    HW1 6752   5.970   4.066   6.624
 1951SOL    HW2 6753   5.872   4.191   6.662
 1952SOL     OW 6754   3.954   2.888   6.972
 1952SOL    HW1 6755   4.031   2.844   6.927
 1952SOL    HW2 6756   3.936   2.977   6.930
 1953SOL     OW 6757   5.835   1.598   7.001
 1953SOL    HW1 6758   5.913   1.625   6.945
 1953SOL    HW2 6759   5.863   1.589   0.077
 1954SOL     OW 6760   5.847   1.337   3.769
 1954SOL    HW1 6761   5.748   1.341   3.755
 1954SOL    HW2 6762   5.894   1.378   3.690
 1955SOL     OW 6763   0.881   1.273   2.420
 1955SOL    HW1 6764   0.931   1.359   2.421
 1955SOL    HW2 6765   0.925   1.210   2.356
 1956SOL     OW 6766   4.926   6.562   2.454
 1956SOL    HW1 6767   4.944   6.476   2.501
 1956SOL    HW2 6768   4.827   6.575   2.443
 1957SOL     OW 6769   6.045   5.154   4.625
 1957SOL    HW1 6770   5.978   5.192   4.562
 1957SOL    HW2 6771   6.098   5.083   4.579
 1958SOL     OW 6772   5.163   2.232   2.663
 1958SOL    HW1 6773   5.215   2.159   2.619
 1958SOL    HW2 6774   5.077   2.246   2.614
 1959SOL     OW 6775   0.280   1.186   4.885
 1959SOL    HW1 6776   0.350   1.117   4.903
 1959SOL    HW2 6777   0.285   1.213   4.789
 1960SOL     OW 6778   6.505   4.343   2.278
 1960SOL    HW1 6779   6.414   4.380   2.261
 1960SOL    HW2 6780   6.554   4.403   2.341
 1961SOL     OW 6781   5.887   4.329   4.345
 1961SOL    HW1 6782   5.918   4.421   4.369
 1961SOL    HW2 6783   5.790   4.331   4.323
 1962SOL     OW 6784   2.323   6.618   3.528
 1962SOL    HW1 6785   2.233   6.661   3.522
 1962SOL    HW2 6786   2.375   6.639   3.446
 1963SOL     OW 6787   0.701   1.102   1.775
 1963SOL    HW1 6788   0.658   1.173   1.831
 1963SOL    HW2 6789   0.746   1.036   1.835
 1964SOL     OW 6790   4.442   4.027   0.724
 1964SOL    HW1 6791   4.385   4.080   0.662
 1964SOL    HW2 6792   4.539   4.043   0.703
 1965SOL     OW 6793   0.941   3.628   4.598
 1965SOL    HW1 6794   1.008   3.575   4.546
 1965SOL    HW2 6795   0.907   3.703   4.542
 1966SOL     OW 6796   6.834   6.421   0.384
 1966SOL    HW1 6797   6.894   6.488   0.341
 1966SOL    HW2 6798   6.882   6.334   0.394
 1967SOL     OW 6799   5.528   2.505   5.204
 1967SOL    HW1 6800   5.617   2.531   5.242
 1967SOL    HW2 6801   5.499   2.572   5.137
 1968SOL     OW 6802   3.172   0.031   0.079
 1968SOL    HW1 6803   3.133   0.034   0.171
 1968SOL    HW2 6804   3.102   0.006   0.013
 1969SOL     OW 6805   1.471   1.679   1.794
 1969SOL    HW1 6806   1.435   1.646   1.706
 1969SOL    HW2 6807   1.415   1.644   1.868
 1970SOL     OW 6808   2.043   6.677   6.053
 1970SOL    HW1 6809   1.947   6.703   6.053
 1970SOL    HW2 6810   2.051   6.577   6.054
 1971SOL     OW 6811   0.073   6.944   5.692
 1971SOL    HW1 6812   0.123   6.882   5.631
 1971SOL    HW2 6813   0.023   6.891   5.761
 1972SOL     OW 6814   5.334   2.438   2.532
 1972SOL    HW1 6815   5.317   2.423   2.435
 1972SOL    HW2 6816   5.265   2.388   2.586
 1973SOL     OW 6817   2.789   2.561   0.242
 1973SOL    HW1 6818   2.853   2.527   0.173
 1973SOL    HW2 6819   2.713   2.607   0.197
 1974SOL     OW 6820   5.304   6.233   4.153
 1974SOL    HW1 6821   5.356   6.210   4.235
 1974SOL    HW2 6822   5.237   6.304   4.175
 1975SOL     OW 6823   2.447   1.788   3.928
 1975SOL    HW1 6824   2.352   1.790   3.958
 1975SOL    HW2 6825   2.507   1.788   4.008
 1976SOL     OW 6826   0.609   6.688   6.349
 1976SOL    HW1 6827   0.708   6.684   6.352
 1976SOL    HW2 6828   0.572   6.685   6.442
 1977SOL     OW 6829   0.629   3.689   4.525
 1977SOL    HW1 6830   0.684   3.771   4.506
 1977SOL    HW2 6831   0.564   3.674   4.451
 1978SOL     OW 6832   1.717   7.012   3.163
 1978SOL    HW1 6833   1.677   0.082   3.141
 1978SOL    HW2 6834   1.693   6.947   3.091
 1979SOL     OW 6835   6.277   4.530   6.112
 1979SOL    HW1 6836   6.315   4.437   6.114
 1979SOL    HW2 6837   6.352   4.596   6.109
 1980SOL     OW 6838   2.527   0.462   4.642
 1980SOL    HW1 6839   2.512   0.369   4.676
 1980SOL    HW2 6840   2.622   0.473   4.614
 1981SOL     OW 6841   6.563   1.809   2.779
 1981SOL    HW1 6842   6.466   1.788   2.775
 1981SOL    HW2 6843   6.589   1.864   2.700
 1982SOL     OW 6844   0.421   4.527   4.714
 1982SOL    HW1 6845   0.328   4.491   4.723
 1982SOL    HW2 6846   0.419   4.616   4.669
 1983SOL     OW 6847   0.558   1.602   2.823
 1983SOL    HW1 6848   0.496   1.524   2.824
 1983SOL    HW2 6849   0.651   1.570   2.843
 1984SOL     OW 6850   6.410   1.803   4.860
 1984SOL    HW1 6851   6.471   1.762   4.792
 1984SOL    HW2 6852   6.454   1.803   4.949
 1985SOL     OW 6853   1.356   6.035   2.284
 1985SOL    HW1 6854   1.352   5.975   2.204
 1985SOL    HW2 6855   1.398   6.121   2.259
 1986SOL     OW 6856   1.551   0.693   0.168
 1986SOL    HW1 6857   1.531   0.728   0.260
 1986SOL    HW2 6858   1.620   0.751   0.125
 1987SOL     OW 6859   1.885   2.474   2.319
 1987SOL    HW1 6860   1.856   2.490   2.413
 1987SOL    HW2 6861   1.926   2.382   2.312
 1988SOL     OW 6862   5.715   4.182   0.545
 1988SOL    HW1 6863   5.762   4.139   0.468
 1988SOL    HW2 6864   5.663   4.114   0.595
 1989SOL     OW 6865   2.469   6.110   4.704
 1989SOL    HW1 6866   2.469   6.132   4.802
 1989SOL    HW2 6867   2.420   6.024   4.690
 1990SOL     OW 6868   3.489   6.663   0.184
 1990SOL    HW1 6869   3.463   6.708   0.269
 1990SOL    HW2 6870   3.420   6.682   0.114
 1991SOL     OW 6871   4.228   4.596   6.380
 1991SOL    HW1 6872   4.201   4.640   6.466
 1991SOL    HW2 6873   4.291   4.655   6.331
 1992SOL     OW 6874   0.661   0.783   0.517
 1992SOL    HW1 6875   0.723   0.767   0.440
 1992SOL    HW2 6876   0.653   0.881   0.535
 1993SOL     OW 6877   3.468   3.215   4.798
 1993SOL    HW1 6878   3.498   3.292   4.855
 1993SOL    HW2 6879   3.413   3.152   4.853
 1994SOL     OW 6880   0.653   1.055   0.590
 1994SOL    HW1 6881   0.587   1.112   0.541
 1994SOL    HW2 6882   0.742   1.100   0.589
 1995SOL     OW 6883   5.250   2.261   3.317
 1995SOL    HW1 6884   5.219   2.304   3.233
 1995SOL    HW2 6885   5.280   2.167   3.297
 1996SOL     OW 6886   2.432   3.306   0.646
 1996SOL    HW1 6887   2.335   3.300   0.622
 1996SOL    HW2 6888   2.456   3.231   0.707
 1997SOL     OW 6889   4.368   1.490   4.649
 1997SOL    HW1 6890   4.306   1.492   4.571
 1997SOL    HW2 6891   4.386   1.396   4.676
 1998SOL     OW 6892   2.158   4.325   6.428
 1998SOL    HW1 6893   2.114   4.242   6.464
 1998SOL    HW2 6894   2.183   4.385   6.504
 1999SOL     OW 6895   3.265   0.080   0.869
 1999SOL    HW1 6896   3.190   0.096   0.806
 1999SOL    HW2 6897   3.235   0.023   0.945
 2000SOL     OW 6898   4.487   2.346   5.341
 2000SOL    HW1 6899   4.514   2.254   5.311
 2000SOL    HW2 6900   4.541   2.372   5.420
 2001SOL     OW 6901   2.975   1.686   2.002
 2001SOL    HW1 6902   2.923   1.601   2.005
 2001SOL    HW2 6903   2.912   1.764   2.003
 2002SOL     OW 6904   0.808   4.964   6.462
 2002SOL    HW1 6905   0.776   5.041   6.406
 2002SOL    HW2 6906   0.776   4.977   6.556
 2003SOL     OW 6907   6.128   6.157   2.042
 2003SOL    HW1 6908   6.085   6.175   2.131
 2003SOL    HW2 6909   6.133   6.058   2.027
 2004SOL     OW 6910   5.215   0.785   5.838
 2004SOL    HW1 6911   5.187   0.868   5.791
 2004SOL    HW2 6912   5.259   0.723   5.773
 2005SOL     OW 6913   0.990   4.964   7.017
 2005SOL    HW1 6914   1.080   4.955   6.975
 2005SOL    HW2 6915   0.933   5.023   6.961
 2006SOL     OW 6916   4.939   6.416   3.899
 2006SOL    HW1 6917   4.907   6.325   3.925
 2006SOL    HW2 6918   5.020   6.408   3.841
 2007SOL     OW 6919   4.281   4.577   0.897
 2007SOL    HW1 6920   4.304   4.482   0.918
 2007SOL    HW2 6921   4.338   4.638   0.951
 2008SOL     OW 6922   2.634   5.442   3.871
 2008SOL    HW1 6923   2.710   5.394   3.828
 2008SOL    HW2 6924   2.632   5.422   3.968
 2009SOL     OW 6925   5.666   0.612   2.473
 2009SOL    HW1 6926   5.730   0.590   2.546
 2009SOL    HW2 6927   5.591   0.667   2.510
 2010SOL     OW 6928   1.940   1.969   0.945
 2010SOL    HW1 6929   1.886   2.018   1.013
 2010SOL    HW2 6930   1.980   2.034   0.881
 2011SOL     OW 6931   6.691   0.014   4.539
 2011SOL    HW1 6932   6.728   0.085   4.479
 2011SOL    HW2 6933   6.765   6.994   4.593
 2012SOL     OW 6934   1.534   3.518   2.017
 2012SOL    HW1 6935   1.572   3.593   1.963
 2012SOL    HW2 6936   1.502   3.446   1.955
 2013SOL     OW 6937   6.383   2.261   3.549
 2013SOL    HW1 6938   6.298   2.291   3.506
 2013SOL    HW2 6939   6.377   2.165   3.574
 2014SOL     OW 6940   2.579   5.331   3.317
 2014SOL    HW1 6941   2.536   5.306   3.404
 2014SOL    HW2 6942   2.633   5.414   3.329
 2015SOL     OW 6943   1.986   1.187   0.410
 2015SOL    HW1 6944   1.954   1.280   0.425
 2015SOL    HW2 6945   1.914   1.134   0.365
 2016SOL     OW 6946   1.021   6.302   4.812
 2016SOL    HW1 6947   0.942   6.305   4.873
 2016SOL    HW2 6948   1.105   6.315   4.866
 2017SOL     OW 6949   2.838   0.103   4.044
 2017SOL    HW1 6950   2.837   0.004   4.028
 2017SOL    HW2 6951   2.895   0.148   3.975
 2018SOL     OW 6952   5.780   6.280   5.540
 2018SOL    HW1 6953   5.730   6.201   5.504
 2018SOL    HW2 6954   5.758   6.361   5.486
 2019SOL     OW 6955   5.273   3.024   0.235
 2019SOL    HW1 6956   5.235   3.076   0.157
 2019SOL    HW2 6957   5.208   3.027   0.311
 2020SOL     OW 6958   1.327   6.128   5.060
 2020SOL    HW1 6959   1.379   6.076   4.992
 2020SOL    HW2 6960   1.292   6.212   5.019
 2021SOL     OW 6961   1.461   5.913   3.403
 2021SOL    HW1 6962   1.427   6.007   3.411
 2021SOL    HW2 6963   1.403   5.862   3.339
 2022SOL     OW 6964   1.675   3.930   3.441
 2022SOL    HW1 6965   1.628   3.969   3.520
 2022SOL    HW2 6966   1.768   3.904   3.468
 2023SOL     OW 6967   6.341   1.075   6.234
 2023SOL    HW1 6968   6.373   1.078   6.329
 2023SOL    HW2 6969   6.241   1.087   6.233
 2024SOL     OW 6970   0.522   6.528   3.886
 2024SOL    HW1 6971   0.495   6.580   3.967
 2024SOL    HW2 6972   0.518   6.430   3.906
 2025SOL     OW 6973   2.507   2.043   3.472
 2025SOL    HW1 6974   2.541   2.049   3.566
 2025SOL    HW2 6975   2.411   2.071   3.469
 2026SOL     OW 6976   0.593   2.951   5.800
 2026SOL    HW1 6977   0.604   2.965   5.898
 2026SOL    HW2 6978   0.672   2.901   5.764
 2027SOL     OW 6979   0.518   1.007   0.317
 2027SOL    HW1 6980   0.510   1.079   0.248
 2027SOL    HW2 6981   0.591   0.944   0.290
 2028SOL     OW 6982   3.379   6.973   5.140
 2028SOL    HW1 6983   3.441   6.896   5.153
 2028SOL    HW2 6984   3.338   6.968   5.049
 2029SOL     OW 6985   6.082   0.404   0.260
 2029SOL    HW1 6986   6.038   0.437   0.344
 2029SOL    HW2 6987   6.107   0.482   0.203
 2030SOL     OW 6988   2.682   1.146   2.675
 2030SOL    HW1 6989   2.755   1.189   2.622
 2030SOL    HW2 6990   2.649   1.065   2.627
 2031SOL     OW 6991   6.336   5.793   1.388
 2031SOL    HW1 6992   6.424   5.748   1.400
 2031SOL    HW2 6993   6.320   5.810   1.291
 2032SOL     OW 6994   5.124   6.774   2.049
 2032SOL    HW1 6995   5.217   6.757   2.082
 2032SOL    HW2 6996   5.063   6.785   2.127
 2033SOL     OW 6997   3.219   4.002   6.478
 2033SOL    HW1 6998   3.248   3.931   6.542
 2033SOL    HW2 6999   3.291   4.015   6.409
 2034SOL     OW 7000   3.259   6.020   5.153
 2034SOL    HW1 7001   3.224   5.927   5.154
 2034SOL    HW2 7002   3.226   6.069   5.233
 2035SOL     OW 7003   0.660   0.535   2.794
 2035SOL    HW1 7004   0.573   0.585   2.785
 2035SOL    HW2 7005   0.641   0.439   2.814
 2036SOL     OW 7006   1.952   4.807   2.677
 2036SOL    HW1 7007   1.942   4.746   2.756
 2036SOL    HW2 7008   1.869   4.804   2.622
 2037SOL     OW 7009   6.769   2.986   5.435
 2037SOL    HW1 7010   6.838   3.054   5.411
 2037SOL    HW2 7011   6.731   2.946   5.351
 2038SOL     OW 7012   1.240   2.330   7.004
 2038SOL    HW1 7013   1.212   2.325   0.080
 2038SOL    HW2 7014   1.255   2.237   6.968
 2039SOL     OW 7015   0.698   5.709   2.968
 2039SOL    HW1 7016   0.684   5.641   3.039
 2039SOL    HW2 7017   0.766   5.676   2.903
 2040SOL     OW 7018   3.176   3.373   4.732
 2040SOL    HW1 7019   3.250   3.320   4.691
 2040SOL    HW2 7020   3.090   3.352   4.686
 2041SOL     OW 7021   0.470   6.151   5.070
 2041SOL    HW1 7022   0.440   6.196   4.986
 2041SOL    HW2 7023   0.525   6.071   5.048
 2042SOL     OW 7024   4.869   5.523   6.917
 2042SOL    HW1 7025   4.934   5.513   6.841
 2042SOL    HW2 7026   4.903   5.593   6.980
 2043SOL     OW 7027   6.847   3.625   3.866
 2043SOL    HW1 7028   6.894   3.537   3.874
 2043SOL    HW2 7029   6.751   3.615   3.890
 2044SOL     OW 7030   6.221   6.709   1.359
 2044SOL    HW1 7031   6.313   6.682   1.330
 2044SOL    HW2 7032   6.213   6.699   1.459
 2045SOL     OW 7033   2.894   5.066   3.925
 2045SOL    HW1 7034   2.952   5.001   3.876
 2045SOL    HW2 7035   2.801   5.062   3.888
 2046SOL     OW 7036   6.882   2.262   4.367
 2046SOL    HW1 7037   6.843   2.281   4.457
 2046SOL    HW2 7038   6.880   2.163   4.350
 2047SOL     OW 7039   6.495   1.727   6.895
 2047SOL    HW1 7040   6.567   1.750   6.960
 2047SOL    HW2 7041   6.505   1.632   6.866
 2048SOL     OW 7042   1.166   6.433   6.122
 2048SOL    HW1 7043   1.208   6.350   6.159
 2048SOL    HW2 7044   1.228   6.474   6.055
 2049SOL     OW 7045   6.094   1.517   5.546
 2049SOL    HW1 7046   6.006   1.555   5.521
 2049SOL    HW2 7047   6.084   1.420   5.568
 2050SOL     OW 7048   6.678   2.837   4.006
 2050SOL    HW1 7049   6.683   2.936   4.024
 2050SOL    HW2 7050   6.768   2.804   3.978
 2051SOL     OW 7051   1.008   5.561   0.541
 2051SOL    HW1 7052   0.938   5.620   0.501
 2051SOL    HW2 7053   1.009   5.473   0.493
 2052SOL     OW 7054   1.598   3.981   1.057
 2052SOL    HW1 7055   1.643   3.919   1.122
 2052SOL    HW2 7056   1.666   4.043   1.018
 2053SOL     OW 7057   5.670   6.432   4.688
 2053SOL    HW1 7058   5.739   6.379   4.640
 2053SOL    HW2 7059   5.699   6.447   4.783
 2054SOL     OW 7060   3.544   3.911   2.919
 2054SOL    HW1 7061   3.466   3.959   2.960
 2054SOL    HW2 7062   3.602   3.875   2.992
 2055SOL     OW 7063   5.776   3.385   3.112
 2055SOL    HW1 7064   5.690   3.414   3.070
 2055SOL    HW2 7065   5.815   3.460   3.165
 2056SOL     OW 7066   3.467   6.035   2.750
 2056SOL    HW1 7067   3.552   6.053   2.701
 2056SOL    HW2 7068   3.473   6.074   2.842
 2057SOL     OW 7069   5.363   4.130   5.052
 2057SOL    HW1 7070   5.356   4.120   4.952
 2057SOL    HW2 7071   5.311   4.057   5.096
 2058SOL     OW 7072   0.551   1.683   3.131
 2058SOL    HW1 7073   0.522   1.633   3.049
 2058SOL    HW2 7074   0.470   1.703   3.187
 2059SOL     OW 7075   1.577   5.790   6.629
 2059SOL    HW1 7076   1.630   5.872   6.606
 2059SOL    HW2 7077   1.480   5.806   6.609
 2060SOL     OW 7078   0.321   4.258   1.566
 2060SOL    HW1 7079   0.333   4.357   1.575
 2060SOL    HW2 7080   0.296   4.236   1.472
 2061SOL     OW 7081   0.434   2.069   3.479
 2061SOL    HW1 7082   0.521   2.118   3.481
 2061SOL    HW2 7083   0.404   2.057   3.385
 2062SOL     OW 7084   6.310   6.406   3.820
 2062SOL    HW1 7085   6.383   6.435   3.882
 2062SOL    HW2 7086   6.346   6.341   3.754
 2063SOL     OW 7087   1.918   0.269   6.391
 2063SOL    HW1 7088   1.857   0.190   6.400
 2063SOL    HW2 7089   1.945   0.280   6.295
 2064SOL     OW 7090   1.304   2.191   5.162
 2064SOL    HW1 7091   1.393   2.237   5.161
 2064SOL    HW2 7092   1.276   2.176   5.257
 2065SOL     OW 7093   6.437   2.328   5.322
 2065SOL    HW1 7094   6.445   2.403   5.257
 2065SOL    HW2 7095   6.418   2.364   5.413
 2066SOL     OW 7096   0.875   4.724   4.126
 2066SOL    HW1 7097   0.792   4.755   4.079
 2066SOL    HW2 7098   0.924   4.803   4.163
 2067SOL     OW 7099   6.307   4.847   1.111
 2067SOL    HW1 7100   6.238   4.800   1.056
 2067SOL    HW2 7101   6.298   4.820   1.207
 2068SOL     OW 7102   1.782   0.872   4.487
 2068SOL    HW1 7103   1.833   0.835   4.409
 2068SOL    HW2 7104   1.702   0.815   4.504
 2069SOL     OW 7105   0.227   2.482   3.930
 2069SOL    HW1 7106   0.325   2.469   3.946
 2069SOL    HW2 7107   0.183   2.393   3.919
 2070SOL     OW 7108   1.032   1.203   1.739
 2070SOL    HW1 7109   0.969   1.151   1.680
 2070SOL    HW2 7110   1.091   1.260   1.682
 2071SOL     OW 7111   6.655   6.446   5.979
 2071SOL    HW1 7112   6.572   6.488   5.942
 2071SOL    HW2 7113   6.658   6.460   6.078
 2072SOL     OW 7114   4.307   6.019   4.026
 2072SOL    HW1 7115   4.386   6.014   3.965
 2072SOL    HW2 7116   4.231   6.063   3.979
 2073SOL     OW 7117   3.830   0.082   4.783
 2073SOL    HW1 7118   3.751   0.030   4.815
 2073SOL    HW2 7119   3.906   0.020   4.766
 2074SOL     OW 7120   1.610   2.677   6.871
 2074SOL    HW1 7121   1.622   2.715   6.963
 2074SOL    HW2 7122   1.622   2.749   6.803
 2075SOL     OW 7123   6.407   3.348   2.810
 2075SOL    HW1 7124   6.457   3.279   2.862
 2075SOL    HW2 7125   6.335   3.387   2.867
 2076SOL     OW 7126   6.098   7.005   0.009
 2076SOL    HW1 7127   6.050   0.067   0.040
 2076SOL    HW2 7128   6.163   6.976   0.080
 2077SOL     OW 7129   5.390   2.717   2.883
 2077SOL    HW1 7130   5.459   2.783   2.853
 2077SOL    HW2 7131   5.389   2.714   2.983
 2078SOL     OW 7132   1.262   6.157   6.197
 2078SOL    HW1 7133   1.251   6.141   6.099
 2078SOL    HW2 7134   1.174   6.143   6.243
 2079SOL     OW 7135   5.383   2.653   3.499
 2079SOL    HW1 7136   5.440   2.732   3.520
 2079SOL    HW2 7137   5.411   2.614   3.411
 2080SOL     OW 7138   1.354   6.891   4.887
 2080SOL    HW1 7139   1.300   6.834   4.949
 2080SOL    HW2 7140   1.306   6.977   4.870
 2081SOL     OW 7141   1.404   4.947   4.369
 2081SOL    HW1 7142   1.485   4.936   4.428
 2081SOL    HW2 7143   1.348   5.022   4.404
 2082SOL     OW 7144   0.627   0.284   2.898
 2082SOL    HW1 7145   0.617   0.240   2.987
 2082SOL    HW2 7146   0.695   0.235   2.844
 2083SOL     OW 7147   6.587   4.721   6.114
 2083SOL    HW1 7148   6.553   4.809   6.145
 2083SOL    HW2 7149   6.590   4.657   6.191
 2084SOL     OW 7150   0.940   3.738   3.220
 2084SOL    HW1 7151   0.882   3.698   3.149
 2084SOL    HW2 7152   0.936   3.682   3.302
 2085SOL     OW 7153   4.658   0.200   6.908
 2085SOL    HW1 7154   4.695   0.225   6.997
 2085SOL    HW2 7155   4.606   0.115   6.916
 2086SOL     OW 7156   4.292   5.995   5.735
 2086SOL    HW1 7157   4.352   6.075   5.735
 2086SOL    HW2 7158   4.281   5.962   5.641
 2087SOL     OW 7159   5.244   0.960   1.253
 2087SOL    HW1 7160   5.340   0.930   1.259
 2087SOL    HW2 7161   5.233   1.046   1.303
 2088SOL     OW 7162   1.522   6.060   0.335
 2088SOL    HW1 7163   1.455   6.064   0.261
 2088SOL    HW2 7164   1.564   6.150   0.347
 2089SOL     OW 7165   5.370   2.076   6.613
 2089SOL    HW1 7166   5.367   2.168   6.574
 2089SOL    HW2 7167   5.283   2.057   6.658
 2090SOL     OW 7168   4.041   3.448   5.529
 2090SOL    HW1 7169   4.027   3.492   5.440
 2090SOL    HW2 7170   4.032   3.516   5.602
 2091SOL     OW 7171   6.919   5.398   1.125
 2091SOL    HW1 7172   6.917   5.339   1.206
 2091SOL    HW2 7173   6.893   5.345   1.045
 2092SOL     OW 7174   4.986   3.628   0.073
 2092SOL    HW1 7175   5.040   3.650   7.012
 2092SOL    HW2 7176   4.921   3.703   0.091
 2093SOL     OW 7177   2.786   2.403   1.550
 2093SOL    HW1 7178   2.815   2.326   1.607
 2093SOL    HW2 7179   2.789   2.488   1.603
 2094SOL     OW 7180   5.633   1.734   3.124
 2094SOL    HW1 7181   5.731   1.726   3.102
 2094SOL    HW2 7182   5.622   1.785   3.209
 2095SOL     OW 7183   6.161   6.503   5.274
 2095SOL    HW1 7184   6.251   6.460   5.263
 2095SOL    HW2 7185   6.104   6.447   5.334
 2096SOL     OW 7186   4.972   3.717   2.892
 2096SOL    HW1 7187   5.016   3.659   2.823
 2096SOL    HW2 7188   4.999   3.687   2.983
 2097SOL     OW 7189   3.240   3.765   6.612
 2097SOL    HW1 7190   3.142   3.762   6.630
 2097SOL    HW2 7191   3.278   3.673   6.620
 2098SOL     OW 7192   3.480   6.146   1.703
 2098SOL    HW1 7193   3.458   6.048   1.708
 2098SOL    HW2 7194   3.487   6.183   1.795
 2099SOL     OW 7195   3.250   2.857   6.490
 2099SOL    HW1 7196   3.250   2.834   6.392
 2099SOL    HW2 7197   3.329   2.816   6.534
 2100SOL     OW 7198   5.332   2.557   6.815
 2100SOL    HW1 7199   5.406   2.518   6.869
 2100SOL    HW2 7200   5.362   2.570   6.721
 2101SOL     OW 7201   1.470   6.954   1.645
 2101SOL    HW1 7202   1.523   6.904   1.713
 2101SOL    HW2 7203   1.448   0.025   1.679
 2102SOL     OW 7204   5.511   4.923   3.012
 2102SOL    HW1 7205   5.421   4.963   2.997
 2102SOL    HW2 7206   5.546   4.954   3.101
 2103SOL     OW 7207   3.765   4.546   6.321
 2103SOL    HW1 7208   3.726   4.515   6.408
 2103SOL    HW2 7209   3.697   4.537   6.249
 2104SOL     OW 7210   1.562   4.526   1.551
 2104SOL    HW1 7211   1.618   4.608   1.539
 2104SOL    HW2 7212   1.467   4.552   1.567
 2105SOL     OW 7213   5.891   5.419   5.004
 2105SOL    HW1 7214   5.980   5.464   4.998
 2105SOL    HW2 7215   5.898   5.326   4.967
 2106SOL     OW 7216   4.870   4.112   0.856
 2106SOL    HW1 7217   4.809   4.120   0.777
 2106SOL    HW2 7218   4.939   4.042   0.838
 2107SOL     OW 7219   5.704   2.865   5.541
 2107SOL    HW1 7220   5.621   2.825   5.504
 2107SOL    HW2 7221   5.713   2.959   5.508
 2108SOL     OW 7222   6.659   5.494   4.649
 2108SOL    HW1 7223   6.650   5.409   4.701
 2108SOL    HW2 7224   6.694   5.566   4.709
 2109SOL     OW 7225   4.305   5.945   2.315
 2109SOL    HW1 7226   4.395   5.922   2.278
 2109SOL    HW2 7227   4.308   5.940   2.415
 2110SOL     OW 7228   2.037   1.900   0.289
 2110SOL    HW1 7229   2.062   1.904   0.386
 2110SOL    HW2 7230   2.120   1.898   0.234
 2111SOL     OW 7231   2.001   2.521   6.592
 2111SOL    HW1 7232   1.920   2.545   6.538
 2111SOL    HW2 7233   2.060   2.601   6.601
 2112SOL     OW 7234   5.574   3.041   0.223
 2112SOL    HW1 7235   5.628   3.004   0.299
 2112SOL    HW2 7236   5.477   3.035   0.245
 2113SOL     OW 7237   2.574   1.664   4.383
 2113SOL    HW1 7238   2.648   1.611   4.425
 2113SOL    HW2 7239   2.491   1.653   4.439
 2114SOL     OW 7240   1.991   1.702   6.339
 2114SOL    HW1 7241   2.029   1.785   6.380
 2114SOL    HW2 7242   1.922   1.727   6.271
 2115SOL     OW 7243   1.590   4.053   3.202
 2115SOL    HW1 7244   1.588   3.989   3.278
 2115SOL    HW2 7245   1.676   4.043   3.152
 2116SOL     OW 7246   0.858   4.878   3.194
 2116SOL    HW1 7247   0.789   4.949   3.208
 2116SOL    HW2 7248   0.814   4.794   3.162
 2117SOL     OW 7249   6.894   4.599   1.911
 2117SOL    HW1 7250   6.918   4.522   1.853
 2117SOL    HW2 7251   6.969   4.665   1.912
 2118SOL     OW 7252   6.249   2.915   3.139
 2118SOL    HW1 7253   6.339   2.922   3.097
 2118SOL    HW2 7254   6.181   2.896   3.068
 2119SOL     OW 7255   1.413   0.360   1.136
 2119SOL    HW1 7256   1.349   0.351   1.212
 2119SOL    HW2 7257   1.374   0.419   1.066
 2120SOL     OW 7258   0.389   4.921   3.155
 2120SOL    HW1 7259   0.324   4.853   3.187
 2120SOL    HW2 7260   0.344   5.010   3.147
 2121SOL     OW 7261   1.515   3.966   6.540
 2121SOL    HW1 7262   1.559   4.023   6.471
 2121SOL    HW2 7263   1.580   3.947   6.613
 2122SOL     OW 7264   5.664   4.079   6.162
 2122SOL    HW1 7265   5.635   4.063   6.068
 2122SOL    HW2 7266   5.754   4.037   6.177
 2123SOL     OW 7267   6.766   5.171   2.358
 2123SOL    HW1 7268   6.729   5.080   2.373
 2123SOL    HW2 7269   6.810   5.204   2.442
 2124SOL     OW 7270   3.208   2.293   1.095
 2124SOL    HW1 7271   3.216   2.334   1.186
 2124SOL    HW2 7272   3.299   2.288   1.053
 2125SOL     OW 7273   1.941   0.771   2.567
 2125SOL    HW1 7274   1.874   0.767   2.493
 2125SOL    HW2 7275   1.953   0.866   2.596
 2126SOL     OW 7276   3.523   2.339   6.602
 2126SOL    HW1 7277   3.479   2.301   6.521
 2126SOL    HW2 7278   3.597   2.400   6.575
 2127SOL     OW 7279   0.868   2.311   5.468
 2127SOL    HW1 7280   0.914   2.399   5.479
 2127SOL    HW2 7281   0.909   2.244   5.529
 2128SOL     OW 7282   6.320   3.545   4.174
 2128SOL    HW1 7283   6.417   3.523   4.181
 2128SOL    HW2 7284   6.283   3.507   4.089
 2129SOL     OW 7285   4.361   2.944   5.424
 2129SOL    HW1 7286   4.281   2.976   5.373
 2129SOL    HW2 7287   4.439   3.005   5.406
 2130SOL     OW 7288   3.833   0.379   3.103
 2130SOL    HW1 7289   3.776   0.300   3.080
 2130SOL    HW2 7290   3.927   0.362   3.076
 2131SOL     OW 7291   4.676   1.605   6.910
 2131SOL    HW1 7292   4.612   1.681   6.914
 2131SOL    HW2 7293   4.722   1.605   6.822
 2132SOL     OW 7294   3.578   0.628   0.779
 2132SOL    HW1 7295   3.632   0.544   0.779
 2132SOL    HW2 7296   3.569   0.662   0.685
 2133SOL     OW 7297   3.362   3.229   0.884
 2133SOL    HW1 7298   3.265   3.209   0.882
 2133SOL    HW2 7299   3.404   3.189   0.965
 2134SOL     OW 7300   0.440   0.674   5.533
 2134SOL    HW1 7301   0.463   0.732   5.454
 2134SOL    HW2 7302   0.356   0.624   5.515
 2135SOL     OW 7303   1.794   3.061   5.588
 2135SOL    HW1 7304   1.725   2.988   5.590
 2135SOL    HW2 7305   1.749   3.150   5.593
 2136SOL     OW 7306   0.869   4.197   4.238
 2136SOL    HW1 7307   0.799   4.205   4.309
 2136SOL    HW2 7308   0.861   4.274   4.175
 2137SOL     OW 7309   1.459   5.437   4.273
 2137SOL    HW1 7310   1.442   5.481   4.361
 2137SOL    HW2 7311   1.377   5.387   4.244
 2138SOL     OW 7312   6.778   1.116   2.520
 2138SOL    HW1 7313   6.684   1.147   2.538
 2138SOL    HW2 7314   6.777   1.017   2.506
 2139SOL     OW 7315   3.481   0.836   3.189
 2139SOL    HW1 7316   3.469   0.743   3.156
 2139SOL    HW2 7317   3.572   0.845   3.231
 2140SOL     OW 7318   3.933   6.313   3.926
 2140SOL    HW1 7319   3.994   6.391   3.943
 2140SOL    HW2 7320   3.878   6.296   4.008
 2141SOL     OW 7321   6.231   4.393   2.265
 2141SOL    HW1 7322   6.216   4.316   2.327
 2141SOL    HW2 7323   6.192   4.476   2.305
 2142SOL     OW 7324   1.090   2.228   3.113
 2142SOL    HW1 7325   1.047   2.169   3.045
 2142SOL    HW2 7326   1.116   2.315   3.070
 2143SOL     OW 7327   3.064   4.321   1.458
 2143SOL    HW1 7328   2.967   4.301   1.470
 2143SOL    HW2 7329   3.086   4.322   1.360
 2144SOL     OW 7330   1.324   5.375   3.933
 2144SOL    HW1 7331   1.230   5.404   3.946
 2144SOL    HW2 7332   1.335   5.337   3.841
 2145SOL     OW 7333   4.221   5.865   4.243
 2145SOL    HW1 7334   4.248   5.920   4.164
 2145SOL    HW2 7335   4.264   5.902   4.326
 2146SOL     OW 7336   2.822   3.556   1.529
 2146SOL    HW1 7337   2.895   3.588   1.591
 2146SOL    HW2 7338   2.741   3.534   1.583
 2147SOL     OW 7339   6.779   1.579   6.048
 2147SOL    HW1 7340   6.693   1.535   6.021
 2147SOL    HW2 7341   6.760   1.669   6.087
 2148SOL     OW 7342   5.376   1.904   5.595
 2148SOL    HW1 7343   5.329   1.925   5.509
 2148SOL    HW2 7344   5.472   1.886   5.577
 2149SOL     OW 7345   3.333   2.430   1.313
 2149SOL    HW1 7346   3.299   2.521   1.290
 2149SOL    HW2 7347   3.338   2.421   1.413
 2150SOL     OW 7348   3.060   1.825   2.423
 2150SOL    HW1 7349   3.020   1.737   2.449
 2150SOL    HW2 7350   2.995   1.877   2.368
 2151SOL     OW 7351   1.720   0.678   4.771
 2151SOL    HW1 7352   1.692   0.645   4.680
 2151SOL    HW2 7353   1.729   0.777   4.769
 2152SOL     OW 7354   3.733   6.037   1.387
 2152SOL    HW1 7355   3.725   5.946   1.429
 2152SOL    HW2 7356   3.761   6.103   1.456
 2153SOL     OW 7357   3.710   0.512   3.546
 2153SOL    HW1 7358   3.806   0.494   3.572
 2153SOL    HW2 7359   3.675   0.435   3.493
 2154SOL     OW 7360   4.840   6.959   4.850
 2154SOL    HW1 7361   4.835   6.861   4.828
 2154SOL    HW2 7362   4.888   6.971   4.937
 2155SOL     OW 7363   1.936   6.249   0.115
 2155SOL    HW1 7364   1.912   6.294   0.201
 2155SOL    HW2 7365   1.868   6.272   0.045
 2156SOL     OW 7366   2.967   1.144   4.621
 2156SOL    HW1 7367   3.015   1.231   4.630
 2156SOL    HW2 7368   3.032   1.072   4.600
 2157SOL     OW 7369   6.266   1.176   3.715
 2157SOL    HW1 7370   6.179   1.133   3.739
 2157SOL    HW2 7371   6.320   1.112   3.660
 2158SOL     OW 7372   4.092   6.324   0.874
 2158SOL    HW1 7373   4.084   6.225   0.876
 2158SOL    HW2 7374   4.082   6.361   0.967
 2159SOL     OW 7375   1.815   6.509   5.670
 2159SOL    HW1 7376   1.869   6.593   5.674
 2159SOL    HW2 7377   1.842   6.448   5.745
 2160SOL     OW 7378   3.809   4.178   0.639
 2160SOL    HW1 7379   3.778   4.083   0.643
 2160SOL    HW2 7380   3.909   4.180   0.644
 2161SOL     OW 7381   5.181   4.430   3.199
 2161SOL    HW1 7382   5.200   4.365   3.125
 2161SOL    HW2 7383   5.238   4.511   3.188
 2162SOL     OW 7384   2.356   0.886   1.389
 2162SOL    HW1 7385   2.374   0.956   1.319
 2162SOL    HW2 7386   2.439   0.834   1.405
 2163SOL     OW 7387   0.763   4.344   6.626
 2163SOL    HW1 7388   0.823   4.272   6.589
 2163SOL    HW2 7389   0.762   4.422   6.564
 2164SOL     OW 7390   1.075   3.332   6.866
 2164SOL    HW1 7391   1.003   3.335   6.796
 2164SOL    HW2 7392   1.108   3.425   6.882
 2165SOL     OW 7393   0.424   2.575   2.936
 2165SOL    HW1 7394   0.472   2.550   2.851
 2165SOL    HW2 7395   0.412   2.674   2.939
 2166SOL     OW 7396   1.219   2.292   4.773
 2166SOL    HW1 7397   1.307   2.333   4.796
 2166SOL    HW2 7398   1.148   2.332   4.831
 2167SOL     OW 7399   1.618   1.788   3.598
 2167SOL    HW1 7400   1.684   1.728   3.644
 2167SOL    HW2 7401   1.540   1.805   3.659
 2168SOL     OW 7402   0.658   1.873   4.005
 2168SOL    HW1 7403   0.649   1.781   4.044
 2168SOL    HW2 7404   0.577   1.894   3.950
 2169SOL     OW 7405   5.575   1.854   5.937
 2169SOL    HW1 7406   5.599   1.757   5.927
 2169SOL    HW2 7407   5.477   1.862   5.956
 2170SOL     OW 7408   6.698   5.227   5.463
 2170SOL    HW1 7409   6.693   5.129   5.440
 2170SOL    HW2 7410   6.627   5.250   5.529
 2171SOL     OW 7411   0.189   3.583   1.936
 2171SOL    HW1 7412   0.284   3.585   1.967
 2171SOL    HW2 7413   0.170   3.665   1.882
 2172SOL     OW 7414   2.894   2.579   0.499
 2172SOL    HW1 7415   2.822   2.571   0.569
 2172SOL    HW2 7416   2.853   2.571   0.408
 2173SOL     OW 7417   3.694   0.525   4.531
 2173SOL    HW1 7418   3.778   0.579   4.528
 2173SOL    HW2 7419   3.696   0.465   4.611
 2174SOL     OW 7420   5.639   5.468   5.499
 2174SOL    HW1 7421   5.621   5.370   5.491
 2174SOL    HW2 7422   5.554   5.516   5.521
 2175SOL     OW 7423   2.036   3.101   4.515
 2175SOL    HW1 7424   2.082   3.188   4.496
 2175SOL    HW2 7425   2.090   3.047   4.578
 2176SOL     OW 7426   0.963   2.691   0.190
 2176SOL    HW1 7427   1.055   2.680   0.154
 2176SOL    HW2 7428   0.903   2.727   0.118
 2177SOL     OW 7429   6.125   1.625   3.711
 2177SOL    HW1 7430   6.068   1.587   3.639
 2177SOL    HW2 7431   6.179   1.553   3.753
 2178SOL     OW 7432   1.143   3.544   0.176
 2178SOL    HW1 7433   1.185   3.602   0.246
 2178SOL    HW2 7434   1.178   3.451   0.185
 2179SOL     OW 7435   1.761   5.370   4.866
 2179SOL    HW1 7436   1.756   5.469   4.884
 2179SOL    HW2 7437   1.796   5.355   4.774
 2180SOL     OW 7438   2.276   2.822   1.955
 2180SOL    HW1 7439   2.232   2.867   2.033
 2180SOL    HW2 7440   2.260   2.876   1.873
 2181SOL     OW 7441   4.359   4.973   5.302
 2181SOL    HW1 7442   4.346   5.065   5.339
 2181SOL    HW2 7443   4.274   4.941   5.261
 2182SOL     OW 7444   0.962   3.256   4.312
 2182SOL    HW1 7445   0.876   3.282   4.269
 2182SOL    HW2 7446   1.020   3.336   4.322
 2183SOL     OW 7447   2.608   4.169   5.931
 2183SOL    HW1 7448   2.594   4.244   5.996
 2183SOL    HW2 7449   2.590   4.201   5.838
 2184SOL     OW 7450   4.582   2.118   6.822
 2184SOL    HW1 7451   4.634   2.060   6.760
 2184SOL    HW2 7452   4.487   2.124   6.791
 2185SOL     OW 7453   1.292   2.253   1.103
 2185SOL    HW1 7454   1.234   2.213   1.032
 2185SOL    HW2 7455   1.236   2.309   1.164
 2186SOL     OW 7456   0.414   5.384   2.052
 2186SOL    HW1 7457   0.362   5.299   2.058
 2186SOL    HW2 7458   0.510   5.366   2.074
 2187SOL     OW 7459   6.381   1.255   2.703
 2187SOL    HW1 7460   6.416   1.320   2.771
 2187SOL    HW2 7461   6.293   1.287   2.668
 2188SOL     OW 7462   6.019   6.203   4.786
 2188SOL    HW1 7463   5.928   6.163   4.785
 2188SOL    HW2 7464   6.059   6.197   4.694
 2189SOL     OW 7465   2.003   0.244   0.402
 2189SOL    HW1 7466   2.103   0.249   0.407
 2189SOL    HW2 7467   1.964   0.333   0.427
 2190SOL     OW 7468   0.412   2.725   1.936
 2190SOL    HW1 7469   0.386   2.666   1.860
 2190SOL    HW2 7470   0.355   2.705   2.016
 2191SOL     OW 7471   2.795   1.958   6.729
 2191SOL    HW1 7472   2.849   1.888   6.776
 2191SOL    HW2 7473   2.841   2.047   6.739
 2192SOL     OW 7474   3.953   1.165   2.901
 2192SOL    HW1 7475   3.856   1.147   2.880
 2192SOL    HW2 7476   3.962   1.195   2.996
 2193SOL     OW 7477   6.678   5.597   5.781
 2193SOL    HW1 7478   6.655   5.611   5.685
 2193SOL    HW2 7479   6.769   5.633   5.799
 2194SOL     OW 7480   2.568   5.037   6.691
 2194SOL    HW1 7481   2.489   5.012   6.635
 2194SOL    HW2 7482   2.537   5.056   6.784
 2195SOL     OW 7483   6.840   0.430   3.606
 2195SOL    HW1 7484   6.805   0.458   3.517
 2195SOL    HW2 7485   6.771   0.376   3.654
 2196SOL     OW 7486   3.296   0.566   4.692
 2196SOL    HW1 7487   3.346   0.597   4.612
 2196SOL    HW2 7488   3.302   0.636   4.764
 2197SOL     OW 7489   3.185   3.637   0.908
 2197SOL    HW1 7490   3.103   3.593   0.870
 2197SOL    HW2 7491   3.182   3.735   0.887
 2198SOL     OW 7492   6.618   1.085   0.008
 2198SOL    HW1 7493   6.586   1.142   6.953
 2198SOL    HW2 7494   6.548   1.079   0.079
 2199SOL     OW 7495   5.613   1.167   3.157
 2199SOL    HW1 7496   5.530   1.114   3.138
 2199SOL    HW2 7497   5.638   1.157   3.253
 2200SOL     OW 7498   3.003   0.494   4.733
 2200SOL    HW1 7499   2.993   0.427   4.807
 2200SOL    HW2 7500   3.099   0.500   4.705
 2201SOL     OW 7501   6.154   2.560   3.544
 2201SOL    HW1 7502   6.193   2.641   3.499
 2201SOL    HW2 7503   6.112   2.501   3.475
 2202SOL     OW 7504   2.771   4.751   2.507
 2202SOL    HW1 7505   2.678   4.788   2.500
 2202SOL    HW2 7506   2.835   4.814   2.463
 2203SOL     OW 7507   2.162   2.929   1.405
 2203SOL    HW1 7508   2.213   2.987   1.342
 2203SOL    HW2 7509   2.152   2.838   1.365
 2204SOL     OW 7510   4.471   0.937   0.106
 2204SOL    HW1 7511   4.519   0.932   0.194
 2204SOL    HW2 7512   4.530   0.900   0.034
 2205SOL     OW 7513   1.402   0.429   5.636
 2205SOL    HW1 7514   1.370   0.383   5.553
 2205SOL    HW2 7515   1.502   0.435   5.635
 2206SOL     OW 7516   2.805   4.613   6.450
 2206SOL    HW1 7517   2.824   4.617   6.352
 2206SOL    HW2 7518   2.854   4.687   6.496
 2207SOL     OW 7519   3.350   4.591   6.879
 2207SOL    HW1 7520   3.327   4.606   6.975
 2207SOL    HW2 7521   3.343   4.494   6.857
 2208SOL     OW 7522   1.550   6.220   2.214
 2208SOL    HW1 7523   1.558   6.198   2.117
 2208SOL    HW2 7524   1.616   6.292   2.237
 2209SOL     OW 7525   1.611   6.184   5.722
 2209SOL    HW1 7526   1.704   6.186   5.757
 2209SOL    HW2 7527   1.559   6.113   5.769
 2210SOL     OW 7528   6.687   5.070   4.206
 2210SOL    HW1 7529   6.656   5.035   4.118
 2210SOL    HW2 7530   6.609   5.099   4.260
 2211SOL     OW 7531   5.240   0.511   6.768
 2211SOL    HW1 7532   5.312   0.462   6.816
 2211SOL    HW2 7533   5.276   0.548   6.683
 2212SOL     OW 7534   1.789   6.378   6.926
 2212SOL    HW1 7535   1.836   6.325   6.856
 2212SOL    HW2 7536   1.693   6.349   6.931
 2213SOL     OW 7537   3.699   2.830   5.235
 2213SOL    HW1 7538   3.606   2.799   5.222
 2213SOL    HW2 7539   3.700   2.906   5.301
 2214SOL     OW 7540   3.853   2.937   5.011
 2214SOL    HW1 7541   3.870   3.028   5.048
 2214SOL    HW2 7542   3.800   2.883   5.077
 2215SOL     OW 7543   6.744   2.049   0.059
 2215SOL    HW1 7544   6.685   1.979   0.100
 2215SOL    HW2 7545   6.838   2.037   0.091
 2216SOL     OW 7546   1.897   0.407   5.799
 2216SOL    HW1 7547   1.983   0.373   5.762
 2216SOL    HW2 7548   1.828   0.408   5.726
 2217SOL     OW 7549   3.877   6.799   1.612
 2217SOL    HW1 7550   3.828   6.807   1.700
 2217SOL    HW2 7551   3.848   6.715   1.566
 2218SOL     OW 7552   0.781   0.025   0.632
 2218SOL    HW1 7553   0.811   6.961   0.677
 2218SOL    HW2 7554   0.859   0.087   0.622
 2219SOL     OW 7555   6.128   2.202   2.254
 2219SOL    HW1 7556   6.132   2.202   2.154
 2219SOL    HW2 7557   6.220   2.222   2.290
 2220SOL     OW 7558   1.348   6.827   4.068
 2220SOL    HW1 7559   1.248   6.830   4.060
 2220SOL    HW2 7560   1.379   6.898   4.130
 2221SOL     OW 7561   6.014   0.755   5.164
 2221SOL    HW1 7562   6.106   0.768   5.127
 2221SOL    HW2 7563   5.950   0.813   5.115
 2222SOL     OW 7564   4.467   0.065   0.673
 2222SOL    HW1 7565   4.412   0.141   0.636
 2222SOL    HW2 7566   4.408   7.007   0.691
 2223SOL     OW 7567   5.956   0.724   4.646
 2223SOL    HW1 7568   6.014   0.762   4.573
 2223SOL    HW2 7569   6.011   0.662   4.702
 2224SOL     OW 7570   1.886   4.269   1.357
 2224SOL    HW1 7571   1.914   4.230   1.445
 2224SOL    HW2 7572   1.957   4.332   1.324
 2225SOL     OW 7573   6.301   6.329   2.892
 2225SOL    HW1 7574   6.209   6.329   2.853
 2225SOL    HW2 7575   6.342   6.238   2.879
 2226SOL     OW 7576   4.128   4.962   0.721
 2226SOL    HW1 7577   4.194   4.893   0.691
 2226SOL    HW2 7578   4.073   4.992   0.643
 2227SOL     OW 7579   5.712   3.805   0.871
 2227SOL    HW1 7580   5.650   3.795   0.793
 2227SOL    HW2 7581   5.720   3.718   0.920
 2228SOL     OW 7582   2.550   5.016   1.213
 2228SOL    HW1 7583   2.627   4.982   1.266
 2228SOL    HW2 7584   2.494   5.077   1.269
 2229SOL     OW 7585   4.235   1.513   4.344
 2229SOL    HW1 7586   4.274   1.605   4.339
 2229SOL    HW2 7587   4.143   1.513   4.307
 2230SOL     OW 7588   6.132   5.648   6.182
 2230SOL    HW1 7589   6.109   5.714   6.253
 2230SOL    HW2 7590   6.134   5.694   6.093
 2231SOL     OW 7591   0.517   0.816   2.210
 2231SOL    HW1 7592   0.539   0.764   2.292
 2231SOL    HW2 7593   0.465   0.759   2.147
 2232SOL     OW 7594   0.572   3.257   5.113
 2232SOL    HW1 7595   0.633   3.336   5.101
 2232SOL    HW2 7596   0.614   3.176   5.072
 2233SOL     OW 7597   2.826   4.331   1.258
 2233SOL    HW1 7598   2.914   4.365   1.292
 2233SOL    HW2 7599   2.817   4.352   1.161
 2234SOL     OW 7600   4.265   2.254   1.936
 2234SOL    HW1 7601   4.173   2.244   1.974
 2234SOL    HW2 7602   4.259   2.257   1.836
 2235SOL     OW 7603   2.275   0.607   1.368
 2235SOL    HW1 7604   2.204   0.676   1.358
 2235SOL    HW2 7605   2.361   0.651   1.394
 2236SOL     OW 7606   1.104   4.597   6.575
 2236SOL    HW1 7607   1.009   4.605   6.605
 2236SOL    HW2 7608   1.161   4.660   6.628
 2237SOL     OW 7609   5.477   4.975   3.919
 2237SOL    HW1 7610   5.395   4.942   3.966
 2237SOL    HW2 7611   5.456   5.058   3.869
 2238SOL     OW 7612   5.201   4.460   1.059
 2238SOL    HW1 7613   5.230   4.382   1.116
 2238SOL    HW2 7614   5.224   4.441   0.963
 2239SOL     OW 7615   3.162   5.119   3.001
 2239SOL    HW1 7616   3.092   5.087   2.937
 2239SOL    HW2 7617   3.125   5.124   3.093
 2240SOL     OW 7618   5.058   6.061   3.652
 2240SOL    HW1 7619   4.963   6.030   3.666
 2240SOL    HW2 7620   5.085   6.041   3.558
 2241SOL     OW 7621   0.157   0.206   2.546
 2241SOL    HW1 7622   0.192   0.270   2.477
 2241SOL    HW2 7623   0.213   0.213   2.629
 2242SOL     OW 7624   4.975   1.681   2.833
 2242SOL    HW1 7625   4.933   1.685   2.743
 2242SOL    HW2 7626   5.003   1.587   2.853
 2243SOL     OW 7627   3.013   6.209   5.513
 2243SOL    HW1 7628   2.944   6.175   5.576
 2243SOL    HW2 7629   2.978   6.208   5.419
 2244SOL     OW 7630   2.313   6.570   2.124
 2244SOL    HW1 7631   2.353   6.565   2.033
 2244SOL    HW2 7632   2.235   6.508   2.130
 2245SOL     OW 7633   0.725   1.968   2.265
 2245SOL    HW1 7634   0.775   2.053   2.282
 2245SOL    HW2 7635   0.696   1.964   2.169
 2246SOL     OW 7636   1.014   1.453   6.014
 2246SOL    HW1 7637   0.932   1.406   5.981
 2246SOL    HW2 7638   1.034   1.424   6.108
 2247SOL     OW 7639   2.938   3.083   5.351
 2247SOL    HW1 7640   3.000   3.150   5.310
 2247SOL    HW2 7641   2.845   3.121   5.352
 2248SOL     OW 7642   3.706   4.269   5.857
 2248SOL    HW1 7643   3.732   4.348   5.801
 2248SOL    HW2 7644   3.764   4.191   5.833
 2249SOL     OW 7645   6.253   6.769   2.571
 2249SOL    HW1 7646   6.188   6.714   2.518
 2249SOL    HW2 7647   6.343   6.767   2.526
 2250SOL     OW 7648   4.227   3.426   0.072
 2250SOL    HW1 7649   4.134   3.428   0.109
 2250SOL    HW2 7650   4.270   3.515   0.085
 2251SOL     OW 7651   5.135   1.144   6.961
 2251SOL    HW1 7652   5.128   1.127   0.040
 2251SOL    HW2 7653   5.063   1.094   6.913
 2252SOL     OW 7654   5.538   2.510   3.006
 2252SOL    HW1 7655   5.477   2.559   2.944
 2252SOL    HW2 7656   5.578   2.431   2.960
 2253SOL     OW 7657   1.388   3.578   6.652
 2253SOL    HW1 7658   1.308   3.532   6.690
 2253SOL    HW2 7659   1.470   3.524   6.670
 2254SOL     OW 7660   3.453   3.644   5.287
 2254SOL    HW1 7661   3.371   3.696   5.311
 2254SOL    HW2 7662   3.503   3.692   5.216
 2255SOL     OW 7663   4.891   2.400   6.800
 2255SOL    HW1 7664   4.916   2.426   6.707
 2255SOL    HW2 7665   4.954   2.328   6.832
 2256SOL     OW 7666   4.675   6.043   1.567
 2256SOL    HW1 7667   4.647   5.948   1.583
 2256SOL    HW2 7668   4.618   6.083   1.496
 2257SOL     OW 7669   0.148   1.910   4.343
 2257SOL    HW1 7670   0.207   1.878   4.417
 2257SOL    HW2 7671   0.197   1.978   4.288
 2258SOL     OW 7672   1.135   5.352   5.861
 2258SOL    HW1 7673   1.212   5.290   5.875
 2258SOL    HW2 7674   1.111   5.395   5.948
 2259SOL     OW 7675   5.268   4.068   6.517
 2259SOL    HW1 7676   5.172   4.096   6.522
 2259SOL    HW2 7677   5.309   4.103   6.433
 2260SOL     OW 7678   5.791   4.632   3.321
 2260SOL    HW1 7679   5.779   4.536   3.344
 2260SOL    HW2 7680   5.860   4.641   3.250
 2261SOL     OW 7681   6.640   5.922   0.598
 2261SOL    HW1 7682   6.649   5.991   0.526
 2261SOL    HW2 7683   6.704   5.942   0.672
 2262SOL     OW 7684   5.426   1.458   1.847
 2262SOL    HW1 7685   5.349   1.395   1.852
 2262SOL    HW2 7686   5.493   1.434   1.917
 2263SOL     OW 7687   2.643   5.849   6.714
 2263SOL    HW1 7688   2.674   5.861   6.808
 2263SOL    HW2 7689   2.546   5.874   6.707
 2264SOL     OW 7690   3.361   3.592   0.651
 2264SOL    HW1 7691   3.353   3.504   0.605
 2264SOL    HW2 7692   3.273   3.617   0.691
 2265SOL     OW 7693   0.829   0.859   4.329
 2265SOL    HW1 7694   0.842   0.802   4.411
 2265SOL    HW2 7695   0.838   0.801   4.248
 2266SOL     OW 7696   6.283   2.246   1.464
 2266SOL    HW1 7697   6.185   2.248   1.448
 2266SOL    HW2 7698   6.309   2.321   1.525
 2267SOL     OW 7699   5.367   2.643   5.031
 2267SOL    HW1 7700   5.352   2.599   4.943
 2267SOL    HW2 7701   5.314   2.597   5.102
 2268SOL     OW 7702   6.865   3.933   6.249
 2268SOL    HW1 7703   6.819   4.013   6.212
 2268SOL    HW2 7704   6.954   3.959   6.286
 2269SOL     OW 7705   6.035   5.948   4.951
 2269SOL    HW1 7706   6.061   6.023   4.889
 2269SOL    HW2 7707   5.996   5.873   4.898
 2270SOL     OW 7708   3.623   2.434   6.272
 2270SOL    HW1 7709   3.610   2.523   6.315
 2270SOL    HW2 7710   3.535   2.399   6.240
 2271SOL     OW 7711   6.233   4.567   0.602
 2271SOL    HW1 7712   6.250   4.559   0.504
 2271SOL    HW2 7713   6.297   4.632   0.643
 2272SOL     OW 7714   6.285   1.692   5.546
 2272SOL    HW1 7715   6.221   1.615   5.545
 2272SOL    HW2 7716   6.301   1.722   5.452
 2273SOL     OW 7717   1.610   0.371   2.074
 2273SOL    HW1 7718   1.612   0.453   2.017
 2273SOL    HW2 7719   1.525   0.369   2.127
 2274SOL     OW 7720   0.958   2.795   6.181
 2274SOL    HW1 7721   0.878   2.760   6.132
 2274SOL    HW2 7722   0.950   2.894   6.190
 2275SOL     OW 7723   5.746   0.755   4.060
 2275SOL    HW1 7724   5.670   0.728   4.000
 2275SOL    HW2 7725   5.796   0.674   4.089
 2276SOL     OW 7726   3.142   5.189   1.145
 2276SOL    HW1 7727   3.066   5.209   1.083
 2276SOL    HW2 7728   3.226   5.177   1.092
 2277SOL     OW 7729   3.186   3.192   5.507
 2277SOL    HW1 7730   3.091   3.206   5.532
 2277SOL    HW2 7731   3.209   3.251   5.430
 2278SOL     OW 7732   6.552   5.393   4.035
 2278SOL    HW1 7733   6.600   5.384   3.947
 2278SOL    HW2 7734   6.613   5.367   4.109
 2279SOL     OW 7735   4.641   6.184   4.748
 2279SOL    HW1 7736   4.558   6.223   4.708
 2279SOL    HW2 7737   4.708   6.170   4.676
 2280SOL     OW 7738   0.206   5.840   4.259
 2280SOL    HW1 7739   0.244   5.811   4.346
 2280SOL    HW2 7740   0.126   5.897   4.274
 2281SOL     OW 7741   3.518   1.527   1.203
 2281SOL    HW1 7742   3.595   1.476   1.242
 2281SOL    HW2 7743   3.449   1.463   1.168
 2282SOL     OW 7744   4.496   6.530   5.310
 2282SOL    HW1 7745   4.486   6.446   5.257
 2282SOL    HW2 7746   4.573   6.584   5.274
 2283SOL     OW 7747   6.494   4.455   1.901
 2283SOL    HW1 7748   6.432   4.379   1.923
 2283SOL    HW2 7749   6.502   4.464   1.802
 2284SOL     OW 7750   1.950   2.315   0.278
 2284SOL    HW1 7751   1.939   2.342   0.183
 2284SOL    HW2 7752   1.964   2.396   0.335
 2285SOL     OW 7753   1.886   2.452   0.818
 2285SOL    HW1 7754   1.876   2.549   0.796
 2285SOL    HW2 7755   1.982   2.433   0.841
 2286SOL     OW 7756   0.479   0.138   4.666
 2286SOL    HW1 7757   0.416   0.129   4.590
 2286SOL    HW2 7758   0.489   0.050   4.712
 2287SOL     OW 7759   1.807   1.648   2.828
 2287SOL    HW1 7760   1.776   1.582   2.896
 2287SOL    HW2 7761   1.808   1.740   2.868
 2288SOL     OW 7762   5.833   5.299   4.524
 2288SOL    HW1 7763   5.852   5.373   4.459
 2288SOL    HW2 7764   5.761   5.240   4.486
 2289SOL     OW 7765   6.507   4.396   2.710
 2289SOL    HW1 7766   6.491   4.312   2.763
 2289SOL    HW2 7767   6.591   4.386   2.657
 2290SOL     OW 7768   1.424   3.726   2.182
 2290SOL    HW1 7769   1.327   3.736   2.157
 2290SOL    HW2 7770   1.457   3.637   2.150
 2291SOL     OW 7771   2.587   2.657   6.726
 2291SOL    HW1 7772   2.502   2.681   6.772
 2291SOL    HW2 7773   2.615   2.565   6.754
 2292SOL     OW 7774   6.025   2.749   4.081
 2292SOL    HW1 7775   5.946   2.745   4.143
 2292SOL    HW2 7776   6.054   2.844   4.071
 2293SOL     OW 7777   5.507   6.625   1.226
 2293SOL    HW1 7778   5.573   6.657   1.158
 2293SOL    HW2 7779   5.553   6.612   1.314
 2294SOL     OW 7780   3.727   0.815   6.353
 2294SOL    HW1 7781   3.767   0.762   6.428
 2294SOL    HW2 7782   3.799   0.864   6.305
 2295SOL     OW 7783   0.472   1.862   2.814
 2295SOL    HW1 7784   0.526   1.921   2.873
 2295SOL    HW2 7785   0.517   1.773   2.805
 2296SOL     OW 7786   3.314   5.966   2.196
 2296SOL    HW1 7787   3.390   5.976   2.260
 2296SOL    HW2 7788   3.283   6.057   2.167
 2297SOL     OW 7789   5.092   4.218   4.857
 2297SOL    HW1 7790   5.186   4.212   4.890
 2297SOL    HW2 7791   5.074   4.143   4.793
 2298SOL     OW 7792   3.838   3.983   1.941
 2298SOL    HW1 7793   3.862   3.899   1.893
 2298SOL    HW2 7794   3.770   4.033   1.888
 2299SOL     OW 7795   4.653   4.427   5.055
 2299SOL    HW1 7796   4.714   4.350   5.076
 2299SOL    HW2 7797   4.649   4.439   4.956
 2300SOL     OW 7798   2.158   5.934   2.560
 2300SOL    HW1 7799   2.198   6.008   2.614
 2300SOL    HW2 7800   2.072   5.965   2.520
 2301SOL     OW 7801   3.365   2.876   2.862
 2301SOL    HW1 7802   3.419   2.809   2.912
 2301SOL    HW2 7803   3.324   2.941   2.927
 2302SOL     OW 7804   3.834   0.398   1.310
 2302SOL    HW1 7805   3.929   0.421   1.331
 2302SOL    HW2 7806   3.811   0.309   1.349
 2303SOL     OW 7807   2.508   3.331   0.076
 2303SOL    HW1 7808   2.553   3.380   0.151
 2303SOL    HW2 7809   2.547   3.239   0.068
 2304SOL     OW 7810   5.749   6.762   4.052
 2304SOL    HW1 7811   5.838   6.767   4.007
 2304SOL    HW2 7812   5.762   6.774   4.151
 2305SOL     OW 7813   2.762   0.307   2.631
 2305SOL    HW1 7814   2.769   0.242   2.706
 2305SOL    HW2 7815   2.839   0.371   2.635
 2306SOL     OW 7816   2.097   4.992   1.748
 2306SOL    HW1 7817   2.083   4.893   1.755
 2306SOL    HW2 7818   2.134   5.027   1.834
 2307SOL     OW 7819   6.905   3.156   4.245
 2307SOL    HW1 7820   6.872   3.189   4.333
 2307SOL    HW2 7821   6.841   3.181   4.173
 2308SOL     OW 7822   2.030   4.693   1.725
 2308SOL    HW1 7823   2.022   4.702   1.626
 2308SOL    HW2 7824   1.979   4.613   1.756
 2309SOL     OW 7825   1.628   0.789   6.052
 2309SOL    HW1 7826   1.577   0.803   6.137
 2309SOL    HW2 7827   1.584   0.839   5.978
 2310SOL     OW 7828   5.978   5.297   0.781
 2310SOL    HW1 7829   5.986   5.197   0.788
 2310SOL    HW2 7830   5.943   5.333   0.868
 2311SOL     OW 7831   2.339   0.285   1.402
 2311SOL    HW1 7832   2.243   0.314   1.398
 2311SOL    HW2 7833   2.390   0.328   1.327
 2312SOL     OW 7834   4.611   6.016   3.483
 2312SOL    HW1 7835   4.658   6.092   3.528
 2312SOL    HW2 7836   4.512   6.026   3.494
 2313SOL     OW 7837   5.439   5.707   1.554
 2313SOL    HW1 7838   5.396   5.709   1.644
 2313SOL    HW2 7839   5.422   5.794   1.507
 2314SOL     OW 7840   5.430   5.866   3.676
 2314SOL    HW1 7841   5.515   5.893   3.724
 2314SOL    HW2 7842   5.354   5.869   3.741
 2315SOL     OW 7843   5.199   3.012   6.625
 2315SOL    HW1 7844   5.276   3.077   6.622
 2315SOL    HW2 7845   5.188   2.978   6.718
 2316SOL     OW 7846   4.496   1.604   4.154
 2316SOL    HW1 7847   4.572   1.562   4.205
 2316SOL    HW2 7848   4.515   1.599   4.056
 2317SOL     OW 7849   0.583   6.646   3.386
 2317SOL    HW1 7850   0.611   6.550   3.382
 2317SOL    HW2 7851   0.535   6.663   3.472
 2318SOL     OW 7852   0.957   2.829   3.668
 2318SOL    HW1 7853   0.916   2.910   3.710
 2318SOL    HW2 7854   0.886   2.776   3.621
 2319SOL     OW 7855   1.755   4.881   3.744
 2319SOL    HW1 7856   1.727   4.931   3.826
 2319SOL    HW2 7857   1.691   4.807   3.726
 2320SOL     OW 7858   1.057   2.397   4.354
 2320SOL    HW1 7859   1.052   2.496   4.338
 2320SOL    HW2 7860   1.144   2.362   4.317
 2321SOL     OW 7861   2.962   6.985   6.373
 2321SOL    HW1 7862   2.933   0.050   6.329
 2321SOL    HW2 7863   3.028   7.005   6.445
 2322SOL     OW 7864   2.996   1.783   5.126
 2322SOL    HW1 7865   2.907   1.741   5.109
 2322SOL    HW2 7866   3.064   1.742   5.065
 2323SOL     OW 7867   2.407   5.174   1.891
 2323SOL    HW1 7868   2.503   5.174   1.919
 2323SOL    HW2 7869   2.370   5.267   1.901
 2324SOL     OW 7870   6.214   6.701   1.657
 2324SOL    HW1 7871   6.138   6.637   1.664
 2324SOL    HW2 7872   6.205   6.772   1.726
 2325SOL     OW 7873   1.484   4.667   2.270
 2325SOL    HW1 7874   1.427   4.697   2.193
 2325SOL    HW2 7875   1.518   4.575   2.253
 2326SOL     OW 7876   3.507   5.395   5.478
 2326SOL    HW1 7877   3.503   5.297   5.462
 2326SOL    HW2 7878   3.448   5.419   5.555
 2327SOL     OW 7879   6.193   3.344   5.384
 2327SOL    HW1 7880   6.287   3.312   5.384
 2327SOL    HW2 7881   6.156   3.340   5.477
 2328SOL     OW 7882   3.385   2.143   3.233
 2328SOL    HW1 7883   3.324   2.078   3.186
 2328SOL    HW2 7884   3.427   2.203   3.165
 2329SOL     OW 7885   1.519   3.811   4.961
 2329SOL    HW1 7886   1.493   3.859   4.877
 2329SOL    HW2 7887   1.437   3.779   5.008
 2330SOL     OW 7888   1.036   3.749   2.306
 2330SOL    HW1 7889   1.021   3.679   2.376
 2330SOL    HW2 7890   0.947   3.781   2.272
 2331SOL     OW 7891   6.490   4.043   0.627
 2331SOL    HW1 7892   6.446   4.119   0.578
 2331SOL    HW2 7893   6.534   3.982   0.562
 2332SOL     OW 7894   4.581   1.741   5.793
 2332SOL    HW1 7895   4.501   1.727   5.851
 2332SOL    HW2 7896   4.609   1.837   5.797
 2333SOL     OW 7897   0.110   5.748   3.119
 2333SOL    HW1 7898   0.015   5.753   3.088
 2333SOL    HW2 7899   0.122   5.808   3.198
 2334SOL     OW 7900   2.287   0.460   0.288
 2334SOL    HW1 7901   2.221   0.529   0.319
 2334SOL    HW2 7902   2.355   0.502   0.229
 2335SOL     OW 7903   6.079   1.332   3.316
 2335SOL    HW1 7904   6.049   1.236   3.307
 2335SOL    HW2 7905   6.060   1.380   3.230
 2336SOL     OW 7906   4.194   2.033   5.159
 2336SOL    HW1 7907   4.205   1.942   5.118
 2336SOL    HW2 7908   4.126   2.029   5.232
 2337SOL     OW 7909   4.538   0.905   3.536
 2337SOL    HW1 7910   4.599   0.959   3.478
 2337SOL    HW2 7911   4.591   0.846   3.596
 2338SOL     OW 7912   1.158   1.119   6.595
 2338SOL    HW1 7913   1.180   1.078   6.506
 2338SOL    HW2 7914   1.120   1.210   6.581
 2339SOL     OW 7915   3.112   4.002   5.293
 2339SOL    HW1 7916   3.202   4.040   5.270
 2339SOL    HW2 7917   3.047   4.024   5.221
 2340SOL     OW 7918   5.537   5.042   6.505
 2340SOL    HW1 7919   5.599   4.965   6.488
 2340SOL    HW2 7920   5.469   5.015   6.573
 2341SOL     OW 7921   5.371   4.527   1.374
 2341SOL    HW1 7922   5.447   4.557   1.431
 2341SOL    HW2 7923   5.369   4.581   1.290
 2342SOL     OW 7924   0.141   6.324   4.987
 2342SOL    HW1 7925   0.206   6.290   5.055
 2342SOL    HW2 7926   0.096   6.406   5.023
 2343SOL     OW 7927   1.524   6.660   2.427
 2343SOL    HW1 7928   1.593   6.704   2.370
 2343SOL    HW2 7929   1.433   6.695   2.404
 2344SOL     OW 7930   1.842   1.000   1.049
 2344SOL    HW1 7931   1.836   0.914   1.099
 2344SOL    HW2 7932   1.873   1.073   1.110
 2345SOL     OW 7933   1.944   5.386   5.584
 2345SOL    HW1 7934   2.031   5.390   5.632
 2345SOL    HW2 7935   1.948   5.445   5.503
 2346SOL     OW 7936   4.870   3.206   4.728
 2346SOL    HW1 7937   4.858   3.273   4.801
 2346SOL    HW2 7938   4.897   3.252   4.644
 2347SOL     OW 7939   2.357   3.712   1.693
 2347SOL    HW1 7940   2.275   3.748   1.737
 2347SOL    HW2 7941   2.384   3.627   1.738
 2348SOL     OW 7942   3.454   5.996   3.876
 2348SOL    HW1 7943   3.402   5.914   3.853
 2348SOL    HW2 7944   3.549   5.972   3.893
 2349SOL     OW 7945   0.738   5.170   6.296
 2349SOL    HW1 7946   0.826   5.167   6.248
 2349SOL    HW2 7947   0.663   5.161   6.231
 2350SOL     OW 7948   5.258   6.874   6.462
 2350SOL    HW1 7949   5.322   6.927   6.406
 2350SOL    HW2 7950   5.204   6.936   6.519
 2351SOL     OW 7951   3.639   5.291   2.379
 2351SOL    HW1 7952   3.737   5.290   2.358
 2351SOL    HW2 7953   3.591   5.342   2.308
 2352SOL     OW 7954   1.298   3.881   2.370
 2352SOL    HW1 7955   1.210   3.872   2.324
 2352SOL    HW2 7956   1.365   3.823   2.324
 2353SOL     OW 7957   2.863   4.784   4.804
 2353SOL    HW1 7958   2.852   4.716   4.877
 2353SOL    HW2 7959   2.839   4.742   4.716
 2354SOL     OW 7960   3.030   1.809   6.428
 2354SOL    HW1 7961   3.063   1.745   6.358
 2354SOL    HW2 7962   2.932   1.825   6.415
 2355SOL     OW 7963   1.112   5.430   6.732
 2355SOL    HW1 7964   1.075   5.522   6.723
 2355SOL    HW2 7965   1.211   5.433   6.734
 2356SOL     OW 7966   2.472   4.259   0.606
 2356SOL    HW1 7967   2.376   4.232   0.609
 2356SOL    HW2 7968   2.486   4.324   0.531
 2357SOL     OW 7969   3.990   5.271   3.740
 2357SOL    HW1 7970   3.986   5.368   3.714
 2357SOL    HW2 7971   3.964   5.215   3.662
 2358SOL     OW 7972   2.476   5.163   4.639
 2358SOL    HW1 7973   2.553   5.102   4.621
 2358SOL    HW2 7974   2.416   5.122   4.708
 2359SOL     OW 7975   0.053   0.899   5.896
 2359SOL    HW1 7976   0.017   0.961   5.966
 2359SOL    HW2 7977   0.139   0.859   5.928
 2360SOL     OW 7978   4.865   5.995   5.723
 2360SOL    HW1 7979   4.778   5.956   5.691
 2360SOL    HW2 7980   4.870   6.091   5.697
 2361SOL     OW 7981   2.947   6.887   4.771
 2361SOL    HW1 7982   2.850   6.885   4.746
 2361SOL    HW2 7983   2.978   6.982   4.780
 2362SOL     OW 7984   3.524   6.482   5.678
 2362SOL    HW1 7985   3.468   6.535   5.614
 2362SOL    HW2 7986   3.468   6.410   5.720
 2363SOL     OW 7987   4.707   2.676   5.465
 2363SOL    HW1 7988   4.624   2.666   5.410
 2363SOL    HW2 7989   4.685   2.724   5.550
 2364SOL     OW 7990   0.210   2.620   3.255
 2364SOL    HW1 7991   0.150   2.600   3.333
 2364SOL    HW2 7992   0.277   2.690   3.282
 2365SOL     OW 7993   5.725   2.559   6.284
 2365SOL    HW1 7994   5.641   2.526   6.241
 2365SOL    HW2 7995   5.763   2.632   6.227
 2366SOL     OW 7996   1.448   4.141   5.423
 2366SOL    HW1 7997   1.450   4.192   5.337
 2366SOL    HW2 7998   1.492   4.052   5.410
 2367SOL     OW 7999   2.787   3.622   6.890
 2367SOL    HW1 8000   2.752   3.658   6.977
 2367SOL    HW2 8001   2.711   3.597   6.831
 2368SOL     OW 8002   4.783   0.722   3.649
 2368SOL    HW1 8003   4.781   0.648   3.582
 2368SOL    HW2 8004   4.875   0.729   3.689
 2369SOL     OW 8005   2.115   2.584   4.396
 2369SOL    HW1 8006   2.191   2.555   4.453
 2369SOL    HW2 8007   2.032   2.590   4.451
 2370SOL     OW 8008   4.327   4.327   6.341
 2370SOL    HW1 8009   4.319   4.264   6.264
 2370SOL    HW2 8010   4.258   4.399   6.333
 2371SOL     OW 8011   1.422   6.578   1.795
 2371SOL    HW1 8012   1.437   6.583   1.894
 2371SOL    HW2 8013   1.487   6.512   1.755
 2372SOL     OW 8014   1.071   2.540   1.133
 2372SOL    HW1 8015   1.102   2.470   1.197
 2372SOL    HW2 8016   0.975   2.563   1.152
 2373SOL     OW 8017   5.934   0.334   6.656
 2373SOL    HW1 8018   6.028   0.316   6.685
 2373SOL    HW2 8019   5.935   0.392   6.575
 2374SOL     OW 8020   6.299   0.748   3.760
 2374SOL    HW1 8021   6.348   0.666   3.730
 2374SOL    HW2 8022   6.365   0.814   3.796
 2375SOL     OW 8023   1.714   6.996   4.168
 2375SOL    HW1 8024   1.755   0.043   4.230
 2375SOL    HW2 8025   1.615   6.995   4.179
 2376SOL     OW 8026   6.392   2.445   4.267
 2376SOL    HW1 8027   6.473   2.503   4.263
 2376SOL    HW2 8028   6.310   2.502   4.256
 2377SOL     OW 8029   3.472   4.099   3.679
 2377SOL    HW1 8030   3.553   4.151   3.705
 2377SOL    HW2 8031   3.498   4.007   3.651
 2378SOL     OW 8032   5.465   1.578   6.667
 2378SOL    HW1 8033   5.527   1.512   6.709
 2378SOL    HW2 8034   5.504   1.609   6.580
 2379SOL     OW 8035   0.070   1.486   6.340
 2379SOL    HW1 8036   0.113   1.411   6.290
 2379SOL    HW2 8037   0.036   1.554   6.275
 2380SOL     OW 8038   6.953   6.785   5.863
 2380SOL    HW1 8039   6.858   6.806   5.885
 2380SOL    HW2 8040   6.999   6.752   5.945
 2381SOL     OW 8041   2.235   4.081   4.129
 2381SOL    HW1 8042   2.223   3.983   4.112
 2381SOL    HW2 8043   2.279   4.124   4.050
 2382SOL     OW 8044   2.152   4.680   2.482
 2382SOL    HW1 8045   2.082   4.643   2.544
 2382SOL    HW2 8046   2.242   4.672   2.525
 2383SOL     OW 8047   5.290   6.079   6.873
 2383SOL    HW1 8048   5.226   6.136   6.925
 2383SOL    HW2 8049   5.290   6.107   6.777
 2384SOL     OW 8050   1.143   0.591   2.450
 2384SOL    HW1 8051   1.237   0.623   2.454
 2384SOL    HW2 8052   1.082   0.661   2.488
 2385SOL     OW 8053   6.253   0.352   0.975
 2385SOL    HW1 8054   6.168   0.396   1.004
 2385SOL    HW2 8055   6.232   0.272   0.920
 2386SOL     OW 8056   4.388   5.289   4.388
 2386SOL    HW1 8057   4.371   5.318   4.482
 2386SOL    HW2 8058   4.398   5.189   4.385
 2387SOL     OW 8059   6.752   2.939   4.361
 2387SOL    HW1 8060   6.711   2.985   4.282
 2387SOL    HW2 8061   6.788   2.850   4.332
 2388SOL     OW 8062   1.144   1.810   4.995
 2388SOL    HW1 8063   1.211   1.776   4.929
 2388SOL    HW2 8064   1.163   1.772   5.085
 2389SOL     OW 8065   5.106   4.094   3.711
 2389SOL    HW1 8066   5.178   4.028   3.732
 2389SOL    HW2 8067   5.137   4.155   3.638
 2390SOL     OW 8068   3.514   3.563   4.385
 2390SOL    HW1 8069   3.452   3.591   4.312
 2390SOL    HW2 8070   3.504   3.465   4.401
 2391SOL     OW 8071   4.008   4.386   5.806
 2391SOL    HW1 8072   4.079   4.389   5.877
 2391SOL    HW2 8073   3.968   4.294   5.802
 2392SOL     OW 8074   3.063   6.002   5.745
 2392SOL    HW1 8075   3.098   6.031   5.835
 2392SOL    HW2 8076   3.057   6.082   5.685
 2393SOL     OW 8077   3.315   5.528   1.028
 2393SOL    HW1 8078   3.370   5.609   1.007
 2393SOL    HW2 8079   3.295   5.525   1.126
 2394SOL     OW 8080   1.444   3.418   4.777
 2394SOL    HW1 8081   1.451   3.332   4.726
 2394SOL    HW2 8082   1.451   3.400   4.875
 2395SOL     OW 8083   6.708   2.264   6.907
 2395SOL    HW1 8084   6.771   2.250   6.831
 2395SOL    HW2 8085   6.721   2.191   6.975
 2396SOL     OW 8086   4.988   5.628   0.282
 2396SOL    HW1 8087   4.938   5.630   0.368
 2396SOL    HW2 8088   5.023   5.536   0.265
 2397SOL     OW 8089   6.792   4.909   0.437
 2397SOL    HW1 8090   6.881   4.895   0.393
 2397SOL    HW2 8091   6.771   4.832   0.496
 2398SOL     OW 8092   2.665   4.840   5.863
 2398SOL    HW1 8093   2.734   4.807   5.928
 2398SOL    HW2 8094   2.672   4.940   5.854
 2399SOL     OW 8095   4.567   1.830   1.887
 2399SOL    HW1 8096   4.569   1.894   1.810
 2399SOL    HW2 8097   4.473   1.819   1.919
 2400SOL     OW 8098   3.996   4.651   0.683
 2400SOL    HW1 8099   4.052   4.640   0.764
 2400SOL    HW2 8100   3.931   4.575   0.676
 2401SOL     OW 8101   3.993   0.614   5.459
 2401SOL    HW1 8102   4.013   0.528   5.412
 2401SOL    HW2 8103   3.984   0.597   5.557
 2402SOL     OW 8104   6.848   2.686   4.295
 2402SOL    HW1 8105   6.786   2.629   4.242
 2402SOL    HW2 8106   6.877   2.637   4.377
 2403SOL     OW 8107   2.849   2.822   6.809
 2403SOL    HW1 8108   2.877   2.733   6.845
 2403SOL    HW2 8109   2.887   2.836   6.718
 2404SOL     OW 8110   5.328   1.324   2.480
 2404SOL    HW1 8111   5.368   1.338   2.571
 2404SOL    HW2 8112   5.397   1.341   2.410
 2405SOL     OW 8113   3.749   3.939   4.942
 2405SOL    HW1 8114   3.774   3.875   4.869
 2405SOL    HW2 8115   3.697   4.015   4.903
 2406SOL     OW 8116   1.841   0.417   3.588
 2406SOL    HW1 8117   1.877   0.401   3.680
 2406SOL    HW2 8118   1.893   0.489   3.544
 2407SOL     OW 8119   4.749   1.861   3.424
 2407SOL    HW1 8120   4.769   1.932   3.491
 2407SOL    HW2 8121   4.650   1.856   3.410
 2408SOL     OW 8122   3.984   5.206   2.857
 2408SOL    HW1 8123   3.951   5.299   2.841
 2408SOL    HW2 8124   3.935   5.143   2.797
 2409SOL     OW 8125   2.095   2.956   2.100
 2409SOL    HW1 8126   2.113   3.043   2.055
 2409SOL    HW2 8127   2.004   2.923   2.074
 2410SOL     OW 8128   6.653   2.566   5.569
 2410SOL    HW1 8129   6.554   2.555   5.560
 2410SOL    HW2 8130   6.690   2.599   5.482
 2411SOL     OW 8131   3.826   4.734   5.706
 2411SOL    HW1 8132   3.831   4.703   5.801
 2411SOL    HW2 8133   3.873   4.669   5.647
 2412SOL     OW 8134   2.692   4.385   0.004
 2412SOL    HW1 8135   2.743   4.407   0.088
 2412SOL    HW2 8136   2.748   4.408   6.944
 2413SOL     OW 8137   6.536   3.100   6.948
 2413SOL    HW1 8138   6.581   3.161   7.013
 2413SOL    HW2 8139   6.437   3.099   6.966
 2414SOL     OW 8140   5.721   3.842   2.813
 2414SOL    HW1 8141   5.621   3.845   2.820
 2414SOL    HW2 8142   5.754   3.931   2.782
 2415SOL     OW 8143   1.499   0.095   1.139
 2415SOL    HW1 8144   1.454   0.184   1.140
 2415SOL    HW2 8145   1.440   0.027   1.095
 2416SOL     OW 8146   2.845   1.367   4.915
 2416SOL    HW1 8147   2.883   1.416   4.993
 2416SOL    HW2 8148   2.797   1.286   4.946
 2417SOL     OW 8149   4.328   2.696   0.350
 2417SOL    HW1 8150   4.326   2.679   0.251
 2417SOL    HW2 8151   4.382   2.778   0.369
 2418SOL     OW 8152   3.164   3.396   4.250
 2418SOL    HW1 8153   3.076   3.381   4.205
 2418SOL    HW2 8154   3.208   3.308   4.268
 2419SOL     OW 8155   0.486   6.591   4.152
 2419SOL    HW1 8156   0.388   6.612   4.153
 2419SOL    HW2 8157   0.509   6.536   4.232
 2420SOL     OW 8158   4.132   6.887   2.574
 2420SOL    HW1 8159   4.086   6.975   2.562
 2420SOL    HW2 8160   4.231   6.898   2.566
 2421SOL     OW 8161   2.773   0.717   4.402
 2421SOL    HW1 8162   2.752   0.662   4.483
 2421SOL    HW2 8163   2.871   0.730   4.395
 2422SOL     OW 8164   5.479   0.856   1.113
 2422SOL    HW1 8165   5.468   0.790   1.187
 2422SOL    HW2 8166   5.569   0.844   1.072
 2423SOL     OW 8167   0.955   6.287   3.307
 2423SOL    HW1 8168   0.971   6.382   3.278
 2423SOL    HW2 8169   1.038   6.234   3.295
 2424SOL     OW 8170   5.601   5.539   6.274
 2424SOL    HW1 8171   5.510   5.574   6.299
 2424SOL    HW2 8172   5.616   5.554   6.176
 2425SOL     OW 8173   6.114   6.777   4.534
 2425SOL    HW1 8174   6.043   6.847   4.528
 2425SOL    HW2 8175   6.075   6.693   4.573
 2426SOL     OW 8176   1.359   4.686   4.242
 2426SOL    HW1 8177   1.383   4.777   4.276
 2426SOL    HW2 8178   1.265   4.664   4.270
 2427SOL     OW 8179   6.681   5.620   0.298
 2427SOL    HW1 8180   6.591   5.580   0.319
 2427SOL    HW2 8181   6.751   5.550   0.306
 2428SOL     OW 8182   1.159   0.132   3.390
 2428SOL    HW1 8183   1.253   0.116   3.358
 2428SOL    HW2 8184   1.133   0.060   3.454
 2429SOL     OW 8185   6.629   5.472   3.398
 2429SOL    HW1 8186   6.606   5.496   3.304
 2429SOL    HW2 8187   6.661   5.377   3.402
 2430SOL     OW 8188   6.313   2.361   1.214
 2430SOL    HW1 8189   6.306   2.306   1.131
 2430SOL    HW2 8190   6.309   2.301   1.294
 2431SOL     OW 8191   4.250   0.372   1.943
 2431SOL    HW1 8192   4.155   0.375   1.974
 2431SOL    HW2 8193   4.255   0.408   1.850
 2432SOL     OW 8194   4.203   6.367   3.123
 2432SOL    HW1 8195   4.213   6.437   3.052
 2432SOL    HW2 8196   4.153   6.406   3.201
 2433SOL     OW 8197   3.679   6.785   0.606
 2433SOL    HW1 8198   3.728   6.860   0.563
 2433SOL    HW2 8199   3.596   6.819   0.649
 2434SOL     OW 8200   5.064   1.584   3.268
 2434SOL    HW1 8201   5.077   1.492   3.304
 2434SOL    HW2 8202   5.131   1.646   3.309
 2435SOL     OW 8203   4.616   5.626   6.984
 2435SOL    HW1 8204   4.546   5.595   6.920
 2435SOL    HW2 8205   4.706   5.600   6.950
 2436SOL     OW 8206   2.287   0.399   0.723
 2436SOL    HW1 8207   2.282   0.326   0.654
 2436SOL    HW2 8208   2.274   0.488   0.678
 2437SOL     OW 8209   5.294   5.517   0.533
 2437SOL    HW1 8210   5.339   5.497   0.620
 2437SOL    HW2 8211   5.268   5.431   0.488
 2438SOL     OW 8212   4.000   1.087   5.699
 2438SOL    HW1 8213   4.015   1.096   5.600
 2438SOL    HW2 8214   4.006   0.991   5.725
 2439SOL     OW 8215   1.150   4.135   0.186
 2439SOL    HW1 8216   1.072   4.187   0.153
 2439SOL    HW2 8217   1.151   4.045   0.143
 2440SOL     OW 8218   3.602   6.296   4.881
 2440SOL    HW1 8219   3.590   6.260   4.974
 2440SOL    HW2 8220   3.551   6.240   4.816
 2441SOL     OW 8221   6.506   1.479   6.762
 2441SOL    HW1 8222   6.426   1.437   6.806
 2441SOL    HW2 8223   6.481   1.510   6.670
 2442SOL     OW 8224   6.219   5.956   3.749
 2442SOL    HW1 8225   6.318   5.957   3.764
 2442SOL    HW2 8226   6.197   5.889   3.678
 2443SOL     OW 8227   3.126   6.973   6.570
 2443SOL    HW1 8228   3.200   7.018   6.620
 2443SOL    HW2 8229   3.079   6.908   6.630
 2444SOL     OW 8230   3.937   4.339   6.464
 2444SOL    HW1 8231   3.959   4.260   6.407
 2444SOL    HW2 8232   3.915   4.417   6.405
 2445SOL     OW 8233   0.224   1.295   2.401
 2445SOL    HW1 8234   0.207   1.344   2.315
 2445SOL    HW2 8235   0.264   1.206   2.381
 2446SOL     OW 8236   0.727   3.044   4.264
 2446SOL    HW1 8237   0.660   2.970   4.273
 2446SOL    HW2 8238   0.794   3.037   4.338
 2447SOL     OW 8239   3.066   0.894   1.219
 2447SOL    HW1 8240   3.161   0.876   1.246
 2447SOL    HW2 8241   3.058   0.987   1.183
 2448SOL     OW 8242   0.120   0.719   3.965
 2448SOL    HW1 8243   0.148   0.782   3.894
 2448SOL    HW2 8244   0.146   0.626   3.940
 2449SOL     OW 8245   6.232   4.476   2.954
 2449SOL    HW1 8246   6.273   4.385   2.957
 2449SOL    HW2 8247   6.226   4.507   2.859
 2450SOL     OW 8248   3.007   5.491   5.053
 2450SOL    HW1 8249   3.046   5.539   4.975
 2450SOL    HW2 8250   3.017   5.392   5.040
 2451SOL     OW 8251   0.646   0.421   3.743
 2451SOL    HW1 8252   0.648   0.404   3.644
 2451SOL    HW2 8253   0.571   0.484   3.764
 2452SOL     OW 8254   2.727   2.319   3.264
 2452SOL    HW1 8255   2.826   2.315   3.280
 2452SOL    HW2 8256   2.693   2.226   3.248
 2453SOL     OW 8257   6.465   2.962   1.107
 2453SOL    HW1 8258   6.471   3.003   1.016
 2453SOL    HW2 8259   6.373   2.925   1.121
 2454SOL     OW 8260   3.386   0.775   0.231
 2454SOL    HW1 8261   3.305   0.744   0.180
 2454SOL    HW2 8262   3.425   0.855   0.185
 2455SOL     OW 8263   4.930   0.742   1.006
 2455SOL    HW1 8264   4.948   0.818   0.943
 2455SOL    HW2 8265   4.831   0.729   1.014
 2456SOL     OW 8266   5.647   1.452   0.521
 2456SOL    HW1 8267   5.677   1.536   0.565
 2456SOL    HW2 8268   5.668   1.374   0.579
 2457SOL     OW 8269   6.879   5.981   6.291
 2457SOL    HW1 8270   6.838   5.894   6.265
 2457SOL    HW2 8271   6.976   5.980   6.268
 2458SOL     OW 8272   2.410   5.911   3.901
 2458SOL    HW1 8273   2.314   5.912   3.876
 2458SOL    HW2 8274   2.458   5.985   3.854
 2459SOL     OW 8275   2.777   5.979   6.127
 2459SOL    HW1 8276   2.775   5.880   6.114
 2459SOL    HW2 8277   2.855   6.017   6.079
 2460SOL     OW 8278   1.621   1.450   1.941
 2460SOL    HW1 8279   1.625   1.415   1.847
 2460SOL    HW2 8280   1.709   1.488   1.967
 2461SOL     OW 8281   4.604   0.180   3.152
 2461SOL    HW1 8282   4.669   0.126   3.099
 2461SOL    HW2 8283   4.569   0.125   3.228
 2462SOL     OW 8284   1.764   5.808   0.619
 2462SOL    HW1 8285   1.674   5.779   0.652
 2462SOL    HW2 8286   1.786   5.898   0.657
 2463SOL     OW 8287   6.527   2.429   5.033
 2463SOL    HW1 8288   6.504   2.332   5.024
 2463SOL    HW2 8289   6.511   2.476   4.946
 2464SOL     OW 8290   1.936   4.159   2.060
 2464SOL    HW1 8291   2.009   4.183   1.996
 2464SOL    HW2 8292   1.853   4.136   2.009
 2465SOL     OW 8293   0.616   0.192   1.805
 2465SOL    HW1 8294   0.634   0.266   1.870
 2465SOL    HW2 8295   0.684   0.120   1.816
 2466SOL     OW 8296   2.759   1.806   2.831
 2466SOL    HW1 8297   2.822   1.883   2.829
 2466SOL    HW2 8298   2.729   1.789   2.925
 2467SOL     OW 8299   5.407   1.261   4.399
 2467SOL    HW1 8300   5.427   1.244   4.495
 2467SOL    HW2 8301   5.387   1.358   4.385
 2468SOL     OW 8302   4.960   6.183   1.969
 2468SOL    HW1 8303   5.003   6.163   2.057
 2468SOL    HW2 8304   4.864   6.154   1.971
 2469SOL     OW 8305   4.192   4.075   5.453
 2469SOL    HW1 8306   4.210   4.165   5.415
 2469SOL    HW2 8307   4.255   4.057   5.529
 2470SOL     OW 8308   3.647   4.954   6.117
 2470SOL    HW1 8309   3.592   4.989   6.042
 2470SOL    HW2 8310   3.732   5.008   6.124
 2471SOL     OW 8311   2.598   6.038   1.181
 2471SOL    HW1 8312   2.686   6.055   1.137
 2471SOL    HW2 8313   2.609   5.965   1.249
 2472SOL     OW 8314   5.389   2.544   4.776
 2472SOL    HW1 8315   5.353   2.471   4.717
 2472SOL    HW2 8316   5.467   2.588   4.731
 2473SOL     OW 8317   2.120   3.789   5.023
 2473SOL    HW1 8318   2.036   3.836   5.051
 2473SOL    HW2 8319   2.189   3.857   4.998
 2474SOL     OW 8320   0.444   6.413   0.850
 2474SOL    HW1 8321   0.496   6.327   0.856
 2474SOL    HW2 8322   0.391   6.426   0.934
 2475SOL     OW 8323   4.893   1.344   1.643
 2475SOL    HW1 8324   4.966   1.324   1.577
 2475SOL    HW2 8325   4.916   1.426   1.694
 2476SOL     OW 8326   6.935   1.885   3.489
 2476SOL    HW1 8327   7.001   1.955   3.460
 2476SOL    HW2 8328   6.855   1.930   3.528
 2477SOL     OW 8329   4.744   1.681   2.647
 2477SOL    HW1 8330   4.733   1.582   2.650
 2477SOL    HW2 8331   4.759   1.711   2.553
 2478SOL     OW 8332   6.217   1.125   2.078
 2478SOL    HW1 8333   6.228   1.051   2.145
 2478SOL    HW2 8334   6.250   1.211   2.118
 2479SOL     OW 8335   1.776   3.873   1.295
 2479SOL    HW1 8336   1.847   3.875   1.366
 2479SOL    HW2 8337   1.693   3.915   1.331
 2480SOL     OW 8338   6.241   3.913   0.712
 2480SOL    HW1 8339   6.206   3.832   0.665
 2480SOL    HW2 8340   6.331   3.937   0.674
 2481SOL     OW 8341   3.078   1.037   0.228
 2481SOL    HW1 8342   3.051   1.128   0.259
 2481SOL    HW2 8343   3.140   1.046   0.150
 2482SOL     OW 8344   4.449   2.904   5.671
 2482SOL    HW1 8345   4.459   2.985   5.728
 2482SOL    HW2 8346   4.402   2.929   5.586
 2483SOL     OW 8347   2.236   2.179   6.846
 2483SOL    HW1 8348   2.139   2.199   6.860
 2483SOL    HW2 8349   2.291   2.236   6.908
 2484SOL     OW 8350   2.654   0.557   6.950
 2484SOL    HW1 8351   2.634   0.612   0.011
 2484SOL    HW2 8352   2.571   0.509   6.921
 2485SOL     OW 8353   5.572   3.756   1.640
 2485SOL    HW1 8354   5.557   3.810   1.723
 2485SOL    HW2 8355   5.609   3.815   1.569
 2486SOL     OW 8356   2.358   4.748   4.209
 2486SOL    HW1 8357   2.405   4.669   4.170
 2486SOL    HW2 8358   2.423   4.804   4.260
 2487SOL     OW 8359   3.809   6.049   0.287
 2487SOL    HW1 8360   3.898   6.088   0.314
 2487SOL    HW2 8361   3.800   6.055   0.188
 2488SOL     OW 8362   1.998   4.279   2.404
 2488SOL    HW1 8363   1.910   4.251   2.365
 2488SOL    HW2 8364   1.982   4.340   2.482
 2489SOL     OW 8365   1.751   5.604   3.195
 2489SOL    HW1 8366   1.740   5.645   3.285
 2489SOL    HW2 8367   1.662   5.574   3.160
 2490SOL     OW 8368   6.431   5.129   1.627
 2490SOL    HW1 8369   6.460   5.218   1.591
 2490SOL    HW2 8370   6.510   5.081   1.665
 2491SOL     OW 8371   2.700   5.456   0.958
 2491SOL    HW1 8372   2.701   5.538   1.014
 2491SOL    HW2 8373   2.609   5.416   0.959
 2492SOL     OW 8374   4.339   2.862   6.791
 2492SOL    HW1 8375   4.387   2.783   6.752
 2492SOL    HW2 8376   4.349   2.861   6.891
 2493SOL     OW 8377   6.484   0.322   2.189
 2493SOL    HW1 8378   6.416   0.283   2.251
 2493SOL    HW2 8379   6.544   0.383   2.241
 2494SOL     OW 8380   5.924   4.128   2.002
 2494SOL    HW1 8381   6.009   4.080   1.985
 2494SOL    HW2 8382   5.897   4.178   1.919
 2495SOL     OW 8383   5.229   0.309   4.613
 2495SOL    HW1 8384   5.144   0.292   4.663
 2495SOL    HW2 8385   5.209   0.318   4.515
 2496SOL     OW 8386   0.402   3.804   6.276
 2496SOL    HW1 8387   0.330   3.836   6.337
 2496SOL    HW2 8388   0.483   3.861   6.287
 2497SOL     OW 8389   0.233   1.363   0.849
 2497SOL    HW1 8390   0.234   1.463   0.857
 2497SOL    HW2 8391   0.145   1.328   0.881
 2498SOL     OW 8392   3.594   2.143   3.942
 2498SOL    HW1 8393   3.673   2.152   4.003
 2498SOL    HW2 8394   3.623   2.154   3.847
 2499SOL     OW 8395   5.030   2.600   4.360
 2499SOL    HW1 8396   4.983   2.571   4.444
 2499SOL    HW2 8397   5.085   2.525   4.325
 2500SOL     OW 8398   4.323   2.710   6.422
 2500SOL    HW1 8399   4.387   2.714   6.345
 2500SOL    HW2 8400   4.359   2.647   6.491
 2501SOL     OW 8401   6.870   5.857   0.131
 2501SOL    HW1 8402   6.810   5.781   0.158
 2501SOL    HW2 8403   6.814   5.938   0.113
 2502SOL     OW 8404   2.462   5.937   3.202
 2502SOL    HW1 8405   2.499   5.930   3.294
 2502SOL    HW2 8406   2.440   6.033   3.182
 2503SOL     OW 8407   3.155   5.219   5.362
 2503SOL    HW1 8408   3.109   5.306   5.379
 2503SOL    HW2 8409   3.122   5.181   5.275
 2504SOL     OW 8410   2.328   4.940   5.275
 2504SOL    HW1 8411   2.347   4.850   5.236
 2504SOL    HW2 8412   2.291   4.999   5.203
 2505SOL     OW 8413   1.732   6.047   3.838
 2505SOL    HW1 8414   1.652   6.065   3.895
 2505SOL    HW2 8415   1.702   6.029   3.744
 2506SOL     OW 8416   5.887   3.494   6.590
 2506SOL    HW1 8417   5.844   3.584   6.577
 2506SOL    HW2 8418   5.982   3.507   6.619
 2507SOL     OW 8419   1.151   4.175   1.168
 2507SOL    HW1 8420   1.230   4.224   1.132
 2507SOL    HW2 8421   1.073   4.237   1.177
 2508SOL     OW 8422   3.097   1.353   2.112
 2508SOL    HW1 8423   3.146   1.274   2.076
 2508SOL    HW2 8424   3.051   1.401   2.037
 2509SOL     OW 8425   5.943   2.525   2.896
 2509SOL    HW1 8426   5.968   2.599   2.833
 2509SOL    HW2 8427   5.935   2.562   2.989
 2510SOL     OW 8428   3.364   4.218   1.489
 2510SOL    HW1 8429   3.336   4.122   1.493
 2510SOL    HW2 8430   3.453   4.225   1.444
 2511SOL     OW 8431   2.654   1.782   4.146
 2511SOL    HW1 8432   2.749   1.812   4.135
 2511SOL    HW2 8433   2.646   1.726   4.229
 2512SOL     OW 8434   4.755   5.275   5.282
 2512SOL    HW1 8435   4.779   5.211   5.356
 2512SOL    HW2 8436   4.656   5.292   5.284
 2513SOL     OW 8437   1.440   3.186   5.337
 2513SOL    HW1 8438   1.367   3.243   5.297
 2513SOL    HW2 8439   1.517   3.244   5.362
 2514SOL     OW 8440   6.204   3.786   4.228
 2514SOL    HW1 8441   6.129   3.834   4.182
 2514SOL    HW2 8442   6.210   3.693   4.192
 2515SOL     OW 8443   1.438   6.784   0.071
 2515SOL    HW1 8444   1.530   6.752   0.092
 2515SOL    HW2 8445   1.437   6.884   0.072
 2516SOL     OW 8446   6.058   0.367   3.488
 2516SOL    HW1 8447   5.983   0.363   3.554
 2516SOL    HW2 8448   6.040   0.304   3.413
 2517SOL     OW 8449   1.184   5.694   6.069
 2517SOL    HW1 8450   1.244   5.699   5.989
 2517SOL    HW2 8451   1.151   5.600   6.081
 2518SOL     OW 8452   2.692   3.637   0.154
 2518SOL    HW1 8453   2.698   3.716   0.215
 2518SOL    HW2 8454   2.595   3.616   0.137
 2519SOL     OW 8455   4.502   5.943   3.807
 2519SOL    HW1 8456   4.532   6.038   3.808
 2519SOL    HW2 8457   4.547   5.895   3.731
 2520SOL     OW 8458   0.882   3.271   0.115
 2520SOL    HW1 8459   0.851   3.270   0.020
 2520SOL    HW2 8460   0.981   3.286   0.118
 2521SOL     OW 8461   1.145   6.322   5.708
 2521SOL    HW1 8462   1.187   6.412   5.715
 2521SOL    HW2 8463   1.072   6.313   5.776
 2522SOL     OW 8464   6.843   3.058   5.816
 2522SOL    HW1 8465   6.828   2.998   5.737
 2522SOL    HW2 8466   6.916   3.123   5.794
 2523SOL     OW 8467   0.140   2.989   1.481
 2523SOL    HW1 8468   0.083   3.063   1.444
 2523SOL    HW2 8469   0.086   2.905   1.486
 2524SOL     OW 8470   0.918   5.435   4.658
 2524SOL    HW1 8471   0.951   5.377   4.585
 2524SOL    HW2 8472   0.820   5.419   4.672
 2525SOL     OW 8473   0.975   2.652   4.254
 2525SOL    HW1 8474   0.983   2.701   4.167
 2525SOL    HW2 8475   0.888   2.603   4.258
 2526SOL     OW 8476   1.878   4.189   5.710
 2526SOL    HW1 8477   1.787   4.221   5.735
 2526SOL    HW2 8478   1.882   4.089   5.717
 2527SOL     OW 8479   5.190   6.455   4.955
 2527SOL    HW1 8480   5.127   6.492   5.024
 2527SOL    HW2 8481   5.241   6.379   4.995
 2528SOL     OW 8482   6.368   4.234   1.106
 2528SOL    HW1 8483   6.305   4.298   1.062
 2528SOL    HW2 8484   6.438   4.284   1.157
 2529SOL     OW 8485   0.008   5.736   6.436
 2529SOL    HW1 8486   6.966   5.728   6.514
 2529SOL    HW2 8487   0.009   5.650   6.385
 2530SOL     OW 8488   1.055   6.154   4.596
 2530SOL    HW1 8489   1.126   6.200   4.543
 2530SOL    HW2 8490   1.039   6.203   4.681
 2531SOL     OW 8491   5.310   5.715   4.337
 2531SOL    HW1 8492   5.336   5.784   4.269
 2531SOL    HW2 8493   5.240   5.655   4.298
 2532SOL     OW 8494   1.093   6.127   0.849
 2532SOL    HW1 8495   1.094   6.042   0.797
 2532SOL    HW2 8496   1.008   6.176   0.832
 2533SOL     OW 8497   4.019   0.067   3.099
 2533SOL    HW1 8498   4.108   0.102   3.069
 2533SOL    HW2 8499   4.011   6.990   3.074
 2534SOL     OW 8500   2.318   0.627   2.924
 2534SOL    HW1 8501   2.394   0.565   2.910
 2534SOL    HW2 8502   2.283   0.659   2.836
 2535SOL     OW 8503   2.606   2.925   6.741
 2535SOL    HW1 8504   2.694   2.893   6.775
 2535SOL    HW2 8505   2.568   2.858   6.677
 2536SOL     OW 8506   6.983   2.403   3.696
 2536SOL    HW1 8507   0.031   2.381   3.766
 2536SOL    HW2 8508   6.914   2.330   3.694
 2537SOL     OW 8509   4.924   6.484   6.477
 2537SOL    HW1 8510   4.850   6.537   6.437
 2537SOL    HW2 8511   4.957   6.530   6.560
 2538SOL     OW 8512   1.586   3.997   4.374
 2538SOL    HW1 8513   1.550   3.950   4.293
 2538SOL    HW2 8514   1.612   3.929   4.443
 2539SOL     OW 8515   4.609   0.201   5.715
 2539SOL    HW1 8516   4.545   0.212   5.792
 2539SOL    HW2 8517   4.571   0.136   5.650
 2540SOL     OW 8518   4.582   1.187   2.295
 2540SOL    HW1 8519   4.534   1.136   2.223
 2540SOL    HW2 8520   4.608   1.277   2.260
 2541SOL     OW 8521   1.625   6.707   5.171
 2541SOL    HW1 8522   1.624   6.729   5.269
 2541SOL    HW2 8523   1.575   6.778   5.121
 2542SOL     OW 8524   4.572   1.685   5.513
 2542SOL    HW1 8525   4.615   1.700   5.602
 2542SOL    HW2 8526   4.483   1.731   5.511
 2543SOL     OW 8527   1.882   1.499   3.101
 2543SOL    HW1 8528   1.924   1.530   3.186
 2543SOL    HW2 8529   1.782   1.499   3.112
 2544SOL     OW 8530   0.112   5.197   2.342
 2544SOL    HW1 8531   0.099   5.296   2.329
 2544SOL    HW2 8532   0.054   5.166   2.417
 2545SOL     OW 8533   2.277   1.060   0.787
 2545SOL    HW1 8534   2.264   1.015   0.875
 2545SOL    HW2 8535   2.188   1.081   0.746
 2546SOL     OW 8536   0.034   2.480   2.475
 2546SOL    HW1 8537   0.121   2.429   2.479
 2546SOL    HW2 8538   6.978   2.415   2.472
 2547SOL     OW 8539   5.930   5.196   0.072
 2547SOL    HW1 8540   5.956   5.215   0.166
 2547SOL    HW2 8541   5.883   5.275   0.034
 2548SOL     OW 8542   2.787   6.420   5.354
 2548SOL    HW1 8543   2.845   6.483   5.406
 2548SOL    HW2 8544   2.694   6.422   5.390
 2549SOL     OW 8545   2.365   1.591   1.282
 2549SOL    HW1 8546   2.425   1.514   1.305
 2549SOL    HW2 8547   2.295   1.600   1.352
 2550SOL     OW 8548   6.793   0.530   6.502
 2550SOL    HW1 8549   6.738   0.597   6.553
 2550SOL    HW2 8550   6.732   0.469   6.451
 2551SOL     OW 8551   2.407   5.662   0.385
 2551SOL    HW1 8552   2.317   5.641   0.347
 2551SOL    HW2 8553   2.411   5.758   0.411
 2552SOL     OW 8554   1.099   6.109   5.545
 2552SOL    HW1 8555   1.184   6.058   5.556
 2552SOL    HW2 8556   1.104   6.194   5.598
 2553SOL     OW 8557   3.528   3.480   0.069
 2553SOL    HW1 8558   3.568   3.417   0.135
 2553SOL    HW2 8559   3.543   3.445   6.996
 2554SOL     OW 8560   1.579   5.708   6.913
 2554SOL    HW1 8561   1.553   5.802   6.934
 2554SOL    HW2 8562   1.568   5.691   6.815
 2555SOL     OW 8563   5.974   6.197   5.906
 2555SOL    HW1 8564   6.068   6.227   5.888
 2555SOL    HW2 8565   5.952   6.120   5.846
 2556SOL     OW 8566   4.044   6.192   0.307
 2556SOL    HW1 8567   4.072   6.281   0.270
 2556SOL    HW2 8568   4.125   6.141   0.336
 2557SOL     OW 8569   2.380   2.054   6.470
 2557SOL    HW1 8570   2.289   2.016   6.459
 2557SOL    HW2 8571   2.445   1.982   6.494
 2558SOL     OW 8572   3.619   3.299   5.927
 2558SOL    HW1 8573   3.531   3.271   5.888
 2558SOL    HW2 8574   3.669   3.217   5.956
 2559SOL     OW 8575   6.601   2.970   4.612
 2559SOL    HW1 8576   6.631   3.051   4.662
 2559SOL    HW2 8577   6.667   2.949   4.539
 2560SOL     OW 8578   5.297   3.464   4.349
 2560SOL    HW1 8579   5.326   3.536   4.413
 2560SOL    HW2 8580   5.242   3.505   4.276
 2561SOL     OW 8581   3.280   0.285   4.033
 2561SOL    HW1 8582   3.218   0.362   4.017
 2561SOL    HW2 8583   3.355   0.314   4.092
 2562SOL     OW 8584   2.039   5.703   2.166
 2562SOL    HW1 8585   2.001   5.683   2.075
 2562SOL    HW2 8586   2.136   5.679   2.167
 2563SOL     OW 8587   4.294   1.620   6.799
 2563SOL    HW1 8588   4.209   1.614   6.851
 2563SOL    HW2 8589   4.274   1.648   6.705
 2564SOL     OW 8590   1.025   0.139   6.243
 2564SOL    HW1 8591   1.085   0.217   6.227
 2564SOL    HW2 8592   0.967   0.125   6.163
 2565SOL     OW 8593   6.876   0.684   0.479
 2565SOL    HW1 8594   6.947   0.730   0.532
 2565SOL    HW2 8595   6.786   0.715   0.510
 2566SOL     OW 8596   1.654   0.236   0.845
 2566SOL    HW1 8597   1.701   0.154   0.813
 2566SOL    HW2 8598   1.564   0.211   0.881
 2567SOL     OW 8599   1.070   1.535   2.033
 2567SOL    HW1 8600   1.165   1.553   2.011
 2567SOL    HW2 8601   1.053   1.437   2.032
 2568SOL     OW 8602   2.817   0.776   6.517
 2568SOL    HW1 8603   2.731   0.758   6.564
 2568SOL    HW2 8604   2.891   0.725   6.561
 2569SOL     OW 8605   2.791   0.583   2.014
 2569SOL    HW1 8606   2.710   0.565   2.070
 2569SOL    HW2 8607   2.767   0.579   1.918
 2570SOL     OW 8608   5.926   0.781   6.569
 2570SOL    HW1 8609   5.999   0.760   6.634
 2570SOL    HW2 8610   5.851   0.826   6.617
 2571SOL     OW 8611   2.503   3.739   5.471
 2571SOL    HW1 8612   2.507   3.778   5.379
 2571SOL    HW2 8613   2.558   3.795   5.533
 2572SOL     OW 8614   2.111   6.394   0.960
 2572SOL    HW1 8615   2.113   6.450   1.043
 2572SOL    HW2 8616   2.184   6.326   0.964
 2573SOL     OW 8617   6.223   1.759   2.554
 2573SOL    HW1 8618   6.232   1.772   2.652
 2573SOL    HW2 8619   6.146   1.815   2.520
 2574SOL     OW 8620   0.353   3.071   0.492
 2574SOL    HW1 8621   0.383   3.113   0.578
 2574SOL    HW2 8622   0.314   2.980   0.511
 2575SOL     OW 8623   5.190   4.378   6.937
 2575SOL    HW1 8624   5.238   4.394   0.003
 2575SOL    HW2 8625   5.250   4.331   6.873
 2576SOL     OW 8626   3.870   0.131   3.829
 2576SOL    HW1 8627   3.946   0.078   3.868
 2576SOL    HW2 8628   3.789   0.073   3.823
 2577SOL     OW 8629   4.154   6.194   2.270
 2577SOL    HW1 8630   4.180   6.250   2.349
 2577SOL    HW2 8631   4.185   6.100   2.285
 2578SOL     OW 8632   4.583   2.826   5.200
 2578SOL    HW1 8633   4.483   2.833   5.188
 2578SOL    HW2 8634   4.611   2.730   5.192
 2579SOL     OW 8635   1.178   0.781   3.575
 2579SOL    HW1 8636   1.248   0.710   3.582
 2579SOL    HW2 8637   1.088   0.740   3.592
 2580SOL     OW 8638   2.249   2.595   0.037
 2580SOL    HW1 8639   2.193   2.521   0.075
 2580SOL    HW2 8640   2.291   2.647   0.111
 2581SOL     OW 8641   6.629   4.510   1.646
 2581SOL    HW1 8642   6.716   4.463   1.662
 2581SOL    HW2 8643   6.643   4.584   1.579
 2582SOL     OW 8644   1.366   4.539   2.505
 2582SOL    HW1 8645   1.427   4.562   2.429
 2582SOL    HW2 8646   1.347   4.441   2.502
 2583SOL     OW 8647   0.503   1.737   1.017
 2583SOL    HW1 8648   0.593   1.721   1.057
 2583SOL    HW2 8649   0.441   1.662   1.042
 2584SOL     OW 8650   3.859   5.783   0.311
 2584SOL    HW1 8651   3.841   5.881   0.317
 2584SOL    HW2 8652   3.929   5.766   0.241
 2585SOL     OW 8653   3.660   1.099   6.941
 2585SOL    HW1 8654   3.567   1.097   6.905
 2585SOL    HW2 8655   3.661   1.145   0.010
 2586SOL     OW 8656   3.978   1.819   3.663
 2586SOL    HW1 8657   3.904   1.880   3.689
 2586SOL    HW2 8658   4.002   1.760   3.740
 2587SOL     OW 8659   6.656   0.750   3.509
 2587SOL    HW1 8660   6.574   0.702   3.539
 2587SOL    HW2 8661   6.731   0.733   3.574
 2588SOL     OW 8662   4.870   6.988   6.655
 2588SOL    HW1 8663   4.908   0.046   6.706
 2588SOL    HW2 8664   4.782   7.013   6.616
 2589SOL     OW 8665   0.471   5.660   5.622
 2589SOL    HW1 8666   0.563   5.686   5.652
 2589SOL    HW2 8667   0.439   5.724   5.552
 2590SOL     OW 8668   3.339   6.109   1.479
 2590SOL    HW1 8669   3.390   6.132   1.562
 2590SOL    HW2 8670   3.246   6.082   1.503
 2591SOL     OW 8671   6.817   5.832   2.084
 2591SOL    HW1 8672   6.792   5.758   2.023
 2591SOL    HW2 8673   6.746   5.902   2.082
 2592SOL     OW 8674   3.184   6.911   1.362
 2592SOL    HW1 8675   3.133   6.987   1.322
 2592SOL    HW2 8676   3.138   6.880   1.445
 2593SOL     OW 8677   2.877   6.255   1.378
 2593SOL    HW1 8678   2.835   6.168   1.404
 2593SOL    HW2 8679   2.828   6.330   1.422
 2594SOL     OW 8680   6.935   5.683   5.757
 2594SOL    HW1 8681   7.001   5.627   5.807
 2594SOL    HW2 8682   6.964   5.778   5.758
 2595SOL     OW 8683   6.227   1.370   5.152
 2595SOL    HW1 8684   6.273   1.326   5.230
 2595SOL    HW2 8685   6.242   1.469   5.156
 2596SOL     OW 8686   3.905   2.041   1.972
 2596SOL    HW1 8687   3.938   2.018   2.064
 2596SOL    HW2 8688   3.834   2.112   1.980
 2597SOL     OW 8689   2.318   3.778   6.835
 2597SOL    HW1 8690   2.379   3.839   6.784
 2597SOL    HW2 8691   2.274   3.829   6.909
 2598SOL     OW 8692   5.762   0.804   4.459
 2598SOL    HW1 8693   5.826   0.875   4.429
 2598SOL    HW2 8694   5.794   0.764   4.545
 2599SOL     OW 8695   2.906   0.554   0.386
 2599SOL    HW1 8696   2.908   0.458   0.359
 2599SOL    HW2 8697   2.811   0.581   0.402
 2600SOL     OW 8698   4.912   3.385   4.520
 2600SOL    HW1 8699   4.914   3.472   4.570
 2600SOL    HW2 8700   4.959   3.396   4.433
 2601SOL     OW 8701   2.597   1.913   6.535
 2601SOL    HW1 8702   2.649   1.939   6.616
 2601SOL    HW2 8703   2.593   1.813   6.529
 2602SOL     OW 8704   6.545   4.713   3.920
 2602SOL    HW1 8705   6.598   4.707   4.005
 2602SOL    HW2 8706   6.597   4.672   3.845
 2603SOL     OW 8707   2.390   1.931   2.280
 2603SOL    HW1 8708   2.441   2.006   2.238
 2603SOL    HW2 8709   2.361   1.959   2.372
 2604SOL     OW 8710   5.046   1.153   3.385
 2604SOL    HW1 8711   5.037   1.055   3.368
 2604SOL    HW2 8712   4.965   1.201   3.351
 2605SOL     OW 8713   2.332   4.376   3.123
 2605SOL    HW1 8714   2.331   4.341   3.217
 2605SOL    HW2 8715   2.301   4.305   3.060
 2606SOL     OW 8716   6.510   4.666   1.047
 2606SOL    HW1 8717   6.431   4.724   1.067
 2606SOL    HW2 8718   6.594   4.717   1.065
 2607SOL     OW 8719   0.180   1.290   6.182
 2607SOL    HW1 8720   0.204   1.292   6.085
 2607SOL    HW2 8721   0.142   1.200   6.205
 2608SOL     OW 8722   4.305   4.973   2.017
 2608SOL    HW1 8723   4.322   5.007   1.925
 2608SOL    HW2 8724   4.328   5.044   2.084
 2609SOL     OW 8725   0.326   1.527   1.775
 2609SOL    HW1 8726   0.392   1.473   1.721
 2609SOL    HW2 8727   0.233   1.498   1.752
 2610SOL     OW 8728   0.058   5.223   4.032
 2610SOL    HW1 8729   0.103   5.311   4.051
 2610SOL    HW2 8730   0.127   5.154   4.011
 2611SOL     OW 8731   4.346   6.412   0.780
 2611SOL    HW1 8732   4.291   6.445   0.703
 2611SOL    HW2 8733   4.295   6.342   0.830
 2612SOL     OW 8734   6.502   6.697   5.748
 2612SOL    HW1 8735   6.601   6.690   5.755
 2612SOL    HW2 8736   6.476   6.722   5.654
 2613SOL     OW 8737   2.506   6.629   0.478
 2613SOL    HW1 8738   2.442   6.704   0.497
 2613SOL    HW2 8739   2.459   6.557   0.427
 2614SOL     OW 8740   6.279   0.554   5.952
 2614SOL    HW1 8741   6.287   0.564   6.051
 2614SOL    HW2 8742   6.340   0.481   5.920
 2615SOL     OW 8743   6.431   3.528   3.585
 2615SOL    HW1 8744   6.454   3.474   3.504
 2615SOL    HW2 8745   6.422   3.625   3.560
 2616SOL     OW 8746   3.810   3.631   4.488
 2616SOL    HW1 8747   3.741   3.560   4.476
 2616SOL    HW2 8748   3.774   3.703   4.547
 2617SOL     OW 8749   3.946   6.760   0.702
 2617SOL    HW1 8750   3.987   6.837   0.652
 2617SOL    HW2 8751   3.850   6.751   0.676
 2618SOL     OW 8752   0.232   6.836   4.379
 2618SOL    HW1 8753   0.142   6.795   4.360
 2618SOL    HW2 8754   0.278   6.858   4.293
 2619SOL     OW 8755   4.010   1.358   3.088
 2619SOL    HW1 8756   4.033   1.376   2.992
 2619SOL    HW2 8757   3.925   1.405   3.112
 2620SOL     OW 8758   7.019   6.445   2.714
 2620SOL    HW1 8759   0.093   6.480   2.706
 2620SOL    HW2 8760   0.002   6.351   2.749
 2621SOL     OW 8761   1.157   6.033   2.669
 2621SOL    HW1 8762   1.238   5.995   2.624
 2621SOL    HW2 8763   1.184   6.107   2.730
 2622SOL     OW 8764   2.252   2.521   5.887
 2622SOL    HW1 8765   2.331   2.557   5.937
 2622SOL    HW2 8766   2.281   2.488   5.797
 2623SOL     OW 8767   2.281   1.252   5.471
 2623SOL    HW1 8768   2.233   1.293   5.393
 2623SOL    HW2 8769   2.378   1.277   5.467
 2624SOL     OW 8770   6.644   2.168   5.400
 2624SOL    HW1 8771   6.723   2.198   5.346
 2624SOL    HW2 8772   6.561   2.211   5.364
 2625SOL     OW 8773   2.619   1.918   5.692
 2625SOL    HW1 8774   2.520   1.921   5.702
 2625SOL    HW2 8775   2.661   1.975   5.764
 2626SOL     OW 8776   0.231   0.054   5.379
 2626SOL    HW1 8777   0.287   0.091   5.305
 2626SOL    HW2 8778   0.265   0.089   5.466
 2627SOL     OW 8779   1.589   1.663   5.518
 2627SOL    HW1 8780   1.678   1.680   5.561
 2627SOL    HW2 8781   1.591   1.694   5.423
 2628SOL     OW 8782   2.244   5.244   6.091
 2628SOL    HW1 8783   2.299   5.209   6.016
 2628SOL    HW2 8784   2.218   5.168   6.151
 2629SOL     OW 8785   3.089   3.717   1.866
 2629SOL    HW1 8786   3.166   3.655   1.852
 2629SOL    HW2 8787   3.003   3.667   1.853
 2630SOL     OW 8788   2.961   1.462   3.188
 2630SOL    HW1 8789   2.866   1.481   3.164
 2630SOL    HW2 8790   3.016   1.453   3.105
 2631SOL     OW 8791   4.785   0.417   5.036
 2631SOL    HW1 8792   4.817   0.423   4.942
 2631SOL    HW2 8793   4.835   0.345   5.085
 2632SOL     OW 8794   3.462   2.111   6.062
 2632SOL    HW1 8795   3.496   2.111   5.968
 2632SOL    HW2 8796   3.437   2.204   6.089
 2633SOL     OW 8797   6.674   0.902   4.608
 2633SOL    HW1 8798   6.702   0.885   4.703
 2633SOL    HW2 8799   6.744   0.959   4.563
 2634SOL     OW 8800   1.181   3.814   3.243
 2634SOL    HW1 8801   1.237   3.804   3.160
 2634SOL    HW2 8802   1.086   3.793   3.221
 2635SOL     OW 8803   6.493   5.841   5.528
 2635SOL    HW1 8804   6.482   5.758   5.472
 2635SOL    HW2 8805   6.421   5.906   5.503
 2636SOL     OW 8806   4.868   0.189   5.198
 2636SOL    HW1 8807   4.946   0.223   5.249
 2636SOL    HW2 8808   4.804   0.143   5.260
 2637SOL     OW 8809   5.296   1.664   3.383
 2637SOL    HW1 8810   5.312   1.676   3.481
 2637SOL    HW2 8811   5.370   1.709   3.331
 2638SOL     OW 8812   6.504   0.458   3.324
 2638SOL    HW1 8813   6.470   0.365   3.338
 2638SOL    HW2 8814   6.603   0.455   3.310
 2639SOL     OW 8815   0.844   6.673   1.435
 2639SOL    HW1 8816   0.911   6.600   1.433
 2639SOL    HW2 8817   0.770   6.653   1.371
 2640SOL     OW 8818   0.438   5.875   4.474
 2640SOL    HW1 8819   0.424   5.776   4.471
 2640SOL    HW2 8820   0.499   5.899   4.550
 2641SOL     OW 8821   4.894   3.260   1.864
 2641SOL    HW1 8822   4.820   3.194   1.877
 2641SOL    HW2 8823   4.957   3.255   1.942
 2642SOL     OW 8824   4.207   0.160   4.471
 2642SOL    HW1 8825   4.196   0.188   4.376
 2642SOL    HW2 8826   4.298   0.121   4.484
 2643SOL     OW 8827   0.213   3.387   2.711
 2643SOL    HW1 8828   0.135   3.449   2.725
 2643SOL    HW2 8829   0.256   3.367   2.800
 2644SOL     OW 8830   6.219   5.159   5.889
 2644SOL    HW1 8831   6.307   5.159   5.938
 2644SOL    HW2 8832   6.231   5.199   5.798
 2645SOL     OW 8833   4.268   5.661   4.965
 2645SOL    HW1 8834   4.310   5.735   5.018
 2645SOL    HW2 8835   4.333   5.585   4.957
 2646SOL     OW 8836   6.300   0.594   6.704
 2646SOL    HW1 8837   6.225   0.657   6.724
 2646SOL    HW2 8838   6.352   0.577   6.788
 2647SOL     OW 8839   6.478   0.410   1.466
 2647SOL    HW1 8840   6.386   0.423   1.430
 2647SOL    HW2 8841   6.475   0.345   1.543
 2648SOL     OW 8842   0.262   0.434   3.882
 2648SOL    HW1 8843   0.345   0.455   3.934
 2648SOL    HW2 8844   0.257   0.335   3.867
 2649SOL     OW 8845   5.840   3.012   6.730
 2649SOL    HW1 8846   5.892   2.935   6.767
 2649SOL    HW2 8847   5.814   3.073   6.804
 2650SOL     OW 8848   0.636   4.274   4.379
 2650SOL    HW1 8849   0.589   4.309   4.298
 2650SOL    HW2 8850   0.573   4.273   4.456
 2651SOL     OW 8851   0.852   1.287   0.277
 2651SOL    HW1 8852   0.939   1.279   0.230
 2651SOL    HW2 8853   0.859   1.248   0.369
 2652SOL     OW 8854   3.820   4.053   4.214
 2652SOL    HW1 8855   3.817   3.953   4.212
 2652SOL    HW2 8856   3.748   4.089   4.154
 2653SOL     OW 8857   5.189   6.287   5.549
 2653SOL    HW1 8858   5.122   6.220   5.517
 2653SOL    HW2 8859   5.169   6.376   5.508
 2654SOL     OW 8860   5.013   5.384   1.030
 2654SOL    HW1 8861   4.988   5.349   1.120
 2654SOL    HW2 8862   4.940   5.363   0.965
 2655SOL     OW 8863   4.558   5.620   4.080
 2655SOL    HW1 8864   4.486   5.671   4.035
 2655SOL    HW2 8865   4.544   5.522   4.066
 2656SOL     OW 8866   3.259   4.855   4.015
 2656SOL    HW1 8867   3.211   4.929   4.062
 2656SOL    HW2 8868   3.256   4.772   4.072
 2657SOL     OW 8869   1.282   3.790   6.538
 2657SOL    HW1 8870   1.329   3.718   6.591
 2657SOL    HW2 8871   1.348   3.861   6.513
 2658SOL     OW 8872   5.049   4.563   0.132
 2658SOL    HW1 8873   4.965   4.577   0.184
 2658SOL    HW2 8874   5.031   4.500   0.056
 2659SOL     OW 8875   6.154   2.838   4.801
 2659SOL    HW1 8876   6.157   2.914   4.866
 2659SOL    HW2 8877   6.244   2.826   4.759
 2660SOL     OW 8878   1.238   0.937   1.011
 2660SOL    HW1 8879   1.148   0.895   1.010
 2660SOL    HW2 8880   1.302   0.878   1.061
 2661SOL     OW 8881   2.607   6.968   1.017
 2661SOL    HW1 8882   2.649   6.910   1.086
 2661SOL    HW2 8883   2.521   6.927   0.987
 2662SOL     OW 8884   4.654   6.654   5.764
 2662SOL    HW1 8885   4.745   6.613   5.766
 2662SOL    HW2 8886   4.585   6.584   5.777
 2663SOL     OW 8887   2.804   3.866   0.657
 2663SOL    HW1 8888   2.713   3.906   0.658
 2663SOL    HW2 8889   2.802   3.779   0.707
 2664SOL     OW 8890   3.908   4.421   5.338
 2664SOL    HW1 8891   3.909   4.376   5.249
 2664SOL    HW2 8892   3.839   4.493   5.339
 2665SOL     OW 8893   2.648   2.824   5.348
 2665SOL    HW1 8894   2.636   2.865   5.438
 2665SOL    HW2 8895   2.612   2.885   5.278
 2666SOL     OW 8896   5.869   4.221   0.837
 2666SOL    HW1 8897   5.806   4.193   0.765
 2666SOL    HW2 8898   5.938   4.150   0.851
 2667SOL     OW 8899   1.381   6.343   4.230
 2667SOL    HW1 8900   1.337   6.289   4.158
 2667SOL    HW2 8901   1.454   6.289   4.272
 2668SOL     OW 8902   6.686   3.589   4.390
 2668SOL    HW1 8903   6.663   3.666   4.330
 2668SOL    HW2 8904   6.785   3.574   4.389
 2669SOL     OW 8905   2.720   4.400   5.360
 2669SOL    HW1 8906   2.778   4.466   5.313
 2669SOL    HW2 8907   2.627   4.405   5.322
 2670SOL     OW 8908   6.178   2.888   6.509
 2670SOL    HW1 8909   6.230   2.824   6.452
 2670SOL    HW2 8910   6.082   2.888   6.481
 2671SOL     OW 8911   3.714   5.286   6.063
 2671SOL    HW1 8912   3.632   5.233   6.043
 2671SOL    HW2 8913   3.741   5.340   5.983
 2672SOL     OW 8914   0.666   5.296   0.595
 2672SOL    HW1 8915   0.646   5.394   0.607
 2672SOL    HW2 8916   0.730   5.266   0.665
 2673SOL     OW 8917   6.396   1.165   3.971
 2673SOL    HW1 8918   6.386   1.094   4.040
 2673SOL    HW2 8919   6.371   1.129   3.881
 2674SOL     OW 8920   1.179   4.419   3.501
 2674SOL    HW1 8921   1.249   4.466   3.447
 2674SOL    HW2 8922   1.219   4.338   3.544
 2675SOL     OW 8923   6.439   5.394   3.713
 2675SOL    HW1 8924   6.413   5.314   3.767
 2675SOL    HW2 8925   6.538   5.409   3.722
 2676SOL     OW 8926   4.282   1.764   0.523
 2676SOL    HW1 8927   4.354   1.742   0.589
 2676SOL    HW2 8928   4.324   1.789   0.436
 2677SOL     OW 8929   3.223   3.368   0.347
 2677SOL    HW1 8930   3.130   3.363   0.381
 2677SOL    HW2 8931   3.287   3.352   0.422
 2678SOL     OW 8932   0.375   2.800   1.269
 2678SOL    HW1 8933   0.378   2.802   1.369
 2678SOL    HW2 8934   0.462   2.831   1.232
 2679SOL     OW 8935   3.192   4.737   0.981
 2679SOL    HW1 8936   3.122   4.727   0.911
 2679SOL    HW2 8937   3.249   4.816   0.961
 2680SOL     OW 8938   1.308   1.277   0.584
 2680SOL    HW1 8939   1.345   1.214   0.653
 2680SOL    HW2 8940   1.381   1.338   0.553
 2681SOL     OW 8941   1.288   2.867   4.919
 2681SOL    HW1 8942   1.265   2.825   5.007
 2681SOL    HW2 8943   1.289   2.797   4.848
 2682SOL     OW 8944   5.057   4.645   2.316
 2682SOL    HW1 8945   5.092   4.738   2.310
 2682SOL    HW2 8946   4.961   4.643   2.288
 2683SOL     OW 8947   2.793   4.914   1.335
 2683SOL    HW1 8948   2.871   4.963   1.296
 2683SOL    HW2 8949   2.791   4.821   1.299
 2684SOL     OW 8950   4.264   5.585   1.005
 2684SOL    HW1 8951   4.185   5.646   0.995
 2684SOL    HW2 8952   4.341   5.621   0.953
 2685SOL     OW 8953   6.204   6.149   6.772
 2685SOL    HW1 8954   6.150   6.227   6.805
 2685SOL    HW2 8955   6.149   6.066   6.775
 2686SOL     OW 8956   1.805   1.940   5.681
 2686SOL    HW1 8957   1.861   1.886   5.617
 2686SOL    HW2 8958   1.737   1.993   5.629
 2687SOL     OW 8959   4.742   4.206   2.047
 2687SOL    HW1 8960   4.646   4.233   2.061
 2687SOL    HW2 8961   4.768   4.224   1.952
 2688SOL     OW 8962   4.312   4.083   0.166
 2688SOL    HW1 8963   4.240   4.151   0.154
 2688SOL    HW2 8964   4.291   4.002   0.111
 2689SOL     OW 8965   1.579   3.586   3.712
 2689SOL    HW1 8966   1.525   3.570   3.630
 2689SOL    HW2 8967   1.622   3.501   3.741
 2690SOL     OW 8968   3.593   3.511   3.511
 2690SOL    HW1 8969   3.620   3.561   3.594
 2690SOL    HW2 8970   3.579   3.415   3.533
 2691SOL     OW 8971   0.926   5.516   1.898
 2691SOL    HW1 8972   0.916   5.507   1.997
 2691SOL    HW2 8973   1.022   5.502   1.873
 2692SOL     OW 8974   3.279   5.351   2.668
 2692SOL    HW1 8975   3.288   5.444   2.631
 2692SOL    HW2 8976   3.207   5.302   2.620
 2693SOL     OW 8977   2.215   5.179   2.271
 2693SOL    HW1 8978   2.128   5.211   2.234
 2693SOL    HW2 8979   2.198   5.127   2.355
 2694SOL     OW 8980   4.275   6.580   2.958
 2694SOL    HW1 8981   4.250   6.608   2.865
 2694SOL    HW2 8982   4.238   6.647   3.023
 2695SOL     OW 8983   5.117   0.399   2.329
 2695SOL    HW1 8984   5.085   0.475   2.385
 2695SOL    HW2 8985   5.045   0.373   2.264
 2696SOL     OW 8986   3.746   3.817   5.519
 2696SOL    HW1 8987   3.754   3.734   5.463
 2696SOL    HW2 8988   3.722   3.894   5.461
 2697SOL     OW 8989   3.482   1.805   3.060
 2697SOL    HW1 8990   3.469   1.809   3.159
 2697SOL    HW2 8991   3.559   1.864   3.034
 2698SOL     OW 8992   2.466   6.653   0.150
 2698SOL    HW1 8993   2.427   6.590   0.217
 2698SOL    HW2 8994   2.516   6.601   0.081
 2699SOL     OW 8995   2.864   6.908   0.635
 2699SOL    HW1 8996   2.821   6.838   0.578
 2699SOL    HW2 8997   2.851   6.884   0.731
 2700SOL     OW 8998   2.285   3.913   0.557
 2700SOL    HW1 8999   2.335   3.928   0.472
 2700SOL    HW2 9000   2.274   4.000   0.604
 2701SOL     OW 9001   5.261   1.099   6.273
 2701SOL    HW1 9002   5.334   1.163   6.295
 2701SOL    HW2 9003   5.295   1.005   6.281
 2702SOL     OW 9004   0.635   3.207   3.735
 2702SOL    HW1 9005   0.668   3.293   3.696
 2702SOL    HW2 9006   0.593   3.225   3.824
 2703SOL     OW 9007   1.576   0.580   1.892
 2703SOL    HW1 9008   1.497   0.601   1.834
 2703SOL    HW2 9009   1.660   0.604   1.844
 2704SOL     OW 9010   6.874   6.691   1.470
 2704SOL    HW1 9011   6.859   6.679   1.568
 2704SOL    HW2 9012   6.947   6.758   1.455
 2705SOL     OW 9013   0.252   5.382   4.349
 2705SOL    HW1 9014   0.208   5.456   4.399
 2705SOL    HW2 9015   0.210   5.295   4.375
 2706SOL     OW 9016   0.305   6.722   1.707
 2706SOL    HW1 9017   0.395   6.746   1.672
 2706SOL    HW2 9018   0.271   6.796   1.765
 2707SOL     OW 9019   3.037   0.126   4.271
 2707SOL    HW1 9020   2.943   0.111   4.240
 2707SOL    HW2 9021   3.093   0.045   4.252
 2708SOL     OW 9022   0.424   2.322   6.431
 2708SOL    HW1 9023   0.390   2.248   6.489
 2708SOL    HW2 9024   0.478   2.283   6.356
 2709SOL     OW 9025   6.493   6.697   0.253
 2709SOL    HW1 9026   6.592   6.714   0.262
 2709SOL    HW2 9027   6.465   6.719   0.160
 2710SOL     OW 9028   0.808   3.763   3.503
 2710SOL    HW1 9029   0.770   3.723   3.586
 2710SOL    HW2 9030   0.897   3.804   3.523
 2711SOL     OW 9031   2.346   1.347   4.168
 2711SOL    HW1 9032   2.441   1.378   4.159
 2711SOL    HW2 9033   2.321   1.296   4.086
 2712SOL     OW 9034   3.054   4.228   0.977
 2712SOL    HW1 9035   2.975   4.288   0.972
 2712SOL    HW2 9036   3.038   4.146   0.922
 2713SOL     OW 9037   2.528   2.415   4.662
 2713SOL    HW1 9038   2.497   2.359   4.586
 2713SOL    HW2 9039   2.601   2.368   4.711
 2714SOL     OW 9040   4.158   2.266   0.503
 2714SOL    HW1 9041   4.068   2.306   0.521
 2714SOL    HW2 9042   4.229   2.325   0.539
 2715SOL     OW 9043   5.276   1.529   1.420
 2715SOL    HW1 9044   5.236   1.570   1.338
 2715SOL    HW2 9045   5.285   1.430   1.407
 2716SOL     OW 9046   5.321   4.290   2.715
 2716SOL    HW1 9047   5.339   4.288   2.813
 2716SOL    HW2 9048   5.357   4.375   2.676
 2717SOL     OW 9049   1.085   5.997   2.284
 2717SOL    HW1 9050   1.184   6.005   2.300
 2717SOL    HW2 9051   1.053   6.080   2.237
 2718SOL     OW 9052   2.315   2.062   5.459
 2718SOL    HW1 9053   2.273   2.152   5.471
 2718SOL    HW2 9054   2.337   2.023   5.548
 2719SOL     OW 9055   6.768   5.782   0.990
 2719SOL    HW1 9056   6.732   5.812   1.078
 2719SOL    HW2 9057   6.856   5.736   1.005
 2720SOL     OW 9058   2.091   6.145   2.162
 2720SOL    HW1 9059   2.094   6.173   2.258
 2720SOL    HW2 9060   2.028   6.068   2.152
 2721SOL     OW 9061   2.641   0.416   3.960
 2721SOL    HW1 9062   2.651   0.496   4.020
 2721SOL    HW2 9063   2.715   0.416   3.893
 2722SOL     OW 9064   6.637   5.392   1.584
 2722SOL    HW1 9065   6.712   5.381   1.519
 2722SOL    HW2 9066   6.589   5.478   1.564
 2723SOL     OW 9067   0.822   6.877   5.978
 2723SOL    HW1 9068   0.855   6.783   5.989
 2723SOL    HW2 9069   0.726   6.882   6.006
 2724SOL     OW 9070   2.042   6.756   6.795
 2724SOL    HW1 9071   1.989   6.836   6.765
 2724SOL    HW2 9072   2.137   6.766   6.767
 2725SOL     OW 9073   5.188   5.128   4.729
 2725SOL    HW1 9074   5.089   5.143   4.723
 2725SOL    HW2 9075   5.232   5.214   4.756
 2726SOL     OW 9076   6.912   2.517   1.292
 2726SOL    HW1 9077   6.861   2.586   1.344
 2726SOL    HW2 9078   6.847   2.461   1.240
 2727SOL     OW 9079   0.420   5.371   3.258
 2727SOL    HW1 9080   0.344   5.435   3.269
 2727SOL    HW2 9081   0.394   5.301   3.191
 2728SOL     OW 9082   4.303   6.432   5.677
 2728SOL    HW1 9083   4.380   6.404   5.735
 2728SOL    HW2 9084   4.222   6.446   5.733
 2729SOL     OW 9085   6.604   6.392   1.159
 2729SOL    HW1 9086   6.641   6.484   1.175
 2729SOL    HW2 9087   6.615   6.369   1.062
 2730SOL     OW 9088   1.656   5.603   1.592
 2730SOL    HW1 9089   1.742   5.601   1.542
 2730SOL    HW2 9090   1.663   5.668   1.668
 2731SOL     OW 9091   4.138   3.312   2.731
 2731SOL    HW1 9092   4.155   3.256   2.812
 2731SOL    HW2 9093   4.115   3.254   2.654
 2732SOL     OW 9094   5.451   1.976   1.835
 2732SOL    HW1 9095   5.492   1.902   1.781
 2732SOL    HW2 9096   5.521   2.018   1.893
 2733SOL     OW 9097   6.861   6.860   4.134
 2733SOL    HW1 9098   6.769   6.884   4.165
 2733SOL    HW2 9099   6.918   6.942   4.132
 2734SOL     OW 9100   2.386   6.531   1.861
 2734SOL    HW1 9101   2.465   6.592   1.853
 2734SOL    HW2 9102   2.311   6.567   1.806
 2735SOL     OW 9103   1.122   3.365   3.009
 2735SOL    HW1 9104   1.103   3.356   3.107
 2735SOL    HW2 9105   1.143   3.461   2.989
 2736SOL     OW 9106   4.680   6.688   5.178
 2736SOL    HW1 9107   4.772   6.679   5.216
 2736SOL    HW2 9108   4.671   6.777   5.133
 2737SOL     OW 9109   3.374   3.379   5.346
 2737SOL    HW1 9110   3.386   3.476   5.325
 2737SOL    HW2 9111   3.445   3.349   5.410
 2738SOL     OW 9112   5.244   5.490   2.774
 2738SOL    HW1 9113   5.290   5.468   2.860
 2738SOL    HW2 9114   5.275   5.579   2.741
 2739SOL     OW 9115   0.148   5.142   1.212
 2739SOL    HW1 9116   0.077   5.129   1.143
 2739SOL    HW2 9117   0.205   5.221   1.186
 2740SOL     OW 9118   6.635   3.801   2.609
 2740SOL    HW1 9119   6.595   3.791   2.701
 2740SOL    HW2 9120   6.634   3.897   2.583
 2741SOL     OW 9121   6.475   0.210   5.592
 2741SOL    HW1 9122   6.381   0.228   5.621
 2741SOL    HW2 9123   6.499   0.271   5.518
 2742SOL     OW 9124   1.863   5.381   6.464
 2742SOL    HW1 9125   1.926   5.421   6.530
 2742SOL    HW2 9126   1.783   5.440   6.454
 2743SOL     OW 9127   6.807   5.057   2.118
 2743SOL    HW1 9128   6.783   5.107   2.201
 2743SOL    HW2 9129   6.865   4.979   2.142
 2744SOL     OW 9130   5.183   1.666   6.434
 2744SOL    HW1 9131   5.103   1.718   6.465
 2744SOL    HW2 9132   5.266   1.719   6.452
 2745SOL     OW 9133   0.106   6.769   6.090
 2745SOL    HW1 9134   0.101   6.821   6.175
 2745SOL    HW2 9135   0.074   6.676   6.106
 2746SOL     OW 9136   2.527   2.086   4.274
 2746SOL    HW1 9137   2.514   1.996   4.316
 2746SOL    HW2 9138   2.460   2.098   4.201
 2747SOL     OW 9139   6.289   3.856   6.221
 2747SOL    HW1 9140   6.305   3.787   6.291
 2747SOL    HW2 9141   6.326   3.944   6.251
 2748SOL     OW 9142   5.560   1.480   1.204
 2748SOL    HW1 9143   5.597   1.573   1.197
 2748SOL    HW2 9144   5.625   1.421   1.252
 2749SOL     OW 9145   6.544   4.963   3.025
 2749SOL    HW1 9146   6.580   5.002   2.940
 2749SOL    HW2 9147   6.617   4.958   3.093
 2750SOL     OW 9148   0.483   5.345   1.354
 2750SOL    HW1 9149   0.457   5.309   1.264
 2750SOL    HW2 9150   0.419   5.416   1.382
 2751SOL     OW 9151   0.390   6.444   1.376
 2751SOL    HW1 9152   0.300   6.413   1.405
 2751SOL    HW2 9153   0.381   6.531   1.327
 2752SOL     OW 9154   4.271   4.728   5.897
 2752SOL    HW1 9155   4.243   4.744   5.803
 2752SOL    HW2 9156   4.248   4.634   5.924
 2753SOL     OW 9157   0.415   6.580   5.308
 2753SOL    HW1 9158   0.454   6.628   5.230
 2753SOL    HW2 9159   0.445   6.484   5.306
 2754SOL     OW 9160   0.253   0.829   2.919
 2754SOL    HW1 9161   0.184   0.828   2.991
 2754SOL    HW2 9162   0.323   0.897   2.940
 2755SOL     OW 9163   2.020   6.916   3.207
 2755SOL    HW1 9164   1.931   6.903   3.251
 2755SOL    HW2 9165   2.015   6.991   3.142
 2756SOL     OW 9166   5.982   4.369   6.281
 2756SOL    HW1 9167   5.929   4.334   6.358
 2756SOL    HW2 9168   6.017   4.460   6.303
 2757SOL     OW 9169   2.313   0.803   6.390
 2757SOL    HW1 9170   2.262   0.749   6.323
 2757SOL    HW2 9171   2.408   0.774   6.391
 2758SOL     OW 9172   4.966   6.045   3.106
 2758SOL    HW1 9173   4.870   6.073   3.110
 2758SOL    HW2 9174   5.004   6.044   3.199
 2759SOL     OW 9175   4.982   5.552   5.593
 2759SOL    HW1 9176   4.890   5.563   5.631
 2759SOL    HW2 9177   5.045   5.611   5.643
 2760SOL     OW 9178   0.195   6.050   2.795
 2760SOL    HW1 9179   0.254   6.128   2.774
 2760SOL    HW2 9180   0.176   6.048   2.893
 2761SOL     OW 9181   1.931   4.294   4.914
 2761SOL    HW1 9182   1.933   4.267   5.011
 2761SOL    HW2 9183   1.874   4.376   4.903
 2762SOL     OW 9184   2.157   0.645   6.211
 2762SOL    HW1 9185   2.179   0.583   6.136
 2762SOL    HW2 9186   2.062   0.677   6.201
 2763SOL     OW 9187   4.801   2.364   4.965
 2763SOL    HW1 9188   4.830   2.391   5.057
 2763SOL    HW2 9189   4.740   2.433   4.927
 2764SOL     OW 9190   6.900   1.117   1.607
 2764SOL    HW1 9191   6.852   1.035   1.577
 2764SOL    HW2 9192   6.951   1.098   1.691
 2765SOL     OW 9193   6.310   6.667   0.449
 2765SOL    HW1 9194   6.359   6.637   0.531
 2765SOL    HW2 9195   6.369   6.661   0.369
 2766SOL     OW 9196   4.649   2.757   0.321
 2766SOL    HW1 9197   4.591   2.686   0.280
 2766SOL    HW2 9198   4.724   2.713   0.372
 2767SOL     OW 9199   6.505   5.241   0.391
 2767SOL    HW1 9200   6.591   5.194   0.411
 2767SOL    HW2 9201   6.450   5.185   0.330
 2768SOL     OW 9202   4.593   0.491   1.274
 2768SOL    HW1 9203   4.676   0.467   1.324
 2768SOL    HW2 9204   4.618   0.534   1.188
 2769SOL     OW 9205   1.716   4.568   6.307
 2769SOL    HW1 9206   1.759   4.481   6.330
 2769SOL    HW2 9207   1.623   4.570   6.344
 2770SOL     OW 9208   4.446   5.336   5.869
 2770SOL    HW1 9209   4.480   5.244   5.885
 2770SOL    HW2 9210   4.369   5.354   5.931
 2771SOL     OW 9211   5.821   1.187   4.354
 2771SOL    HW1 9212   5.795   1.116   4.419
 2771SOL    HW2 9213   5.847   1.146   4.267
 2772SOL     OW 9214   3.748   1.442   0.845
 2772SOL    HW1 9215   3.827   1.464   0.903
 2772SOL    HW2 9216   3.699   1.525   0.822
 2773SOL     OW 9217   6.287   2.045   4.613
 2773SOL    HW1 9218   6.265   2.133   4.655
 2773SOL    HW2 9219   6.237   2.034   4.528
 2774SOL     OW 9220   5.107   2.684   3.490
 2774SOL    HW1 9221   5.060   2.770   3.507
 2774SOL    HW2 9222   5.203   2.692   3.517
 2775SOL     OW 9223   6.854   4.130   5.470
 2775SOL    HW1 9224   6.798   4.048   5.475
 2775SOL    HW2 9225   6.868   4.166   5.562
 2776SOL     OW 9226   4.797   4.097   5.911
 2776SOL    HW1 9227   4.766   4.133   5.823
 2776SOL    HW2 9228   4.743   4.138   5.984
 2777SOL     OW 9229   2.983   1.944   1.348
 2777SOL    HW1 9230   2.927   2.023   1.374
 2777SOL    HW2 9231   3.029   1.963   1.261
 2778SOL     OW 9232   1.910   6.987   5.721
 2778SOL    HW1 9233   1.855   6.911   5.755
 2778SOL    HW2 9234   1.974   7.017   5.792
 2779SOL     OW 9235   5.337   6.191   2.560
 2779SOL    HW1 9236   5.333   6.162   2.656
 2779SOL    HW2 9237   5.276   6.134   2.506
 2780SOL     OW 9238   0.551   6.876   6.105
 2780SOL    HW1 9239   0.560   6.796   6.165
 2780SOL    HW2 9240   0.483   6.857   6.034
 2781SOL     OW 9241   6.119   0.541   1.882
 2781SOL    HW1 9242   6.099   0.477   1.809
 2781SOL    HW2 9243   6.037   0.557   1.937
 2782SOL     OW 9244   4.466   1.083   4.964
 2782SOL    HW1 9245   4.468   1.075   5.064
 2782SOL    HW2 9246   4.396   1.022   4.928
 2783SOL     OW 9247   4.982   3.844   2.433
 2783SOL    HW1 9248   4.958   3.932   2.474
 2783SOL    HW2 9249   5.076   3.821   2.459
 2784SOL     OW 9250   3.695   1.276   2.260
 2784SOL    HW1 9251   3.630   1.252   2.332
 2784SOL    HW2 9252   3.732   1.367   2.279
 2785SOL     OW 9253   6.062   2.339   0.884
 2785SOL    HW1 9254   6.024   2.385   0.965
 2785SOL    HW2 9255   6.161   2.331   0.895
 2786SOL     OW 9256   5.276   6.827   2.300
 2786SOL    HW1 9257   5.234   6.874   2.378
 2786SOL    HW2 9258   5.274   6.728   2.317
 2787SOL     OW 9259   5.454   6.725   5.720
 2787SOL    HW1 9260   5.380   6.691   5.778
 2787SOL    HW2 9261   5.466   6.663   5.642
 2788SOL     OW 9262   2.326   6.257   5.886
 2788SOL    HW1 9263   2.361   6.345   5.920
 2788SOL    HW2 9264   2.374   6.233   5.802
 2789SOL     OW 9265   1.693   2.252   4.114
 2789SOL    HW1 9266   1.683   2.270   4.016
 2789SOL    HW2 9267   1.658   2.160   4.135
 2790SOL     OW 9268   3.423   5.905   1.749
 2790SOL    HW1 9269   3.343   5.898   1.808
 2790SOL    HW2 9270   3.490   5.836   1.775
 2791SOL     OW 9271   0.367   2.982   2.420
 2791SOL    HW1 9272   0.421   3.028   2.349
 2791SOL    HW2 9273   0.308   3.049   2.466
 2792SOL     OW 9274   2.063   0.467   3.956
 2792SOL    HW1 9275   2.062   0.426   3.864
 2792SOL    HW2 9276   2.150   0.514   3.970
 2793SOL     OW 9277   5.548   3.801   1.174
 2793SOL    HW1 9278   5.523   3.746   1.095
 2793SOL    HW2 9279   5.512   3.758   1.257
 2794SOL     OW 9280   6.667   1.924   6.534
 2794SOL    HW1 9281   6.588   1.935   6.595
 2794SOL    HW2 9282   6.698   1.829   6.537
 2795SOL     OW 9283   0.928   3.430   1.020
 2795SOL    HW1 9284   0.909   3.404   1.115
 2795SOL    HW2 9285   0.978   3.517   1.019
 2796SOL     OW 9286   0.407   6.347   3.323
 2796SOL    HW1 9287   0.498   6.377   3.352
 2796SOL    HW2 9288   0.393   6.371   3.227
 2797SOL     OW 9289   5.041   5.208   5.001
 2797SOL    HW1 9290   4.959   5.155   4.976
 2797SOL    HW2 9291   5.025   5.256   5.087
 2798SOL     OW 9292   6.506   5.262   2.501
 2798SOL    HW1 9293   6.453   5.230   2.579
 2798SOL    HW2 9294   6.503   5.194   2.428
 2799SOL     OW 9295   5.635   5.104   5.956
 2799SOL    HW1 9296   5.623   5.021   5.901
 2799SOL    HW2 9297   5.650   5.182   5.896
 2800SOL     OW 9298   4.584   6.413   6.128
 2800SOL    HW1 9299   4.645   6.486   6.161
 2800SOL    HW2 9300   4.491   6.430   6.161
 2801SOL     OW 9301   0.044   5.126   5.800
 2801SOL    HW1 9302   0.066   5.202   5.739
 2801SOL    HW2 9303   6.972   5.093   5.780
 2802SOL     OW 9304   5.419   6.466   5.497
 2802SOL    HW1 9305   5.363   6.384   5.484
 2802SOL    HW2 9306   5.483   6.451   5.573
 2803SOL     OW 9307   4.231   5.262   6.069
 2803SOL    HW1 9308   4.155   5.324   6.051
 2803SOL    HW2 9309   4.204   5.169   6.047
 2804SOL     OW 9310   1.049   4.417   5.284
 2804SOL    HW1 9311   1.001   4.431   5.371
 2804SOL    HW2 9312   0.982   4.418   5.210
 2805SOL     OW 9313   5.721   3.562   2.764
 2805SOL    HW1 9314   5.741   3.649   2.810
 2805SOL    HW2 9315   5.762   3.563   2.672
 2806SOL     OW 9316   1.692   4.019   6.024
 2806SOL    HW1 9317   1.772   3.970   5.990
 2806SOL    HW2 9318   1.634   3.957   6.077
 2807SOL     OW 9319   3.815   6.822   3.901
 2807SOL    HW1 9320   3.757   6.887   3.949
 2807SOL    HW2 9321   3.875   6.872   3.837
 2808SOL     OW 9322   6.304   5.492   2.068
 2808SOL    HW1 9323   6.377   5.426   2.088
 2808SOL    HW2 9324   6.256   5.515   2.152
 2809SOL     OW 9325   5.298   2.615   0.810
 2809SOL    HW1 9326   5.283   2.680   0.735
 2809SOL    HW2 9327   5.349   2.660   0.883
 2810SOL     OW 9328   2.361   5.680   2.921
 2810SOL    HW1 9329   2.387   5.595   2.875
 2810SOL    HW2 9330   2.274   5.713   2.883
 2811SOL     OW 9331   1.621   1.905   3.993
 2811SOL    HW1 9332   1.619   1.949   4.083
 2811SOL    HW2 9333   1.545   1.841   3.986
 2812SOL     OW 9334   5.730   3.259   0.220
 2812SOL    HW1 9335   5.820   3.216   0.213
 2812SOL    HW2 9336   5.660   3.195   0.189
 2813SOL     OW 9337   0.796   0.492   6.397
 2813SOL    HW1 9338   0.719   0.453   6.447
 2813SOL    HW2 9339   0.762   0.554   6.326
 2814SOL     OW 9340   3.598   4.358   5.392
 2814SOL    HW1 9341   3.584   4.342   5.294
 2814SOL    HW2 9342   3.529   4.423   5.424
 2815SOL     OW 9343   6.821   5.519   6.173
 2815SOL    HW1 9344   6.838   5.452   6.101
 2815SOL    HW2 9345   6.768   5.477   6.246
 2816SOL     OW 9346   6.671   5.661   3.594
 2816SOL    HW1 9347   6.681   5.576   3.542
 2816SOL    HW2 9348   6.576   5.693   3.588
 2817SOL     OW 9349   2.971   0.356   1.752
 2817SOL    HW1 9350   2.881   0.363   1.709
 2817SOL    HW2 9351   2.992   0.441   1.800
 2818SOL     OW 9352   0.269   0.667   2.486
 2818SOL    HW1 9353   0.261   0.721   2.403
 2818SOL    HW2 9354   0.203   0.700   2.554
 2819SOL     OW 9355   2.384   0.530   1.618
 2819SOL    HW1 9356   2.295   0.525   1.663
 2819SOL    HW2 9357   2.373   0.516   1.519
 2820SOL     OW 9358   1.300   2.256   3.695
 2820SOL    HW1 9359   1.208   2.269   3.731
 2820SOL    HW2 9360   1.296   2.215   3.604
 2821SOL     OW 9361   3.928   4.968   5.971
 2821SOL    HW1 9362   3.879   5.029   5.908
 2821SOL    HW2 9363   4.011   4.934   5.926
 2822SOL     OW 9364   4.066   1.658   6.964
 2822SOL    HW1 9365   3.980   1.695   6.999
 2822SOL    HW2 9366   4.115   1.613   0.019
 2823SOL     OW 9367   5.198   1.006   0.958
 2823SOL    HW1 9368   5.221   0.995   1.054
 2823SOL    HW2 9369   5.281   1.007   0.903
 2824SOL     OW 9370   2.153   1.941   4.611
 2824SOL    HW1 9371   2.073   1.992   4.581
 2824SOL    HW2 9372   2.162   1.858   4.556
 2825SOL     OW 9373   5.076   6.245   6.521
 2825SOL    HW1 9374   5.022   6.317   6.477
 2825SOL    HW2 9375   5.101   6.177   6.453
 2826SOL     OW 9376   4.623   2.103   0.069
 2826SOL    HW1 9377   4.624   2.098   6.989
 2826SOL    HW2 9378   4.692   2.169   0.100
 2827SOL     OW 9379   0.410   1.055   6.386
 2827SOL    HW1 9380   0.491   1.047   6.443
 2827SOL    HW2 9381   0.437   1.081   6.293
 2828SOL     OW 9382   2.397   2.348   0.549
 2828SOL    HW1 9383   2.491   2.318   0.531
 2828SOL    HW2 9384   2.334   2.297   0.490
 2829SOL     OW 9385   3.528   2.843   3.488
 2829SOL    HW1 9386   3.547   2.906   3.564
 2829SOL    HW2 9387   3.612   2.794   3.464
 2830SOL     OW 9388   2.907   3.739   5.129
 2830SOL    HW1 9389   2.811   3.765   5.133
 2830SOL    HW2 9390   2.919   3.649   5.173
 2831SOL     OW 9391   0.614   3.281   2.996
 2831SOL    HW1 9392   0.542   3.347   2.971
 2831SOL    HW2 9393   0.600   3.197   2.945
 2832SOL     OW 9394   0.631   2.842   2.078
 2832SOL    HW1 9395   0.543   2.823   2.034
 2832SOL    HW2 9396   0.654   2.938   2.066
 2833SOL     OW 9397   2.906   1.598   2.509
 2833SOL    HW1 9398   2.893   1.542   2.427
 2833SOL    HW2 9399   2.871   1.548   2.588
 2834SOL     OW 9400   3.942   6.201   5.698
 2834SOL    HW1 9401   3.870   6.246   5.646
 2834SOL    HW2 9402   3.909   6.112   5.731
 2835SOL     OW 9403   0.498   6.642   1.220
 2835SOL    HW1 9404   0.477   6.736   1.246
 2835SOL    HW2 9405   0.591   6.637   1.184
 2836SOL     OW 9406   0.705   6.675   1.818
 2836SOL    HW1 9407   0.674   6.731   1.895
 2836SOL    HW2 9408   0.631   6.667   1.751
 2837SOL     OW 9409   4.806   4.371   2.537
 2837SOL    HW1 9410   4.887   4.368   2.595
 2837SOL    HW2 9411   4.834   4.363   2.441
 2838SOL     OW 9412   3.930   3.820   0.843
 2838SOL    HW1 9413   3.838   3.820   0.802
 2838SOL    HW2 9414   3.929   3.873   0.928
 2839SOL     OW 9415   6.862   2.192   3.242
 2839SOL    HW1 9416   6.910   2.177   3.156
 2839SOL    HW2 9417   6.797   2.117   3.257
 2840SOL     OW 9418   2.041   0.304   1.957
 2840SOL    HW1 9419   2.098   0.239   2.008
 2840SOL    HW2 9420   1.947   0.269   1.953
 2841SOL     OW 9421   6.148   2.147   6.369
 2841SOL    HW1 9422   6.163   2.095   6.285
 2841SOL    HW2 9423   6.070   2.209   6.356
 2842SOL     OW 9424   0.264   5.061   4.004
 2842SOL    HW1 9425   0.328   5.122   4.051
 2842SOL    HW2 9426   0.301   5.036   3.915
 2843SOL     OW 9427   2.602   2.459   3.049
 2843SOL    HW1 9428   2.661   2.410   3.113
 2843SOL    HW2 9429   2.532   2.508   3.100
 2844SOL     OW 9430   6.480   5.450   0.195
 2844SOL    HW1 9431   6.383   5.439   0.173
 2844SOL    HW2 9432   6.504   5.392   0.273
 2845SOL     OW 9433   5.673   3.363   1.950
 2845SOL    HW1 9434   5.631   3.375   2.040
 2845SOL    HW2 9435   5.606   3.327   1.886
 2846SOL     OW 9436   4.394   0.294   0.545
 2846SOL    HW1 9437   4.302   0.322   0.572
 2846SOL    HW2 9438   4.402   0.299   0.445
 2847SOL     OW 9439   5.447   3.827   2.859
 2847SOL    HW1 9440   5.425   3.732   2.879
 2847SOL    HW2 9441   5.392   3.859   2.782
 2848SOL     OW 9442   2.368   2.323   5.049
 2848SOL    HW1 9443   2.285   2.290   5.095
 2848SOL    HW2 9444   2.353   2.416   5.016
 2849SOL     OW 9445   3.901   0.406   0.772
 2849SOL    HW1 9446   3.804   0.381   0.771
 2849SOL    HW2 9447   3.930   0.420   0.867
 2850SOL     OW 9448   1.887   0.271   2.737
 2850SOL    HW1 9449   1.925   0.363   2.749
 2850SOL    HW2 9450   1.792   0.278   2.708
 2851SOL     OW 9451   5.726   2.090   6.371
 2851SOL    HW1 9452   5.674   2.094   6.456
 2851SOL    HW2 9453   5.795   2.162   6.371
 2852SOL     OW 9454   6.789   4.284   6.850
 2852SOL    HW1 9455   6.709   4.299   6.909
 2852SOL    HW2 9456   6.856   4.228   6.899
 2853SOL     OW 9457   1.862   2.306   5.958
 2853SOL    HW1 9458   1.873   2.391   5.906
 2853SOL    HW2 9459   1.940   2.246   5.941
 2854SOL     OW 9460   4.175   1.181   5.912
 2854SOL    HW1 9461   4.109   1.160   5.840
 2854SOL    HW2 9462   4.259   1.128   5.896
 2855SOL     OW 9463   1.996   1.559   5.566
 2855SOL    HW1 9464   2.058   1.618   5.616
 2855SOL    HW2 9465   1.974   1.601   5.478
 2856SOL     OW 9466   0.672   3.515   5.064
 2856SOL    HW1 9467   0.693   3.564   5.149
 2856SOL    HW2 9468   0.595   3.559   5.019
 2857SOL     OW 9469   0.790   2.483   1.061
 2857SOL    HW1 9470   0.820   2.540   0.985
 2857SOL    HW2 9471   0.691   2.472   1.058
 2858SOL     OW 9472   4.261   5.156   2.450
 2858SOL    HW1 9473   4.183   5.134   2.392
 2858SOL    HW2 9474   4.229   5.173   2.543
 2859SOL     OW 9475   6.763   0.113   6.482
 2859SOL    HW1 9476   6.776   0.169   6.564
 2859SOL    HW2 9477   6.691   0.153   6.425
 2860SOL     OW 9478   2.129   1.381   2.331
 2860SOL    HW1 9479   2.107   1.450   2.262
 2860SOL    HW2 9480   2.227   1.378   2.346
 2861SOL     OW 9481   2.753   5.598   5.113
 2861SOL    HW1 9482   2.838   5.552   5.086
 2861SOL    HW2 9483   2.694   5.611   5.033
 2862SOL     OW 9484   4.581   1.892   1.410
 2862SOL    HW1 9485   4.528   1.814   1.443
 2862SOL    HW2 9486   4.557   1.910   1.314
 2863SOL     OW 9487   4.701   1.450   6.610
 2863SOL    HW1 9488   4.631   1.453   6.539
 2863SOL    HW2 9489   4.685   1.371   6.669
 2864SOL     OW 9490   5.056   2.159   1.014
 2864SOL    HW1 9491   5.065   2.255   0.989
 2864SOL    HW2 9492   5.043   2.151   1.113
 2865SOL     OW 9493   4.358   6.269   4.113
 2865SOL    HW1 9494   4.354   6.178   4.071
 2865SOL    HW2 9495   4.284   6.279   4.179
 2866SOL     OW 9496   5.705   4.850   6.461
 2866SOL    HW1 9497   5.741   4.845   6.368
 2866SOL    HW2 9498   5.779   4.834   6.526
 2867SOL     OW 9499   6.407   6.049   2.909
 2867SOL    HW1 9500   6.323   6.020   2.862
 2867SOL    HW2 9501   6.486   6.009   2.862
 2868SOL     OW 9502   1.731   1.127   5.877
 2868SOL    HW1 9503   1.691   1.066   5.809
 2868SOL    HW2 9504   1.792   1.192   5.831
 2869SOL     OW 9505   6.739   1.206   2.787
 2869SOL    HW1 9506   6.784   1.211   2.698
 2869SOL    HW2 9507   6.789   1.142   2.846
 2870SOL     OW 9508   0.727   1.464   5.512
 2870SOL    HW1 9509   0.721   1.556   5.551
 2870SOL    HW2 9510   0.771   1.403   5.578
 2871SOL     OW 9511   5.719   0.801   7.011
 2871SOL    HW1 9512   5.663   0.723   0.021
 2871SOL    HW2 9513   5.785   0.824   0.063
 2872SOL     OW 9514   2.502   2.310   1.525
 2872SOL    HW1 9515   2.565   2.272   1.458
 2872SOL    HW2 9516   2.514   2.263   1.613
 2873SOL     OW 9517   6.336   6.603   2.210
 2873SOL    HW1 9518   6.252   6.581   2.160
 2873SOL    HW2 9519   6.389   6.670   2.159
 2874SOL     OW 9520   4.236   6.320   2.482
 2874SOL    HW1 9521   4.326   6.287   2.511
 2874SOL    HW2 9522   4.169   6.302   2.554
 2875SOL     OW 9523   5.600   6.992   0.972
 2875SOL    HW1 9524   5.611   6.893   0.983
 2875SOL    HW2 9525   5.528   7.010   0.905
 2876SOL     OW 9526   1.964   0.532   2.709
 2876SOL    HW1 9527   1.966   0.550   2.807
 2876SOL    HW2 9528   1.942   0.617   2.660
 2877SOL     OW 9529   2.791   1.377   5.490
 2877SOL    HW1 9530   2.854   1.440   5.446
 2877SOL    HW2 9531   2.787   1.397   5.588
 2878SOL     OW 9532   3.018   4.147   5.497
 2878SOL    HW1 9533   3.038   4.090   5.418
 2878SOL    HW2 9534   3.013   4.243   5.469
 2879SOL     OW 9535   5.073   5.404   6.139
 2879SOL    HW1 9536   5.134   5.330   6.108
 2879SOL    HW2 9537   5.033   5.379   6.227
 2880SOL     OW 9538   0.229   2.116   2.865
 2880SOL    HW1 9539   0.204   2.047   2.797
 2880SOL    HW2 9540   0.306   2.083   2.918
 2881SOL     OW 9541   4.191   5.995   0.061
 2881SOL    HW1 9542   4.130   5.919   0.083
 2881SOL    HW2 9543   4.146   6.056   7.016
 2882SOL     OW 9544   6.945   5.633   1.734
 2882SOL    HW1 9545   6.907   5.653   1.643
 2882SOL    HW2 9546   6.872   5.599   1.793
 2883SOL     OW 9547   5.907   0.081   3.947
 2883SOL    HW1 9548   5.918   7.005   3.917
 2883SOL    HW2 9549   5.981   0.136   3.907
 2884SOL     OW 9550   0.890   6.881   3.092
 2884SOL    HW1 9551   0.796   6.858   3.067
 2884SOL    HW2 9552   0.926   6.813   3.156
 2885SOL     OW 9553   1.597   3.312   3.809
 2885SOL    HW1 9554   1.564   3.277   3.722
 2885SOL    HW2 9555   1.602   3.238   3.875
 2886SOL     OW 9556   1.776   3.203   6.421
 2886SOL    HW1 9557   1.752   3.255   6.339
 2886SOL    HW2 9558   1.845   3.134   6.397
 2887SOL     OW 9559   0.848   6.767   5.256
 2887SOL    HW1 9560   0.884   6.832   5.323
 2887SOL    HW2 9561   0.753   6.745   5.279
 2888SOL     OW 9562   0.117   3.991   6.723
 2888SOL    HW1 9563   0.043   3.961   6.783
 2888SOL    HW2 9564   0.196   3.932   6.734
 2889SOL     OW 9565   3.025   6.179   2.348
 2889SOL    HW1 9566   3.091   6.171   2.273
 2889SOL    HW2 9567   2.968   6.097   2.350
 2890SOL     OW 9568   1.686   6.297   0.379
 2890SOL    HW1 9569   1.765   6.241   0.403
 2890SOL    HW2 9570   1.670   6.365   0.451
 2891SOL     OW 9571   0.550   4.664   3.412
 2891SOL    HW1 9572   0.560   4.576   3.365
 2891SOL    HW2 9573   0.641   4.699   3.435
 2892SOL     OW 9574   6.705   2.852   0.792
 2892SOL    HW1 9575   6.650   2.871   0.711
 2892SOL    HW2 9576   6.802   2.846   0.766
 2893SOL     OW 9577   0.934   5.402   4.206
 2893SOL    HW1 9578   0.847   5.437   4.171
 2893SOL    HW2 9579   1.008   5.426   4.142
 2894SOL     OW 9580   6.924   3.028   2.227
 2894SOL    HW1 9581   6.869   2.997   2.304
 2894SOL    HW2 9582   7.019   3.000   2.240
 2895SOL     OW 9583   4.988   0.911   5.266
 2895SOL    HW1 9584   4.928   0.963   5.327
 2895SOL    HW2 9585   5.002   0.819   5.304
 2896SOL     OW 9586   4.314   6.702   5.420
 2896SOL    HW1 9587   4.331   6.720   5.517
 2896SOL    HW2 9588   4.390   6.651   5.381
 2897SOL     OW 9589   4.015   4.892   2.654
 2897SOL    HW1 9590   4.066   4.851   2.579
 2897SOL    HW2 9591   3.958   4.967   2.619
 2898SOL     OW 9592   4.569   4.600   4.559
 2898SOL    HW1 9593   4.621   4.681   4.530
 2898SOL    HW2 9594   4.484   4.595   4.507
 2899SOL     OW 9595   0.641   1.668   0.662
 2899SOL    HW1 9596   0.599   1.582   0.689
 2899SOL    HW2 9597   0.696   1.654   0.580
 2900SOL     OW 9598   2.829   4.496   6.799
 2900SOL    HW1 9599   2.894   4.559   6.757
 2900SOL    HW2 9600   2.865   4.402   6.791
 2901SOL     OW 9601   2.450   4.830   3.122
 2901SOL    HW1 9602   2.371   4.830   3.183
 2901SOL    HW2 9603   2.531   4.863   3.172
 2902SOL     OW 9604   5.926   5.238   3.337
 2902SOL    HW1 9605   6.024   5.240   3.317
 2902SOL    HW2 9606   5.911   5.192   3.425
 2903SOL     OW 9607   4.631   6.702   0.557
 2903SOL    HW1 9608   4.598   6.660   0.473
 2903SOL    HW2 9609   4.726   6.674   0.574
 2904SOL     OW 9610   2.560   4.877   4.551
 2904SOL    HW1 9611   2.547   4.918   4.461
 2904SOL    HW2 9612   2.480   4.822   4.574
 2905SOL     OW 9613   1.437   3.698   4.280
 2905SOL    HW1 9614   1.387   3.783   4.264
 2905SOL    HW2 9615   1.533   3.711   4.256
 2906SOL     OW 9616   4.602   4.710   2.596
 2906SOL    HW1 9617   4.609   4.612   2.581
 2906SOL    HW2 9618   4.505   4.737   2.601
 2907SOL     OW 9619   0.466   1.912   3.743
 2907SOL    HW1 9620   0.432   1.821   3.719
 2907SOL    HW2 9621   0.456   1.972   3.664
 2908SOL     OW 9622   5.370   6.518   3.573
 2908SOL    HW1 9623   5.433   6.455   3.618
 2908SOL    HW2 9624   5.402   6.537   3.481
 2909SOL     OW 9625   1.682   5.977   3.584
 2909SOL    HW1 9626   1.755   5.991   3.516
 2909SOL    HW2 9627   1.595   5.966   3.537
 2910SOL     OW 9628   5.479   0.736   4.431
 2910SOL    HW1 9629   5.431   0.715   4.517
 2910SOL    HW2 9630   5.576   0.753   4.451
 2911SOL     OW 9631   1.615   6.170   3.078
 2911SOL    HW1 9632   1.657   6.161   3.168
 2911SOL    HW2 9633   1.642   6.257   3.037
 2912SOL     OW 9634   5.896   6.481   0.436
 2912SOL    HW1 9635   5.852   6.423   0.367
 2912SOL    HW2 9636   5.932   6.563   0.392
 2913SOL     OW 9637   3.814   4.925   1.881
 2913SOL    HW1 9638   3.799   4.943   1.784
 2913SOL    HW2 9639   3.754   4.850   1.911
 2914SOL     OW 9640   6.826   6.083   6.539
 2914SOL    HW1 9641   6.877   6.014   6.591
 2914SOL    HW2 9642   6.816   6.052   6.444
 2915SOL     OW 9643   3.220   2.083   3.703
 2915SOL    HW1 9644   3.150   2.139   3.659
 2915SOL    HW2 9645   3.277   2.040   3.632
 2916SOL     OW 9646   1.201   5.721   0.419
 2916SOL    HW1 9647   1.274   5.680   0.365
 2916SOL    HW2 9648   1.165   5.654   0.484
 2917SOL     OW 9649   2.560   0.044   3.498
 2917SOL    HW1 9650   2.499   0.050   3.577
 2917SOL    HW2 9651   2.624   0.121   3.500
 2918SOL     OW 9652   6.436   4.245   5.092
 2918SOL    HW1 9653   6.397   4.234   5.184
 2918SOL    HW2 9654   6.367   4.282   5.031
 2919SOL     OW 9655   5.732   0.388   2.299
 2919SOL    HW1 9656   5.696   0.469   2.345
 2919SOL    HW2 9657   5.829   0.402   2.279
 2920SOL     OW 9658   3.079   1.164   1.144
 2920SOL    HW1 9659   3.157   1.135   1.089
 2920SOL    HW2 9660   3.071   1.264   1.140
 2921SOL     OW 9661   0.462   6.536   4.769
 2921SOL    HW1 9662   0.379   6.484   4.752
 2921SOL    HW2 9663   0.509   6.553   4.682
 2922SOL     OW 9664   4.823   6.854   1.385
 2922SOL    HW1 9665   4.870   6.883   1.469
 2922SOL    HW2 9666   4.864   6.900   1.307
 2923SOL     OW 9667   6.106   5.275   3.071
 2923SOL    HW1 9668   6.020   5.282   3.021
 2923SOL    HW2 9669   6.095   5.211   3.147
 2924SOL     OW 9670   6.713   2.362   5.763
 2924SOL    HW1 9671   6.714   2.421   5.682
 2924SOL    HW2 9672   6.663   2.407   5.837
 2925SOL     OW 9673   5.654   2.166   0.568
 2925SOL    HW1 9674   5.596   2.236   0.526
 2925SOL    HW2 9675   5.624   2.149   0.662
 2926SOL     OW 9676   6.002   1.648   6.421
 2926SOL    HW1 9677   5.975   1.744   6.413
 2926SOL    HW2 9678   5.922   1.593   6.445
 2927SOL     OW 9679   1.504   4.015   1.363
 2927SOL    HW1 9680   1.482   4.097   1.415
 2927SOL    HW2 9681   1.420   3.969   1.335
 2928SOL     OW 9682   0.501   0.529   6.727
 2928SOL    HW1 9683   0.449   0.596   6.675
 2928SOL    HW2 9684   0.439   0.466   6.773
 2929SOL     OW 9685   1.273   2.486   6.277
 2929SOL    HW1 9686   1.240   2.564   6.225
 2929SOL    HW2 9687   1.205   2.413   6.276
 2930SOL     OW 9688   5.141   6.828   5.608
 2930SOL    HW1 9689   5.098   6.817   5.697
 2930SOL    HW2 9690   5.199   6.910   5.609
 2931SOL     OW 9691   5.271   4.891   0.081
 2931SOL    HW1 9692   5.325   4.810   0.104
 2931SOL    HW2 9693   5.189   4.893   0.138
 2932SOL     OW 9694   1.065   6.092   1.951
 2932SOL    HW1 9695   1.040   6.179   1.908
 2932SOL    HW2 9696   1.002   6.075   2.027
 2933SOL     OW 9697   1.536   5.601   2.422
 2933SOL    HW1 9698   1.521   5.698   2.443
 2933SOL    HW2 9699   1.551   5.591   2.323
 2934SOL     OW 9700   5.011   1.655   6.780
 2934SOL    HW1 9701   5.102   1.693   6.800
 2934SOL    HW2 9702   5.006   1.562   6.816
 2935SOL     OW 9703   6.932   2.394   6.348
 2935SOL    HW1 9704   6.833   2.385   6.356
 2935SOL    HW2 9705   6.976   2.355   6.429
 2936SOL     OW 9706   4.741   6.340   0.271
 2936SOL    HW1 9707   4.716   6.306   0.362
 2936SOL    HW2 9708   4.799   6.272   0.225
 2937SOL     OW 9709   5.657   4.671   1.722
 2937SOL    HW1 9710   5.585   4.708   1.779
 2937SOL    HW2 9711   5.746   4.685   1.766
 2938SOL     OW 9712   4.926   5.157   6.554
 2938SOL    HW1 9713   4.951   5.117   6.642
 2938SOL    HW2 9714   4.896   5.084   6.492
 2939SOL     OW 9715   2.465   0.693   2.322
 2939SOL    HW1 9716   2.393   0.730   2.263
 2939SOL    HW2 9717   2.515   0.622   2.274
 2940SOL     OW 9718   5.734   4.882   5.577
 2940SOL    HW1 9719   5.754   4.980   5.582
 2940SOL    HW2 9720   5.635   4.869   5.570
 2941SOL     OW 9721   1.823   2.547   4.432
 2941SOL    HW1 9722   1.795   2.627   4.380
 2941SOL    HW2 9723   1.742   2.502   4.469
 2942SOL     OW 9724   4.003   2.032   0.428
 2942SOL    HW1 9725   4.080   2.087   0.397
 2942SOL    HW2 9726   4.033   1.936   0.436
 2943SOL     OW 9727   5.570   4.021   3.908
 2943SOL    HW1 9728   5.637   4.095   3.911
 2943SOL    HW2 9729   5.545   3.995   4.001
 2944SOL     OW 9730   2.807   6.136   4.506
 2944SOL    HW1 9731   2.894   6.184   4.488
 2944SOL    HW2 9732   2.805   6.052   4.452
 2945SOL     OW 9733   3.382   3.673   2.535
 2945SOL    HW1 9734   3.330   3.616   2.599
 2945SOL    HW2 9735   3.320   3.732   2.484
 2946SOL     OW 9736   1.406   4.971   5.993
 2946SOL    HW1 9737   1.392   4.978   6.092
 2946SOL    HW2 9738   1.504   4.968   5.973
 2947SOL     OW 9739   0.069   4.996   1.451
 2947SOL    HW1 9740   0.088   5.051   1.370
 2947SOL    HW2 9741   0.083   4.899   1.429
 2948SOL     OW 9742   0.386   3.964   4.196
 2948SOL    HW1 9743   0.477   3.937   4.164
 2948SOL    HW2 9744   0.372   3.932   4.290
 2949SOL     OW 9745   1.487   5.326   0.857
 2949SOL    HW1 9746   1.579   5.364   0.849
 2949SOL    HW2 9747   1.429   5.363   0.784
 2950SOL     OW 9748   5.422   5.401   4.553
 2950SOL    HW1 9749   5.331   5.415   4.592
 2950SOL    HW2 9750   5.446   5.304   4.557
 2951SOL     OW 9751   5.134   1.602   2.424
 2951SOL    HW1 9752   5.160   1.552   2.507
 2951SOL    HW2 9753   5.101   1.538   2.355
 2952SOL     OW 9754   0.204   5.150   5.193
 2952SOL    HW1 9755   0.203   5.152   5.093
 2952SOL    HW2 9756   0.199   5.243   5.228
 2953SOL     OW 9757   5.994   4.087   2.259
 2953SOL    HW1 9758   6.092   4.074   2.271
 2953SOL    HW2 9759   5.975   4.123   2.168
 2954SOL     OW 9760   1.107   5.233   1.883
 2954SOL    HW1 9761   1.133   5.183   1.966
 2954SOL    HW2 9762   1.038   5.180   1.833
 2955SOL     OW 9763   0.789   3.940   1.629
 2955SOL    HW1 9764   0.726   3.944   1.552
 2955SOL    HW2 9765   0.737   3.921   1.713
 2956SOL     OW 9766   5.827   6.213   2.823
 2956SOL    HW1 9767   5.729   6.227   2.809
 2956SOL    HW2 9768   5.841   6.148   2.897
 2957SOL     OW 9769   5.209   4.307   1.558
 2957SOL    HW1 9770   5.262   4.388   1.532
 2957SOL    HW2 9771   5.186   4.312   1.655
 2958SOL     OW 9772   2.269   4.127   3.479
 2958SOL    HW1 9773   2.257   4.205   3.417
 2958SOL    HW2 9774   2.292   4.046   3.425
 2959SOL     OW 9775   5.080   3.893   0.794
 2959SOL    HW1 9776   5.007   3.851   0.740
 2959SOL    HW2 9777   5.106   3.830   0.868
 2960SOL     OW 9778   3.134   0.718   0.500
 2960SOL    HW1 9779   3.109   0.752   0.410
 2960SOL    HW2 9780   3.113   0.620   0.506
 2961SOL     OW 9781   6.033   4.759   3.206
 2961SOL    HW1 9782   5.949   4.800   3.169
 2961SOL    HW2 9783   6.112   4.809   3.171
 2962SOL     OW 9784   4.452   6.815   3.218
 2962SOL    HW1 9785   4.540   6.777   3.192
 2962SOL    HW2 9786   4.396   6.743   3.262
 2963SOL     OW 9787   1.407   1.051   6.088
 2963SOL    HW1 9788   1.434   1.081   5.997
 2963SOL    HW2 9789   1.399   1.131   6.148
 2964SOL     OW 9790   0.234   1.123   5.201
 2964SOL    HW1 9791   0.148   1.158   5.165
 2964SOL    HW2 9792   0.303   1.124   5.128
 2965SOL     OW 9793   0.556   0.869   4.370
 2965SOL    HW1 9794   0.523   0.781   4.338
 2965SOL    HW2 9795   0.645   0.888   4.330
 2966SOL     OW 9796   4.411   4.598   3.684
 2966SOL    HW1 9797   4.506   4.630   3.685
 2966SOL    HW2 9798   4.380   4.588   3.590
 2967SOL     OW 9799   6.329   1.000   4.897
 2967SOL    HW1 9800   6.244   1.052   4.904
 2967SOL    HW2 9801   6.406   1.058   4.923
 2968SOL     OW 9802   1.165   2.906   0.614
 2968SOL    HW1 9803   1.123   2.949   0.694
 2968SOL    HW2 9804   1.094   2.878   0.549
 2969SOL     OW 9805   5.311   2.900   4.655
 2969SOL    HW1 9806   5.271   2.876   4.567
 2969SOL    HW2 9807   5.262   2.977   4.695
 2970SOL     OW 9808   2.574   2.511   5.241
 2970SOL    HW1 9809   2.552   2.469   5.153
 2970SOL    HW2 9810   2.530   2.600   5.248
 2971SOL     OW 9811   5.168   3.985   0.121
 2971SOL    HW1 9812   5.116   4.026   0.046
 2971SOL    HW2 9813   5.107   3.932   0.179
 2972SOL     OW 9814   0.146   4.722   6.299
 2972SOL    HW1 9815   0.216   4.793   6.292
 2972SOL    HW2 9816   0.184   4.634   6.272
 2973SOL     OW 9817   5.150   6.074   1.771
 2973SOL    HW1 9818   5.229   6.129   1.796
 2973SOL    HW2 9819   5.069   6.110   1.817
 2974SOL     OW 9820   0.730   4.566   3.751
 2974SOL    HW1 9821   0.664   4.502   3.792
 2974SOL    HW2 9822   0.719   4.566   3.652
 2975SOL     OW 9823   5.207   3.563   4.096
 2975SOL    HW1 9824   5.219   3.498   4.020
 2975SOL    HW2 9825   5.109   3.585   4.106
 2976SOL     OW 9826   4.054   2.184   3.002
 2976SOL    HW1 9827   4.139   2.231   3.024
 2976SOL    HW2 9828   3.989   2.195   3.078
 2977SOL     OW 9829   1.686   0.373   2.459
 2977SOL    HW1 9830   1.709   0.279   2.483
 2977SOL    HW2 9831   1.733   0.399   2.375
 2978SOL     OW 9832   4.098   5.089   7.009
 2978SOL    HW1 9833   4.087   4.999   6.967
 2978SOL    HW2 9834   4.130   5.079   0.083
 2979SOL     OW 9835   3.789   1.362   3.563
 2979SOL    HW1 9836   3.707   1.417   3.581
 2979SOL    HW2 9837   3.821   1.321   3.648
 2980SOL     OW 9838   1.342   5.228   5.063
 2980SOL    HW1 9839   1.430   5.182   5.053
 2980SOL    HW2 9840   1.355   5.318   5.103
 2981SOL     OW 9841   2.980   1.203   6.394
 2981SOL    HW1 9842   3.021   1.251   6.472
 2981SOL    HW2 9843   2.977   1.264   6.315
 2982SOL     OW 9844   3.013   5.884   1.768
 2982SOL    HW1 9845   2.927   5.919   1.805
 2982SOL    HW2 9846   3.084   5.889   1.839
 2983SOL     OW 9847   6.245   2.349   2.924
 2983SOL    HW1 9848   6.151   2.379   2.907
 2983SOL    HW2 9849   6.273   2.377   3.015
 2984SOL     OW 9850   6.189   4.443   6.990
 2984SOL    HW1 9851   6.120   4.377   6.961
 2984SOL    HW2 9852   6.144   4.528   7.018
 2985SOL     OW 9853   2.047   2.770   4.697
 2985SOL    HW1 9854   2.016   2.843   4.759
 2985SOL    HW2 9855   1.985   2.692   4.704
 2986SOL     OW 9856   3.561   4.161   3.192
 2986SOL    HW1 9857   3.512   4.175   3.278
 2986SOL    HW2 9858   3.651   4.205   3.198
 2987SOL     OW 9859   1.057   1.803   4.195
 2987SOL    HW1 9860   1.154   1.780   4.208
 2987SOL    HW2 9861   1.009   1.723   4.160
 2988SOL     OW 9862   1.817   6.367   2.854
 2988SOL    HW1 9863   1.890   6.307   2.889
 2988SOL    HW2 9864   1.857   6.445   2.807
 2989SOL     OW 9865   5.394   5.547   5.633
 2989SOL    HW1 9866   5.411   5.640   5.667
 2989SOL    HW2 9867   5.358   5.491   5.707
 2990SOL     OW 9868   3.633   1.882   4.628
 2990SOL    HW1 9869   3.605   1.973   4.599
 2990SOL    HW2 9870   3.694   1.842   4.560
 2991SOL     OW 9871   6.466   3.564   5.582
 2991SOL    HW1 9872   6.375   3.570   5.624
 2991SOL    HW2 9873   6.528   3.628   5.628
 2992SOL     OW 9874   1.489   5.169   4.591
 2992SOL    HW1 9875   1.548   5.202   4.518
 2992SOL    HW2 9876   1.477   5.239   4.660
 2993SOL     OW 9877   0.502   5.062   1.241
 2993SOL    HW1 9878   0.584   5.113   1.213
 2993SOL    HW2 9879   0.432   5.071   1.171
 2994SOL     OW 9880   3.947   6.655   6.935
 2994SOL    HW1 9881   3.978   6.601   6.857
 2994SOL    HW2 9882   3.872   6.715   6.907
 2995SOL     OW 9883   3.177   1.321   6.576
 2995SOL    HW1 9884   3.209   1.414   6.596
 2995SOL    HW2 9885   3.171   1.268   6.661
 2996SOL     OW 9886   0.789   1.374   5.019
 2996SOL    HW1 9887   0.877   1.381   5.067
 2996SOL    HW2 9888   0.798   1.415   4.928
 2997SOL     OW 9889   5.397   0.288   2.969
 2997SOL    HW1 9890   5.382   0.384   2.994
 2997SOL    HW2 9891   5.331   0.262   2.898
 2998SOL     OW 9892   5.498   6.722   3.753
 2998SOL    HW1 9893   5.551   6.771   3.685
 2998SOL    HW2 9894   5.442   6.653   3.709
 2999SOL     OW 9895   2.234   5.085   5.070
 2999SOL    HW1 9896   2.237   5.043   4.979
 2999SOL    HW2 9897   2.145   5.067   5.112
 3000SOL     OW 9898   3.407   4.016   6.288
 3000SOL    HW1 9899   3.403   3.966   6.201
 3000SOL    HW2 9900   3.484   4.079   6.287
 3001SOL     OW 9901   6.857   0.731   5.890
 3001SOL    HW1 9902   6.929   0.800   5.891
 3001SOL    HW2 9903   6.846   0.693   5.981
 3002SOL     OW 9904   3.078   1.760   6.695
 3002SOL    HW1 9905   3.073   1.823   6.773
 3002SOL    HW2 9906   3.064   1.812   6.611
 3003SOL     OW 9907   1.338   6.714   1.001
 3003SOL    HW1 9908   1.287   6.786   1.047
 3003SOL    HW2 9909   1.435   6.738   1.000
 3004SOL     OW 9910   0.409   3.813   3.090
 3004SOL    HW1 9911   0.390   3.800   2.992
 3004SOL    HW2 9912   0.325   3.799   3.142
 3005SOL     OW 9913   1.717   3.022   6.805
 3005SOL    HW1 9914   1.685   2.953   6.740
 3005SOL    HW2 9915   1.662   3.017   6.888
 3006SOL     OW 9916   5.469   1.784   4.286
 3006SOL    HW1 9917   5.421   1.821   4.207
 3006SOL    HW2 9918   5.500   1.860   4.344
 3007SOL     OW 9919   5.612   4.057   0.774
 3007SOL    HW1 9920   5.651   3.973   0.812
 3007SOL    HW2 9921   5.578   4.115   0.848
 3008SOL     OW 9922   3.420   2.364   6.101
 3008SOL    HW1 9923   3.336   2.361   6.155
 3008SOL    HW2 9924   3.413   2.436   6.032
 3009SOL     OW 9925   6.784   2.483   2.971
 3009SOL    HW1 9926   6.821   2.501   3.062
 3009SOL    HW2 9927   6.853   2.440   2.914
 3010SOL     OW 9928   3.075   5.701   3.084
 3010SOL    HW1 9929   3.013   5.638   3.037
 3010SOL    HW2 9930   3.164   5.657   3.096
 3011SOL     OW 9931   6.120   1.456   2.749
 3011SOL    HW1 9932   6.030   1.491   2.773
 3011SOL    HW2 9933   6.190   1.508   2.799
 3012SOL     OW 9934   2.194   3.644   6.630
 3012SOL    HW1 9935   2.161   3.551   6.610
 3012SOL    HW2 9936   2.221   3.649   6.726
 3013SOL     OW 9937   5.186   5.836   3.807
 3013SOL    HW1 9938   5.178   5.869   3.902
 3013SOL    HW2 9939   5.153   5.907   3.745
 3014SOL     OW 9940   4.934   2.481   5.289
 3014SOL    HW1 9941   4.850   2.536   5.285
 3014SOL    HW2 9942   4.989   2.500   5.208
 3015SOL     OW 9943   2.729   1.855   0.309
 3015SOL    HW1 9944   2.695   1.834   0.401
 3015SOL    HW2 9945   2.665   1.819   0.241
 3016SOL     OW 9946   2.939   6.380   4.111
 3016SOL    HW1 9947   2.868   6.410   4.175
 3016SOL    HW2 9948   2.904   6.304   4.056
 3017SOL     OW 9949   6.284   5.646   1.847
 3017SOL    HW1 9950   6.291   5.576   1.918
 3017SOL    HW2 9951   6.211   5.621   1.783
 3018SOL     OW 9952   2.669   6.857   5.879
 3018SOL    HW1 9953   2.669   6.926   5.807
 3018SOL    HW2 9954   2.746   6.873   5.941
 3019SOL     OW 9955   0.370   6.783   6.931
 3019SOL    HW1 9956   0.321   6.726   6.866
 3019SOL    HW2 9957   0.461   6.806   6.894
 3020SOL     OW 9958   3.948   2.453   1.082
 3020SOL    HW1 9959   3.918   2.374   1.135
 3020SOL    HW2 9960   4.010   2.423   1.009
 3021SOL     OW 9961   3.377   6.832   5.793
 3021SOL    HW1 9962   3.339   6.881   5.872
 3021SOL    HW2 9963   3.469   6.799   5.816
 3022SOL     OW 9964   4.072   5.680   5.173
 3022SOL    HW1 9965   4.125   5.685   5.088
 3022SOL    HW2 9966   3.997   5.747   5.170
 3023SOL     OW 9967   4.329   6.613   3.308
 3023SOL    HW1 9968   4.346   6.609   3.406
 3023SOL    HW2 9969   4.240   6.571   3.288
 3024SOL     OW 9970   4.907   6.396   4.828
 3024SOL    HW1 9971   4.983   6.459   4.844
 3024SOL    HW2 9972   4.825   6.432   4.872
 3025SOL     OW 9973   4.535   6.573   0.822
 3025SOL    HW1 9974   4.570   6.609   0.736
 3025SOL    HW2 9975   4.463   6.506   0.803
 3026SOL     OW 9976   0.945   1.130   6.024
 3026SOL    HW1 9977   0.953   1.127   6.124
 3026SOL    HW2 9978   0.863   1.181   5.998
 3027SOL     OW 9979   4.430   1.640   3.006
 3027SOL    HW1 9980   4.371   1.631   3.086
 3027SOL    HW2 9981   4.490   1.719   3.017
 3028SOL     OW 9982   1.623   3.584   5.941
 3028SOL    HW1 9983   1.714   3.582   5.982
 3028SOL    HW2 9984   1.555   3.558   6.010
 3029SOL     OW 9985   0.365   3.339   5.317
 3029SOL    HW1 9986   0.266   3.339   5.305
 3029SOL    HW2 9987   0.409   3.313   5.231
 3030SOL     OW 9988   0.454   3.524   0.491
 3030SOL    HW1 9989   0.463   3.438   0.541
 3030SOL    HW2 9990   0.419   3.506   0.399
 3031SOL     OW 9991   6.990   4.731   1.641
 3031SOL    HW1 9992   0.000   4.636   1.633
 3031SOL    HW2 9993   6.990   4.758   1.738
 3032SOL     OW 9994   2.370   6.765   1.431
 3032SOL    HW1 9995   2.316   6.817   1.365
 3032SOL    HW2 9996   2.414   6.827   1.495
 3033SOL     OW 9997   5.766   1.436   1.528
 3033SOL    HW1 9998   5.678   1.482   1.538
 3033SOL    HW2 9999   5.812   1.433   1.617
 3034SOL     OW10000   0.953   0.242   2.872
 3034SOL    HW110001   1.051   0.234   2.890
 3034SOL    HW210002   0.928   0.339   2.864
 3035SOL     OW10003   0.149   2.777   5.805
 3035SOL    HW110004   0.238   2.819   5.788
 3035SOL    HW210005   0.149   2.683   5.771
 3036SOL     OW10006   1.950   1.333   5.840
 3036SOL    HW110007   2.037   1.377   5.820
 3036SOL    HW210008   1.881   1.402   5.860
 3037SOL     OW10009   6.287   5.648   6.514
 3037SOL    HW110010   6.236   5.565   6.492
 3037SOL    HW210011   6.369   5.653   6.457
 3038SOL     OW10012   5.105   5.698   5.790
 3038SOL    HW110013   5.018   5.689   5.838
 3038SOL    HW210014   5.177   5.720   5.855
 3039SOL     OW10015   0.513   3.518   1.117
 3039SOL    HW110016   0.584   3.568   1.067
 3039SOL    HW210017   0.538   3.514   1.214
 3040SOL     OW10018   3.125   4.175   6.002
 3040SOL    HW110019   3.159   4.232   5.926
 3040SOL    HW210020   3.026   4.179   6.005
 3041SOL     OW10021   2.355   3.290   5.288
 3041SOL    HW110022   2.411   3.358   5.337
 3041SOL    HW210023   2.409   3.208   5.273
 3042SOL     OW10024   5.950   5.966   3.007
 3042SOL    HW110025   5.963   5.871   3.036
 3042SOL    HW210026   5.884   6.011   3.068
 3043SOL     OW10027   2.886   3.953   1.331
 3043SOL    HW110028   2.963   3.977   1.390
 3043SOL    HW210029   2.803   4.000   1.363
 3044SOL     OW10030   3.274   4.988   5.853
 3044SOL    HW110031   3.313   4.906   5.894
 3044SOL    HW210032   3.175   4.988   5.864
 3045SOL     OW10033   5.045   6.971   3.091
 3045SOL    HW110034   5.091   0.027   3.045
 3045SOL    HW210035   5.103   6.937   3.165
 3046SOL     OW10036   2.853   0.895   5.596
 3046SOL    HW110037   2.821   0.959   5.525
 3046SOL    HW210038   2.876   0.808   5.554
 3047SOL     OW10039   5.948   0.581   1.438
 3047SOL    HW110040   5.902   0.495   1.417
 3047SOL    HW210041   5.951   0.596   1.536
 3048SOL     OW10042   4.197   2.222   1.649
 3048SOL    HW110043   4.097   2.227   1.650
 3048SOL    HW210044   4.233   2.288   1.583
 3049SOL     OW10045   1.222   0.280   2.882
 3049SOL    HW110046   1.263   0.248   2.968
 3049SOL    HW210047   1.293   0.324   2.826
 3050SOL     OW10048   2.825   1.915   2.241
 3050SOL    HW110049   2.782   1.918   2.331
 3050SOL    HW210050   2.755   1.896   2.171
 3051SOL     OW10051   1.866   5.931   6.319
 3051SOL    HW110052   1.911   5.849   6.353
 3051SOL    HW210053   1.916   5.966   6.240
 3052SOL     OW10054   4.961   5.490   1.808
 3052SOL    HW110055   5.038   5.432   1.780
 3052SOL    HW210056   4.949   5.563   1.741
 3053SOL     OW10057   0.209   2.396   1.000
 3053SOL    HW110058   0.123   2.413   0.953
 3053SOL    HW210059   0.218   2.460   1.077
 3054SOL     OW10060   6.586   2.526   1.601
 3054SOL    HW110061   6.686   2.525   1.603
 3054SOL    HW210062   6.554   2.587   1.529
 3055SOL     OW10063   4.986   6.997   5.067
 3055SOL    HW110064   4.962   0.055   5.125
 3055SOL    HW210065   5.051   6.938   5.115
 3056SOL     OW10066   5.923   0.804   5.526
 3056SOL    HW110067   5.836   0.772   5.487
 3056SOL    HW210068   5.943   0.895   5.490
 3057SOL     OW10069   4.479   5.436   3.678
 3057SOL    HW110070   4.434   5.523   3.657
 3057SOL    HW210071   4.504   5.391   3.592
 3058SOL     OW10072   0.110   4.512   1.539
 3058SOL    HW110073   0.145   4.595   1.496
 3058SOL    HW210074   0.107   4.438   1.472
 3059SOL     OW10075   2.987   2.234   4.371
 3059SOL    HW110076   2.908   2.262   4.425
 3059SOL    HW210077   3.068   2.231   4.430
 3060SOL     OW10078   1.084   4.875   0.271
 3060SOL    HW110079   1.057   4.876   0.175
 3060SOL    HW210080   1.181   4.850   0.278
 3061SOL     OW10081   6.728   5.650   5.501
 3061SOL    HW110082   6.743   5.742   5.466
 3061SOL    HW210083   6.657   5.605   5.448
 3062SOL     OW10084   2.212   0.544   1.032
 3062SOL    HW110085   2.179   0.527   0.939
 3062SOL    HW210086   2.150   0.607   1.078
 3063SOL     OW10087   1.735   5.346   2.050
 3063SOL    HW110088   1.681   5.352   1.966
 3063SOL    HW210089   1.676   5.316   2.125
 3064SOL     OW10090   5.173   3.331   0.756
 3064SOL    HW110091   5.121   3.347   0.839
 3064SOL    HW210092   5.220   3.243   0.762
 3065SOL     OW10093   1.638   1.942   6.351
 3065SOL    HW110094   1.716   2.004   6.349
 3065SOL    HW210095   1.553   1.995   6.352
 3066SOL     OW10096   4.993   4.564   0.489
 3066SOL    HW110097   4.942   4.571   0.404
 3066SOL    HW210098   4.975   4.475   0.531
 3067SOL     OW10099   4.222   0.848   5.770
 3067SOL    HW110100   4.123   0.855   5.763
 3067SOL    HW210101   4.257   0.792   5.694
 3068SOL     OW10102   0.193   6.728   0.957
 3068SOL    HW110103   0.196   6.685   0.866
 3068SOL    HW210104   0.263   6.799   0.962
 3069SOL     OW10105   6.945   6.602   2.144
 3069SOL    HW110106   7.011   6.666   2.183
 3069SOL    HW210107   6.872   6.586   2.210
 3070SOL     OW10108   3.115   1.227   6.818
 3070SOL    HW110109   3.033   1.170   6.822
 3070SOL    HW210110   3.136   1.261   6.910
 3071SOL     OW10111   7.013   6.452   3.677
 3071SOL    HW110112   0.021   6.366   3.634
 3071SOL    HW210113   6.978   6.434   3.769
 3072SOL     OW10114   2.369   5.828   6.348
 3072SOL    HW110115   2.416   5.916   6.356
 3072SOL    HW210116   2.397   5.769   6.423
 3073SOL     OW10117   6.647   3.816   4.251
 3073SOL    HW110118   6.576   3.881   4.278
 3073SOL    HW210119   6.669   3.829   4.154
 3074SOL     OW10120   6.855   3.923   1.425
 3074SOL    HW110121   6.799   4.005   1.422
 3074SOL    HW210122   6.797   3.843   1.446
 3075SOL     OW10123   2.665   5.438   1.540
 3075SOL    HW110124   2.615   5.416   1.456
 3075SOL    HW210125   2.681   5.537   1.544
 3076SOL     OW10126   6.183   0.855   3.539
 3076SOL    HW110127   6.206   0.839   3.634
 3076SOL    HW210128   6.167   0.767   3.493
 3077SOL     OW10129   5.883   4.321   1.763
 3077SOL    HW110130   5.885   4.319   1.663
 3077SOL    HW210131   5.898   4.414   1.795
 3078SOL     OW10132   6.848   3.194   3.268
 3078SOL    HW110133   6.938   3.238   3.275
 3078SOL    HW210134   6.850   3.126   3.195
 3079SOL     OW10135   2.616   2.302   2.838
 3079SOL    HW110136   2.626   2.369   2.912
 3079SOL    HW210137   2.523   2.265   2.839
 3080SOL     OW10138   5.423   5.411   2.208
 3080SOL    HW110139   5.489   5.351   2.253
 3080SOL    HW210140   5.330   5.383   2.232
 3081SOL     OW10141   1.181   3.083   6.141
 3081SOL    HW110142   1.232   3.169   6.144
 3081SOL    HW210143   1.091   3.096   6.182
 3082SOL     OW10144   1.893   5.898   4.229
 3082SOL    HW110145   1.889   5.930   4.134
 3082SOL    HW210146   1.812   5.844   4.250
 3083SOL     OW10147   3.147   5.884   3.967
 3083SOL    HW110148   3.217   5.851   3.904
 3083SOL    HW210149   3.130   5.815   4.037
 3084SOL     OW10150   0.106   4.057   4.538
 3084SOL    HW110151   0.036   4.014   4.481
 3084SOL    HW210152   0.140   4.139   4.493
 3085SOL     OW10153   5.856   4.108   0.314
 3085SOL    HW110154   5.844   4.206   0.296
 3085SOL    HW210155   5.953   4.086   0.317
 3086SOL     OW10156   5.348   1.264   1.373
 3086SOL    HW110157   5.386   1.182   1.415
 3086SOL    HW210158   5.414   1.303   1.309
 3087SOL     OW10159   1.977   6.268   3.798
 3087SOL    HW110160   1.913   6.194   3.777
 3087SOL    HW210161   2.018   6.253   3.888
 3088SOL     OW10162   2.074   4.849   4.554
 3088SOL    HW110163   1.982   4.862   4.592
 3088SOL    HW210164   2.067   4.802   4.466
 3089SOL     OW10165   3.297   1.833   5.160
 3089SOL    HW110166   3.274   1.745   5.202
 3089SOL    HW210167   3.224   1.899   5.178
 3090SOL     OW10168   2.236   1.860   2.057
 3090SOL    HW110169   2.254   1.910   1.973
 3090SOL    HW210170   2.291   1.899   2.132
 3091SOL     OW10171   1.408   1.344   1.052
 3091SOL    HW110172   1.359   1.258   1.042
 3091SOL    HW210173   1.505   1.330   1.031
 3092SOL     OW10174   5.643   1.110   0.822
 3092SOL    HW110175   5.655   1.113   0.921
 3092SOL    HW210176   5.707   1.174   0.778
 3093SOL     OW10177   5.848   6.225   6.818
 3093SOL    HW110178   5.912   6.296   6.787
 3093SOL    HW210179   5.875   6.137   6.779
 3094SOL     OW10180   2.263   0.315   4.184
 3094SOL    HW110181   2.279   0.300   4.086
 3094SOL    HW210182   2.324   0.257   4.237
 3095SOL     OW10183   2.234   4.494   5.781
 3095SOL    HW110184   2.286   4.520   5.862
 3095SOL    HW210185   2.174   4.417   5.803
 3096SOL     OW10186   0.890   5.087   5.639
 3096SOL    HW110187   0.861   5.134   5.556
 3096SOL    HW210188   0.965   5.024   5.617
 3097SOL     OW10189   5.462   3.082   6.883
 3097SOL    HW110190   5.433   2.987   6.893
 3097SOL    HW210191   5.413   3.139   6.949
 3098SOL     OW10192   2.121   2.352   0.932
 3098SOL    HW110193   2.141   2.433   0.987
 3098SOL    HW210194   2.186   2.279   0.956
 3099SOL     OW10195   0.826   6.743   4.143
 3099SOL    HW110196   0.924   6.759   4.154
 3099SOL    HW210197   0.781   6.748   4.232
 3100SOL     OW10198   0.169   6.860   3.671
 3100SOL    HW110199   0.224   6.790   3.626
 3100SOL    HW210200   0.129   6.920   3.601
 3101SOL     OW10201   6.369   5.824   6.719
 3101SOL    HW110202   6.309   5.755   6.679
 3101SOL    HW210203   6.332   5.852   6.808
 3102SOL     OW10204   6.485   6.449   1.943
 3102SOL    HW110205   6.450   6.537   1.911
 3102SOL    HW210206   6.409   6.385   1.953
 3103SOL     OW10207   4.277   0.962   2.167
 3103SOL    HW110208   4.257   0.908   2.085
 3103SOL    HW210209   4.318   1.049   2.141
 3104SOL     OW10210   4.608   0.528   5.716
 3104SOL    HW110211   4.653   0.441   5.735
 3104SOL    HW210212   4.676   0.601   5.711
 3105SOL     OW10213   5.937   4.293   1.375
 3105SOL    HW110214   5.995   4.364   1.334
 3105SOL    HW210215   5.968   4.203   1.345
 3106SOL     OW10216   5.438   0.199   4.043
 3106SOL    HW110217   5.468   0.208   3.948
 3106SOL    HW210218   5.505   0.145   4.094
 3107SOL     OW10219   4.182   1.014   4.932
 3107SOL    HW110220   4.144   1.021   5.024
 3107SOL    HW210221   4.178   1.104   4.888
 3108SOL     OW10222   1.676   5.783   4.362
 3108SOL    HW110223   1.696   5.696   4.318
 3108SOL    HW210224   1.578   5.789   4.382
 3109SOL     OW10225   5.550   6.356   3.665
 3109SOL    HW110226   5.647   6.349   3.642
 3109SOL    HW210227   5.538   6.339   3.763
 3110SOL     OW10228   0.906   3.122   3.256
 3110SOL    HW110229   0.872   3.107   3.348
 3110SOL    HW210230   0.977   3.192   3.256
 3111SOL     OW10231   6.996   4.445   2.949
 3111SOL    HW110232   6.939   4.527   2.953
 3111SOL    HW210233   0.015   4.436   2.857
 3112SOL     OW10234   3.539   3.103   6.781
 3112SOL    HW110235   3.568   3.173   6.716
 3112SOL    HW210236   3.605   3.027   6.779
 3113SOL     OW10237   2.835   4.744   3.774
 3113SOL    HW110238   2.922   4.792   3.785
 3113SOL    HW210239   2.812   4.738   3.677
 3114SOL     OW10240   3.739   1.951   0.495
 3114SOL    HW110241   3.734   1.856   0.527
 3114SOL    HW210242   3.834   1.981   0.495
 3115SOL     OW10243   4.447   4.728   6.215
 3115SOL    HW110244   4.426   4.715   6.118
 3115SOL    HW210245   4.443   4.826   6.237
 3116SOL     OW10246   6.480   2.535   0.372
 3116SOL    HW110247   6.523   2.569   0.289
 3116SOL    HW210248   6.541   2.550   0.450
 3117SOL     OW10249   4.804   3.753   5.311
 3117SOL    HW110250   4.750   3.688   5.258
 3117SOL    HW210251   4.863   3.703   5.375
 3118SOL     OW10252   0.409   5.283   2.426
 3118SOL    HW110253   0.347   5.265   2.350
 3118SOL    HW210254   0.444   5.376   2.420
 3119SOL     OW10255   2.308   3.174   0.038
 3119SOL    HW110256   2.235   3.162   0.105
 3119SOL    HW210257   2.380   3.232   0.076
 3120SOL     OW10258   3.149   0.301   6.266
 3120SOL    HW110259   3.225   0.360   6.238
 3120SOL    HW210260   3.139   0.305   6.366
 3121SOL     OW10261   0.039   1.232   4.244
 3121SOL    HW110262   0.034   1.301   4.316
 3121SOL    HW210263   6.991   1.160   4.263
 3122SOL     OW10264   4.025   5.753   6.358
 3122SOL    HW110265   4.014   5.770   6.456
 3122SOL    HW210266   4.122   5.737   6.338
 3123SOL     OW10267   2.449   1.849   3.097
 3123SOL    HW110268   2.364   1.812   3.135
 3123SOL    HW210269   2.446   1.949   3.100
 3124SOL     OW10270   4.960   6.442   4.563
 3124SOL    HW110271   4.894   6.508   4.529
 3124SOL    HW210272   4.931   6.408   4.653
 3125SOL     OW10273   0.858   3.246   5.475
 3125SOL    HW110274   0.889   3.185   5.548
 3125SOL    HW210275   0.763   3.225   5.452
 3126SOL     OW10276   6.070   4.206   5.451
 3126SOL    HW110277   6.049   4.216   5.548
 3126SOL    HW210278   6.040   4.288   5.402
 3127SOL     OW10279   2.175   2.397   6.369
 3127SOL    HW110280   2.144   2.490   6.352
 3127SOL    HW210281   2.202   2.388   6.465
 3128SOL     OW10282   2.766   0.424   6.527
 3128SOL    HW110283   2.785   0.336   6.483
 3128SOL    HW210284   2.852   0.470   6.547
 3129SOL     OW10285   6.482   3.436   7.002
 3129SOL    HW110286   6.397   3.389   6.977
 3129SOL    HW210287   6.533   3.379   0.047
 3130SOL     OW10288   2.154   4.470   2.280
 3130SOL    HW110289   2.103   4.387   2.302
 3130SOL    HW210290   2.124   4.545   2.340
 3131SOL     OW10291   0.169   3.028   1.743
 3131SOL    HW110292   0.090   3.083   1.769
 3131SOL    HW210293   0.164   3.006   1.646
 3132SOL     OW10294   4.342   5.677   6.438
 3132SOL    HW110295   4.354   5.583   6.471
 3132SOL    HW210296   4.339   5.739   6.516
 3133SOL     OW10297   3.128   1.091   2.989
 3133SOL    HW110298   3.225   1.113   2.979
 3133SOL    HW210299   3.118   1.009   3.046
 3134SOL     OW10300   4.481   3.888   1.465
 3134SOL    HW110301   4.580   3.892   1.471
 3134SOL    HW210302   4.440   3.926   1.548
 3135SOL     OW10303   4.456   0.255   5.911
 3135SOL    HW110304   4.446   0.331   5.975
 3135SOL    HW210305   4.452   0.168   5.961
 3136SOL     OW10306   5.348   0.572   2.331
 3136SOL    HW110307   5.354   0.659   2.381
 3136SOL    HW210308   5.261   0.528   2.350
 3137SOL     OW10309   6.380   0.629   2.276
 3137SOL    HW110310   6.289   0.607   2.312
 3137SOL    HW210311   6.449   0.590   2.337
 3138SOL     OW10312   6.590   4.946   3.326
 3138SOL    HW110313   6.591   4.906   3.417
 3138SOL    HW210314   6.505   4.996   3.312
 3139SOL     OW10315   4.605   5.426   0.540
 3139SOL    HW110316   4.559   5.512   0.517
 3139SOL    HW210317   4.642   5.386   0.456
 3140SOL     OW10318   6.734   6.452   0.066
 3140SOL    HW110319   6.704   6.547   0.075
 3140SOL    HW210320   6.832   6.446   0.086
 3141SOL     OW10321   1.020   0.077   6.730
 3141SOL    HW110322   0.955   0.086   6.805
 3141SOL    HW210323   0.971   0.048   6.647
 3142SOL     OW10324   3.495   6.996   2.479
 3142SOL    HW110325   3.402   6.990   2.514
 3142SOL    HW210326   3.556   0.012   2.550
 3143SOL     OW10327   6.665   1.777   0.610
 3143SOL    HW110328   6.725   1.804   0.535
 3143SOL    HW210329   6.591   1.844   0.619
 3144SOL     OW10330   4.064   3.611   1.031
 3144SOL    HW110331   4.021   3.656   0.952
 3144SOL    HW210332   4.004   3.538   1.064
 3145SOL     OW10333   2.535   6.190   2.029
 3145SOL    HW110334   2.569   6.116   1.971
 3145SOL    HW210335   2.445   6.218   1.997
 3146SOL     OW10336   1.151   1.508   4.895
 3146SOL    HW110337   1.095   1.430   4.866
 3146SOL    HW210338   1.182   1.559   4.815
 3147SOL     OW10339   3.050   5.571   0.985
 3147SOL    HW110340   3.014   5.525   1.066
 3147SOL    HW210341   3.150   5.568   0.986
 3148SOL     OW10342   6.351   0.020   3.567
 3148SOL    HW110343   6.444   0.017   3.531
 3148SOL    HW210344   6.338   6.968   3.635
 3149SOL     OW10345   3.540   0.527   5.701
 3149SOL    HW110346   3.631   0.567   5.711
 3149SOL    HW210347   3.531   0.488   5.609
 3150SOL     OW10348   6.705   5.256   4.781
 3150SOL    HW110349   6.621   5.227   4.826
 3150SOL    HW210350   6.782   5.241   4.844
 3151SOL     OW10351   6.760   0.892   4.893
 3151SOL    HW110352   6.700   0.818   4.923
 3151SOL    HW210353   6.735   0.977   4.939
 3152SOL     OW10354   0.751   5.231   1.164
 3152SOL    HW110355   0.825   5.295   1.184
 3152SOL    HW210356   0.728   5.235   1.067
 3153SOL     OW10357   6.246   5.328   0.899
 3153SOL    HW110358   6.165   5.269   0.901
 3153SOL    HW210359   6.289   5.323   0.809
 3154SOL     OW10360   0.356   1.499   6.404
 3154SOL    HW110361   0.367   1.412   6.356
 3154SOL    HW210362   0.269   1.498   6.454
 3155SOL     OW10363   6.325   4.110   0.380
 3155SOL    HW110364   6.364   4.202   0.376
 3155SOL    HW210365   6.278   4.098   0.467
 3156SOL     OW10366   3.556   2.995   2.686
 3156SOL    HW110367   3.519   2.938   2.759
 3156SOL    HW210368   3.515   3.086   2.690
 3157SOL     OW10369   2.701   1.727   5.013
 3157SOL    HW110370   2.604   1.712   5.036
 3157SOL    HW210371   2.708   1.768   4.922
 3158SOL     OW10372   3.376   1.374   3.674
 3158SOL    HW110373   3.318   1.298   3.647
 3158SOL    HW210374   3.333   1.423   3.750
 3159SOL     OW10375   6.258   0.664   0.151
 3159SOL    HW110376   6.277   0.633   0.058
 3159SOL    HW210377   6.309   0.749   0.169
 3160SOL     OW10378   0.593   6.044   5.785
 3160SOL    HW110379   0.506   6.007   5.815
 3160SOL    HW210380   0.665   5.976   5.797
 3161SOL     OW10381   2.418   2.665   2.826
 3161SOL    HW110382   2.482   2.615   2.885
 3161SOL    HW210383   2.384   2.745   2.875
 3162SOL     OW10384   1.088   6.081   1.558
 3162SOL    HW110385   1.045   6.166   1.587
 3162SOL    HW210386   1.039   6.004   1.599
 3163SOL     OW10387   4.600   3.016   6.445
 3163SOL    HW110388   4.638   2.953   6.377
 3163SOL    HW210389   4.501   3.022   6.433
 3164SOL     OW10390   4.209   5.934   1.246
 3164SOL    HW110391   4.187   6.028   1.220
 3164SOL    HW210392   4.161   5.870   1.186
 3165SOL     OW10393   1.205   6.935   1.128
 3165SOL    HW110394   1.171   0.007   1.108
 3165SOL    HW210395   1.192   6.916   1.225
 3166SOL     OW10396   4.205   1.975   4.350
 3166SOL    HW110397   4.260   1.896   4.323
 3166SOL    HW210398   4.166   1.959   4.441
 3167SOL     OW10399   6.715   4.675   0.574
 3167SOL    HW110400   6.626   4.666   0.618
 3167SOL    HW210401   6.758   4.585   0.567
 3168SOL     OW10402   5.096   2.916   0.428
 3168SOL    HW110403   5.044   3.001   0.430
 3168SOL    HW210404   5.033   2.839   0.412
 3169SOL     OW10405   1.764   4.196   4.151
 3169SOL    HW110406   1.758   4.141   4.068
 3169SOL    HW210407   1.676   4.240   4.168
 3170SOL     OW10408   4.481   6.151   1.403
 3170SOL    HW110409   4.511   6.149   1.308
 3170SOL    HW210410   4.472   6.246   1.433
 3171SOL     OW10411   0.232   0.791   2.224
 3171SOL    HW110412   0.288   0.742   2.157
 3171SOL    HW210413   0.136   0.782   2.200
 3172SOL     OW10414   0.048   5.629   0.617
 3172SOL    HW110415   0.039   5.529   0.616
 3172SOL    HW210416   6.992   5.670   0.567
 3173SOL     OW10417   3.261   2.198   0.679
 3173SOL    HW110418   3.214   2.267   0.732
 3173SOL    HW210419   3.347   2.236   0.643
 3174SOL     OW10420   3.195   2.512   0.562
 3174SOL    HW110421   3.099   2.522   0.537
 3174SOL    HW210422   3.245   2.594   0.535
 3175SOL     OW10423   6.360   0.731   1.530
 3175SOL    HW110424   6.292   0.764   1.596
 3175SOL    HW210425   6.449   0.725   1.574
 3176SOL     OW10426   1.548   3.830   6.140
 3176SOL    HW110427   1.562   3.766   6.065
 3176SOL    HW210428   1.454   3.823   6.174
 3177SOL     OW10429   4.942   3.828   3.885
 3177SOL    HW110430   5.035   3.844   3.918
 3177SOL    HW210431   4.927   3.730   3.875
 3178SOL     OW10432   6.461   1.951   0.476
 3178SOL    HW110433   6.407   1.997   0.546
 3178SOL    HW210434   6.498   2.018   0.411
 3179SOL     OW10435   0.864   3.046   2.313
 3179SOL    HW110436   0.824   3.100   2.387
 3179SOL    HW210437   0.894   2.958   2.349
 3180SOL     OW10438   4.875   0.972   6.618
 3180SOL    HW110439   4.815   0.925   6.554
 3180SOL    HW210440   4.931   1.039   6.569
 3181SOL     OW10441   0.059   2.140   3.451
 3181SOL    HW110442   0.026   2.151   3.545
 3181SOL    HW210443   7.019   2.190   3.389
 3182SOL     OW10444   2.934   0.211   6.623
 3182SOL    HW110445   2.998   0.137   6.643
 3182SOL    HW210446   2.854   0.203   6.681
 3183SOL     OW10447   5.094   4.054   1.905
 3183SOL    HW110448   5.066   4.095   1.818
 3183SOL    HW210449   5.020   3.995   1.938
 3184SOL     OW10450   0.752   3.783   2.826
 3184SOL    HW110451   0.716   3.729   2.902
 3184SOL    HW210452   0.769   3.724   2.747
 3185SOL     OW10453   5.394   5.823   6.501
 3185SOL    HW110454   5.432   5.911   6.531
 3185SOL    HW210455   5.294   5.828   6.502
 3186SOL     OW10456   3.653   2.030   1.330
 3186SOL    HW110457   3.643   2.081   1.415
 3186SOL    HW210458   3.598   1.947   1.335
 3187SOL     OW10459   4.589   4.398   0.826
 3187SOL    HW110460   4.512   4.361   0.879
 3187SOL    HW210461   4.565   4.489   0.793
 3188SOL     OW10462   1.698   0.562   4.286
 3188SOL    HW110463   1.770   0.520   4.230
 3188SOL    HW210464   1.672   0.649   4.246
 3189SOL     OW10465   1.706   1.268   1.424
 3189SOL    HW110466   1.728   1.346   1.367
 3189SOL    HW210467   1.691   1.298   1.518
 3190SOL     OW10468   0.320   5.706   0.587
 3190SOL    HW110469   0.241   5.645   0.586
 3190SOL    HW210470   0.307   5.779   0.521
 3191SOL     OW10471   5.041   5.635   1.110
 3191SOL    HW110472   5.025   5.545   1.070
 3191SOL    HW210473   4.985   5.646   1.192
 3192SOL     OW10474   0.357   2.528   1.739
 3192SOL    HW110475   0.439   2.488   1.698
 3192SOL    HW210476   0.277   2.473   1.714
 3193SOL     OW10477   3.855   0.984   6.769
 3193SOL    HW110478   3.810   1.057   6.820
 3193SOL    HW210479   3.787   0.932   6.717
 3194SOL     OW10480   1.832   2.123   6.379
 3194SOL    HW110481   1.874   2.146   6.467
 3194SOL    HW210482   1.826   2.206   6.322
 3195SOL     OW10483   3.328   1.199   3.271
 3195SOL    HW110484   3.406   1.254   3.300
 3195SOL    HW210485   3.358   1.131   3.204
 3196SOL     OW10486   0.464   0.558   6.076
 3196SOL    HW110487   0.367   0.563   6.101
 3196SOL    HW210488   0.475   0.494   5.999
 3197SOL     OW10489   2.653   6.545   3.517
 3197SOL    HW110490   2.613   6.610   3.581
 3197SOL    HW210491   2.699   6.594   3.443
 3198SOL     OW10492   6.295   2.581   4.885
 3198SOL    HW110493   6.257   2.509   4.942
 3198SOL    HW210494   6.221   2.638   4.849
 3199SOL     OW10495   4.847   3.783   2.215
 3199SOL    HW110496   4.892   3.807   2.301
 3199SOL    HW210497   4.748   3.774   2.231
 3200SOL     OW10498   6.218   3.138   1.937
 3200SOL    HW110499   6.278   3.167   2.010
 3200SOL    HW210500   6.123   3.142   1.968
 3201SOL     OW10501   5.865   4.827   4.438
 3201SOL    HW110502   5.922   4.867   4.510
 3201SOL    HW210503   5.788   4.779   4.479
 3202SOL     OW10504   0.601   4.585   2.005
 3202SOL    HW110505   0.668   4.644   1.962
 3202SOL    HW210506   0.600   4.602   2.104
 3203SOL     OW10507   6.493   2.163   0.247
 3203SOL    HW110508   6.512   2.071   0.211
 3203SOL    HW210509   6.572   2.222   0.228
 3204SOL     OW10510   4.522   6.419   3.315
 3204SOL    HW110511   4.453   6.490   3.299
 3204SOL    HW210512   4.561   6.392   3.227
 3205SOL     OW10513   6.236   2.629   6.367
 3205SOL    HW110514   6.162   2.643   6.301
 3205SOL    HW210515   6.198   2.610   6.457
 3206SOL     OW10516   1.402   5.404   6.419
 3206SOL    HW110517   1.419   5.383   6.323
 3206SOL    HW210518   1.306   5.383   6.440
 3207SOL     OW10519   0.762   0.601   5.891
 3207SOL    HW110520   0.715   0.537   5.831
 3207SOL    HW210521   0.797   0.553   5.971
 3208SOL     OW10522   4.654   5.510   5.925
 3208SOL    HW110523   4.640   5.580   5.855
 3208SOL    HW210524   4.578   5.445   5.923
 3209SOL     OW10525   4.401   5.755   3.563
 3209SOL    HW110526   4.329   5.814   3.601
 3209SOL    HW210527   4.375   5.725   3.471
 3210SOL     OW10528   0.768   4.767   1.619
 3210SOL    HW110529   0.682   4.765   1.671
 3210SOL    HW210530   0.816   4.680   1.629
 3211SOL     OW10531   1.864   3.717   1.062
 3211SOL    HW110532   1.828   3.736   1.153
 3211SOL    HW210533   1.952   3.763   1.050
 3212SOL     OW10534   3.055   0.536   0.926
 3212SOL    HW110535   3.029   0.632   0.934
 3212SOL    HW210536   3.067   0.512   0.830
 3213SOL     OW10537   1.030   6.265   1.154
 3213SOL    HW110538   1.104   6.315   1.110
 3213SOL    HW210539   1.056   6.169   1.164
 3214SOL     OW10540   4.575   5.186   0.680
 3214SOL    HW110541   4.593   5.277   0.641
 3214SOL    HW210542   4.593   5.189   0.778
 3215SOL     OW10543   7.000   2.789   1.171
 3215SOL    HW110544   6.920   2.822   1.222
 3215SOL    HW210545   7.004   2.689   1.176
 3216SOL     OW10546   6.122   5.067   0.588
 3216SOL    HW110547   6.123   5.165   0.570
 3216SOL    HW210548   6.036   5.042   0.633
 3217SOL     OW10549   6.745   5.423   2.211
 3217SOL    HW110550   6.833   5.462   2.184
 3217SOL    HW210551   6.760   5.338   2.262
 3218SOL     OW10552   4.453   1.984   3.706
 3218SOL    HW110553   4.520   2.056   3.684
 3218SOL    HW210554   4.501   1.897   3.718
 3219SOL     OW10555   0.282   2.240   3.618
 3219SOL    HW110556   0.221   2.301   3.568
 3219SOL    HW210557   0.299   2.158   3.564
 3220SOL     OW10558   6.556   5.706   6.523
 3220SOL    HW110559   6.498   5.743   6.595
 3220SOL    HW210560   6.540   5.756   6.438
 3221SOL     OW10561   3.584   0.782   1.521
 3221SOL    HW110562   3.649   0.856   1.501
 3221SOL    HW210563   3.610   0.701   1.467
 3222SOL     OW10564   3.601   1.707   2.416
 3222SOL    HW110565   3.529   1.699   2.485
 3222SOL    HW210566   3.560   1.709   2.325
 3223SOL     OW10567   1.927   6.880   6.298
 3223SOL    HW110568   1.853   6.879   6.365
 3223SOL    HW210569   2.010   6.843   6.340
 3224SOL     OW10570   4.359   3.962   6.155
 3224SOL    HW110571   4.367   3.940   6.252
 3224SOL    HW210572   4.292   3.900   6.113
 3225SOL     OW10573   4.943   2.775   6.642
 3225SOL    HW110574   4.933   2.686   6.598
 3225SOL    HW210575   5.025   2.775   6.700
 3226SOL     OW10576   2.232   1.515   3.400
 3226SOL    HW110577   2.328   1.509   3.373
 3226SOL    HW210578   2.221   1.588   3.467
 3227SOL     OW10579   3.448   2.811   0.065
 3227SOL    HW110580   3.490   2.752   0.134
 3227SOL    HW210581   3.369   2.764   0.025
 3228SOL     OW10582   6.789   4.207   2.797
 3228SOL    HW110583   6.736   4.132   2.839
 3228SOL    HW210584   6.821   4.269   2.868
 3229SOL     OW10585   4.058   6.996   4.663
 3229SOL    HW110586   4.052   6.906   4.621
 3229SOL    HW210587   4.072   0.045   4.592
 3230SOL     OW10588   1.921   3.570   5.144
 3230SOL    HW110589   1.997   3.616   5.098
 3230SOL    HW210590   1.945   3.553   5.240
 3231SOL     OW10591   2.825   1.410   1.374
 3231SOL    HW110592   2.729   1.396   1.351
 3231SOL    HW210593   2.868   1.322   1.396
 3232SOL     OW10594   4.751   5.466   5.064
 3232SOL    HW110595   4.749   5.425   5.155
 3232SOL    HW210596   4.830   5.527   5.056
 3233SOL     OW10597   0.800   3.338   1.677
 3233SOL    HW110598   0.747   3.265   1.635
 3233SOL    HW210599   0.856   3.301   1.751
 3234SOL     OW10600   0.108   1.797   7.004
 3234SOL    HW110601   0.149   1.775   0.072
 3234SOL    HW210602   0.162   1.868   6.959
 3235SOL     OW10603   5.709   0.789   1.973
 3235SOL    HW110604   5.636   0.817   1.909
 3235SOL    HW210605   5.669   0.764   2.061
 3236SOL     OW10606   1.843   3.198   0.343
 3236SOL    HW110607   1.777   3.251   0.290
 3236SOL    HW210608   1.840   3.226   0.439
 3237SOL     OW10609   5.089   1.449   3.939
 3237SOL    HW110610   5.105   1.395   4.021
 3237SOL    HW210611   5.166   1.510   3.923
 3238SOL     OW10612   6.606   5.345   1.249
 3238SOL    HW110613   6.548   5.418   1.212
 3238SOL    HW210614   6.550   5.265   1.269
 3239SOL     OW10615   0.056   1.712   1.977
 3239SOL    HW110616   0.065   1.716   1.878
 3239SOL    HW210617   7.013   1.639   2.003
 3240SOL     OW10618   0.309   6.970   6.648
 3240SOL    HW110619   0.262   7.014   6.572
 3240SOL    HW210620   0.266   6.881   6.667
 3241SOL     OW10621   4.372   1.894   5.490
 3241SOL    HW110622   4.316   1.843   5.556
 3241SOL    HW210623   4.339   1.877   5.398
 3242SOL     OW10624   3.919   4.262   6.980
 3242SOL    HW110625   3.960   4.280   6.890
 3242SOL    HW210626   3.820   4.271   6.973
 3243SOL     OW10627   4.162   4.303   0.457
 3243SOL    HW110628   4.112   4.321   0.373
 3243SOL    HW210629   4.150   4.380   0.520
 3244SOL     OW10630   5.023   5.341   0.262
 3244SOL    HW110631   5.117   5.336   0.295
 3244SOL    HW210632   5.014   5.287   0.179
 3245SOL     OW10633   5.078   2.863   4.999
 3245SOL    HW110634   5.115   2.946   4.958
 3245SOL    HW210635   4.988   2.882   5.038
 3246SOL     OW10636   5.586   0.158   2.353
 3246SOL    HW110637   5.570   0.167   2.451
 3246SOL    HW210638   5.630   0.241   2.318
 3247SOL     OW10639   5.762   4.984   2.589
 3247SOL    HW110640   5.701   4.997   2.511
 3247SOL    HW210641   5.724   4.915   2.650
 3248SOL     OW10642   6.392   3.745   0.980
 3248SOL    HW110643   6.412   3.675   0.912
 3248SOL    HW210644   6.433   3.832   0.952
 3249SOL     OW10645   3.747   3.239   4.358
 3249SOL    HW110646   3.815   3.200   4.296
 3249SOL    HW210647   3.791   3.265   4.444
 3250SOL     OW10648   5.685   6.629   2.159
 3250SOL    HW110649   5.739   6.546   2.150
 3250SOL    HW210650   5.637   6.629   2.247
 3251SOL     OW10651   3.045   0.577   3.692
 3251SOL    HW110652   3.043   0.675   3.713
 3251SOL    HW210653   3.121   0.558   3.630
 3252SOL     OW10654   2.255   1.491   2.926
 3252SOL    HW110655   2.209   1.544   2.998
 3252SOL    HW210656   2.189   1.436   2.876
 3253SOL     OW10657   5.237   4.150   2.101
 3253SOL    HW110658   5.198   4.104   2.022
 3253SOL    HW210659   5.171   4.216   2.137
 3254SOL     OW10660   5.007   5.356   5.217
 3254SOL    HW110661   5.012   5.450   5.184
 3254SOL    HW210662   4.916   5.338   5.254
 3255SOL     OW10663   5.575   5.922   0.276
 3255SOL    HW110664   5.527   5.838   0.304
 3255SOL    HW210665   5.512   6.000   0.283
 3256SOL     OW10666   3.009   1.285   0.351
 3256SOL    HW110667   2.968   1.298   0.441
 3256SOL    HW210668   3.097   1.331   0.348
 3257SOL     OW10669   1.689   1.786   1.964
 3257SOL    HW110670   1.603   1.741   1.936
 3257SOL    HW210671   1.705   1.770   2.061
 3258SOL     OW10672   4.294   4.560   1.841
 3258SOL    HW110673   4.318   4.508   1.923
 3258SOL    HW210674   4.307   4.502   1.760
 3259SOL     OW10675   4.833   5.495   4.085
 3259SOL    HW110676   4.810   5.420   4.022
 3259SOL    HW210677   4.753   5.517   4.141
 3260SOL     OW10678   1.654   1.924   0.748
 3260SOL    HW110679   1.679   2.009   0.793
 3260SOL    HW210680   1.684   1.846   0.804
 3261SOL     OW10681   5.400   0.085   0.837
 3261SOL    HW110682   5.396   0.153   0.764
 3261SOL    HW210683   5.309   0.049   0.855
 3262SOL     OW10684   3.292   2.034   2.909
 3262SOL    HW110685   3.327   1.977   2.835
 3262SOL    HW210686   3.270   1.977   2.988
 3263SOL     OW10687   2.526   0.655   3.430
 3263SOL    HW110688   2.432   0.688   3.442
 3263SOL    HW210689   2.580   0.681   3.510
 3264SOL     OW10690   1.486   4.253   1.148
 3264SOL    HW110691   1.536   4.326   1.193
 3264SOL    HW210692   1.534   4.167   1.159
 3265SOL     OW10693   5.870   0.500   6.447
 3265SOL    HW110694   5.866   0.580   6.507
 3265SOL    HW210695   5.849   0.528   6.354
 3266SOL     OW10696   1.958   4.132   0.850
 3266SOL    HW110697   1.928   4.154   0.943
 3266SOL    HW210698   1.883   4.091   0.799
 3267SOL     OW10699   3.794   7.008   0.522
 3267SOL    HW110700   3.751   0.061   0.468
 3267SOL    HW210701   3.846   0.029   0.597
 3268SOL     OW10702   1.178   3.654   0.913
 3268SOL    HW110703   1.245   3.590   0.950
 3268SOL    HW210704   1.091   3.644   0.962
 3269SOL     OW10705   4.729   5.816   2.470
 3269SOL    HW110706   4.645   5.808   2.524
 3269SOL    HW210707   4.802   5.766   2.517
 3270SOL     OW10708   1.077   4.455   6.326
 3270SOL    HW110709   1.064   4.361   6.356
 3270SOL    HW210710   1.067   4.517   6.404
 3271SOL     OW10711   5.801   3.854   3.101
 3271SOL    HW110712   5.879   3.911   3.125
 3271SOL    HW210713   5.773   3.872   3.007
 3272SOL     OW10714   3.205   4.821   6.195
 3272SOL    HW110715   3.205   4.750   6.265
 3272SOL    HW210716   3.112   4.832   6.159
 3273SOL     OW10717   0.948   6.419   0.834
 3273SOL    HW110718   1.024   6.439   0.895
 3273SOL    HW210719   0.867   6.394   0.887
 3274SOL     OW10720   4.706   0.572   1.008
 3274SOL    HW110721   4.608   0.589   0.997
 3274SOL    HW210722   4.741   0.526   0.926
 3275SOL     OW10723   6.768   1.609   6.633
 3275SOL    HW110724   6.866   1.611   6.650
 3275SOL    HW210725   6.721   1.573   6.714
 3276SOL     OW10726   2.208   5.875   0.533
 3276SOL    HW110727   2.249   5.928   0.607
 3276SOL    HW210728   2.125   5.830   0.566
 3277SOL     OW10729   4.190   6.866   0.012
 3277SOL    HW110730   4.276   6.882   6.982
 3277SOL    HW210731   4.126   6.816   6.974
 3278SOL     OW10732   0.927   1.294   5.624
 3278SOL    HW110733   0.975   1.225   5.678
 3278SOL    HW210734   0.991   1.365   5.595
 3279SOL     OW10735   5.694   0.568   6.828
 3279SOL    HW110736   5.709   0.658   6.867
 3279SOL    HW210737   5.641   0.576   6.743
 3280SOL     OW10738   4.010   5.136   4.484
 3280SOL    HW110739   4.036   5.119   4.389
 3280SOL    HW210740   3.993   5.234   4.496
 3281SOL     OW10741   2.183   5.711   1.879
 3281SOL    HW110742   2.206   5.808   1.888
 3281SOL    HW210743   2.095   5.702   1.832
 3282SOL     OW10744   0.049   4.642   5.563
 3282SOL    HW110745   0.061   4.595   5.475
 3282SOL    HW210746   0.136   4.641   5.613
 3283SOL     OW10747   3.968   1.108   0.997
 3283SOL    HW110748   4.050   1.062   0.963
 3283SOL    HW210749   3.930   1.165   0.925
 3284SOL     OW10750   0.117   5.206   0.177
 3284SOL    HW110751   0.198   5.225   0.121
 3284SOL    HW210752   0.048   5.276   0.159
 3285SOL     OW10753   4.912   2.822   3.234
 3285SOL    HW110754   4.849   2.745   3.243
 3285SOL    HW210755   4.976   2.805   3.160
 3286SOL     OW10756   3.769   3.309   2.754
 3286SOL    HW110757   3.854   3.257   2.761
 3286SOL    HW210758   3.789   3.399   2.713
 3287SOL     OW10759   0.574   0.671   6.979
 3287SOL    HW110760   0.621   0.624   6.904
 3287SOL    HW210761   0.477   0.679   6.957
 3288SOL     OW10762   0.440   5.552   6.396
 3288SOL    HW110763   0.392   5.532   6.311
 3288SOL    HW210764   0.377   5.593   6.461
 3289SOL     OW10765   2.756   6.579   5.894
 3289SOL    HW110766   2.706   6.665   5.890
 3289SOL    HW210767   2.818   6.579   5.973
 3290SOL     OW10768   0.556   6.972   2.235
 3290SOL    HW110769   0.641   7.003   2.277
 3290SOL    HW210770   0.518   0.026   2.178
 3291SOL     OW10771   2.089   6.897   1.079
 3291SOL    HW110772   2.076   6.950   1.163
 3291SOL    HW210773   2.136   6.954   1.012
 3292SOL     OW10774   0.671   1.014   1.058
 3292SOL    HW110775   0.647   0.938   1.118
 3292SOL    HW210776   0.765   1.043   1.077
 3293SOL     OW10777   0.254   3.487   2.460
 3293SOL    HW110778   0.259   3.463   2.557
 3293SOL    HW210779   0.162   3.468   2.426
 3294SOL     OW10780   6.314   1.831   6.485
 3294SOL    HW110781   6.305   1.865   6.392
 3294SOL    HW210782   6.300   1.732   6.486
 3295SOL     OW10783   1.195   2.927   2.190
 3295SOL    HW110784   1.280   2.893   2.230
 3295SOL    HW210785   1.119   2.911   2.253
 3296SOL     OW10786   1.575   6.987   2.090
 3296SOL    HW110787   1.507   7.013   2.158
 3296SOL    HW210788   1.608   0.049   2.043
 3297SOL     OW10789   3.047   0.757   4.421
 3297SOL    HW110790   3.098   0.840   4.441
 3297SOL    HW210791   3.112   0.682   4.404
 3298SOL     OW10792   5.854   1.486   5.137
 3298SOL    HW110793   5.934   1.547   5.138
 3298SOL    HW210794   5.775   1.538   5.104
 3299SOL     OW10795   2.932   5.379   3.209
 3299SOL    HW110796   2.840   5.406   3.237
 3299SOL    HW210797   2.937   5.377   3.109
 3300SOL     OW10798   6.682   0.461   5.306
 3300SOL    HW110799   6.625   0.437   5.385
 3300SOL    HW210800   6.694   0.560   5.301
 3301SOL     OW10801   1.964   3.109   3.439
 3301SOL    HW110802   1.959   3.185   3.505
 3301SOL    HW210803   2.008   3.031   3.482
 3302SOL     OW10804   6.735   4.580   5.374
 3302SOL    HW110805   6.748   4.640   5.453
 3302SOL    HW210806   6.673   4.625   5.309
 3303SOL     OW10807   3.355   3.422   1.397
 3303SOL    HW110808   3.295   3.354   1.357
 3303SOL    HW210809   3.407   3.380   1.473
 3304SOL     OW10810   0.682   5.861   4.328
 3304SOL    HW110811   0.683   5.785   4.393
 3304SOL    HW210812   0.588   5.886   4.307
 3305SOL     OW10813   2.022   1.370   2.876
 3305SOL    HW110814   1.988   1.424   2.953
 3305SOL    HW210815   2.073   1.291   2.911
 3306SOL     OW10816   1.713   5.487   5.209
 3306SOL    HW110817   1.694   5.533   5.296
 3306SOL    HW210818   1.800   5.439   5.215
 3307SOL     OW10819   6.929   5.722   0.409
 3307SOL    HW110820   6.830   5.715   0.411
 3307SOL    HW210821   6.958   5.762   0.321
 3308SOL     OW10822   2.870   6.346   0.383
 3308SOL    HW110823   2.962   6.306   0.377
 3308SOL    HW210824   2.819   6.301   0.456
 3309SOL     OW10825   7.013   6.178   2.658
 3309SOL    HW110826   7.018   6.141   2.565
 3309SOL    HW210827   0.043   6.118   2.721
 3310SOL     OW10828   0.036   2.989   5.982
 3310SOL    HW110829   0.067   2.902   5.944
 3310SOL    HW210830   6.961   3.006   5.952
 3311SOL     OW10831   2.101   4.252   1.839
 3311SOL    HW110832   2.113   4.176   1.776
 3311SOL    HW210833   2.180   4.313   1.834
 3312SOL     OW10834   4.182   4.467   6.012
 3312SOL    HW110835   4.244   4.393   6.038
 3312SOL    HW210836   4.135   4.502   6.093
 3313SOL     OW10837   0.500   5.646   3.203
 3313SOL    HW110838   0.485   5.645   3.104
 3313SOL    HW210839   0.510   5.553   3.237
 3314SOL     OW10840   3.058   1.156   3.280
 3314SOL    HW110841   3.019   1.188   3.194
 3314SOL    HW210842   3.155   1.178   3.283
 3315SOL     OW10843   6.877   3.452   5.033
 3315SOL    HW110844   6.885   3.355   5.010
 3315SOL    HW210845   6.789   3.469   5.077
 3316SOL     OW10846   4.996   1.521   6.261
 3316SOL    HW110847   5.085   1.481   6.238
 3316SOL    HW210848   4.977   1.505   6.358
 3317SOL     OW10849   4.392   3.135   1.667
 3317SOL    HW110850   4.299   3.169   1.680
 3317SOL    HW210851   4.428   3.104   1.755
 3318SOL     OW10852   2.752   1.246   0.869
 3318SOL    HW110853   2.738   1.342   0.844
 3318SOL    HW210854   2.847   1.220   0.850
 3319SOL     OW10855   6.746   0.999   3.994
 3319SOL    HW110856   6.782   1.058   4.066
 3319SOL    HW210857   6.819   0.974   3.931
 3320SOL     OW10858   5.476   0.189   4.559
 3320SOL    HW110859   5.393   0.233   4.592
 3320SOL    HW210860   5.470   0.090   4.572
 3321SOL     OW10861   4.642   1.569   0.564
 3321SOL    HW110862   4.622   1.515   0.481
 3321SOL    HW210863   4.697   1.649   0.538
 3322SOL     OW10864   5.723   3.140   0.607
 3322SOL    HW110865   5.722   3.224   0.552
 3322SOL    HW210866   5.700   3.062   0.550
 3323SOL     OW10867   2.881   3.077   0.596
 3323SOL    HW110868   2.832   3.086   0.683
 3323SOL    HW210869   2.826   3.024   0.532
 3324SOL     OW10870   3.274   5.447   0.043
 3324SOL    HW110871   3.346   5.509   0.075
 3324SOL    HW210872   3.201   5.500   7.020
 3325SOL     OW10873   1.292   3.217   6.711
 3325SOL    HW110874   1.212   3.256   6.756
 3325SOL    HW210875   1.299   3.253   6.618
 3326SOL     OW10876   4.894   2.144   2.103
 3326SOL    HW110877   4.973   2.087   2.081
 3326SOL    HW210878   4.811   2.088   2.100
 3327SOL     OW10879   2.745   6.200   1.672
 3327SOL    HW110880   2.811   6.275   1.664
 3327SOL    HW210881   2.655   6.231   1.642
 3328SOL     OW10882   4.261   1.586   1.158
 3328SOL    HW110883   4.337   1.542   1.206
 3328SOL    HW210884   4.276   1.579   1.059
 3329SOL     OW10885   4.981   6.780   4.282
 3329SOL    HW110886   5.035   6.701   4.310
 3329SOL    HW210887   5.028   6.829   4.208
 3330SOL     OW10888   6.303   4.853   1.396
 3330SOL    HW110889   6.234   4.924   1.408
 3330SOL    HW210890   6.296   4.786   1.470
 3331SOL     OW10891   1.742   3.228   0.976
 3331SOL    HW110892   1.659   3.284   0.981
 3331SOL    HW210893   1.820   3.287   0.959
 3332SOL     OW10894   6.448   5.046   0.136
 3332SOL    HW110895   6.374   5.081   0.078
 3332SOL    HW210896   6.532   5.041   0.082
 3333SOL     OW10897   3.637   3.987   6.976
 3333SOL    HW110898   3.659   4.084   6.964
 3333SOL    HW210899   3.577   3.956   6.903
 3334SOL     OW10900   2.730   3.681   0.851
 3334SOL    HW110901   2.688   3.655   0.938
 3334SOL    HW210902   2.668   3.658   0.776
 3335SOL     OW10903   5.031   6.579   5.138
 3335SOL    HW110904   4.962   6.571   5.210
 3335SOL    HW210905   5.086   6.661   5.153
 3336SOL     OW10906   1.789   6.745   4.175
 3336SOL    HW110907   1.765   6.840   4.154
 3336SOL    HW210908   1.889   6.734   4.175
 3337SOL     OW10909   2.866   3.546   1.928
 3337SOL    HW110910   2.766   3.536   1.924
 3337SOL    HW210911   2.909   3.456   1.926
 3338SOL     OW10912   5.912   3.406   2.050
 3338SOL    HW110913   5.830   3.418   1.994
 3338SOL    HW210914   5.939   3.310   2.049
 3339SOL     OW10915   0.618   0.158   6.803
 3339SOL    HW110916   0.702   0.143   6.855
 3339SOL    HW210917   0.596   0.076   6.751
 3340SOL     OW10918   3.963   1.933   3.346
 3340SOL    HW110919   3.885   1.876   3.321
 3340SOL    HW210920   3.982   1.922   3.444
 3341SOL     OW10921   0.673   5.414   3.110
 3341SOL    HW110922   0.657   5.380   3.202
 3341SOL    HW210923   0.705   5.338   3.052
 3342SOL     OW10924   1.707   6.398   3.795
 3342SOL    HW110925   1.805   6.379   3.797
 3342SOL    HW210926   1.683   6.459   3.871
 3343SOL     OW10927   5.262   3.265   0.007
 3343SOL    HW110928   5.328   3.328   0.047
 3343SOL    HW210929   5.174   3.311   7.017
 3344SOL     OW10930   5.777   3.202   3.936
 3344SOL    HW110931   5.788   3.147   3.853
 3344SOL    HW210932   5.777   3.141   4.016
 3345SOL     OW10933   2.033   2.899   5.898
 3345SOL    HW110934   2.109   2.926   5.956
 3345SOL    HW210935   2.050   2.929   5.804
 3346SOL     OW10936   1.529   1.403   0.147
 3346SOL    HW110937   1.506   1.415   0.244
 3346SOL    HW210938   1.455   1.439   0.090
 3347SOL     OW10939   0.681   3.363   5.759
 3347SOL    HW110940   0.727   3.424   5.695
 3347SOL    HW210941   0.724   3.273   5.756
 3348SOL     OW10942   3.481   3.857   4.307
 3348SOL    HW110943   3.407   3.912   4.267
 3348SOL    HW210944   3.459   3.838   4.403
 3349SOL     OW10945   1.404   5.278   3.119
 3349SOL    HW110946   1.470   5.216   3.161
 3349SOL    HW210947   1.388   5.250   3.024
 3350SOL     OW10948   0.583   2.594   5.870
 3350SOL    HW110949   0.553   2.639   5.786
 3350SOL    HW210950   0.640   2.515   5.847
 3351SOL     OW10951   4.548   0.788   2.663
 3351SOL    HW110952   4.569   0.880   2.694
 3351SOL    HW210953   4.559   0.724   2.739
 3352SOL     OW10954   6.899   2.424   0.415
 3352SOL    HW110955   6.958   2.489   0.367
 3352SOL    HW210956   6.879   2.460   0.507
 3353SOL     OW10957   2.673   5.705   1.620
 3353SOL    HW110958   2.771   5.720   1.624
 3353SOL    HW210959   2.632   5.733   1.707
 3354SOL     OW10960   4.767   2.410   5.939
 3354SOL    HW110961   4.841   2.419   5.873
 3354SOL    HW210962   4.780   2.327   5.993
 3355SOL     OW10963   2.543   1.890   6.091
 3355SOL    HW110964   2.604   1.904   6.013
 3355SOL    HW210965   2.448   1.890   6.061
 3356SOL     OW10966   0.441   5.084   5.487
 3356SOL    HW110967   0.402   5.016   5.425
 3356SOL    HW210968   0.427   5.176   5.450
 3357SOL     OW10969   2.148   3.827   2.103
 3357SOL    HW110970   2.182   3.755   2.164
 3357SOL    HW210971   2.120   3.786   2.016
 3358SOL     OW10972   4.965   1.354   1.257
 3358SOL    HW110973   5.036   1.377   1.189
 3358SOL    HW210974   4.875   1.367   1.216
 3359SOL     OW10975   0.265   6.801   2.761
 3359SOL    HW110976   0.225   6.837   2.845
 3359SOL    HW210977   0.311   6.874   2.711
 3360SOL     OW10978   1.736   1.512   0.017
 3360SOL    HW110979   1.787   1.584   0.064
 3360SOL    HW210980   1.675   1.466   0.081
 3361SOL     OW10981   0.797   5.212   4.088
 3361SOL    HW110982   0.841   5.136   4.039
 3361SOL    HW210983   0.866   5.262   4.141
 3362SOL     OW10984   3.804   1.536   2.723
 3362SOL    HW110985   3.898   1.502   2.713
 3362SOL    HW210986   3.804   1.635   2.717
 3363SOL     OW10987   6.290   0.139   2.062
 3363SOL    HW110988   6.193   0.163   2.056
 3363SOL    HW210989   6.343   0.222   2.082
 3364SOL     OW10990   1.323   5.214   3.704
 3364SOL    HW110991   1.314   5.200   3.606
 3364SOL    HW210992   1.322   5.126   3.751
 3365SOL     OW10993   6.841   2.234   5.244
 3365SOL    HW110994   6.858   2.216   5.147
 3365SOL    HW210995   6.877   2.324   5.268
 3366SOL     OW10996   6.146   5.479   4.929
 3366SOL    HW110997   6.191   5.513   4.846
 3366SOL    HW210998   6.126   5.382   4.918
 3367SOL     OW10999   3.865   3.027   2.314
 3367SOL    HW111000   3.792   3.072   2.365
 3367SOL    HW211001   3.949   3.027   2.369
 3368SOL     OW11002   0.688   5.614   6.264
 3368SOL    HW111003   0.607   5.652   6.309
 3368SOL    HW211004   0.703   5.521   6.296
 3369SOL     OW11005   3.681   1.911   0.114
 3369SOL    HW111006   3.691   2.006   0.142
 3369SOL    HW211007   3.585   1.884   0.120
 3370SOL     OW11008   0.444   6.050   0.604
 3370SOL    HW111009   0.425   6.030   0.700
 3370SOL    HW211010   0.368   6.017   0.548
 3371SOL     OW11011   2.474   2.635   1.873
 3371SOL    HW111012   2.407   2.707   1.893
 3371SOL    HW211013   2.498   2.588   1.958
 3372SOL     OW11014   0.435   2.130   1.713
 3372SOL    HW111015   0.413   2.064   1.640
 3372SOL    HW211016   0.356   2.140   1.773
 3373SOL     OW11017   6.985   1.263   3.737
 3373SOL    HW111018   6.908   1.307   3.782
 3373SOL    HW211019   0.051   1.293   3.780
 3374SOL     OW11020   1.443   6.198   4.559
 3374SOL    HW111021   1.410   6.109   4.591
 3374SOL    HW211022   1.482   6.188   4.468
 3375SOL     OW11023   6.920   4.607   6.642
 3375SOL    HW111024   6.914   4.570   6.735
 3375SOL    HW211025   6.996   4.672   6.637
 3376SOL     OW11026   4.066   3.680   4.225
 3376SOL    HW111027   4.127   3.603   4.247
 3376SOL    HW211028   3.999   3.690   4.298
 3377SOL     OW11029   0.131   5.930   6.301
 3377SOL    HW111030   0.082   5.865   6.360
 3377SOL    HW211031   0.173   6.001   6.358
 3378SOL     OW11032   0.604   1.388   0.719
 3378SOL    HW111033   0.703   1.393   0.721
 3378SOL    HW211034   0.573   1.322   0.788
 3379SOL     OW11035   0.060   0.122   6.135
 3379SOL    HW111036   0.017   0.032   6.133
 3379SOL    HW211037   0.033   0.169   6.220
 3380SOL     OW11038   5.784   6.134   4.894
 3380SOL    HW111039   5.769   6.170   4.986
 3380SOL    HW211040   5.741   6.044   4.886
 3381SOL     OW11041   0.605   2.743   1.715
 3381SOL    HW111042   0.651   2.784   1.636
 3381SOL    HW211043   0.551   2.813   1.761
 3382SOL     OW11044   0.953   2.557   0.710
 3382SOL    HW111045   0.897   2.474   0.710
 3382SOL    HW211046   1.045   2.534   0.742
 3383SOL     OW11047   4.685   5.901   1.185
 3383SOL    HW111048   4.754   5.830   1.203
 3383SOL    HW211049   4.729   5.990   1.180
 3384SOL     OW11050   2.849   3.348   6.529
 3384SOL    HW111051   2.929   3.385   6.577
 3384SOL    HW211052   2.814   3.269   6.580
 3385SOL     OW11053   6.767   3.293   4.452
 3385SOL    HW111054   6.788   3.379   4.498
 3385SOL    HW211055   6.807   3.217   4.502
 3386SOL     OW11056   5.582   4.189   6.938
 3386SOL    HW111057   5.534   4.121   6.993
 3386SOL    HW211058   5.593   4.273   6.992
 3387SOL     OW11059   3.073   0.240   2.621
 3387SOL    HW111060   3.051   0.234   2.524
 3387SOL    HW211061   2.995   0.207   2.675
 3388SOL     OW11062   5.388   2.657   1.349
 3388SOL    HW111063   5.458   2.716   1.387
 3388SOL    HW211064   5.315   2.644   1.416
 3389SOL     OW11065   5.728   5.223   6.446
 3389SOL    HW111066   5.665   5.155   6.482
 3389SOL    HW211067   5.755   5.199   6.353
 3390SOL     OW11068   5.889   6.042   6.581
 3390SOL    HW111069   5.887   6.131   6.537
 3390SOL    HW211070   5.795   6.011   6.597
 3391SOL     OW11071   4.913   3.096   5.037
 3391SOL    HW111072   4.873   3.081   5.127
 3391SOL    HW211073   4.879   3.182   5.000
 3392SOL     OW11074   2.612   0.728   3.659
 3392SOL    HW111075   2.651   0.817   3.639
 3392SOL    HW211076   2.620   0.710   3.757
 3393SOL     OW11077   0.588   6.270   0.655
 3393SOL    HW111078   0.521   6.196   0.644
 3393SOL    HW211079   0.577   6.336   0.580
 3394SOL     OW11080   5.536   3.124   1.364
 3394SOL    HW111081   5.444   3.096   1.336
 3394SOL    HW211082   5.544   3.224   1.354
 3395SOL     OW11083   5.177   3.689   3.315
 3395SOL    HW111084   5.084   3.653   3.305
 3395SOL    HW211085   5.206   3.731   3.230
 3396SOL     OW11086   5.302   2.020   3.257
 3396SOL    HW111087   5.221   1.960   3.260
 3396SOL    HW211088   5.355   2.001   3.175
 3397SOL     OW11089   3.028   6.311   5.790
 3397SOL    HW111090   2.975   6.342   5.711
 3397SOL    HW211091   2.970   6.311   5.871
 3398SOL     OW11092   1.049   6.780   4.756
 3398SOL    HW111093   1.093   6.780   4.845
 3398SOL    HW211094   1.067   6.693   4.710
 3399SOL     OW11095   5.588   3.695   3.538
 3399SOL    HW111096   5.534   3.734   3.463
 3399SOL    HW211097   5.649   3.765   3.575
 3400SOL     OW11098   4.011   3.305   5.865
 3400SOL    HW111099   4.055   3.303   5.775
 3400SOL    HW211100   4.007   3.399   5.899
 3401SOL     OW11101   0.730   2.892   1.533
 3401SOL    HW111102   0.734   2.990   1.510
 3401SOL    HW211103   0.803   2.870   1.597
 3402SOL     OW11104   4.324   5.809   6.899
 3402SOL    HW111105   4.309   5.883   6.964
 3402SOL    HW211106   4.236   5.764   6.879
 3403SOL     OW11107   2.987   5.458   5.319
 3403SOL    HW111108   2.892   5.482   5.336
 3403SOL    HW211109   3.012   5.482   5.225
 3404SOL     OW11110   5.377   1.480   6.987
 3404SOL    HW111111   5.301   1.525   6.941
 3404SOL    HW211112   5.370   1.494   0.066
 3405SOL     OW11113   6.738   3.969   5.712
 3405SOL    HW111114   6.781   4.055   5.739
 3405SOL    HW211115   6.782   3.935   5.629
 3406SOL     OW11116   0.804   3.838   2.200
 3406SOL    HW111117   0.744   3.877   2.269
 3406SOL    HW211118   0.830   3.908   2.133
 3407SOL     OW11119   1.533   4.540   6.053
 3407SOL    HW111120   1.592   4.594   6.114
 3407SOL    HW211121   1.575   4.451   6.036
 3408SOL     OW11122   4.859   3.845   4.715
 3408SOL    HW111123   4.852   3.746   4.730
 3408SOL    HW211124   4.872   3.862   4.617
 3409SOL     OW11125   3.430   6.543   6.569
 3409SOL    HW111126   3.490   6.622   6.584
 3409SOL    HW211127   3.470   6.485   6.498
 3410SOL     OW11128   6.549   6.945   1.038
 3410SOL    HW111129   6.512   0.016   1.056
 3410SOL    HW211130   6.608   6.948   0.957
 3411SOL     OW11131   0.385   3.327   2.054
 3411SOL    HW111132   0.416   3.308   1.960
 3411SOL    HW211133   0.409   3.421   2.078
 3412SOL     OW11134   4.620   2.854   0.613
 3412SOL    HW111135   4.655   2.873   0.704
 3412SOL    HW211136   4.575   2.935   0.576
 3413SOL     OW11137   5.986   1.488   0.659
 3413SOL    HW111138   5.984   1.586   0.678
 3413SOL    HW211139   6.081   1.457   0.656
 3414SOL     OW11140   3.571   1.222   6.265
 3414SOL    HW111141   3.491   1.205   6.323
 3414SOL    HW211142   3.586   1.321   6.257
 3415SOL     OW11143   1.954   3.809   4.301
 3415SOL    HW111144   1.964   3.897   4.346
 3415SOL    HW211145   2.042   3.763   4.294
 3416SOL     OW11146   6.435   5.905   0.815
 3416SOL    HW111147   6.505   5.921   0.746
 3416SOL    HW211148   6.355   5.962   0.795
 3417SOL     OW11149   0.423   6.706   3.162
 3417SOL    HW111150   0.432   6.677   3.257
 3417SOL    HW211151   0.397   6.628   3.105
 3418SOL     OW11152   3.030   6.290   3.525
 3418SOL    HW111153   3.085   6.261   3.603
 3418SOL    HW211154   2.941   6.245   3.528
 3419SOL     OW11155   2.789   6.043   5.568
 3419SOL    HW111156   2.785   5.951   5.530
 3419SOL    HW211157   2.702   6.089   5.553
 3420SOL     OW11158   5.861   3.103   4.254
 3420SOL    HW111159   5.922   3.164   4.203
 3420SOL    HW211160   5.791   3.067   4.193
 3421SOL     OW11161   4.844   1.304   5.300
 3421SOL    HW111162   4.836   1.396   5.339
 3421SOL    HW211163   4.889   1.310   5.211
 3422SOL     OW11164   2.536   0.364   0.854
 3422SOL    HW111165   2.447   0.398   0.823
 3422SOL    HW211166   2.570   0.424   0.927
 3423SOL     OW11167   0.430   4.908   6.526
 3423SOL    HW111168   0.358   4.842   6.547
 3423SOL    HW211169   0.487   4.873   6.451
 3424SOL     OW11170   2.826   6.828   0.928
 3424SOL    HW111171   2.754   6.891   0.956
 3424SOL    HW211172   2.785   6.742   0.898
 3425SOL     OW11173   5.152   5.322   2.325
 3425SOL    HW111174   5.054   5.303   2.327
 3425SOL    HW211175   5.189   5.314   2.418
 3426SOL     OW11176   4.136   2.825   0.508
 3426SOL    HW111177   4.203   2.777   0.452
 3426SOL    HW211178   4.111   2.911   0.463
 3427SOL     OW11179   0.203   0.883   0.072
 3427SOL    HW111180   0.126   0.832   0.111
 3427SOL    HW211181   0.271   0.819   0.037
 3428SOL     OW11182   2.145   5.607   0.331
 3428SOL    HW111183   2.113   5.660   0.253
 3428SOL    HW211184   2.080   5.616   0.407
 3429SOL     OW11185   0.819   1.873   0.783
 3429SOL    HW111186   0.764   1.796   0.751
 3429SOL    HW211187   0.759   1.949   0.807
 3430SOL     OW11188   1.475   6.502   5.151
 3430SOL    HW111189   1.538   6.579   5.158
 3430SOL    HW211190   1.520   6.426   5.104
 3431SOL     OW11191   1.720   0.337   1.342
 3431SOL    HW111192   1.746   0.251   1.298
 3431SOL    HW211193   1.737   0.413   1.279
 3432SOL     OW11194   2.156   2.760   6.646
 3432SOL    HW111195   2.197   2.780   6.557
 3432SOL    HW211196   2.079   2.821   6.662
 3433SOL     OW11197   1.104   0.009   5.161
 3433SOL    HW111198   1.026   0.060   5.196
 3433SOL    HW211199   1.170   7.014   5.234
 3434SOL     OW11200   4.432   0.920   1.641
 3434SOL    HW111201   4.437   0.918   1.741
 3434SOL    HW211202   4.490   0.848   1.603
 3435SOL     OW11203   1.192   1.621   1.337
 3435SOL    HW111204   1.173   1.665   1.425
 3435SOL    HW211205   1.237   1.686   1.275
 3436SOL     OW11206   4.120   6.523   6.763
 3436SOL    HW111207   4.173   6.607   6.776
 3436SOL    HW211208   4.148   6.455   6.831
 3437SOL     OW11209   2.071   0.138   5.218
 3437SOL    HW111210   2.130   0.164   5.142
 3437SOL    HW211211   2.080   0.206   5.292
 3438SOL     OW11212   1.350   2.967   6.862
 3438SOL    HW111213   1.338   3.039   6.794
 3438SOL    HW211214   1.298   2.886   6.834
 3439SOL     OW11215   2.279   5.831   4.799
 3439SOL    HW111216   2.236   5.742   4.786
 3439SOL    HW211217   2.218   5.891   4.850
 3440SOL     OW11218   2.942   3.525   1.008
 3440SOL    HW111219   2.854   3.541   1.053
 3440SOL    HW211220   3.010   3.502   1.078
 3441SOL     OW11221   6.014   5.410   5.884
 3441SOL    HW111222   5.988   5.447   5.795
 3441SOL    HW211223   6.043   5.314   5.873
 3442SOL     OW11224   2.104   4.607   2.030
 3442SOL    HW111225   2.054   4.574   1.950
 3442SOL    HW211226   2.129   4.530   2.088
 3443SOL     OW11227   4.086   6.144   1.141
 3443SOL    HW111228   4.091   6.117   1.044
 3443SOL    HW211229   4.028   6.225   1.150
 3444SOL     OW11230   5.385   5.269   0.090
 3444SOL    HW111231   5.447   5.318   0.028
 3444SOL    HW211232   5.317   5.218   0.037
 3445SOL     OW11233   6.458   5.532   2.960
 3445SOL    HW111234   6.374   5.569   2.920
 3445SOL    HW211235   6.437   5.447   3.008
 3446SOL     OW11236   6.686   1.225   2.104
 3446SOL    HW111237   6.602   1.177   2.127
 3446SOL    HW211238   6.665   1.318   2.074
 3447SOL     OW11239   5.711   5.023   0.741
 3447SOL    HW111240   5.703   5.043   0.643
 3447SOL    HW211241   5.622   4.997   0.777
 3448SOL     OW11242   3.620   0.649   0.031
 3448SOL    HW111243   3.552   0.701   6.998
 3448SOL    HW211244   3.577   0.612   0.113
 3449SOL     OW11245   5.369   5.891   4.870
 3449SOL    HW111246   5.468   5.896   4.856
 3449SOL    HW211247   5.333   5.811   4.822
 3450SOL     OW11248   6.774   2.495   6.741
 3450SOL    HW111249   6.776   2.406   6.697
 3450SOL    HW211250   6.750   2.484   6.838
 3451SOL     OW11251   2.461   6.143   0.557
 3451SOL    HW111252   2.432   6.141   0.461
 3451SOL    HW211253   2.382   6.125   0.616
 3452SOL     OW11254   6.013   0.740   6.237
 3452SOL    HW111255   5.999   0.748   6.336
 3452SOL    HW211256   6.111   0.728   6.218
 3453SOL     OW11257   7.018   6.148   6.921
 3453SOL    HW111258   6.997   6.051   6.907
 3453SOL    HW211259   6.937   6.195   6.955
 3454SOL     OW11260   1.248   2.772   5.155
 3454SOL    HW111261   1.336   2.795   5.197
 3454SOL    HW211262   1.182   2.748   5.227
 3455SOL     OW11263   2.626   1.924   4.524
 3455SOL    HW111264   2.702   1.987   4.507
 3455SOL    HW211265   2.653   1.831   4.498
 3456SOL     OW11266   5.450   5.482   1.953
 3456SOL    HW111267   5.510   5.426   1.896
 3456SOL    HW211268   5.429   5.432   2.038
 3457SOL     OW11269   2.944   5.500   2.866
 3457SOL    HW111270   2.880   5.439   2.819
 3457SOL    HW211271   3.013   5.532   2.801
 3458SOL     OW11272   4.630   0.820   2.224
 3458SOL    HW111273   4.661   0.915   2.237
 3458SOL    HW211274   4.591   0.786   2.309
 3459SOL     OW11275   5.437   3.271   2.557
 3459SOL    HW111276   5.346   3.280   2.518
 3459SOL    HW211277   5.498   3.338   2.515
 3460SOL     OW11278   2.400   2.905   0.571
 3460SOL    HW111279   2.457   2.941   0.645
 3460SOL    HW211280   2.324   2.853   0.610
 3461SOL     OW11281   4.923   4.565   5.104
 3461SOL    HW111282   4.878   4.479   5.124
 3461SOL    HW211283   4.867   4.618   5.040
 3462SOL     OW11284   0.192   4.757   3.226
 3462SOL    HW111285   0.110   4.747   3.282
 3462SOL    HW211286   0.230   4.666   3.206
 3463SOL     OW11287   1.158   4.142   2.259
 3463SOL    HW111288   1.229   4.100   2.202
 3463SOL    HW211289   1.147   4.238   2.233
 3464SOL     OW11290   6.887   4.195   5.736
 3464SOL    HW111291   6.884   4.284   5.780
 3464SOL    HW211292   6.966   4.144   5.769
 3465SOL     OW11293   1.637   1.790   2.240
 3465SOL    HW111294   1.635   1.765   2.337
 3465SOL    HW211295   1.573   1.865   2.224
 3466SOL     OW11296   0.072   4.658   0.131
 3466SOL    HW111297   0.071   4.747   0.085
 3466SOL    HW211298   0.126   4.665   0.215
 3467SOL     OW11299   1.925   2.818   0.016
 3467SOL    HW111300   2.002   2.817   0.080
 3467SOL    HW211301   1.955   2.857   6.948
 3468SOL     OW11302   4.913   6.461   2.885
 3468SOL    HW111303   4.828   6.410   2.884
 3468SOL    HW211304   4.932   6.494   2.977
 3469SOL     OW11305   5.395   0.801   2.491
 3469SOL    HW111306   5.416   0.862   2.414
 3469SOL    HW211307   5.369   0.855   2.571
 3470SOL     OW11308   6.126   4.063   0.909
 3470SOL    HW111309   6.173   4.020   0.832
 3470SOL    HW211310   6.180   4.142   0.940
 3471SOL     OW11311   4.288   4.985   4.423
 3471SOL    HW111312   4.262   4.985   4.520
 3471SOL    HW211313   4.211   5.019   4.369
 3472SOL     OW11314   2.650   1.109   2.297
 3472SOL    HW111315   2.671   1.019   2.334
 3472SOL    HW211316   2.552   1.129   2.310
 3473SOL     OW11317   0.525   2.572   1.086
 3473SOL    HW111318   0.444   2.559   1.144
 3473SOL    HW211319   0.591   2.629   1.134
 3474SOL     OW11320   1.561   5.295   2.245
 3474SOL    HW111321   1.466   5.328   2.249
 3474SOL    HW211322   1.593   5.276   2.337
 3475SOL     OW11323   0.594   5.268   3.857
 3475SOL    HW111324   0.683   5.313   3.867
 3475SOL    HW211325   0.600   5.195   3.789
 3476SOL     OW11326   3.067   1.624   3.395
 3476SOL    HW111327   3.010   1.578   3.327
 3476SOL    HW211328   3.072   1.568   3.478
 3477SOL     OW11329   2.711   5.100   0.993
 3477SOL    HW111330   2.776   5.164   1.034
 3477SOL    HW211331   2.641   5.076   1.060
 3478SOL     OW11332   2.331   5.713   5.062
 3478SOL    HW111333   2.293   5.801   5.032
 3478SOL    HW211334   2.259   5.644   5.062
 3479SOL     OW11335   1.898   0.808   3.140
 3479SOL    HW111336   1.868   0.740   3.073
 3479SOL    HW211337   1.877   0.900   3.106
 3480SOL     OW11338   6.973   6.973   5.051
 3480SOL    HW111339   0.002   7.018   5.126
 3480SOL    HW211340   6.881   7.010   5.045
 3481SOL     OW11341   4.634   0.416   0.570
 3481SOL    HW111342   4.547   0.369   0.554
 3481SOL    HW211343   4.633   0.504   0.523
 3482SOL     OW11344   5.923   1.491   1.800
 3482SOL    HW111345   5.852   1.437   1.847
 3482SOL    HW211346   6.011   1.445   1.810
 3483SOL     OW11347   4.628   1.443   1.456
 3483SOL    HW111348   4.705   1.383   1.479
 3483SOL    HW211349   4.578   1.466   1.540
 3484SOL     OW11350   1.867   3.618   0.736
 3484SOL    HW111351   1.942   3.681   0.718
 3484SOL    HW211352   1.804   3.658   0.802
 3485SOL     OW11353   1.833   1.089   4.249
 3485SOL    HW111354   1.891   1.016   4.214
 3485SOL    HW211355   1.886   1.173   4.258
 3486SOL     OW11356   2.965   1.138   2.794
 3486SOL    HW111357   3.026   1.113   2.869
 3486SOL    HW211358   2.888   1.190   2.829
 3487SOL     OW11359   5.564   2.443   6.100
 3487SOL    HW111360   5.626   2.492   6.038
 3487SOL    HW211361   5.566   2.345   6.078
 3488SOL     OW11362   6.152   1.603   4.906
 3488SOL    HW111363   6.093   1.602   4.987
 3488SOL    HW211364   6.121   1.675   4.844
 3489SOL     OW11365   3.148   6.983   0.632
 3489SOL    HW111366   3.070   6.922   0.644
 3489SOL    HW211367   3.231   6.937   0.665
 3490SOL     OW11368   4.112   4.746   0.238
 3490SOL    HW111369   4.012   4.737   0.235
 3490SOL    HW211370   4.150   4.717   0.150
 3491SOL     OW11371   5.595   2.884   5.191
 3491SOL    HW111372   5.557   2.976   5.179
 3491SOL    HW211373   5.533   2.830   5.249
 3492SOL     OW11374   0.287   5.972   1.331
 3492SOL    HW111375   0.233   5.897   1.369
 3492SOL    HW211376   0.367   5.936   1.284
 3493SOL     OW11377   5.450   4.157   6.279
 3493SOL    HW111378   5.425   4.252   6.258
 3493SOL    HW211379   5.536   4.135   6.232
 3494SOL     OW11380   3.735   0.734   1.776
 3494SOL    HW111381   3.799   0.711   1.703
 3494SOL    HW211382   3.641   0.721   1.744
 3495SOL     OW11383   4.882   5.261   2.488
 3495SOL    HW111384   4.821   5.338   2.506
 3495SOL    HW211385   4.939   5.244   2.569
 3496SOL     OW11386   6.799   4.087   0.435
 3496SOL    HW111387   6.768   4.165   0.491
 3496SOL    HW211388   6.722   4.025   0.419
 3497SOL     OW11389   3.283   0.572   3.487
 3497SOL    HW111390   3.266   0.496   3.423
 3497SOL    HW211391   3.270   0.659   3.440
 3498SOL     OW11392   2.500   2.318   0.850
 3498SOL    HW111393   2.523   2.245   0.786
 3498SOL    HW211394   2.481   2.402   0.799
 3499SOL     OW11395   4.728   2.877   4.469
 3499SOL    HW111396   4.661   2.847   4.400
 3499SOL    HW211397   4.750   2.801   4.529
 3500SOL     OW11398   1.302   3.652   4.750
 3500SOL    HW111399   1.224   3.619   4.804
 3500SOL    HW211400   1.371   3.581   4.744
 3501SOL     OW11401   1.705   5.179   4.411
 3501SOL    HW111402   1.672   5.226   4.329
 3501SOL    HW211403   1.737   5.088   4.386
 3502SOL     OW11404   6.028   2.723   2.399
 3502SOL    HW111405   5.964   2.677   2.337
 3502SOL    HW211406   6.030   2.821   2.377
 3503SOL     OW11407   6.707   6.339   4.973
 3503SOL    HW111408   6.773   6.310   4.904
 3503SOL    HW211409   6.654   6.417   4.938
 3504SOL     OW11410   2.111   2.192   1.182
 3504SOL    HW111411   2.170   2.150   1.113
 3504SOL    HW211412   2.153   2.182   1.272
 3505SOL     OW11413   5.250   5.001   5.065
 3505SOL    HW111414   5.199   5.084   5.042
 3505SOL    HW211415   5.228   4.930   4.998
 3506SOL     OW11416   4.673   5.388   6.172
 3506SOL    HW111417   4.691   5.420   6.079
 3506SOL    HW211418   4.751   5.410   6.231
 3507SOL     OW11419   2.320   0.913   0.373
 3507SOL    HW111420   2.225   0.891   0.394
 3507SOL    HW211421   2.333   0.910   0.274
 3508SOL     OW11422   3.177   2.368   6.177
 3508SOL    HW111423   3.151   2.414   6.092
 3508SOL    HW211424   3.107   2.386   6.246
 3509SOL     OW11425   5.997   6.973   5.560
 3509SOL    HW111426   5.918   6.975   5.498
 3509SOL    HW211427   5.966   6.987   5.654
 3510SOL     OW11428   1.998   2.708   1.368
 3510SOL    HW111429   1.954   2.623   1.339
 3510SOL    HW211430   1.929   2.778   1.384
 3511SOL     OW11431   1.933   4.898   0.715
 3511SOL    HW111432   1.978   4.827   0.661
 3511SOL    HW211433   1.895   4.858   0.798
 3512SOL     OW11434   0.318   5.055   0.702
 3512SOL    HW111435   0.296   5.077   0.607
 3512SOL    HW211436   0.240   5.011   0.746
 3513SOL     OW11437   6.055   3.683   0.469
 3513SOL    HW111438   6.028   3.779   0.466
 3513SOL    HW211439   6.139   3.674   0.521
 3514SOL     OW11440   0.769   1.407   2.138
 3514SOL    HW111441   0.808   1.499   2.143
 3514SOL    HW211442   0.723   1.386   2.225
 3515SOL     OW11443   4.226   6.116   3.251
 3515SOL    HW111444   4.154   6.123   3.320
 3515SOL    HW211445   4.234   6.203   3.202
 3516SOL     OW11446   4.854   6.785   0.796
 3516SOL    HW111447   4.864   6.793   0.697
 3516SOL    HW211448   4.900   6.701   0.827
 3517SOL     OW11449   0.660   2.126   0.832
 3517SOL    HW111450   0.590   2.173   0.886
 3517SOL    HW211451   0.694   2.189   0.761
 3518SOL     OW11452   5.898   4.011   4.817
 3518SOL    HW111453   5.864   4.058   4.899
 3518SOL    HW211454   5.944   4.076   4.758
 3519SOL     OW11455   0.717   0.912   6.091
 3519SOL    HW111456   0.706   0.943   5.997
 3519SOL    HW211457   0.746   0.817   6.092
 3520SOL     OW11458   3.110   5.641   6.966
 3520SOL    HW111459   3.152   5.725   6.931
 3520SOL    HW211460   3.015   5.637   6.936
 3521SOL     OW11461   5.522   3.381   0.093
 3521SOL    HW111462   5.551   3.389   7.018
 3521SOL    HW211463   5.601   3.368   0.152
 3522SOL     OW11464   6.250   4.758   1.822
 3522SOL    HW111465   6.216   4.678   1.871
 3522SOL    HW211466   6.284   4.730   1.732
 3523SOL     OW11467   2.648   4.641   5.698
 3523SOL    HW111468   2.661   4.724   5.752
 3523SOL    HW211469   2.613   4.665   5.608
 3524SOL     OW11470   3.303   1.094   1.006
 3524SOL    HW111471   3.291   1.143   0.919
 3524SOL    HW211472   3.304   0.996   0.989
 3525SOL     OW11473   0.705   4.147   2.195
 3525SOL    HW111474   0.680   4.203   2.115
 3525SOL    HW211475   0.798   4.113   2.184
 3526SOL     OW11476   2.690   6.386   3.718
 3526SOL    HW111477   2.648   6.420   3.634
 3526SOL    HW211478   2.774   6.438   3.737
 3527SOL     OW11479   6.417   3.216   6.205
 3527SOL    HW111480   6.500   3.176   6.167
 3527SOL    HW211481   6.339   3.194   6.146
 3528SOL     OW11482   0.963   4.953   3.766
 3528SOL    HW111483   0.872   4.995   3.761
 3528SOL    HW211484   1.005   4.974   3.854
 3529SOL     OW11485   4.934   0.191   6.037
 3529SOL    HW111486   4.848   0.141   6.032
 3529SOL    HW211487   4.960   0.221   5.945
 3530SOL     OW11488   1.614   5.170   3.511
 3530SOL    HW111489   1.673   5.099   3.471
 3530SOL    HW211490   1.642   5.187   3.605
 3531SOL     OW11491   4.537   3.577   0.952
 3531SOL    HW111492   4.527   3.649   0.883
 3531SOL    HW211493   4.449   3.559   0.996
 3532SOL     OW11494   2.727   0.966   0.940
 3532SOL    HW111495   2.727   0.936   0.845
 3532SOL    HW211496   2.738   1.066   0.943
 3533SOL     OW11497   1.558   1.678   2.637
 3533SOL    HW111498   1.569   1.635   2.726
 3533SOL    HW211499   1.636   1.740   2.620
 3534SOL     OW11500   5.366   0.880   4.992
 3534SOL    HW111501   5.312   0.863   5.074
 3534SOL    HW211502   5.440   0.813   4.986
 3535SOL     OW11503   0.769   5.686   0.464
 3535SOL    HW111504   0.733   5.632   0.387
 3535SOL    HW211505   0.727   5.776   0.464
 3536SOL     OW11506   2.134   1.975   4.310
 3536SOL    HW111507   2.146   2.049   4.376
 3536SOL    HW211508   2.174   1.891   4.347
 3537SOL     OW11509   2.506   5.231   0.627
 3537SOL    HW111510   2.542   5.299   0.563
 3537SOL    HW211511   2.461   5.278   0.703
 3538SOL     OW11512   1.248   0.721   5.023
 3538SOL    HW111513   1.284   0.693   4.933
 3538SOL    HW211514   1.261   0.819   5.034
 3539SOL     OW11515   6.068   3.768   6.467
 3539SOL    HW111516   6.057   3.863   6.437
 3539SOL    HW211517   6.047   3.707   6.391
 3540SOL     OW11518   1.882   2.209   5.597
 3540SOL    HW111519   1.834   2.150   5.662
 3540SOL    HW211520   1.867   2.305   5.622
 3541SOL     OW11521   2.268   2.214   6.156
 3541SOL    HW111522   2.234   2.287   6.215
 3541SOL    HW211523   2.351   2.175   6.194
 3542SOL     OW11524   0.544   3.876   1.788
 3542SOL    HW111525   0.533   3.799   1.851
 3542SOL    HW211526   0.491   3.954   1.821
 3543SOL     OW11527   0.853   3.761   5.853
 3543SOL    HW111528   0.824   3.736   5.761
 3543SOL    HW211529   0.875   3.858   5.857
 3544SOL     OW11530   2.081   5.169   6.613
 3544SOL    HW111531   2.063   5.267   6.617
 3544SOL    HW211532   2.029   5.128   6.538
 3545SOL     OW11533   3.790   5.170   0.694
 3545SOL    HW111534   3.720   5.193   0.761
 3545SOL    HW211535   3.785   5.073   0.671
 3546SOL     OW11536   0.084   4.758   2.643
 3546SOL    HW111537   7.011   4.790   2.662
 3546SOL    HW211538   0.143   4.781   2.720
 3547SOL     OW11539   6.058   4.701   4.697
 3547SOL    HW111540   6.129   4.660   4.639
 3547SOL    HW211541   6.021   4.631   4.757
 3548SOL     OW11542   4.683   0.133   5.397
 3548SOL    HW111543   4.717   0.065   5.463
 3548SOL    HW211544   4.676   0.222   5.442
 3549SOL     OW11545   0.637   4.363   6.339
 3549SOL    HW111546   0.713   4.314   6.298
 3549SOL    HW211547   0.597   4.426   6.273
 3550SOL     OW11548   5.832   2.740   4.278
 3550SOL    HW111549   5.748   2.694   4.249
 3550SOL    HW211550   5.808   2.822   4.331
 3551SOL     OW11551   3.744   1.986   3.714
 3551SOL    HW111552   3.785   2.075   3.697
 3551SOL    HW211553   3.721   1.977   3.811
 3552SOL     OW11554   6.274   0.429   1.240
 3552SOL    HW111555   6.291   0.405   1.145
 3552SOL    HW211556   6.277   0.529   1.251
 3553SOL     OW11557   3.773   5.630   0.544
 3553SOL    HW111558   3.786   5.533   0.524
 3553SOL    HW211559   3.838   5.684   0.492
 3554SOL     OW11560   4.786   2.074   1.054
 3554SOL    HW111561   4.873   2.094   1.008
 3554SOL    HW211562   4.769   1.975   1.050
 3555SOL     OW11563   0.639   3.933   4.990
 3555SOL    HW111564   0.681   3.862   4.934
 3555SOL    HW211565   0.539   3.926   4.984
 3556SOL     OW11566   4.260   0.943   4.220
 3556SOL    HW111567   4.237   0.858   4.173
 3556SOL    HW211568   4.186   1.009   4.210
 3557SOL     OW11569   1.116   0.594   3.854
 3557SOL    HW111570   1.038   0.532   3.860
 3557SOL    HW211571   1.200   0.542   3.842
 3558SOL     OW11572   1.311   5.831   2.563
 3558SOL    HW111573   1.222   5.791   2.539
 3558SOL    HW211574   1.369   5.760   2.603
 3559SOL     OW11575   0.757   6.415   5.377
 3559SOL    HW111576   0.733   6.324   5.411
 3559SOL    HW211577   0.831   6.453   5.433
 3560SOL     OW11578   2.460   5.132   2.390
 3560SOL    HW111579   2.386   5.188   2.353
 3560SOL    HW211580   2.455   5.132   2.490
 3561SOL     OW11581   4.809   4.001   5.202
 3561SOL    HW111582   4.790   3.999   5.104
 3561SOL    HW211583   4.803   3.909   5.239
 3562SOL     OW11584   4.069   0.873   3.223
 3562SOL    HW111585   4.065   0.776   3.201
 3562SOL    HW211586   4.014   0.890   3.306
 3563SOL     OW11587   6.296   1.721   0.483
 3563SOL    HW111588   6.358   1.798   0.492
 3563SOL    HW211589   6.201   1.754   0.488
 3564SOL     OW11590   1.188   4.486   2.841
 3564SOL    HW111591   1.118   4.426   2.802
 3564SOL    HW211592   1.145   4.557   2.897
 3565SOL     OW11593   3.028   6.292   4.429
 3565SOL    HW111594   3.121   6.324   4.444
 3565SOL    HW211595   2.989   6.338   4.349
 3566SOL     OW11596   6.535   3.235   6.686
 3566SOL    HW111597   6.515   3.179   6.766
 3566SOL    HW211598   6.463   3.303   6.674
 3567SOL     OW11599   0.494   1.891   6.433
 3567SOL    HW111600   0.462   1.820   6.370
 3567SOL    HW211601   0.521   1.849   6.520
 3568SOL     OW11602   4.967   3.978   4.183
 3568SOL    HW111603   5.058   3.936   4.193
 3568SOL    HW211604   4.915   3.963   4.267
 3569SOL     OW11605   2.279   1.907   6.036
 3569SOL    HW111606   2.215   1.971   6.079
 3569SOL    HW211607   2.228   1.828   6.001
 3570SOL     OW11608   5.090   0.254   5.800
 3570SOL    HW111609   5.132   0.307   5.726
 3570SOL    HW211610   5.040   0.176   5.761
 3571SOL     OW11611   1.038   5.406   5.600
 3571SOL    HW111612   1.065   5.345   5.525
 3571SOL    HW211613   1.098   5.391   5.679
 3572SOL     OW11614   6.165   4.103   2.715
 3572SOL    HW111615   6.125   4.046   2.786
 3572SOL    HW211616   6.205   4.045   2.644
 3573SOL     OW11617   0.486   5.286   3.535
 3573SOL    HW111618   0.407   5.341   3.509
 3573SOL    HW211619   0.460   5.189   3.538
 3574SOL     OW11620   0.501   3.805   1.190
 3574SOL    HW111621   0.435   3.730   1.185
 3574SOL    HW211622   0.593   3.770   1.174
 3575SOL     OW11623   4.831   4.754   2.731
 3575SOL    HW111624   4.755   4.728   2.671
 3575SOL    HW211625   4.873   4.672   2.770
 3576SOL     OW11626   0.173   2.028   5.856
 3576SOL    HW111627   0.140   2.096   5.921
 3576SOL    HW211628   0.132   2.046   5.766
 3577SOL     OW11629   1.999   1.871   5.900
 3577SOL    HW111630   1.926   1.812   5.935
 3577SOL    HW211631   2.001   1.957   5.951
 3578SOL     OW11632   3.512   2.274   0.538
 3578SOL    HW111633   3.561   2.205   0.593
 3578SOL    HW211634   3.505   2.359   0.591
 3579SOL     OW11635   6.570   2.635   4.143
 3579SOL    HW111636   6.609   2.721   4.109
 3579SOL    HW211637   6.636   2.561   4.130
 3580SOL     OW11638   5.478   3.227   1.743
 3580SOL    HW111639   5.503   3.323   1.731
 3580SOL    HW211640   5.436   3.192   1.660
 3581SOL     OW11641   0.879   6.027   3.318
 3581SOL    HW111642   0.878   6.127   3.316
 3581SOL    HW211643   0.956   5.996   3.373
 3582SOL     OW11644   1.020   2.512   5.539
 3582SOL    HW111645   1.023   2.524   5.639
 3582SOL    HW211646   1.105   2.546   5.499
 3583SOL     OW11647   0.746   3.989   6.671
 3583SOL    HW111648   0.742   3.988   6.771
 3583SOL    HW211649   0.710   3.902   6.636
 3584SOL     OW11650   5.832   5.403   6.934
 3584SOL    HW111651   5.806   5.351   6.852
 3584SOL    HW211652   5.918   5.452   6.917
 3585SOL     OW11653   3.532   0.303   4.431
 3585SOL    HW111654   3.456   0.302   4.496
 3585SOL    HW211655   3.598   0.372   4.459
 3586SOL     OW11656   6.821   1.816   4.909
 3586SOL    HW111657   6.802   1.780   5.000
 3586SOL    HW211658   6.803   1.745   4.841
 3587SOL     OW11659   2.743   5.261   6.627
 3587SOL    HW111660   2.683   5.184   6.645
 3587SOL    HW211661   2.803   5.275   6.706
 3588SOL     OW11662   1.361   2.295   5.967
 3588SOL    HW111663   1.395   2.308   5.874
 3588SOL    HW211664   1.436   2.268   6.027
 3589SOL     OW11665   3.748   1.344   4.946
 3589SOL    HW111666   3.809   1.347   4.867
 3589SOL    HW211667   3.689   1.425   4.947
 3590SOL     OW11668   1.066   2.979   6.669
 3590SOL    HW111669   1.114   2.894   6.693
 3590SOL    HW211670   1.105   3.017   6.585
 3591SOL     OW11671   5.424   3.833   6.167
 3591SOL    HW111672   5.374   3.916   6.189
 3591SOL    HW211673   5.360   3.757   6.156
 3592SOL     OW11674   0.055   4.830   1.912
 3592SOL    HW111675   0.033   4.853   2.007
 3592SOL    HW211676   0.151   4.851   1.894
 3593SOL     OW11677   0.641   5.916   5.086
 3593SOL    HW111678   0.622   5.887   4.992
 3593SOL    HW211679   0.614   5.844   5.150
 3594SOL     OW11680   4.329   0.247   3.204
 3594SOL    HW111681   4.386   0.324   3.177
 3594SOL    HW211682   4.308   0.191   3.124
 3595SOL     OW11683   3.299   5.972   6.943
 3595SOL    HW111684   3.376   5.916   6.974
 3595SOL    HW211685   3.239   5.992   0.001
 3596SOL     OW11686   6.228   3.213   3.558
 3596SOL    HW111687   6.246   3.189   3.463
 3596SOL    HW211688   6.221   3.312   3.567
 3597SOL     OW11689   1.436   2.005   5.011
 3597SOL    HW111690   1.378   1.963   4.941
 3597SOL    HW211691   1.379   2.054   5.076
 3598SOL     OW11692   1.012   5.131   6.209
 3598SOL    HW111693   0.994   5.033   6.205
 3598SOL    HW211694   1.005   5.171   6.118
 3599SOL     OW11695   0.070   2.254   6.542
 3599SOL    HW111696   0.133   2.264   6.465
 3599SOL    HW211697   0.121   2.258   6.628
 3600SOL     OW11698   0.846   3.510   1.472
 3600SOL    HW111699   0.754   3.520   1.434
 3600SOL    HW211700   0.844   3.445   1.549
 3601SOL     OW11701   5.496   4.711   6.319
 3601SOL    HW111702   5.573   4.726   6.380
 3601SOL    HW211703   5.470   4.798   6.277
 3602SOL     OW11704   2.065   2.816   0.316
 3602SOL    HW111705   1.978   2.802   0.364
 3602SOL    HW211706   2.098   2.909   0.333
 3603SOL     OW11707   3.380   0.434   3.725
 3603SOL    HW111708   3.439   0.353   3.720
 3603SOL    HW211709   3.360   0.466   3.633
 3604SOL     OW11710   6.416   5.192   3.333
 3604SOL    HW111711   6.469   5.232   3.259
 3604SOL    HW211712   6.425   5.248   3.415
 3605SOL     OW11713   6.654   3.547   5.156
 3605SOL    HW111714   6.585   3.591   5.214
 3605SOL    HW211715   6.644   3.579   5.062
 3606SOL     OW11716   0.065   0.162   4.585
 3606SOL    HW111717   7.007   0.163   4.522
 3606SOL    HW211718   0.033   0.185   4.677
 3607SOL     OW11719   6.042   5.571   1.731
 3607SOL    HW111720   5.949   5.600   1.755
 3607SOL    HW211721   6.069   5.613   1.645
 3608SOL     OW11722   5.758   2.467   3.792
 3608SOL    HW111723   5.714   2.465   3.702
 3608SOL    HW211724   5.846   2.420   3.787
 3609SOL     OW11725   1.251   6.699   4.392
 3609SOL    HW111726   1.259   6.626   4.459
 3609SOL    HW211727   1.322   6.688   4.322
 3610SOL     OW11728   1.652   0.109   5.374
 3610SOL    HW111729   1.642   0.010   5.359
 3610SOL    HW211730   1.687   0.126   5.466
 3611SOL     OW11731   3.909   5.872   5.468
 3611SOL    HW111732   3.965   5.792   5.489
 3611SOL    HW211733   3.889   5.875   5.370
 3612SOL     OW11734   6.725   6.833   6.908
 3612SOL    HW111735   6.745   6.856   7.003
 3612SOL    HW211736   6.679   6.911   6.865
 3613SOL     OW11737   4.446   5.083   2.222
 3613SOL    HW111738   4.383   5.131   2.283
 3613SOL    HW211739   4.536   5.077   2.265
 3614SOL     OW11740   3.816   3.199   1.602
 3614SOL    HW111741   3.876   3.158   1.533
 3614SOL    HW211742   3.767   3.127   1.651
 3615SOL     OW11743   5.105   5.569   6.703
 3615SOL    HW111744   5.175   5.505   6.736
 3615SOL    HW211745   5.137   5.663   6.713
 3616SOL     OW11746   0.811   2.238   0.004
 3616SOL    HW111747   0.713   2.249   7.008
 3616SOL    HW211748   0.842   2.307   0.070
 3617SOL     OW11749   3.779   1.469   6.836
 3617SOL    HW111750   3.762   1.472   6.934
 3617SOL    HW211751   3.733   1.545   6.791
 3618SOL     OW11752   2.038   2.679   5.151
 3618SOL    HW111753   2.123   2.709   5.108
 3618SOL    HW211754   1.976   2.757   5.162
 3619SOL     OW11755   5.963   2.636   4.687
 3619SOL    HW111756   6.010   2.724   4.692
 3619SOL    HW211757   5.986   2.590   4.601
 3620SOL     OW11758   6.076   6.445   6.139
 3620SOL    HW111759   5.999   6.456   6.202
 3620SOL    HW211760   6.090   6.348   6.121
 3621SOL     OW11761   3.347   2.852   5.074
 3621SOL    HW111762   3.359   2.776   5.138
 3621SOL    HW211763   3.253   2.885   5.079
 3622SOL     OW11764   1.897   1.644   5.313
 3622SOL    HW111765   1.809   1.596   5.324
 3622SOL    HW211766   1.926   1.638   5.217
 3623SOL     OW11767   6.114   5.695   4.477
 3623SOL    HW111768   6.017   5.716   4.469
 3623SOL    HW211769   6.149   5.664   4.388
 3624SOL     OW11770   1.587   6.849   1.852
 3624SOL    HW111771   1.647   6.769   1.859
 3624SOL    HW211772   1.552   6.872   1.943
 3625SOL     OW11773   6.231   2.745   6.854
 3625SOL    HW111774   6.269   2.654   6.875
 3625SOL    HW211775   6.301   2.800   6.809
 3626SOL     OW11776   1.638   2.126   6.028
 3626SOL    HW111777   1.709   2.186   5.991
 3626SOL    HW211778   1.609   2.160   6.118
 3627SOL     OW11779   3.409   3.161   2.481
 3627SOL    HW111780   3.491   3.103   2.482
 3627SOL    HW211781   3.333   3.112   2.524
 3628SOL     OW11782   1.714   1.199   2.051
 3628SOL    HW111783   1.720   1.298   2.034
 3628SOL    HW211784   1.627   1.179   2.097
 3629SOL     OW11785   6.750   0.766   5.556
 3629SOL    HW111786   6.771   0.801   5.647
 3629SOL    HW211787   6.825   0.707   5.525
 3630SOL     OW11788   4.953   2.726   4.115
 3630SOL    HW111789   4.954   2.638   4.162
 3630SOL    HW211790   4.971   2.799   4.180
 3631SOL     OW11791   2.518   1.123   3.417
 3631SOL    HW111792   2.542   1.199   3.478
 3631SOL    HW211793   2.532   1.036   3.465
 3632SOL     OW11794   5.308   5.922   1.461
 3632SOL    HW111795   5.351   6.012   1.465
 3632SOL    HW211796   5.211   5.930   1.484
 3633SOL     OW11797   4.062   1.749   5.899
 3633SOL    HW111798   3.989   1.810   5.869
 3633SOL    HW211799   4.079   1.761   5.997
 3634SOL     OW11800   1.698   4.414   4.861
 3634SOL    HW111801   1.678   4.336   4.802
 3634SOL    HW211802   1.618   4.434   4.918
 3635SOL     OW11803   3.600   0.203   0.387
 3635SOL    HW111804   3.597   0.137   0.312
 3635SOL    HW211805   3.674   0.269   0.370
 3636SOL     OW11806   0.103   5.832   1.137
 3636SOL    HW111807   0.115   5.929   1.113
 3636SOL    HW211808   0.118   5.776   1.055
 3637SOL     OW11809   0.292   1.797   2.317
 3637SOL    HW111810   0.367   1.785   2.381
 3637SOL    HW211811   0.296   1.889   2.277
 3638SOL     OW11812   0.806   4.459   3.171
 3638SOL    HW111813   0.878   4.503   3.225
 3638SOL    HW211814   0.847   4.392   3.108
 3639SOL     OW11815   3.459   5.051   0.714
 3639SOL    HW111816   3.459   4.986   0.789
 3639SOL    HW211817   3.545   5.044   0.664
 3640SOL     OW11818   4.278   0.747   0.487
 3640SOL    HW111819   4.329   0.831   0.504
 3640SOL    HW211820   4.307   0.706   0.401
 3641SOL     OW11821   4.952   3.566   2.044
 3641SOL    HW111822   4.954   3.591   1.947
 3641SOL    HW211823   4.891   3.628   2.093
 3642SOL     OW11824   5.493   0.980   0.018
 3642SOL    HW111825   5.477   1.064   6.986
 3642SOL    HW211826   5.589   0.953   0.008
 3643SOL     OW11827   3.528   5.779   4.656
 3643SOL    HW111828   3.518   5.679   4.659
 3643SOL    HW211829   3.572   5.811   4.739
 3644SOL     OW11830   0.109   1.046   1.412
 3644SOL    HW111831   0.080   1.007   1.500
 3644SOL    HW211832   0.030   1.088   1.367
 3645SOL     OW11833   0.600   2.732   3.799
 3645SOL    HW111834   0.607   2.763   3.705
 3645SOL    HW211835   0.572   2.636   3.801
 3646SOL     OW11836   1.048   4.139   6.323
 3646SOL    HW111837   1.144   4.153   6.299
 3646SOL    HW211838   1.014   4.054   6.282
 3647SOL     OW11839   2.597   5.443   6.022
 3647SOL    HW111840   2.535   5.398   6.086
 3647SOL    HW211841   2.553   5.451   5.933
 3648SOL     OW11842   4.113   4.875   1.824
 3648SOL    HW111843   4.060   4.898   1.906
 3648SOL    HW211844   4.111   4.953   1.760
 3649SOL     OW11845   5.012   3.007   1.300
 3649SOL    HW111846   4.954   3.061   1.240
 3649SOL    HW211847   5.106   3.008   1.265
 3650SOL     OW11848   6.580   5.993   1.511
 3650SOL    HW111849   6.515   6.068   1.499
 3650SOL    HW211850   6.665   6.029   1.551
 3651SOL     OW11851   0.793   6.842   4.665
 3651SOL    HW111852   0.712   6.837   4.723
 3651SOL    HW211853   0.875   6.825   4.719
 3652SOL     OW11854   5.806   6.271   3.520
 3652SOL    HW111855   5.885   6.212   3.510
 3652SOL    HW211856   5.830   6.365   3.494
 3653SOL     OW11857   0.906   1.692   3.783
 3653SOL    HW111858   0.915   1.706   3.881
 3653SOL    HW211859   0.809   1.692   3.757
 3654SOL     OW11860   3.219   4.355   0.777
 3654SOL    HW111861   3.286   4.325   0.846
 3654SOL    HW211862   3.134   4.304   0.789
 3655SOL     OW11863   2.247   6.142   4.260
 3655SOL    HW111864   2.188   6.171   4.335
 3655SOL    HW211865   2.325   6.205   4.253
 3656SOL     OW11866   0.087   4.344   1.322
 3656SOL    HW111867   0.008   4.400   1.297
 3656SOL    HW211868   0.118   4.293   1.242
 3657SOL     OW11869   5.313   5.738   5.992
 3657SOL    HW111870   5.325   5.704   6.085
 3657SOL    HW211871   5.294   5.836   5.995
 3658SOL     OW11872   1.748   5.220   6.137
 3658SOL    HW111873   1.835   5.254   6.101
 3658SOL    HW211874   1.729   5.129   6.099
 3659SOL     OW11875   2.483   3.937   6.672
 3659SOL    HW111876   2.471   3.863   6.606
 3659SOL    HW211877   2.555   3.998   6.641
 3660SOL     OW11878   5.639   6.045   3.471
 3660SOL    HW111879   5.598   6.000   3.550
 3660SOL    HW211880   5.653   6.142   3.493
 3661SOL     OW11881   5.739   0.392   5.402
 3661SOL    HW111882   5.710   0.352   5.489
 3661SOL    HW211883   5.739   0.322   5.331
 3662SOL     OW11884   3.737   0.648   3.938
 3662SOL    HW111885   3.687   0.613   3.858
 3662SOL    HW211886   3.706   0.740   3.959
 3663SOL     OW11887   1.949   1.942   7.007
 3663SOL    HW111888   1.958   1.928   0.086
 3663SOL    HW211889   1.987   1.862   6.959
 3664SOL     OW11890   4.815   2.478   1.270
 3664SOL    HW111891   4.819   2.578   1.275
 3664SOL    HW211892   4.860   2.439   1.350
 3665SOL     OW11893   1.286   6.375   4.926
 3665SOL    HW111894   1.370   6.389   4.875
 3665SOL    HW211895   1.270   6.453   4.987
 3666SOL     OW11896   0.516   3.403   3.396
 3666SOL    HW111897   0.589   3.355   3.348
 3666SOL    HW211898   0.546   3.426   3.488
 3667SOL     OW11899   0.942   1.614   3.494
 3667SOL    HW111900   0.939   1.644   3.589
 3667SOL    HW211901   1.033   1.576   3.474
 3668SOL     OW11902   1.359   1.082   0.796
 3668SOL    HW111903   1.271   1.047   0.828
 3668SOL    HW211904   1.431   1.050   0.856
 3669SOL     OW11905   5.475   1.444   3.324
 3669SOL    HW111906   5.394   1.425   3.378
 3669SOL    HW211907   5.450   1.500   3.245
 3670SOL     OW11908   1.706   5.842   0.356
 3670SOL    HW111909   1.636   5.912   0.343
 3670SOL    HW211910   1.701   5.806   0.449
 3671SOL     OW11911   6.885   1.998   4.349
 3671SOL    HW111912   6.855   1.975   4.441
 3671SOL    HW211913   6.971   1.951   4.328
 3672SOL     OW11914   4.954   1.621   1.690
 3672SOL    HW111915   5.033   1.624   1.750
 3672SOL    HW211916   4.960   1.696   1.624
 3673SOL     OW11917   3.646   6.291   6.915
 3673SOL    HW111918   3.569   6.239   6.877
 3673SOL    HW211919   3.613   6.354   6.985
 3674SOL     OW11920   1.212   4.983   5.807
 3674SOL    HW111921   1.237   4.956   5.900
 3674SOL    HW211922   1.288   5.032   5.765
 3675SOL     OW11923   2.131   2.759   3.980
 3675SOL    HW111924   2.198   2.823   4.017
 3675SOL    HW211925   2.056   2.748   4.045
 3676SOL     OW11926   5.846   4.859   3.012
 3676SOL    HW111927   5.868   4.855   2.915
 3676SOL    HW211928   5.750   4.885   3.023
 3677SOL     OW11929   2.536   6.151   3.792
 3677SOL    HW111930   2.605   6.202   3.741
 3677SOL    HW211931   2.494   6.210   3.860
 3678SOL     OW11932   0.376   1.623   4.277
 3678SOL    HW111933   0.285   1.632   4.235
 3678SOL    HW211934   0.382   1.536   4.324
 3679SOL     OW11935   0.709   0.763   3.570
 3679SOL    HW111936   0.659   0.753   3.656
 3679SOL    HW211937   0.697   0.856   3.535
 3680SOL     OW11938   5.121   3.179   4.146
 3680SOL    HW111939   5.171   3.265   4.146
 3680SOL    HW211940   5.137   3.131   4.059
 3681SOL     OW11941   0.308   0.809   6.284
 3681SOL    HW111942   0.405   0.814   6.258
 3681SOL    HW211943   0.292   0.870   6.362
 3682SOL     OW11944   5.161   2.322   6.880
 3682SOL    HW111945   5.210   2.405   6.854
 3682SOL    HW211946   5.123   2.332   6.972
 3683SOL     OW11947   6.793   1.426   3.879
 3683SOL    HW111948   6.887   1.459   3.881
 3683SOL    HW211949   6.739   1.484   3.819
 3684SOL     OW11950   1.308   4.653   6.737
 3684SOL    HW111951   1.394   4.696   6.709
 3684SOL    HW211952   1.320   4.554   6.738
 3685SOL     OW11953   1.668   6.307   6.503
 3685SOL    HW111954   1.588   6.263   6.544
 3685SOL    HW211955   1.656   6.406   6.503
 3686SOL     OW11956   5.075   5.577   4.235
 3686SOL    HW111957   5.033   5.528   4.159
 3686SOL    HW211958   5.015   5.652   4.263
 3687SOL     OW11959   3.673   5.957   4.477
 3687SOL    HW111960   3.617   5.883   4.515
 3687SOL    HW211961   3.761   5.921   4.448
 3688SOL     OW11962   0.506   3.299   6.427
 3688SOL    HW111963   0.426   3.356   6.446
 3688SOL    HW211964   0.581   3.356   6.394
 3689SOL     OW11965   2.182   6.924   5.500
 3689SOL    HW111966   2.259   6.861   5.509
 3689SOL    HW211967   2.178   6.984   5.579
 3690SOL     OW11968   4.391   6.005   0.239
 3690SOL    HW111969   4.462   5.940   0.211
 3690SOL    HW211970   4.315   6.000   0.174
 3691SOL     OW11971   2.166   1.493   5.881
 3691SOL    HW111972   2.155   1.539   5.969
 3691SOL    HW211973   2.230   1.545   5.824
 3692SOL     OW11974   6.899   5.406   5.508
 3692SOL    HW111975   6.832   5.338   5.479
 3692SOL    HW211976   6.852   5.492   5.527
 3693SOL     OW11977   2.201   3.913   3.018
 3693SOL    HW111978   2.267   3.865   2.961
 3693SOL    HW211979   2.109   3.878   3.000
 3694SOL     OW11980   1.130   6.517   2.584
 3694SOL    HW111981   1.183   6.436   2.558
 3694SOL    HW211982   1.118   6.576   2.504
 3695SOL     OW11983   5.334   3.371   1.957
 3695SOL    HW111984   5.353   3.466   1.932
 3695SOL    HW211985   5.319   3.317   1.874
 3696SOL     OW11986   3.832   6.742   4.429
 3696SOL    HW111987   3.810   6.751   4.526
 3696SOL    HW211988   3.759   6.692   4.383
 3697SOL     OW11989   0.251   6.525   2.711
 3697SOL    HW111990   0.269   6.618   2.744
 3697SOL    HW211991   0.266   6.522   2.612
 3698SOL     OW11992   3.184   0.986   4.498
 3698SOL    HW111993   3.244   0.979   4.578
 3698SOL    HW211994   3.237   1.014   4.419
 3699SOL     OW11995   1.498   2.764   4.499
 3699SOL    HW111996   1.412   2.730   4.461
 3699SOL    HW211997   1.500   2.748   4.598
 3700SOL     OW11998   1.071   5.365   4.447
 3700SOL    HW111999   1.118   5.279   4.468
 3700SOL    HW212000   1.017   5.354   4.364
 3701SOL     OW12001   1.414   1.351   4.305
 3701SOL    HW112002   1.509   1.354   4.275
 3701SOL    HW212003   1.355   1.389   4.234
 3702SOL     OW12004   5.967   6.802   3.297
 3702SOL    HW112005   5.927   6.835   3.382
 3702SOL    HW212006   6.064   6.783   3.311
 3703SOL     OW12007   5.612   0.284   5.608
 3703SOL    HW112008   5.586   0.350   5.679
 3703SOL    HW212009   5.598   0.191   5.643
 3704SOL     OW12010   3.562   1.261   0.913
 3704SOL    HW112011   3.591   1.174   0.952
 3704SOL    HW212012   3.641   1.321   0.901
 3705SOL     OW12013   5.083   4.467   4.366
 3705SOL    HW112014   4.987   4.496   4.365
 3705SOL    HW212015   5.103   4.421   4.453
 3706SOL     OW12016   1.420   4.021   0.273
 3706SOL    HW112017   1.348   4.077   0.229
 3706SOL    HW212018   1.491   4.001   0.206
 3707SOL     OW12019   5.280   4.503   4.008
 3707SOL    HW112020   5.228   4.441   3.949
 3707SOL    HW212021   5.378   4.487   3.996
 3708SOL     OW12022   6.612   0.705   6.598
 3708SOL    HW112023   6.669   0.754   6.664
 3708SOL    HW212024   6.516   0.728   6.613
 3709SOL     OW12025   3.352   0.812   1.303
 3709SOL    HW112026   3.377   0.761   1.221
 3709SOL    HW212027   3.398   0.774   1.382
 3710SOL     OW12028   6.483   5.599   5.387
 3710SOL    HW112029   6.479   5.500   5.405
 3710SOL    HW212030   6.450   5.617   5.294
 3711SOL     OW12031   0.773   6.689   4.418
 3711SOL    HW112032   0.850   6.625   4.417
 3711SOL    HW212033   0.787   6.757   4.490
 3712SOL     OW12034   0.617   5.040   5.687
 3712SOL    HW112035   0.709   5.075   5.670
 3712SOL    HW212036   0.560   5.056   5.606
 3713SOL     OW12037   0.940   6.325   5.870
 3713SOL    HW112038   0.957   6.273   5.953
 3713SOL    HW212039   0.842   6.321   5.847
 3714SOL     OW12040   5.703   5.572   6.018
 3714SOL    HW112041   5.783   5.627   5.990
 3714SOL    HW212042   5.682   5.506   5.946
 3715SOL     OW12043   0.675   4.015   2.423
 3715SOL    HW112044   0.672   4.072   2.341
 3715SOL    HW212045   0.761   4.029   2.471
 3716SOL     OW12046   6.067   6.553   4.354
 3716SOL    HW112047   6.057   6.524   4.259
 3716SOL    HW212048   6.155   6.600   4.365
 3717SOL     OW12049   0.021   6.567   6.829
 3717SOL    HW112050   0.035   6.480   6.783
 3717SOL    HW212051   6.947   6.597   6.815
 3718SOL     OW12052   0.680   0.643   6.216
 3718SOL    HW112053   0.631   0.590   6.146
 3718SOL    HW212054   0.616   0.666   6.290
 3719SOL     OW12055   5.318   3.938   1.573
 3719SOL    HW112056   5.326   3.945   1.672
 3719SOL    HW212057   5.388   3.995   1.529
 3720SOL     OW12058   5.617   2.865   6.628
 3720SOL    HW112059   5.713   2.882   6.649
 3720SOL    HW212060   5.567   2.844   6.713
 3721SOL     OW12061   5.972   4.673   1.508
 3721SOL    HW112062   5.873   4.657   1.504
 3721SOL    HW212063   5.990   4.763   1.546
 3722SOL     OW12064   5.859   5.673   0.618
 3722SOL    HW112065   5.839   5.769   0.638
 3722SOL    HW212066   5.778   5.630   0.578
 3723SOL     OW12067   5.453   5.067   1.290
 3723SOL    HW112068   5.397   5.142   1.255
 3723SOL    HW212069   5.460   4.995   1.221
 3724SOL     OW12070   2.139   4.454   4.628
 3724SOL    HW112071   2.166   4.360   4.604
 3724SOL    HW212072   2.075   4.488   4.559
 3725SOL     OW12073   6.862   5.418   0.369
 3725SOL    HW112074   6.812   5.355   0.428
 3725SOL    HW212075   6.960   5.411   0.387
 3726SOL     OW12076   6.017   3.211   0.570
 3726SOL    HW112077   5.932   3.163   0.589
 3726SOL    HW212078   6.009   3.306   0.599
 3727SOL     OW12079   6.494   1.542   5.328
 3727SOL    HW112080   6.577   1.496   5.297
 3727SOL    HW212081   6.448   1.487   5.398
 3728SOL     OW12082   1.725   3.665   6.383
 3728SOL    HW112083   1.802   3.728   6.392
 3728SOL    HW212084   1.648   3.711   6.338
 3729SOL     OW12085   1.615   2.322   4.623
 3729SOL    HW112086   1.539   2.279   4.573
 3729SOL    HW212087   1.679   2.251   4.652
 3730SOL     OW12088   2.535   5.366   5.222
 3730SOL    HW112089   2.543   5.351   5.320
 3730SOL    HW212090   2.616   5.416   5.189
 3731SOL     OW12091   0.503   1.366   0.458
 3731SOL    HW112092   0.545   1.371   0.549
 3731SOL    HW212093   0.407   1.340   0.466
 3732SOL     OW12094   3.082   1.694   0.134
 3732SOL    HW112095   3.016   1.627   0.099
 3732SOL    HW212096   3.035   1.777   0.162
 3733SOL     OW12097   1.624   3.174   2.988
 3733SOL    HW112098   1.537   3.153   2.942
 3733SOL    HW212099   1.613   3.166   3.087
 3734SOL     OW12100   5.178   0.543   1.336
 3734SOL    HW112101   5.113   0.533   1.261
 3734SOL    HW212102   5.162   0.472   1.405
 3735SOL     OW12103   2.532   1.124   2.924
 3735SOL    HW112104   2.520   1.027   2.942
 3735SOL    HW212105   2.591   1.136   2.844
 3736SOL     OW12106   6.875   2.065   1.307
 3736SOL    HW112107   6.950   2.009   1.273
 3736SOL    HW212108   6.814   2.009   1.363
 3737SOL     OW12109   5.538   1.260   3.796
 3737SOL    HW112110   5.543   1.272   3.895
 3737SOL    HW212111   5.567   1.167   3.772
 3738SOL     OW12112   0.471   0.184   2.132
 3738SOL    HW112113   0.441   0.209   2.040
 3738SOL    HW212114   0.536   0.252   2.166
 3739SOL     OW12115   1.947   5.393   0.661
 3739SOL    HW112116   2.030   5.359   0.704
 3739SOL    HW212117   1.932   5.344   0.575
 3740SOL     OW12118   6.581   0.793   0.540
 3740SOL    HW112119   6.625   0.731   0.605
 3740SOL    HW212120   6.500   0.749   0.501
 3741SOL     OW12121   5.139   3.226   6.237
 3741SOL    HW112122   5.069   3.289   6.203
 3741SOL    HW212123   5.204   3.276   6.294
 3742SOL     OW12124   2.577   2.240   6.609
 3742SOL    HW112125   2.544   2.330   6.578
 3742SOL    HW212126   2.511   2.170   6.583
 3743SOL     OW12127   5.956   3.477   0.573
 3743SOL    HW112128   5.893   3.435   0.508
 3743SOL    HW212129   5.982   3.568   0.541
 3744SOL     OW12130   1.632   6.136   1.949
 3744SOL    HW112131   1.706   6.128   1.883
 3744SOL    HW212132   1.557   6.075   1.922
 3745SOL     OW12133   4.451   4.846   1.809
 3745SOL    HW112134   4.533   4.881   1.762
 3745SOL    HW212135   4.465   4.852   1.908
 3746SOL     OW12136   5.763   0.799   3.768
 3746SOL    HW112137   5.802   0.718   3.724
 3746SOL    HW212138   5.769   0.790   3.867
 3747SOL     OW12139   2.591   5.886   5.127
 3747SOL    HW112140   2.687   5.898   5.155
 3747SOL    HW212141   2.565   5.791   5.141
 3748SOL     OW12142   5.789   1.155   1.563
 3748SOL    HW112143   5.772   1.093   1.640
 3748SOL    HW212144   5.747   1.244   1.582
 3749SOL     OW12145   2.026   5.365   3.518
 3749SOL    HW112146   1.988   5.457   3.506
 3749SOL    HW212147   2.087   5.344   3.441
 3750SOL     OW12148   6.866   4.577   1.196
 3750SOL    HW112149   6.838   4.656   1.141
 3750SOL    HW212150   6.821   4.581   1.285
 3751SOL     OW12151   6.617   3.367   1.355
 3751SOL    HW112152   6.628   3.437   1.285
 3751SOL    HW212153   6.529   3.380   1.401
 3752SOL     OW12154   6.014   6.732   0.361
 3752SOL    HW112155   5.932   6.788   0.362
 3752SOL    HW212156   6.090   6.783   0.403
 3753SOL     OW12157   6.683   0.408   4.007
 3753SOL    HW112158   6.606   0.412   4.071
 3753SOL    HW212159   6.684   0.491   3.951
 3754SOL     OW12160   3.676   0.257   1.121
 3754SOL    HW112161   3.722   0.169   1.111
 3754SOL    HW212162   3.717   0.308   1.196
 3755SOL     OW12163   4.708   5.496   4.454
 3755SOL    HW112164   4.782   5.540   4.403
 3755SOL    HW212165   4.704   5.534   4.546
 3756SOL     OW12166   2.251   5.483   7.010
 3756SOL    HW112167   2.192   5.438   6.943
 3756SOL    HW212168   2.203   5.562   0.029
 3757SOL     OW12169   4.425   6.546   6.574
 3757SOL    HW112170   4.410   6.455   6.535
 3757SOL    HW212171   4.337   6.590   6.590
 3758SOL     OW12172   2.477   1.055   5.126
 3758SOL    HW112173   2.438   1.087   5.212
 3758SOL    HW212174   2.436   1.107   5.050
 3759SOL     OW12175   4.826   6.247   6.294
 3759SOL    HW112176   4.732   6.215   6.306
 3759SOL    HW212177   4.835   6.339   6.332
 3760SOL     OW12178   1.821   1.225   4.502
 3760SOL    HW112179   1.786   1.157   4.438
 3760SOL    HW212180   1.867   1.179   4.578
 3761SOL     OW12181   1.304   1.176   4.779
 3761SOL    HW112182   1.386   1.200   4.831
 3761SOL    HW212183   1.290   1.244   4.707
 3762SOL     OW12184   1.021   3.975   0.980
 3762SOL    HW112185   1.038   4.019   1.068
 3762SOL    HW212186   1.106   3.973   0.927
 3763SOL     OW12187   6.639   3.599   1.212
 3763SOL    HW112188   6.672   3.597   1.118
 3763SOL    HW212189   6.549   3.642   1.216
 3764SOL     OW12190   2.071   0.074   2.762
 3764SOL    HW112191   2.003   0.145   2.746
 3764SOL    HW212192   2.039   7.008   2.722
 3765SOL     OW12193   5.336   1.195   0.569
 3765SOL    HW112194   5.377   1.118   0.618
 3765SOL    HW212195   5.310   1.266   0.635
 3766SOL     OW12196   1.275   1.493   3.863
 3766SOL    HW112197   1.348   1.437   3.825
 3766SOL    HW212198   1.246   1.561   3.795
 3767SOL     OW12199   1.976   4.932   0.185
 3767SOL    HW112200   2.034   5.010   0.159
 3767SOL    HW212201   1.882   4.965   0.199
 3768SOL     OW12202   1.576   6.608   4.553
 3768SOL    HW112203   1.674   6.627   4.548
 3768SOL    HW212204   1.535   6.625   4.464
 3769SOL     OW12205   6.589   6.111   5.229
 3769SOL    HW112206   6.618   6.034   5.172
 3769SOL    HW212207   6.657   6.183   5.224
 3770SOL     OW12208   1.605   1.381   6.311
 3770SOL    HW112209   1.517   1.390   6.264
 3770SOL    HW212210   1.671   1.340   6.249
 3771SOL     OW12211   5.679   3.388   6.869
 3771SOL    HW112212   5.701   3.292   6.884
 3771SOL    HW212213   5.669   3.406   6.771
 3772SOL     OW12214   0.343   1.047   5.957
 3772SOL    HW112215   0.304   0.955   5.951
 3772SOL    HW212216   0.274   1.114   5.929
 3773SOL     OW12217   6.046   2.729   6.157
 3773SOL    HW112218   6.091   2.818   6.164
 3773SOL    HW212219   5.947   2.742   6.146
 3774SOL     OW12220   6.829   6.002   0.826
 3774SOL    HW112221   6.785   5.923   0.869
 3774SOL    HW212222   6.805   6.085   0.876
 3775SOL     OW12223   4.309   5.291   2.027
 3775SOL    HW112224   4.245   5.331   2.093
 3775SOL    HW212225   4.395   5.270   2.073
 3776SOL     OW12226   4.469   1.430   6.983
 3776SOL    HW112227   4.547   1.476   6.939
 3776SOL    HW212228   4.386   1.449   6.930
 3777SOL     OW12229   3.348   5.741   3.793
 3777SOL    HW112230   3.322   5.649   3.823
 3777SOL    HW212231   3.432   5.736   3.739
 3778SOL     OW12232   3.358   4.871   2.538
 3778SOL    HW112233   3.282   4.892   2.599
 3778SOL    HW212234   3.322   4.834   2.452
 3779SOL     OW12235   1.502   4.358   0.443
 3779SOL    HW112236   1.419   4.303   0.455
 3779SOL    HW212237   1.506   4.428   0.514
 3780SOL     OW12238   6.170   5.296   5.159
 3780SOL    HW112239   6.138   5.284   5.064
 3780SOL    HW212240   6.268   5.278   5.164
 3781SOL     OW12241   1.029   5.693   4.426
 3781SOL    HW112242   1.022   5.713   4.328
 3781SOL    HW212243   1.088   5.614   4.440
 3782SOL     OW12244   2.388   0.312   3.942
 3782SOL    HW112245   2.483   0.340   3.951
 3782SOL    HW212246   2.380   0.238   3.875
 3783SOL     OW12247   5.814   5.606   3.069
 3783SOL    HW112248   5.768   5.522   3.096
 3783SOL    HW212249   5.823   5.666   3.149
 3784SOL     OW12250   4.864   2.442   3.025
 3784SOL    HW112251   4.808   2.366   2.993
 3784SOL    HW212252   4.846   2.523   2.969
 3785SOL     OW12253   2.437   2.673   6.063
 3785SOL    HW112254   2.422   2.762   6.019
 3785SOL    HW212255   2.428   2.682   6.162
 3786SOL     OW12256   2.028   5.439   2.828
 3786SOL    HW112257   2.013   5.455   2.925
 3786SOL    HW212258   2.038   5.527   2.781
 3787SOL     OW12259   5.857   1.326   2.594
 3787SOL    HW112260   5.853   1.383   2.512
 3787SOL    HW212261   5.929   1.360   2.655
 3788SOL     OW12262   0.636   4.737   4.379
 3788SOL    HW112263   0.681   4.824   4.360
 3788SOL    HW212264   0.703   4.663   4.369
 3789SOL     OW12265   0.604   3.013   4.660
 3789SOL    HW112266   0.583   2.948   4.733
 3789SOL    HW212267   0.686   3.064   4.683
 3790SOL     OW12268   1.608   4.272   5.645
 3790SOL    HW112269   1.563   4.227   5.723
 3790SOL    HW212270   1.555   4.255   5.562
 3791SOL     OW12271   5.511   1.006   6.698
 3791SOL    HW112272   5.471   1.074   6.760
 3791SOL    HW212273   5.440   0.965   6.642
 3792SOL     OW12274   1.052   2.465   4.902
 3792SOL    HW112275   1.062   2.544   4.841
 3792SOL    HW212276   0.980   2.485   4.969
 3793SOL     OW12277   4.851   6.816   2.379
 3793SOL    HW112278   4.912   6.895   2.372
 3793SOL    HW212279   4.904   6.736   2.407
 3794SOL     OW12280   2.253   3.561   0.809
 3794SOL    HW112281   2.203   3.529   0.728
 3794SOL    HW212282   2.307   3.642   0.785
 3795SOL     OW12283   4.161   6.330   6.958
 3795SOL    HW112284   4.249   6.338   7.004
 3795SOL    HW212285   4.169   6.267   6.880
 3796SOL     OW12286   3.260   2.004   2.461
 3796SOL    HW112287   3.229   2.082   2.516
 3796SOL    HW212288   3.196   1.929   2.472
 3797SOL     OW12289   0.115   3.688   1.437
 3797SOL    HW112290   0.179   3.712   1.365
 3797SOL    HW212291   0.038   3.752   1.437
 3798SOL     OW12292   2.717   5.606   2.997
 3798SOL    HW112293   2.642   5.542   2.981
 3798SOL    HW212294   2.801   5.570   2.956
 3799SOL     OW12295   0.070   2.616   4.111
 3799SOL    HW112296   0.001   2.682   4.082
 3799SOL    HW212297   0.104   2.566   4.031
 3800SOL     OW12298   5.779   3.683   4.110
 3800SOL    HW112299   5.680   3.676   4.097
 3800SOL    HW212300   5.816   3.592   4.129
 3801SOL     OW12301   6.061   0.076   2.272
 3801SOL    HW112302   6.105   7.007   2.264
 3801SOL    HW212303   5.972   0.065   2.317
 3802SOL     OW12304   0.968   2.105   2.624
 3802SOL    HW112305   1.026   2.046   2.680
 3802SOL    HW212306   1.022   2.182   2.589
 3803SOL     OW12307   3.388   2.440   1.580
 3803SOL    HW112308   3.317   2.477   1.640
 3803SOL    HW212309   3.418   2.351   1.613
 3804SOL     OW12310   4.973   1.189   3.836
 3804SOL    HW112311   4.922   1.171   3.920
 3804SOL    HW212312   5.004   1.284   3.836
 3805SOL     OW12313   2.829   2.904   1.581
 3805SOL    HW112314   2.840   2.813   1.620
 3805SOL    HW212315   2.767   2.899   1.502
 3806SOL     OW12316   3.600   3.794   6.528
 3806SOL    HW112317   3.550   3.858   6.586
 3806SOL    HW212318   3.535   3.743   6.471
 3807SOL     OW12319   1.432   6.136   2.785
 3807SOL    HW112320   1.449   6.225   2.827
 3807SOL    HW212321   1.476   6.133   2.695
 3808SOL     OW12322   4.462   0.945   0.985
 3808SOL    HW112323   4.531   0.914   1.051
 3808SOL    HW212324   4.508   0.971   0.899
 3809SOL     OW12325   5.090   3.110   0.993
 3809SOL    HW112326   5.023   3.136   1.063
 3809SOL    HW212327   5.079   3.013   0.972
 3810SOL     OW12328   4.495   2.510   3.720
 3810SOL    HW112329   4.519   2.521   3.623
 3810SOL    HW212330   4.575   2.528   3.776
 3811SOL     OW12331   1.107   4.347   3.943
 3811SOL    HW112332   1.157   4.418   3.893
 3811SOL    HW212333   1.009   4.355   3.923
 3812SOL     OW12334   5.070   6.062   4.536
 3812SOL    HW112335   5.133   5.985   4.543
 3812SOL    HW212336   5.057   6.102   4.627
 3813SOL     OW12337   4.795   4.262   0.452
 3813SOL    HW112338   4.870   4.267   0.517
 3813SOL    HW212339   4.827   4.219   0.368
 3814SOL     OW12340   0.096   6.983   0.102
 3814SOL    HW112341   0.154   7.019   0.029
 3814SOL    HW212342   0.049   0.039   0.147
 3815SOL     OW12343   4.814   2.214   0.578
 3815SOL    HW112344   4.896   2.204   0.522
 3815SOL    HW212345   4.733   2.222   0.519
 3816SOL     OW12346   0.789   6.096   0.309
 3816SOL    HW112347   0.871   6.045   0.334
 3816SOL    HW212348   0.807   6.194   0.318
 3817SOL     OW12349   5.266   4.018   2.733
 3817SOL    HW112350   5.190   4.005   2.796
 3817SOL    HW212351   5.257   4.107   2.688
 3818SOL     OW12352   6.392   0.898   6.879
 3818SOL    HW112353   6.431   0.974   6.828
 3818SOL    HW212354   6.309   0.927   6.926
 3819SOL     OW12355   5.366   5.081   1.905
 3819SOL    HW112356   5.464   5.060   1.911
 3819SOL    HW212357   5.330   5.104   1.995
 3820SOL     OW12358   5.540   6.587   3.995
 3820SOL    HW112359   5.624   6.621   4.037
 3820SOL    HW212360   5.515   6.645   3.918
 3821SOL     OW12361   2.601   1.581   1.034
 3821SOL    HW112362   2.682   1.588   1.093
 3821SOL    HW212363   2.539   1.513   1.073
 3822SOL     OW12364   2.068   0.386   1.378
 3822SOL    HW112365   1.978   0.396   1.334
 3822SOL    HW212366   2.119   0.470   1.368
 3823SOL     OW12367   3.204   3.337   5.982
 3823SOL    HW112368   3.222   3.239   5.982
 3823SOL    HW212369   3.113   3.355   6.021
 3824SOL     OW12370   6.518   2.277   0.896
 3824SOL    HW112371   6.618   2.283   0.895
 3824SOL    HW212372   6.488   2.231   0.979
 3825SOL     OW12373   0.566   6.138   1.023
 3825SOL    HW112374   0.604   6.065   1.080
 3825SOL    HW212375   0.512   6.096   0.949
 3826SOL     OW12376   0.834   3.342   6.696
 3826SOL    HW112377   0.788   3.325   6.783
 3826SOL    HW212378   0.797   3.281   6.626
 3827SOL     OW12379   2.227   2.312   1.450
 3827SOL    HW112380   2.180   2.400   1.452
 3827SOL    HW212381   2.323   2.324   1.476
 3828SOL     OW12382   3.912   2.992   1.984
 3828SOL    HW112383   3.840   3.017   1.919
 3828SOL    HW212384   3.880   3.006   2.077
 3829SOL     OW12385   1.561   4.645   3.671
 3829SOL    HW112386   1.516   4.635   3.760
 3829SOL    HW212387   1.529   4.574   3.609
 3830SOL     OW12388   0.838   1.507   4.456
 3830SOL    HW112389   0.838   1.606   4.447
 3830SOL    HW212390   0.867   1.465   4.370
 3831SOL     OW12391   4.909   1.975   1.752
 3831SOL    HW112392   4.932   1.905   1.684
 3831SOL    HW212393   4.914   1.935   1.843
 3832SOL     OW12394   5.889   0.979   2.722
 3832SOL    HW112395   5.908   0.987   2.820
 3832SOL    HW212396   5.938   0.900   2.686
 3833SOL     OW12397   0.673   6.282   5.839
 3833SOL    HW112398   0.672   6.186   5.813
 3833SOL    HW212399   0.597   6.300   5.902
 3834SOL     OW12400   4.685   3.878   1.746
 3834SOL    HW112401   4.650   3.972   1.748
 3834SOL    HW212402   4.743   3.863   1.827
 3835SOL     OW12403   3.189   5.297   4.211
 3835SOL    HW112404   3.105   5.338   4.175
 3835SOL    HW212405   3.172   5.263   4.303
 3836SOL     OW12406   1.895   3.876   5.911
 3836SOL    HW112407   1.891   3.895   5.812
 3836SOL    HW212408   1.899   3.777   5.925
 3837SOL     OW12409   4.620   4.686   6.406
 3837SOL    HW112410   4.557   4.693   6.328
 3837SOL    HW212411   4.638   4.777   6.442
 3838SOL     OW12412   6.917   3.758   4.761
 3838SOL    HW112413   6.920   3.708   4.847
 3838SOL    HW212414   6.997   3.818   4.754
 3839SOL     OW12415   4.689   0.606   3.123
 3839SOL    HW112416   4.629   0.627   3.046
 3839SOL    HW212417   4.640   0.551   3.190
 3840SOL     OW12418   2.016   0.743   5.804
 3840SOL    HW112419   1.969   0.810   5.862
 3840SOL    HW212420   2.108   0.727   5.839
 3841SOL     OW12421   0.325   3.319   5.603
 3841SOL    HW112422   0.405   3.344   5.548
 3841SOL    HW212423   0.242   3.327   5.547
 3842SOL     OW12424   1.719   3.507   6.956
 3842SOL    HW112425   1.655   3.465   6.892
 3842SOL    HW212426   1.807   3.521   6.911
 3843SOL     OW12427   6.349   4.217   2.919
 3843SOL    HW112428   6.286   4.167   2.860
 3843SOL    HW212429   6.388   4.155   2.987
 3844SOL     OW12430   0.715   2.702   6.090
 3844SOL    HW112431   0.693   2.653   6.005
 3844SOL    HW212432   0.658   2.666   6.164
 3845SOL     OW12433   3.995   3.130   3.932
 3845SOL    HW112434   3.917   3.192   3.927
 3845SOL    HW212435   4.024   3.104   3.839
 3846SOL     OW12436   0.715   5.621   3.843
 3846SOL    HW112437   0.684   5.570   3.924
 3846SOL    HW212438   0.697   5.567   3.761
 3847SOL     OW12439   6.349   0.645   4.487
 3847SOL    HW112440   6.378   0.730   4.531
 3847SOL    HW212441   6.401   0.569   4.526
 3848SOL     OW12442   3.422   5.774   3.030
 3848SOL    HW112443   3.404   5.682   3.066
 3848SOL    HW212444   3.358   5.793   2.955
 3849SOL     OW12445   0.990   1.709   5.504
 3849SOL    HW112446   0.955   1.668   5.420
 3849SOL    HW212447   0.928   1.688   5.580
 3850SOL     OW12448   2.713   3.289   1.086
 3850SOL    HW112449   2.732   3.231   1.165
 3850SOL    HW212450   2.679   3.378   1.118
 3851SOL     OW12451   1.933   4.516   2.560
 3851SOL    HW112452   1.856   4.560   2.607
 3851SOL    HW212453   1.939   4.549   2.466
 3852SOL     OW12454   4.531   6.706   3.733
 3852SOL    HW112455   4.613   6.651   3.747
 3852SOL    HW212456   4.472   6.661   3.665
 3853SOL     OW12457   0.826   3.496   3.383
 3853SOL    HW112458   0.757   3.556   3.424
 3853SOL    HW212459   0.782   3.437   3.315
 3854SOL     OW12460   1.230   3.387   2.189
 3854SOL    HW112461   1.197   3.471   2.147
 3854SOL    HW212462   1.326   3.399   2.216
 3855SOL     OW12463   5.235   6.684   6.638
 3855SOL    HW112464   5.272   6.598   6.603
 3855SOL    HW212465   5.256   6.757   6.574
 3856SOL     OW12466   0.105   6.257   5.443
 3856SOL    HW112467   0.101   6.356   5.430
 3856SOL    HW212468   0.012   6.222   5.459
 3857SOL     OW12469   0.807   5.838   5.891
 3857SOL    HW112470   0.814   5.744   5.924
 3857SOL    HW212471   0.864   5.897   5.949
 3858SOL     OW12472   1.459   6.887   5.787
 3858SOL    HW112473   1.379   6.837   5.820
 3858SOL    HW212474   1.443   6.917   5.693
 3859SOL     OW12475   6.543   2.304   3.290
 3859SOL    HW112476   6.489   2.269   3.366
 3859SOL    HW212477   6.591   2.388   3.318
 3860SOL     OW12478   2.170   0.334   5.382
 3860SOL    HW112479   2.107   0.408   5.356
 3860SOL    HW212480   2.264   0.366   5.372
 3861SOL     OW12481   4.596   4.339   3.205
 3861SOL    HW112482   4.686   4.381   3.215
 3861SOL    HW212483   4.605   4.247   3.168
 3862SOL     OW12484   0.895   0.227   4.823
 3862SOL    HW112485   0.891   0.203   4.726
 3862SOL    HW212486   0.926   0.322   4.833
 3863SOL     OW12487   4.469   2.757   6.166
 3863SOL    HW112488   4.518   2.837   6.132
 3863SOL    HW212489   4.387   2.742   6.111
 3864SOL     OW12490   2.621   0.343   5.494
 3864SOL    HW112491   2.672   0.402   5.432
 3864SOL    HW212492   2.592   0.395   5.574
 3865SOL     OW12493   3.370   6.225   0.214
 3865SOL    HW112494   3.386   6.308   0.161
 3865SOL    HW212495   3.433   6.222   0.291
 3866SOL     OW12496   4.115   1.105   1.569
 3866SOL    HW112497   4.037   1.120   1.629
 3866SOL    HW212498   4.120   1.178   1.501
 3867SOL     OW12499   1.550   4.107   3.941
 3867SOL    HW112500   1.571   4.018   3.900
 3867SOL    HW212501   1.506   4.092   4.030
 3868SOL     OW12502   3.434   6.899   0.369
 3868SOL    HW112503   3.440   6.920   0.467
 3868SOL    HW212504   3.500   6.956   0.319
 3869SOL     OW12505   6.561   3.128   5.140
 3869SOL    HW112506   6.559   3.195   5.214
 3869SOL    HW212507   6.626   3.056   5.162
 3870SOL     OW12508   4.356   5.274   0.365
 3870SOL    HW112509   4.354   5.181   0.402
 3870SOL    HW212510   4.315   5.337   0.431
 3871SOL     OW12511   4.376   0.185   2.607
 3871SOL    HW112512   4.304   0.234   2.559
 3871SOL    HW212513   4.374   0.208   2.704
 3872SOL     OW12514   4.117   3.320   2.327
 3872SOL    HW112515   4.109   3.299   2.230
 3872SOL    HW212516   4.088   3.241   2.381
 3873SOL     OW12517   6.817   4.194   1.217
 3873SOL    HW112518   6.828   4.182   1.315
 3873SOL    HW212519   6.730   4.154   1.188
 3874SOL     OW12520   3.491   5.899   6.537
 3874SOL    HW112521   3.474   5.836   6.613
 3874SOL    HW212522   3.449   5.863   6.454
 3875SOL     OW12523   1.384   3.041   1.833
 3875SOL    HW112524   1.388   2.941   1.837
 3875SOL    HW212525   1.294   3.072   1.862
 3876SOL     OW12526   5.782   4.587   6.937
 3876SOL    HW112527   5.749   4.657   7.000
 3876SOL    HW212528   5.707   4.559   6.877
 3877SOL     OW12529   6.754   2.944   0.220
 3877SOL    HW112530   6.748   3.011   0.294
 3877SOL    HW212531   6.809   2.981   0.145
 3878SOL     OW12532   2.415   6.389   5.338
 3878SOL    HW112533   2.450   6.482   5.349
 3878SOL    HW212534   2.363   6.384   5.252
 3879SOL     OW12535   5.361   6.816   1.374
 3879SOL    HW112536   5.409   6.737   1.335
 3879SOL    HW212537   5.381   6.898   1.321
 3880SOL     OW12538   6.040   4.731   3.752
 3880SOL    HW112539   6.072   4.777   3.669
 3880SOL    HW212540   6.119   4.701   3.806
 3881SOL     OW12541   0.782   4.825   0.966
 3881SOL    HW112542   0.801   4.755   1.035
 3881SOL    HW212543   0.862   4.884   0.955
 3882SOL     OW12544   6.634   1.278   4.608
 3882SOL    HW112545   6.642   1.268   4.509
 3882SOL    HW212546   6.558   1.340   4.630
 3883SOL     OW12547   4.755   1.071   3.475
 3883SOL    HW112548   4.794   0.980   3.460
 3883SOL    HW212549   4.760   1.124   3.390
 3884SOL     OW12550   1.320   5.520   3.400
 3884SOL    HW112551   1.352   5.548   3.490
 3884SOL    HW212552   1.335   5.421   3.389
 3885SOL     OW12553   6.529   0.905   3.813
 3885SOL    HW112554   6.525   0.947   3.722
 3885SOL    HW212555   6.601   0.949   3.866
 3886SOL     OW12556   6.680   5.590   5.149
 3886SOL    HW112557   6.687   5.492   5.169
 3886SOL    HW212558   6.765   5.621   5.107
 3887SOL     OW12559   5.613   1.058   5.213
 3887SOL    HW112560   5.520   1.051   5.248
 3887SOL    HW212561   5.629   1.150   5.178
 3888SOL     OW12562   0.660   0.329   6.585
 3888SOL    HW112563   0.601   0.408   6.602
 3888SOL    HW212564   0.662   0.270   6.666
 3889SOL     OW12565   6.867   2.683   6.145
 3889SOL    HW112566   6.818   2.768   6.128
 3889SOL    HW212567   6.845   2.649   6.237
 3890SOL     OW12568   6.205   5.569   2.471
 3890SOL    HW112569   6.184   5.613   2.384
 3890SOL    HW212570   6.231   5.474   2.455
 3891SOL     OW12571   5.492   5.095   4.570
 3891SOL    HW112572   5.403   5.057   4.545
 3891SOL    HW212573   5.520   5.059   4.660
 3892SOL     OW12574   0.384   2.073   2.563
 3892SOL    HW112575   0.433   1.989   2.539
 3892SOL    HW212576   0.425   2.114   2.644
 3893SOL     OW12577   2.803   5.361   1.782
 3893SOL    HW112578   2.901   5.377   1.780
 3893SOL    HW212579   2.767   5.360   1.689
 3894SOL     OW12580   2.831   2.022   0.993
 3894SOL    HW112581   2.916   2.020   1.046
 3894SOL    HW212582   2.824   2.109   0.944
 3895SOL     OW12583   1.398   0.305   5.252
 3895SOL    HW112584   1.442   0.227   5.296
 3895SOL    HW212585   1.428   0.310   5.156
 3896SOL     OW12586   0.210   2.217   6.244
 3896SOL    HW112587   0.152   2.138   6.259
 3896SOL    HW212588   0.305   2.193   6.264
 3897SOL     OW12589   3.780   0.102   2.133
 3897SOL    HW112590   3.695   0.118   2.183
 3897SOL    HW212591   3.787   0.005   2.109
 3898SOL     OW12592   3.276   3.684   3.764
 3898SOL    HW112593   3.274   3.584   3.769
 3898SOL    HW212594   3.301   3.722   3.853
 3899SOL     OW12595   5.012   0.726   4.164
 3899SOL    HW112596   5.011   0.826   4.168
 3899SOL    HW212597   5.072   0.691   4.236
 3900SOL     OW12598   5.026   2.726   2.948
 3900SOL    HW112599   5.069   2.740   2.859
 3900SOL    HW212600   5.093   2.691   3.013
 3901SOL     OW12601   3.073   6.732   5.930
 3901SOL    HW112602   3.108   6.679   5.852
 3901SOL    HW212603   3.147   6.786   5.970
 3902SOL     OW12604   5.539   3.403   1.326
 3902SOL    HW112605   5.543   3.407   1.426
 3902SOL    HW212606   5.518   3.493   1.289
 3903SOL     OW12607   4.813   3.938   6.594
 3903SOL    HW112608   4.844   3.923   6.687
 3903SOL    HW212609   4.714   3.950   6.593
 3904SOL     OW12610   2.168   0.417   6.037
 3904SOL    HW112611   2.218   0.347   5.985
 3904SOL    HW212612   2.085   0.377   6.075
 3905SOL     OW12613   5.865   6.658   6.058
 3905SOL    HW112614   5.890   6.561   6.065
 3905SOL    HW212615   5.886   6.704   6.144
 3906SOL     OW12616   1.705   4.686   5.651
 3906SOL    HW112617   1.741   4.775   5.681
 3906SOL    HW212618   1.771   4.643   5.589
 3907SOL     OW12619   6.690   0.747   4.190
 3907SOL    HW112620   6.743   0.674   4.147
 3907SOL    HW212621   6.713   0.834   4.146
 3908SOL     OW12622   1.637   1.023   6.947
 3908SOL    HW112623   1.706   1.082   6.989
 3908SOL    HW212624   1.599   1.069   6.866
 3909SOL     OW12625   6.889   4.432   6.450
 3909SOL    HW112626   6.899   4.337   6.480
 3909SOL    HW212627   6.920   4.494   6.523
 3910SOL     OW12628   3.326   3.899   2.087
 3910SOL    HW112629   3.416   3.942   2.093
 3910SOL    HW212630   3.333   3.803   2.114
 3911SOL     OW12631   5.093   1.202   0.226
 3911SOL    HW112632   5.124   1.126   0.284
 3911SOL    HW212633   5.007   1.239   0.261
 3912SOL     OW12634   4.057   1.240   6.309
 3912SOL    HW112635   4.090   1.320   6.259
 3912SOL    HW212636   4.010   1.270   6.392
 3913SOL     OW12637   2.964   6.414   6.926
 3913SOL    HW112638   3.053   6.459   6.918
 3913SOL    HW212639   2.924   6.402   6.835
 3914SOL     OW12640   4.973   0.937   1.291
 3914SOL    HW112641   4.932   0.848   1.311
 3914SOL    HW212642   5.073   0.928   1.293
 3915SOL     OW12643   4.771   6.717   0.153
 3915SOL    HW112644   4.735   6.737   0.062
 3915SOL    HW212645   4.703   6.667   0.206
 3916SOL     OW12646   2.557   6.876   2.765
 3916SOL    HW112647   2.585   6.954   2.709
 3916SOL    HW212648   2.457   6.869   2.764
 3917SOL     OW12649   1.242   4.203   1.567
 3917SOL    HW112650   1.236   4.254   1.653
 3917SOL    HW212651   1.273   4.264   1.494
 3918SOL     OW12652   3.691   6.654   0.995
 3918SOL    HW112653   3.623   6.630   1.065
 3918SOL    HW212654   3.660   6.735   0.945
 3919SOL     OW12655   3.520   0.549   6.623
 3919SOL    HW112656   3.570   0.487   6.684
 3919SOL    HW212657   3.444   0.590   6.673
 3920SOL     OW12658   3.146   0.652   6.362
 3920SOL    HW112659   3.061   0.643   6.311
 3920SOL    HW212660   3.194   0.735   6.333
 3921SOL     OW12661   0.303   1.964   6.885
 3921SOL    HW112662   0.397   1.969   6.919
 3921SOL    HW212663   0.279   2.050   6.842
 3922SOL     OW12664   4.739   5.148   1.501
 3922SOL    HW112665   4.766   5.214   1.572
 3922SOL    HW212666   4.747   5.191   1.411
 3923SOL     OW12667   5.910   2.149   1.050
 3923SOL    HW112668   5.957   2.232   1.080
 3923SOL    HW212669   5.813   2.157   1.069
 3924SOL     OW12670   0.346   5.182   3.042
 3924SOL    HW112671   0.425   5.187   2.981
 3924SOL    HW212672   0.265   5.217   2.995
 3925SOL     OW12673   4.548   4.714   1.262
 3925SOL    HW112674   4.554   4.783   1.334
 3925SOL    HW212675   4.468   4.656   1.279
 3926SOL     OW12676   0.088   0.216   4.844
 3926SOL    HW112677   0.159   0.147   4.858
 3926SOL    HW212678   0.124   0.306   4.870
 3927SOL     OW12679   0.169   2.734   4.610
 3927SOL    HW112680   0.151   2.814   4.667
 3927SOL    HW212681   0.216   2.762   4.526
 3928SOL     OW12682   3.023   5.949   3.300
 3928SOL    HW112683   3.004   5.892   3.220
 3928SOL    HW212684   3.099   5.909   3.352
 3929SOL     OW12685   0.061   1.146   6.866
 3929SOL    HW112686   0.033   1.229   6.914
 3929SOL    HW212687   0.160   1.141   6.863
 3930SOL     OW12688   0.784   2.204   3.757
 3930SOL    HW112689   0.693   2.221   3.795
 3930SOL    HW212690   0.795   2.106   3.740
 3931SOL     OW12691   1.892   1.554   2.009
 3931SOL    HW112692   1.975   1.499   2.011
 3931SOL    HW212693   1.912   1.647   2.041
 3932SOL     OW12694   2.240   4.847   3.820
 3932SOL    HW112695   2.150   4.880   3.792
 3932SOL    HW212696   2.263   4.885   3.910
 3933SOL     OW12697   1.643   0.209   0.188
 3933SOL    HW112698   1.708   0.161   0.246
 3933SOL    HW212699   1.687   0.289   0.147
 3934SOL     OW12700   6.741   1.134   3.131
 3934SOL    HW112701   6.678   1.153   3.207
 3934SOL    HW212702   6.804   1.210   3.121
 3935SOL     OW12703   0.984   1.695   5.920
 3935SOL    HW112704   0.990   1.615   5.979
 3935SOL    HW212705   0.925   1.675   5.842
 3936SOL     OW12706   0.082   5.900   5.111
 3936SOL    HW112707   0.137   5.981   5.088
 3936SOL    HW212708   7.007   5.929   5.129
 3937SOL     OW12709   6.744   6.440   2.295
 3937SOL    HW112710   6.653   6.400   2.307
 3937SOL    HW212711   6.772   6.484   2.380
 3938SOL     OW12712   6.182   4.274   4.377
 3938SOL    HW112713   6.086   4.304   4.371
 3938SOL    HW212714   6.234   4.315   4.302
 3939SOL     OW12715   2.856   1.394   3.631
 3939SOL    HW112716   2.830   1.443   3.547
 3939SOL    HW212717   2.907   1.312   3.607
 3940SOL     OW12718   2.845   4.795   1.829
 3940SOL    HW112719   2.860   4.706   1.872
 3940SOL    HW212720   2.754   4.796   1.787
 3941SOL     OW12721   5.938   7.003   4.617
 3941SOL    HW112722   5.976   0.071   4.644
 3941SOL    HW212723   5.898   7.010   4.526
 3942SOL     OW12724   0.690   6.138   5.471
 3942SOL    HW112725   0.603   6.125   5.520
 3942SOL    HW212726   0.760   6.079   5.511
 3943SOL     OW12727   0.732   3.215   2.517
 3943SOL    HW112728   0.647   3.246   2.476
 3943SOL    HW212729   0.756   3.274   2.594
 3944SOL     OW12730   6.197   3.682   5.994
 3944SOL    HW112731   6.181   3.586   6.016
 3944SOL    HW212732   6.210   3.734   6.078
 3945SOL     OW12733   1.170   2.417   3.365
 3945SOL    HW112734   1.136   2.364   3.287
 3945SOL    HW212735   1.110   2.401   3.444
 3946SOL     OW12736   0.365   3.818   6.781
 3946SOL    HW112737   0.428   3.885   6.820
 3946SOL    HW212738   0.414   3.733   6.762
 3947SOL     OW12739   5.845   4.742   0.551
 3947SOL    HW112740   5.818   4.805   0.623
 3947SOL    HW212741   5.907   4.788   0.487
 3948SOL     OW12742   1.584   3.830   6.823
 3948SOL    HW112743   1.592   3.779   6.909
 3948SOL    HW212744   1.501   3.803   6.775
 3949SOL     OW12745   6.668   6.888   3.670
 3949SOL    HW112746   6.741   6.820   3.669
 3949SOL    HW212747   6.675   6.947   3.590
 3950SOL     OW12748   3.999   3.917   1.614
 3950SOL    HW112749   4.015   3.921   1.516
 3950SOL    HW212750   4.081   3.882   1.660
 3951SOL     OW12751   0.409   1.119   6.869
 3951SOL    HW112752   0.459   1.198   6.905
 3951SOL    HW212753   0.466   1.038   6.874
 3952SOL     OW12754   6.282   2.821   4.457
 3952SOL    HW112755   6.213   2.893   4.459
 3952SOL    HW212756   6.328   2.816   4.545
 3953SOL     OW12757   3.463   3.988   6.010
 3953SOL    HW112758   3.544   3.943   5.973
 3953SOL    HW212759   3.394   3.996   5.938
 3954SOL     OW12760   5.681   4.849   5.866
 3954SOL    HW112761   5.737   4.883   5.942
 3954SOL    HW212762   5.740   4.803   5.800
 3955SOL     OW12763   5.055   6.554   0.005
 3955SOL    HW112764   5.021   6.573   0.097
 3955SOL    HW212765   5.052   6.638   6.971
 3956SOL     OW12766   0.866   2.492   5.121
 3956SOL    HW112767   0.799   2.562   5.095
 3956SOL    HW212768   0.828   2.436   5.194
 3957SOL     OW12769   3.685   6.303   3.386
 3957SOL    HW112770   3.644   6.226   3.337
 3957SOL    HW212771   3.767   6.271   3.435
 3958SOL     OW12772   6.377   6.176   0.022
 3958SOL    HW112773   6.291   6.221   0.046
 3958SOL    HW212774   6.388   6.175   6.942
 3959SOL     OW12775   3.437   6.516   1.128
 3959SOL    HW112776   3.377   6.591   1.156
 3959SOL    HW212777   3.451   6.454   1.205
 3960SOL     OW12778   5.458   2.163   6.049
 3960SOL    HW112779   5.425   2.139   5.957
 3960SOL    HW212780   5.556   2.143   6.055
 3961SOL     OW12781   5.221   1.655   1.807
 3961SOL    HW112782   5.217   1.707   1.893
 3961SOL    HW212783   5.273   1.571   1.821
 3962SOL     OW12784   0.503   5.794   0.254
 3962SOL    HW112785   0.542   5.826   0.341
 3962SOL    HW212786   0.492   5.872   0.192
 3963SOL     OW12787   5.599   5.210   3.540
 3963SOL    HW112788   5.574   5.113   3.538
 3963SOL    HW212789   5.563   5.255   3.458
 3964SOL     OW12790   3.947   5.201   5.029
 3964SOL    HW112791   4.035   5.160   5.006
 3964SOL    HW212792   3.916   5.166   5.118
 3965SOL     OW12793   3.473   4.862   6.305
 3965SOL    HW112794   3.551   4.896   6.251
 3965SOL    HW212795   3.390   4.866   6.249
 3966SOL     OW12796   6.487   4.729   0.091
 3966SOL    HW112797   6.551   4.771   0.026
 3966SOL    HW212798   6.525   4.736   0.183
 3967SOL     OW12799   1.143   5.054   2.431
 3967SOL    HW112800   1.239   5.040   2.453
 3967SOL    HW212801   1.121   5.005   2.347
 3968SOL     OW12802   6.271   0.935   1.073
 3968SOL    HW112803   6.329   1.010   1.103
 3968SOL    HW212804   6.305   0.900   0.986
 3969SOL     OW12805   0.437   4.385   2.693
 3969SOL    HW112806   0.387   4.455   2.642
 3969SOL    HW212807   0.413   4.295   2.659
 3970SOL     OW12808   5.096   5.271   3.656
 3970SOL    HW112809   5.074   5.340   3.725
 3970SOL    HW212810   5.137   5.192   3.700
 3971SOL     OW12811   2.677   5.150   1.971
 3971SOL    HW112812   2.753   5.153   1.906
 3971SOL    HW212813   2.671   5.058   2.011
 3972SOL     OW12814   0.856   5.729   1.226
 3972SOL    HW112815   0.951   5.760   1.231
 3972SOL    HW212816   0.832   5.683   1.312
 3973SOL     OW12817   3.066   3.296   5.223
 3973SOL    HW112818   3.138   3.273   5.158
 3973SOL    HW212819   2.992   3.342   5.176
 3974SOL     OW12820   0.565   0.458   5.702
 3974SOL    HW112821   0.498   0.398   5.746
 3974SOL    HW212822   0.521   0.544   5.676
 3975SOL     OW12823   6.078   0.060   5.841
 3975SOL    HW112824   6.158   0.109   5.876
 3975SOL    HW212825   6.096   6.982   5.844
 3976SOL     OW12826   0.988   5.044   0.907
 3976SOL    HW112827   1.052   5.086   0.971
 3976SOL    HW212828   0.943   5.116   0.854
 3977SOL     OW12829   2.978   5.011   5.968
 3977SOL    HW112830   2.918   5.078   5.925
 3977SOL    HW212831   2.953   4.919   5.938
 3978SOL     OW12832   5.108   0.013   4.426
 3978SOL    HW112833   5.051   6.997   4.353
 3978SOL    HW212834   5.194   0.049   4.388
 3979SOL     OW12835   2.221   6.015   1.815
 3979SOL    HW112836   2.268   6.037   1.730
 3979SOL    HW212837   2.228   6.093   1.878
 3980SOL     OW12838   0.154   4.419   5.938
 3980SOL    HW112839   0.165   4.326   5.974
 3980SOL    HW212840   0.132   4.414   5.840
 3981SOL     OW12841   1.175   2.198   6.232
 3981SOL    HW112842   1.227   2.168   6.312
 3981SOL    HW212843   1.232   2.191   6.151
 3982SOL     OW12844   2.479   0.745   3.952
 3982SOL    HW112845   2.577   0.739   3.968
 3982SOL    HW212846   2.454   0.840   3.933
 3983SOL     OW12847   3.443   5.911   4.340
 3983SOL    HW112848   3.438   5.812   4.334
 3983SOL    HW212849   3.522   5.937   4.396
 3984SOL     OW12850   2.237   0.803   1.908
 3984SOL    HW112851   2.321   0.785   1.858
 3984SOL    HW212852   2.181   0.869   1.857
 3985SOL     OW12853   2.392   4.482   6.949
 3985SOL    HW112854   2.482   4.439   6.956
 3985SOL    HW212855   2.344   4.473   0.016
 3986SOL     OW12856   0.399   1.769   3.345
 3986SOL    HW112857   0.367   1.847   3.399
 3986SOL    HW212858   0.394   1.686   3.400
 3987SOL     OW12859   1.234   5.173   4.842
 3987SOL    HW112860   1.266   5.205   4.931
 3987SOL    HW212861   1.304   5.116   4.799
 3988SOL     OW12862   3.352   2.099   5.476
 3988SOL    HW112863   3.380   2.186   5.516
 3988SOL    HW212864   3.359   2.104   5.377
 3989SOL     OW12865   5.754   0.446   6.060
 3989SOL    HW112866   5.762   0.533   6.108
 3989SOL    HW212867   5.698   0.457   5.978
 3990SOL     OW12868   5.977   1.818   3.811
 3990SOL    HW112869   6.042   1.761   3.761
 3990SOL    HW212870   5.955   1.774   3.898
 3991SOL     OW12871   6.656   2.357   3.555
 3991SOL    HW112872   6.561   2.354   3.586
 3991SOL    HW212873   6.712   2.300   3.616
 3992SOL     OW12874   4.613   2.213   6.469
 3992SOL    HW112875   4.612   2.247   6.563
 3992SOL    HW212876   4.632   2.289   6.406
 3993SOL     OW12877   2.058   1.953   3.289
 3993SOL    HW112878   1.998   2.004   3.226
 3993SOL    HW212879   2.132   2.013   3.320
 3994SOL     OW12880   1.714   2.740   4.680
 3994SOL    HW112881   1.733   2.718   4.776
 3994SOL    HW212882   1.756   2.671   4.621
 3995SOL     OW12883   2.288   4.293   3.962
 3995SOL    HW112884   2.217   4.362   3.969
 3995SOL    HW212885   2.318   4.285   3.867
 3996SOL     OW12886   1.374   0.972   4.955
 3996SOL    HW112887   1.438   1.020   5.015
 3996SOL    HW212888   1.316   1.038   4.909
 3997SOL     OW12889   5.148   3.612   3.626
 3997SOL    HW112890   5.158   3.610   3.726
 3997SOL    HW212891   5.237   3.631   3.584
 3998SOL     OW12892   5.274   1.999   2.290
 3998SOL    HW112893   5.185   1.971   2.325
 3998SOL    HW212894   5.341   1.998   2.364
 3999SOL     OW12895   5.718   3.508   3.650
 3999SOL    HW112896   5.678   3.568   3.581
 3999SOL    HW212897   5.764   3.431   3.605
 4000SOL     OW12898   3.277   5.666   2.585
 4000SOL    HW112899   3.291   5.717   2.500
 4000SOL    HW212900   3.273   5.730   2.662
 4001SOL     OW12901   2.302   2.732   5.097
 4001SOL    HW112902   2.346   2.681   5.023
 4001SOL    HW212903   2.329   2.828   5.093
 4002SOL     OW12904   3.717   3.835   5.900
 4002SOL    HW112905   3.791   3.790   5.950
 4002SOL    HW212906   3.671   3.769   5.841
 4003SOL     OW12907   2.383   0.563   5.619
 4003SOL    HW112908   2.403   0.658   5.641
 4003SOL    HW212909   2.386   0.549   5.520
 4004SOL     OW12910   5.976   2.905   4.515
 4004SOL    HW112911   5.952   2.990   4.468
 4004SOL    HW212912   5.896   2.846   4.521
 4005SOL     OW12913   5.109   4.818   1.080
 4005SOL    HW112914   5.154   4.728   1.074
 4005SOL    HW212915   5.178   4.890   1.072
 4006SOL     OW12916   4.655   4.872   2.309
 4006SOL    HW112917   4.561   4.854   2.337
 4006SOL    HW212918   4.715   4.861   2.388
 4007SOL     OW12919   0.665   2.829   2.444
 4007SOL    HW112920   0.567   2.849   2.451
 4007SOL    HW212921   0.682   2.775   2.361
 4008SOL     OW12922   3.475   1.316   5.830
 4008SOL    HW112923   3.423   1.285   5.750
 4008SOL    HW212924   3.568   1.278   5.826
 4009SOL     OW12925   4.353   2.495   0.519
 4009SOL    HW112926   4.330   2.571   0.459
 4009SOL    HW212927   4.451   2.497   0.539
 4010SOL     OW12928   2.387   3.068   1.711
 4010SOL    HW112929   2.486   3.067   1.700
 4010SOL    HW212930   2.351   3.158   1.683
 4011SOL     OW12931   1.039   6.747   2.356
 4011SOL    HW112932   1.016   6.787   2.267
 4011SOL    HW212933   0.987   6.794   2.428
 4012SOL     OW12934   4.353   5.528   2.513
 4012SOL    HW112935   4.328   5.536   2.609
 4012SOL    HW212936   4.446   5.493   2.504
 4013SOL     OW12937   2.829   0.393   1.027
 4013SOL    HW112938   2.777   0.321   0.981
 4013SOL    HW212939   2.902   0.426   0.968
 4014SOL     OW12940   4.101   5.281   4.031
 4014SOL    HW112941   4.102   5.265   3.932
 4014SOL    HW212942   4.020   5.334   4.056
 4015SOL     OW12943   4.049   4.903   6.621
 4015SOL    HW112944   3.976   4.859   6.569
 4015SOL    HW212945   4.074   4.990   6.578
 4016SOL     OW12946   1.672   5.547   0.300
 4016SOL    HW112947   1.743   5.477   0.300
 4016SOL    HW212948   1.714   5.638   0.303
 4017SOL     OW12949   0.558   6.682   6.633
 4017SOL    HW112950   0.569   6.631   6.718
 4017SOL    HW212951   0.588   6.777   6.646
 4018SOL     OW12952   5.205   6.403   0.863
 4018SOL    HW112953   5.289   6.381   0.813
 4018SOL    HW212954   5.209   6.362   0.955
 4019SOL     OW12955   6.243   3.795   2.735
 4019SOL    HW112956   6.227   3.842   2.648
 4019SOL    HW212957   6.217   3.855   2.811
 4020SOL     OW12958   0.473   2.745   5.646
 4020SOL    HW112959   0.518   2.824   5.688
 4020SOL    HW212960   0.436   2.772   5.556
 4021SOL     OW12961   3.209   3.648   5.101
 4021SOL    HW112962   3.268   3.576   5.136
 4021SOL    HW212963   3.139   3.669   5.169
 4022SOL     OW12964   4.409   6.840   6.548
 4022SOL    HW112965   4.498   6.796   6.545
 4022SOL    HW212966   4.345   6.792   6.487
 4023SOL     OW12967   6.899   0.604   4.090
 4023SOL    HW112968   6.851   0.565   4.012
 4023SOL    HW212969   6.961   0.676   4.059
 4024SOL     OW12970   2.046   5.674   4.098
 4024SOL    HW112971   2.008   5.646   4.009
 4024SOL    HW212972   2.000   5.757   4.129
 4025SOL     OW12973   0.584   6.498   4.384
 4025SOL    HW112974   0.637   6.582   4.394
 4025SOL    HW212975   0.645   6.421   4.367
 4026SOL     OW12976   6.440   0.126   2.886
 4026SOL    HW112977   6.404   0.115   2.793
 4026SOL    HW212978   6.416   0.046   2.940
 4027SOL     OW12979   3.101   2.754   0.802
 4027SOL    HW112980   3.142   2.808   0.729
 4027SOL    HW212981   3.008   2.727   0.776
 4028SOL     OW12982   2.799   2.065   2.971
 4028SOL    HW112983   2.839   2.112   2.893
 4028SOL    HW212984   2.710   2.105   2.992
 4029SOL     OW12985   3.139   4.650   5.780
 4029SOL    HW112986   3.179   4.603   5.701
 4029SOL    HW212987   3.212   4.694   5.831
 4030SOL     OW12988   1.049   1.584   1.768
 4030SOL    HW112989   1.070   1.578   1.866
 4030SOL    HW212990   1.056   1.679   1.739
 4031SOL     OW12991   5.008   5.928   3.359
 4031SOL    HW112992   4.916   5.890   3.350
 4031SOL    HW212993   5.076   5.858   3.336
 4032SOL     OW12994   6.136   0.551   2.451
 4032SOL    HW112995   6.124   0.650   2.461
 4032SOL    HW212996   6.183   0.515   2.532
 4033SOL     OW12997   2.280   3.578   1.476
 4033SOL    HW112998   2.192   3.606   1.438
 4033SOL    HW212999   2.289   3.612   1.569
 4034SOL     OW13000   6.620   1.236   4.337
 4034SOL    HW113001   6.620   1.271   4.243
 4034SOL    HW213002   6.530   1.196   4.357
 4035SOL     OW13003   6.367   2.278   0.459
 4035SOL    HW113004   6.391   2.375   0.451
 4035SOL    HW213005   6.399   2.229   0.378
 4036SOL     OW13006   4.899   6.079   2.432
 4036SOL    HW113007   4.839   6.002   2.454
 4036SOL    HW213008   4.943   6.063   2.343
 4037SOL     OW13009   2.638   1.526   0.478
 4037SOL    HW113010   2.665   1.614   0.517
 4037SOL    HW213011   2.683   1.514   0.389
 4038SOL     OW13012   4.457   3.397   1.624
 4038SOL    HW113013   4.448   3.298   1.639
 4038SOL    HW213014   4.486   3.414   1.530
 4039SOL     OW13015   4.993   4.531   1.714
 4039SOL    HW113016   5.019   4.454   1.771
 4039SOL    HW213017   4.939   4.596   1.768
 4040SOL     OW13018   3.871   6.909   5.917
 4040SOL    HW113019   3.832   6.996   5.888
 4040SOL    HW213020   3.895   6.915   6.014
 4041SOL     OW13021   1.368   4.971   1.340
 4041SOL    HW113022   1.362   4.871   1.351
 4041SOL    HW213023   1.294   5.015   1.390
 4042SOL     OW13024   6.235   5.774   3.279
 4042SOL    HW113025   6.171   5.727   3.218
 4042SOL    HW213026   6.325   5.731   3.271
 4043SOL     OW13027   5.770   1.827   4.317
 4043SOL    HW113028   5.686   1.775   4.335
 4043SOL    HW213029   5.830   1.823   4.396
 4044SOL     OW13030   4.917   0.055   3.338
 4044SOL    HW113031   4.875   0.037   3.249
 4044SOL    HW213032   4.846   0.056   3.408
 4045SOL     OW13033   2.763   5.596   5.394
 4045SOL    HW113034   2.764   5.662   5.319
 4045SOL    HW213035   2.671   5.591   5.433
 4046SOL     OW13036   1.568   2.021   4.214
 4046SOL    HW113037   1.567   1.947   4.281
 4046SOL    HW213038   1.481   2.069   4.216
 4047SOL     OW13039   1.760   2.106   1.107
 4047SOL    HW113040   1.744   2.181   1.171
 4047SOL    HW213041   1.722   2.129   1.017
 4048SOL     OW13042   5.329   1.836   2.062
 4048SOL    HW113043   5.361   1.904   1.997
 4048SOL    HW213044   5.319   1.878   2.152
 4049SOL     OW13045   6.148   5.193   6.212
 4049SOL    HW113046   6.153   5.107   6.161
 4049SOL    HW213047   6.087   5.256   6.164
 4050SOL     OW13048   1.205   6.869   1.391
 4050SOL    HW113049   1.267   6.790   1.386
 4050SOL    HW213050   1.142   6.856   1.467
 4051SOL     OW13051   4.041   2.255   6.716
 4051SOL    HW113052   4.129   2.295   6.738
 4051SOL    HW213053   4.004   2.298   6.633
 4052SOL     OW13054   0.039   1.169   2.567
 4052SOL    HW113055   6.971   1.143   2.528
 4052SOL    HW213056   0.101   1.200   2.495
 4053SOL     OW13057   2.931   5.357   4.128
 4053SOL    HW113058   2.876   5.438   4.145
 4053SOL    HW213059   2.888   5.278   4.171
 4054SOL     OW13060   6.163   3.644   1.586
 4054SOL    HW113061   6.129   3.579   1.518
 4054SOL    HW213062   6.171   3.599   1.675
 4055SOL     OW13063   3.244   3.278   6.380
 4055SOL    HW113064   3.223   3.372   6.350
 4055SOL    HW213065   3.245   3.274   6.479
 4056SOL     OW13066   3.462   4.124   1.102
 4056SOL    HW113067   3.386   4.068   1.135
 4056SOL    HW213068   3.454   4.138   1.004
 4057SOL     OW13069   5.773   2.723   1.597
 4057SOL    HW113070   5.778   2.733   1.498
 4057SOL    HW213071   5.683   2.686   1.622
 4058SOL     OW13072   2.005   0.017   3.930
 4058SOL    HW113073   2.010   0.021   4.030
 4058SOL    HW213074   1.918   6.996   3.902
 4059SOL     OW13075   1.448   2.377   3.461
 4059SOL    HW113076   1.427   2.367   3.559
 4059SOL    HW213077   1.370   2.417   3.414
 4060SOL     OW13078   5.274   5.658   4.765
 4060SOL    HW113079   5.225   5.596   4.827
 4060SOL    HW213080   5.209   5.697   4.699
 4061SOL     OW13081   3.183   4.823   1.667
 4061SOL    HW113082   3.184   4.810   1.568
 4061SOL    HW213083   3.109   4.886   1.692
 4062SOL     OW13084   1.966   2.589   2.085
 4062SOL    HW113085   1.896   2.642   2.037
 4062SOL    HW213086   1.924   2.541   2.162
 4063SOL     OW13087   6.347   5.491   6.170
 4063SOL    HW113088   6.395   5.497   6.082
 4063SOL    HW213089   6.268   5.552   6.168
 4064SOL     OW13090   2.089   6.821   3.573
 4064SOL    HW113091   2.032   6.898   3.547
 4064SOL    HW213092   2.104   6.823   3.672
 4065SOL     OW13093   0.321   6.987   1.023
 4065SOL    HW113094   0.402   6.958   0.972
 4065SOL    HW213095   0.349   0.020   1.103
 4066SOL     OW13096   5.381   5.381   3.257
 4066SOL    HW113097   5.342   5.400   3.347
 4066SOL    HW213098   5.474   5.345   3.268
 4067SOL     OW13099   6.128   3.258   3.089
 4067SOL    HW113100   6.102   3.191   3.019
 4067SOL    HW213101   6.068   3.249   3.168
 4068SOL     OW13102   3.353   0.749   4.940
 4068SOL    HW113103   3.374   0.707   5.028
 4068SOL    HW213104   3.272   0.807   4.949
 4069SOL     OW13105   2.732   5.095   5.827
 4069SOL    HW113106   2.667   5.136   5.763
 4069SOL    HW213107   2.763   5.164   5.892
 4070SOL     OW13108   0.157   2.981   2.240
 4070SOL    HW113109   0.217   2.964   2.162
 4070SOL    HW213110   0.206   2.963   2.325
 4071SOL     OW13111   1.361   0.613   5.243
 4071SOL    HW113112   1.374   0.515   5.236
 4071SOL    HW213113   1.316   0.647   5.160
 4072SOL     OW13114   0.452   5.955   4.157
 4072SOL    HW113115   0.422   6.025   4.093
 4072SOL    HW213116   0.375   5.928   4.215
 4073SOL     OW13117   2.410   6.267   6.217
 4073SOL    HW113118   2.418   6.367   6.212
 4073SOL    HW213119   2.318   6.239   6.190
 4074SOL     OW13120   6.442   2.584   1.902
 4074SOL    HW113121   6.459   2.486   1.901
 4074SOL    HW213122   6.521   2.631   1.941
 4075SOL     OW13123   4.057   1.759   2.567
 4075SOL    HW113124   4.022   1.835   2.512
 4075SOL    HW213125   4.151   1.778   2.594
 4076SOL     OW13126   2.849   2.939   5.866
 4076SOL    HW113127   2.874   2.968   5.773
 4076SOL    HW213128   2.904   2.859   5.892
 4077SOL     OW13129   3.735   0.641   0.512
 4077SOL    HW113130   3.793   0.707   0.466
 4077SOL    HW213131   3.639   0.655   0.485
 4078SOL     OW13132   6.982   5.853   2.314
 4078SOL    HW113133   0.041   5.792   2.306
 4078SOL    HW213134   6.918   5.835   2.239
 4079SOL     OW13135   1.331   2.142   4.259
 4079SOL    HW113136   1.332   2.240   4.237
 4079SOL    HW213137   1.248   2.101   4.223
 4080SOL     OW13138   2.938   4.244   6.790
 4080SOL    HW113139   3.012   4.245   6.858
 4080SOL    HW213140   2.975   4.216   6.701
 4081SOL     OW13141   2.447   2.063   4.701
 4081SOL    HW113142   2.392   2.116   4.636
 4081SOL    HW213143   2.498   1.993   4.651
 4082SOL     OW13144   1.553   3.096   0.007
 4082SOL    HW113145   1.496   3.110   0.088
 4082SOL    HW213146   1.495   3.063   6.952
 4083SOL     OW13147   6.881   4.400   1.679
 4083SOL    HW113148   6.891   4.302   1.691
 4083SOL    HW213149   6.955   4.434   1.620
 4084SOL     OW13150   4.546   2.300   3.527
 4084SOL    HW113151   4.453   2.279   3.498
 4084SOL    HW213152   4.612   2.263   3.462
 4085SOL     OW13153   2.343   5.674   0.969
 4085SOL    HW113154   2.326   5.768   0.940
 4085SOL    HW213155   2.256   5.625   0.978
 4086SOL     OW13156   0.416   5.185   1.730
 4086SOL    HW113157   0.438   5.282   1.729
 4086SOL    HW213158   0.334   5.168   1.676
 4087SOL     OW13159   1.235   1.845   3.497
 4087SOL    HW113160   1.201   1.885   3.412
 4087SOL    HW213161   1.326   1.882   3.517
 4088SOL     OW13162   6.087   0.720   6.820
 4088SOL    HW113163   6.039   0.658   6.882
 4088SOL    HW213164   6.108   0.805   6.869
 4089SOL     OW13165   5.501   4.710   3.792
 4089SOL    HW113166   5.447   4.700   3.708
 4089SOL    HW213167   5.501   4.805   3.820
 4090SOL     OW13168   1.235   4.976   5.185
 4090SOL    HW113169   1.173   4.970   5.107
 4090SOL    HW213170   1.280   5.065   5.186
 4091SOL     OW13171   0.351   6.497   6.952
 4091SOL    HW113172   0.423   6.532   7.011
 4091SOL    HW213173   0.391   6.447   6.875
 4092SOL     OW13174   5.748   2.751   4.562
 4092SOL    HW113175   5.801   2.709   4.636
 4092SOL    HW213176   5.679   2.687   4.529
 4093SOL     OW13177   4.706   6.071   2.083
 4093SOL    HW113178   4.648   6.140   2.127
 4093SOL    HW213179   4.678   6.061   1.987
 4094SOL     OW13180   1.779   5.294   5.787
 4094SOL    HW113181   1.861   5.295   5.729
 4094SOL    HW213182   1.806   5.306   5.882
 4095SOL     OW13183   0.614   4.212   0.759
 4095SOL    HW113184   0.539   4.190   0.821
 4095SOL    HW213185   0.607   4.308   0.731
 4096SOL     OW13186   4.706   0.828   6.076
 4096SOL    HW113187   4.727   0.734   6.103
 4096SOL    HW213188   4.760   0.891   6.131
 4097SOL     OW13189   3.995   4.899   4.761
 4097SOL    HW113190   3.945   4.942   4.686
 4097SOL    HW213191   3.931   4.850   4.820
 4098SOL     OW13192   0.004   2.307   2.013
 4098SOL    HW113193   0.037   2.332   2.104
 4098SOL    HW213194   6.963   2.229   2.020
 4099SOL     OW13195   3.791   4.934   1.582
 4099SOL    HW113196   3.887   4.911   1.569
 4099SOL    HW213197   3.754   4.975   1.499
 4100SOL     OW13198   6.971   6.742   4.352
 4100SOL    HW113199   6.965   6.645   4.330
 4100SOL    HW213200   6.924   6.796   4.282
 4101SOL     OW13201   6.743   0.901   6.743
 4101SOL    HW113202   6.764   0.994   6.712
 4101SOL    HW213203   6.748   0.898   6.843
 4102SOL     OW13204   0.228   0.889   0.382
 4102SOL    HW113205   0.310   0.941   0.402
 4102SOL    HW213206   0.200   0.905   0.287
 4103SOL     OW13207   0.536   7.005   0.178
 4103SOL    HW113208   0.564   0.074   0.144
 4103SOL    HW213209   0.557   6.997   0.275
 4104SOL     OW13210   6.942   5.517   2.988
 4104SOL    HW113211   6.871   5.586   2.979
 4104SOL    HW213212   6.985   5.502   2.899
 4105SOL     OW13213   5.442   0.257   1.919
 4105SOL    HW113214   5.421   0.165   1.949
 4105SOL    HW213215   5.386   0.281   1.839
 4106SOL     OW13216   6.497   3.158   2.976
 4106SOL    HW113217   6.547   3.186   3.059
 4106SOL    HW213218   6.482   3.060   2.979
 4107SOL     OW13219   0.902   5.241   0.750
 4107SOL    HW113220   0.951   5.213   0.667
 4107SOL    HW213221   0.917   5.338   0.766
 4108SOL     OW13222   6.439   5.253   4.351
 4108SOL    HW113223   6.482   5.339   4.323
 4108SOL    HW213224   6.394   5.266   4.440
 4109SOL     OW13225   6.413   6.538   4.500
 4109SOL    HW113226   6.483   6.587   4.552
 4109SOL    HW213227   6.367   6.472   4.559
 4110SOL     OW13228   4.107   3.842   5.369
 4110SOL    HW113229   4.182   3.786   5.404
 4110SOL    HW213230   4.126   3.938   5.385
 4111SOL     OW13231   5.182   3.829   6.606
 4111SOL    HW113232   5.192   3.813   6.704
 4111SOL    HW213233   5.218   3.920   6.584
 4112SOL     OW13234   5.007   6.136   4.784
 4112SOL    HW113235   4.974   6.230   4.796
 4112SOL    HW213236   4.973   6.079   4.859
 4113SOL     OW13237   5.409   5.771   5.239
 4113SOL    HW113238   5.492   5.813   5.201
 4113SOL    HW213239   5.404   5.789   5.337
 4114SOL     OW13240   4.415   2.417   4.231
 4114SOL    HW113241   4.394   2.443   4.136
 4114SOL    HW213242   4.331   2.398   4.280
 4115SOL     OW13243   3.516   5.077   1.940
 4115SOL    HW113244   3.461   4.997   1.915
 4115SOL    HW213245   3.605   5.072   1.893
 4116SOL     OW13246   3.801   1.522   2.325
 4116SOL    HW113247   3.736   1.591   2.357
 4116SOL    HW213248   3.882   1.523   2.382
 4117SOL     OW13249   1.401   3.376   2.564
 4117SOL    HW113250   1.439   3.422   2.484
 4117SOL    HW213251   1.454   3.292   2.582
 4118SOL     OW13252   4.874   5.640   0.587
 4118SOL    HW113253   4.776   5.642   0.570
 4118SOL    HW213254   4.891   5.650   0.685
 4119SOL     OW13255   3.924   1.888   4.207
 4119SOL    HW113256   3.997   1.953   4.232
 4119SOL    HW213257   3.956   1.829   4.133
 4120SOL     OW13258   3.961   0.515   6.171
 4120SOL    HW113259   3.987   0.561   6.256
 4120SOL    HW213260   4.034   0.453   6.144
 4121SOL     OW13261   6.301   6.980   4.256
 4121SOL    HW113262   6.304   0.002   4.165
 4121SOL    HW213263   6.356   0.015   4.320
 4122SOL     OW13264   1.011   6.247   4.094
 4122SOL    HW113265   0.940   6.220   4.160
 4122SOL    HW213266   0.990   6.208   4.005
 4123SOL     OW13267   4.431   4.712   5.348
 4123SOL    HW113268   4.433   4.812   5.356
 4123SOL    HW213269   4.416   4.672   5.438
 4124SOL     OW13270   6.773   6.494   0.642
 4124SOL    HW113271   6.797   6.438   0.562
 4124SOL    HW213272   6.843   6.564   0.656
 4125SOL     OW13273   4.587   1.453   2.190
 4125SOL    HW113274   4.579   1.405   2.102
 4125SOL    HW213275   4.607   1.549   2.173
 4126SOL     OW13276   1.925   3.599   3.910
 4126SOL    HW113277   1.876   3.591   3.823
 4126SOL    HW213278   1.905   3.688   3.951
 4127SOL     OW13279   5.549   4.523   5.316
 4127SOL    HW113280   5.463   4.568   5.339
 4127SOL    HW213281   5.582   4.471   5.394
 4128SOL     OW13282   0.961   2.848   1.689
 4128SOL    HW113283   1.018   2.836   1.607
 4128SOL    HW213284   0.968   2.767   1.747
 4129SOL     OW13285   4.078   0.833   6.860
 4129SOL    HW113286   3.997   0.886   6.837
 4129SOL    HW213287   4.122   0.871   6.941
 4130SOL     OW13288   6.454   3.114   0.496
 4130SOL    HW113289   6.453   3.033   0.439
 4130SOL    HW213290   6.540   3.118   0.547
 4131SOL     OW13291   0.116   1.725   3.889
 4131SOL    HW113292   0.068   1.712   3.802
 4131SOL    HW213293   0.171   1.644   3.909
 4132SOL     OW13294   4.806   4.203   3.644
 4132SOL    HW113295   4.712   4.236   3.635
 4132SOL    HW213296   4.852   4.208   3.556
 4133SOL     OW13297   3.299   5.968   1.190
 4133SOL    HW113298   3.250   5.962   1.277
 4133SOL    HW213299   3.395   5.989   1.207
 4134SOL     OW13300   2.704   4.022   1.069
 4134SOL    HW113301   2.793   3.976   1.064
 4134SOL    HW213302   2.695   4.086   0.993
 4135SOL     OW13303   0.555   1.874   2.445
 4135SOL    HW113304   0.622   1.910   2.379
 4135SOL    HW213305   0.576   1.779   2.466
 4136SOL     OW13306   1.442   3.084   3.435
 4136SOL    HW113307   1.538   3.063   3.453
 4136SOL    HW213308   1.404   3.015   3.373
 4137SOL     OW13309   1.075   3.859   1.620
 4137SOL    HW113310   0.995   3.918   1.606
 4137SOL    HW213311   1.103   3.820   1.532
 4138SOL     OW13312   4.279   5.894   2.754
 4138SOL    HW113313   4.321   5.841   2.827
 4138SOL    HW213314   4.294   5.992   2.770
 4139SOL     OW13315   2.391   1.697   5.551
 4139SOL    HW113316   2.350   1.759   5.617
 4139SOL    HW213317   2.434   1.621   5.599
 4140SOL     OW13318   2.828   0.005   5.733
 4140SOL    HW113319   2.855   0.095   5.700
 4140SOL    HW213320   2.871   7.007   5.822
 4141SOL     OW13321   5.241   6.520   1.164
 4141SOL    HW113322   5.329   6.564   1.182
 4141SOL    HW213323   5.184   6.580   1.109
 4142SOL     OW13324   6.470   4.452   0.885
 4142SOL    HW113325   6.467   4.530   0.947
 4142SOL    HW213326   6.562   4.411   0.887
 4143SOL     OW13327   5.429   1.704   0.954
 4143SOL    HW113328   5.357   1.739   0.894
 4143SOL    HW213329   5.386   1.658   1.032
 4144SOL     OW13330   5.410   1.844   0.195
 4144SOL    HW113331   5.409   1.876   0.101
 4144SOL    HW213332   5.364   1.755   0.201
 4145SOL     OW13333   0.158   6.491   1.688
 4145SOL    HW113334   0.203   6.578   1.667
 4145SOL    HW213335   0.122   6.494   1.781
 4146SOL     OW13336   6.847   0.718   2.777
 4146SOL    HW113337   6.864   0.790   2.844
 4146SOL    HW213338   6.933   0.671   2.757
 4147SOL     OW13339   5.296   4.647   6.023
 4147SOL    HW113340   5.277   4.552   6.049
 4147SOL    HW213341   5.246   4.709   6.084
 4148SOL     OW13342   1.405   0.747   4.796
 4148SOL    HW113343   1.406   0.824   4.860
 4148SOL    HW213344   1.454   0.772   4.712
 4149SOL     OW13345   0.153   3.907   0.830
 4149SOL    HW113346   0.242   3.874   0.863
 4149SOL    HW213347   0.152   4.007   0.831
 4150SOL     OW13348   0.626   0.020   5.709
 4150SOL    HW113349   0.572   6.957   5.722
 4150SOL    HW213350   0.641   0.035   5.611
 4151SOL     OW13351   3.326   6.302   5.770
 4151SOL    HW113352   3.229   6.313   5.791
 4151SOL    HW213353   3.366   6.233   5.831
 4152SOL     OW13354   4.579   5.674   0.484
 4152SOL    HW113355   4.571   5.707   0.390
 4152SOL    HW213356   4.495   5.695   0.535
 4153SOL     OW13357   5.577   5.153   0.245
 4153SOL    HW113358   5.646   5.098   0.198
 4153SOL    HW213359   5.503   5.175   0.182
 4154SOL     OW13360   0.163   5.094   3.476
 4154SOL    HW113361   0.245   5.041   3.454
 4154SOL    HW213362   0.183   5.159   3.548
 4155SOL     OW13363   0.477   1.327   2.706
 4155SOL    HW113364   0.384   1.349   2.678
 4155SOL    HW213365   0.522   1.274   2.634
 4156SOL     OW13366   5.946   5.916   5.189
 4156SOL    HW113367   5.991   5.926   5.101
 4156SOL    HW213368   5.970   5.828   5.230
 4157SOL     OW13369   5.108   5.258   4.056
 4157SOL    HW113370   5.107   5.263   4.156
 4157SOL    HW213371   5.113   5.162   4.027
 4158SOL     OW13372   6.970   3.182   1.441
 4158SOL    HW113373   6.978   3.268   1.493
 4158SOL    HW213374   6.889   3.132   1.472
 4159SOL     OW13375   2.100   3.458   3.424
 4159SOL    HW113376   2.104   3.418   3.332
 4159SOL    HW213377   2.057   3.392   3.486
 4160SOL     OW13378   5.853   0.712   0.285
 4160SOL    HW113379   5.816   0.624   0.313
 4160SOL    HW213380   5.780   0.780   0.286
 4161SOL     OW13381   1.060   1.910   0.876
 4161SOL    HW113382   1.124   1.834   0.866
 4161SOL    HW213383   0.970   1.882   0.839
 4162SOL     OW13384   0.063   6.012   0.202
 4162SOL    HW113385   7.016   5.956   0.153
 4162SOL    HW213386   0.125   6.055   0.137
 4163SOL     OW13387   4.451   0.046   3.331
 4163SOL    HW113388   4.402   0.106   3.268
 4163SOL    HW213389   4.448   6.972   3.297
 4164SOL     OW13390   1.736   6.822   5.855
 4164SOL    HW113391   1.718   6.739   5.908
 4164SOL    HW213392   1.649   6.865   5.832
 4165SOL     OW13393   3.961   0.390   5.845
 4165SOL    HW113394   3.955   0.405   5.944
 4165SOL    HW213395   4.054   0.366   5.821
 4166SOL     OW13396   5.434   2.552   0.362
 4166SOL    HW113397   5.443   2.613   0.440
 4166SOL    HW213398   5.523   2.539   0.320
 4167SOL     OW13399   1.691   4.479   0.952
 4167SOL    HW113400   1.633   4.422   0.894
 4167SOL    HW213401   1.634   4.532   1.015
 4168SOL     OW13402   6.963   4.429   1.001
 4168SOL    HW113403   6.925   4.474   1.082
 4168SOL    HW213404   7.013   4.348   1.029
 4169SOL     OW13405   6.180   4.306   4.974
 4169SOL    HW113406   6.098   4.339   4.927
 4169SOL    HW213407   6.177   4.207   4.982
 4170SOL     OW13408   4.342   3.826   5.832
 4170SOL    HW113409   4.259   3.864   5.873
 4170SOL    HW213410   4.320   3.786   5.743
 4171SOL     OW13411   5.878   6.078   0.748
 4171SOL    HW113412   5.909   6.026   0.829
 4171SOL    HW213413   5.913   6.171   0.753
 4172SOL     OW13414   1.260   1.799   5.499
 4172SOL    HW113415   1.180   1.741   5.514
 4172SOL    HW213416   1.327   1.782   5.571
 4173SOL     OW13417   5.210   3.905   5.143
 4173SOL    HW113418   5.119   3.889   5.104
 4173SOL    HW213419   5.241   3.822   5.190
 4174SOL     OW13420   5.339   1.197   2.830
 4174SOL    HW113421   5.433   1.230   2.841
 4174SOL    HW213422   5.278   1.251   2.886
 4175SOL     OW13423   2.177   5.587   4.305
 4175SOL    HW113424   2.113   5.603   4.229
 4175SOL    HW213425   2.136   5.522   4.369
 4176SOL     OW13426   2.892   5.992   2.097
 4176SOL    HW113427   2.943   6.077   2.099
 4176SOL    HW213428   2.827   5.994   2.021
 4177SOL     OW13429   6.461   4.495   5.216
 4177SOL    HW113430   6.400   4.524   5.290
 4177SOL    HW213431   6.416   4.426   5.160
 4178SOL     OW13432   4.842   0.517   4.021
 4178SOL    HW113433   4.913   0.584   4.041
 4178SOL    HW213434   4.809   0.477   4.107
 4179SOL     OW13435   4.799   3.052   3.401
 4179SOL    HW113436   4.738   3.006   3.465
 4179SOL    HW213437   4.856   2.984   3.355
 4180SOL     OW13438   5.493   4.462   0.944
 4180SOL    HW113439   5.497   4.386   0.879
 4180SOL    HW213440   5.485   4.549   0.894
 4181SOL     OW13441   2.691   1.507   0.803
 4181SOL    HW113442   2.634   1.514   0.885
 4181SOL    HW213443   2.693   1.596   0.757
 4182SOL     OW13444   1.099   6.919   3.546
 4182SOL    HW113445   1.033   6.895   3.475
 4182SOL    HW213446   1.113   6.841   3.607
 4183SOL     OW13447   2.905   1.490   7.015
 4183SOL    HW113448   2.912   1.559   6.943
 4183SOL    HW213449   2.837   1.421   6.989
 4184SOL     OW13450   4.828   5.575   1.492
 4184SOL    HW113451   4.834   5.483   1.530
 4184SOL    HW213452   4.761   5.628   1.543
 4185SOL     OW13453   0.299   4.971   2.265
 4185SOL    HW113454   0.251   5.039   2.321
 4185SOL    HW213455   0.322   4.891   2.321
 4186SOL     OW13456   2.100   5.158   0.069
 4186SOL    HW113457   2.196   5.184   0.069
 4186SOL    HW213458   2.074   5.125   6.998
 4187SOL     OW13459   3.420   3.024   5.442
 4187SOL    HW113460   3.407   2.926   5.453
 4187SOL    HW213461   3.349   3.074   5.493
 4188SOL     OW13462   4.841   6.700   4.715
 4188SOL    HW113463   4.758   6.685   4.769
 4188SOL    HW213464   4.829   6.659   4.624
 4189SOL     OW13465   2.566   5.085   5.288
 4189SOL    HW113466   2.468   5.065   5.283
 4189SOL    HW213467   2.580   5.168   5.343
 4190SOL     OW13468   1.131   0.719   7.000
 4190SOL    HW113469   1.185   0.765   0.051
 4190SOL    HW213470   1.077   0.787   6.951
 4191SOL     OW13471   4.927   4.158   3.392
 4191SOL    HW113472   5.011   4.181   3.441
 4191SOL    HW213473   4.944   4.078   3.334
 4192SOL     OW13474   1.191   0.859   4.511
 4192SOL    HW113475   1.182   0.902   4.421
 4192SOL    HW213476   1.126   0.900   4.574
 4193SOL     OW13477   1.216   1.075   1.918
 4193SOL    HW113478   1.169   0.996   1.955
 4193SOL    HW213479   1.150   1.138   1.878
 4194SOL     OW13480   5.487   0.216   4.936
 4194SOL    HW113481   5.388   0.216   4.943
 4194SOL    HW213482   5.521   0.122   4.933
 4195SOL     OW13483   3.626   6.897   1.799
 4195SOL    HW113484   3.660   6.892   1.893
 4195SOL    HW213485   3.534   6.859   1.794
 4196SOL     OW13486   5.548   2.295   3.368
 4196SOL    HW113487   5.513   2.294   3.462
 4196SOL    HW213488   5.473   2.280   3.304
 4197SOL     OW13489   4.890   5.866   6.335
 4197SOL    HW113490   4.916   5.931   6.264
 4197SOL    HW213491   4.794   5.841   6.324
 4198SOL     OW13492   5.887   2.239   0.072
 4198SOL    HW113493   5.882   2.183   7.009
 4198SOL    HW213494   5.795   2.263   0.101
 4199SOL     OW13495   2.389   2.905   5.951
 4199SOL    HW113496   2.369   2.931   5.856
 4199SOL    HW213497   2.325   2.951   6.012
 4200SOL     OW13498   3.780   6.520   5.941
 4200SOL    HW113499   3.771   6.547   6.037
 4200SOL    HW213500   3.703   6.555   5.888
 4201SOL     OW13501   5.683   5.926   3.766
 4201SOL    HW113502   5.771   5.895   3.729
 4201SOL    HW213503   5.670   5.886   3.857
 4202SOL     OW13504   4.013   5.261   5.828
 4202SOL    HW113505   4.096   5.205   5.836
 4202SOL    HW213506   3.993   5.303   5.917
 4203SOL     OW13507   4.782   4.890   0.394
 4203SOL    HW113508   4.702   4.847   0.353
 4203SOL    HW213509   4.752   4.949   0.469
 4204SOL     OW13510   4.027   3.732   2.715
 4204SOL    HW113511   4.050   3.821   2.676
 4204SOL    HW213512   4.043   3.660   2.647
 4205SOL     OW13513   3.559   5.791   3.617
 4205SOL    HW113514   3.637   5.741   3.579
 4205SOL    HW213515   3.535   5.866   3.555
 4206SOL     OW13516   6.866   6.960   6.140
 4206SOL    HW113517   6.852   6.947   6.239
 4206SOL    HW213518   6.820   6.887   6.090
 4207SOL     OW13519   1.674   1.448   1.103
 4207SOL    HW113520   1.745   1.478   1.165
 4207SOL    HW213521   1.609   1.523   1.087
 4208SOL     OW13522   0.708   3.525   5.993
 4208SOL    HW113523   0.728   3.611   5.946
 4208SOL    HW213524   0.680   3.457   5.925
 4209SOL     OW13525   0.554   0.489   5.089
 4209SOL    HW113526   0.616   0.512   5.013
 4209SOL    HW213527   0.604   0.492   5.175
 4210SOL     OW13528   3.005   3.279   2.704
 4210SOL    HW113529   3.008   3.199   2.644
 4210SOL    HW213530   2.980   3.360   2.650
 4211SOL     OW13531   4.196   5.490   5.759
 4211SOL    HW113532   4.288   5.452   5.758
 4211SOL    HW213533   4.186   5.553   5.835
 4212SOL     OW13534   5.804   2.157   3.071
 4212SOL    HW113535   5.731   2.180   3.007
 4212SOL    HW213536   5.887   2.133   3.019
 4213SOL     OW13537   2.354   1.268   1.407
 4213SOL    HW113538   2.420   1.273   1.482
 4213SOL    HW213539   2.263   1.253   1.444
 4214SOL     OW13540   1.765   4.546   5.133
 4214SOL    HW113541   1.786   4.451   5.157
 4214SOL    HW213542   1.676   4.550   5.087
 4215SOL     OW13543   6.969   5.925   4.817
 4215SOL    HW113544   0.048   5.926   4.830
 4215SOL    HW213545   6.934   6.019   4.820
 4216SOL     OW13546   1.005   1.814   2.764
 4216SOL    HW113547   0.983   1.751   2.838
 4216SOL    HW213548   1.095   1.855   2.781
 4217SOL     OW13549   0.840   0.714   2.259
 4217SOL    HW113550   0.763   0.684   2.202
 4217SOL    HW213551   0.827   0.682   2.353
 4218SOL     OW13552   4.266   0.700   1.958
 4218SOL    HW113553   4.246   0.616   1.908
 4218SOL    HW213554   4.341   0.749   1.912
 4219SOL     OW13555   2.835   5.351   3.684
 4219SOL    HW113556   2.870   5.391   3.599
 4219SOL    HW213557   2.910   5.337   3.748
 4220SOL     OW13558   5.087   2.851   3.898
 4220SOL    HW113559   5.015   2.811   3.954
 4220SOL    HW213560   5.167   2.871   3.955
 4221SOL     OW13561   6.150   5.333   6.674
 4221SOL    HW113562   6.091   5.258   6.704
 4221SOL    HW213563   6.113   5.373   6.591
 4222SOL     OW13564   6.072   1.500   3.100
 4222SOL    HW113565   6.164   1.462   3.086
 4222SOL    HW213566   6.009   1.460   3.033
 4223SOL     OW13567   3.504   3.431   6.165
 4223SOL    HW113568   3.424   3.373   6.176
 4223SOL    HW213569   3.541   3.420   6.073
 4224SOL     OW13570   4.886   3.602   3.594
 4224SOL    HW113571   4.862   3.593   3.690
 4224SOL    HW213572   4.984   3.619   3.586
 4225SOL     OW13573   3.916   0.824   5.791
 4225SOL    HW113574   3.931   0.813   5.889
 4225SOL    HW213575   3.821   0.851   5.774
 4226SOL     OW13576   1.010   0.490   2.255
 4226SOL    HW113577   0.935   0.556   2.250
 4226SOL    HW213578   1.081   0.526   2.317
 4227SOL     OW13579   3.847   4.569   0.199
 4227SOL    HW113580   3.751   4.541   0.191
 4227SOL    HW213581   3.903   4.487   0.211
 4228SOL     OW13582   0.763   3.809   4.787
 4228SOL    HW113583   0.821   3.736   4.752
 4228SOL    HW213584   0.695   3.835   4.718
 4229SOL     OW13585   4.724   5.657   5.653
 4229SOL    HW113586   4.651   5.725   5.652
 4229SOL    HW213587   4.687   5.569   5.623
 4230SOL     OW13588   1.393   6.934   3.344
 4230SOL    HW113589   1.459   6.877   3.393
 4230SOL    HW213590   1.422   0.010   3.349
 4231SOL     OW13591   6.167   6.080   5.340
 4231SOL    HW113592   6.249   6.087   5.396
 4231SOL    HW213593   6.128   5.988   5.348
 4232SOL     OW13594   6.541   4.690   2.661
 4232SOL    HW113595   6.557   4.596   2.691
 4232SOL    HW213596   6.508   4.691   2.567
 4233SOL     OW13597   6.821   6.891   6.402
 4233SOL    HW113598   6.781   6.823   6.463
 4233SOL    HW213599   6.793   6.982   6.430
 4234SOL     OW13600   2.370   6.756   5.589
 4234SOL    HW113601   2.380   6.699   5.508
 4234SOL    HW213602   2.329   6.703   5.663
 4235SOL     OW13603   5.615   3.418   6.251
 4235SOL    HW113604   5.654   3.498   6.297
 4235SOL    HW213605   5.581   3.445   6.161
 4236SOL     OW13606   0.051   3.964   3.313
 4236SOL    HW113607   7.014   3.954   3.232
 4236SOL    HW213608   0.043   4.058   3.348
 4237SOL     OW13609   6.220   5.349   2.829
 4237SOL    HW113610   6.204   5.442   2.796
 4237SOL    HW213611   6.186   5.341   2.923
 4238SOL     OW13612   3.120   5.195   2.514
 4238SOL    HW113613   3.085   5.249   2.437
 4238SOL    HW213614   3.091   5.100   2.503
 4239SOL     OW13615   5.419   1.560   3.061
 4239SOL    HW113616   5.340   1.614   3.033
 4239SOL    HW213617   5.501   1.616   3.059
 4240SOL     OW13618   2.155   0.735   0.154
 4240SOL    HW113619   2.073   0.717   0.100
 4240SOL    HW213620   2.128   0.773   0.243
 4241SOL     OW13621   5.991   0.616   0.086
 4241SOL    HW113622   6.088   0.642   0.079
 4241SOL    HW213623   5.953   0.653   0.171
 4242SOL     OW13624   2.197   0.560   3.180
 4242SOL    HW113625   2.191   0.648   3.226
 4242SOL    HW213626   2.247   0.570   3.094
 4243SOL     OW13627   6.064   3.632   3.383
 4243SOL    HW113628   6.123   3.556   3.356
 4243SOL    HW213629   5.995   3.647   3.312
 4244SOL     OW13630   4.886   4.711   1.875
 4244SOL    HW113631   4.788   4.696   1.888
 4244SOL    HW213632   4.908   4.806   1.894
 4245SOL     OW13633   6.481   0.918   6.016
 4245SOL    HW113634   6.438   0.959   6.096
 4245SOL    HW213635   6.563   0.868   6.045
 4246SOL     OW13636   6.211   3.343   2.518
 4246SOL    HW113637   6.186   3.428   2.563
 4246SOL    HW213638   6.276   3.292   2.575
 4247SOL     OW13639   2.236   4.773   3.347
 4247SOL    HW113640   2.201   4.691   3.392
 4247SOL    HW213641   2.223   4.852   3.406
 4248SOL     OW13642   1.935   1.646   3.666
 4248SOL    HW113643   2.002   1.572   3.670
 4248SOL    HW213644   1.847   1.612   3.701
 4249SOL     OW13645   5.350   1.779   4.016
 4249SOL    HW113646   5.350   1.680   4.003
 4249SOL    HW213647   5.434   1.817   3.978
 4250SOL     OW13648   6.998   5.944   3.945
 4250SOL    HW113649   0.058   5.993   3.912
 4250SOL    HW213650   0.005   5.852   3.975
 4251SOL     OW13651   5.858   3.909   1.427
 4251SOL    HW113652   5.861   3.854   1.343
 4251SOL    HW213653   5.767   3.949   1.437
 4252SOL     OW13654   6.680   6.693   6.523
 4252SOL    HW113655   6.596   6.685   6.469
 4252SOL    HW213656   6.664   6.654   6.614
 4253SOL     OW13657   3.154   6.469   0.682
 4253SOL    HW113658   3.207   6.385   0.670
 4253SOL    HW213659   3.078   6.470   0.617
 4254SOL     OW13660   1.183   3.225   2.581
 4254SOL    HW113661   1.125   3.266   2.510
 4254SOL    HW213662   1.267   3.278   2.590
 4255SOL     OW13663   6.991   4.628   4.114
 4255SOL    HW113664   0.003   4.550   4.060
 4255SOL    HW213665   0.037   4.703   4.107
 4256SOL     OW13666   1.521   6.457   1.384
 4256SOL    HW113667   1.425   6.442   1.410
 4256SOL    HW213668   1.542   6.555   1.392
 4257SOL     OW13669   3.585   0.852   4.026
 4257SOL    HW113670   3.516   0.923   4.044
 4257SOL    HW213671   3.650   0.849   4.102
 4258SOL     OW13672   3.356   5.653   1.290
 4258SOL    HW113673   3.385   5.706   1.369
 4258SOL    HW213674   3.424   5.663   1.217
 4259SOL     OW13675   1.820   0.686   0.916
 4259SOL    HW113676   1.891   0.736   0.867
 4259SOL    HW213677   1.835   0.588   0.907
 4260SOL     OW13678   5.838   0.487   2.714
 4260SOL    HW113679   5.782   0.496   2.796
 4260SOL    HW213680   5.842   0.390   2.687
 4261SOL     OW13681   1.995   1.035   2.625
 4261SOL    HW113682   2.080   1.070   2.663
 4261SOL    HW213683   1.962   1.098   2.554
 4262SOL     OW13684   0.578   3.908   6.937
 4262SOL    HW113685   0.524   3.934   7.017
 4262SOL    HW213686   0.598   3.810   6.940
 4263SOL     OW13687   2.782   0.559   3.042
 4263SOL    HW113688   2.692   0.553   3.085
 4263SOL    HW213689   2.772   0.596   2.950
 4264SOL     OW13690   6.091   1.957   4.410
 4264SOL    HW113691   6.150   1.877   4.416
 4264SOL    HW213692   6.072   1.978   4.315
 4265SOL     OW13693   4.076   1.019   0.487
 4265SOL    HW113694   4.007   0.954   0.457
 4265SOL    HW213695   4.164   0.995   0.446
 4266SOL     OW13696   1.363   6.628   6.472
 4266SOL    HW113697   1.429   6.602   6.400
 4266SOL    HW213698   1.356   6.728   6.475
 4267SOL     OW13699   2.154   3.771   3.759
 4267SOL    HW113700   2.192   3.689   3.801
 4267SOL    HW213701   2.135   3.753   3.662
 4268SOL     OW13702   1.293   5.829   6.620
 4268SOL    HW113703   1.239   5.874   6.691
 4268SOL    HW213704   1.243   5.830   6.534
 4269SOL     OW13705   3.382   0.220   2.711
 4269SOL    HW113706   3.320   0.282   2.760
 4269SOL    HW213707   3.338   0.131   2.701
 4270SOL     OW13708   4.118   3.595   2.999
 4270SOL    HW113709   4.093   3.666   2.933
 4270SOL    HW213710   4.093   3.505   2.963
 4271SOL     OW13711   6.380   1.173   6.784
 4271SOL    HW113712   6.350   1.246   6.846
 4271SOL    HW213713   6.314   1.164   6.710
 4272SOL     OW13714   6.704   1.717   4.597
 4272SOL    HW113715   6.801   1.693   4.588
 4272SOL    HW213716   6.662   1.659   4.668
 4273SOL     OW13717   4.057   6.720   5.074
 4273SOL    HW113718   4.023   6.804   5.116
 4273SOL    HW213719   4.133   6.684   5.128
 4274SOL     OW13720   1.874   0.406   0.898
 4274SOL    HW113721   1.781   0.373   0.881
 4274SOL    HW213722   1.935   0.328   0.912
 4275SOL     OW13723   6.594   1.891   4.423
 4275SOL    HW113724   6.636   1.837   4.496
 4275SOL    HW213725   6.528   1.835   4.374
 4276SOL     OW13726   2.672   5.139   3.606
 4276SOL    HW113727   2.676   5.062   3.670
 4276SOL    HW213728   2.730   5.213   3.638
 4277SOL     OW13729   6.341   4.707   3.421
 4277SOL    HW113730   6.332   4.677   3.326
 4277SOL    HW213731   6.325   4.629   3.481
 4278SOL     OW13732   0.291   6.763   4.776
 4278SOL    HW113733   0.202   6.731   4.810
 4278SOL    HW213734   0.352   6.684   4.765
 4279SOL     OW13735   3.299   0.962   3.617
 4279SOL    HW113736   3.292   0.920   3.526
 4279SOL    HW213737   3.392   0.952   3.651
 4280SOL     OW13738   5.708   6.975   5.890
 4280SOL    HW113739   5.736   0.045   5.854
 4280SOL    HW213740   5.778   6.908   5.868
 4281SOL     OW13741   6.583   4.502   2.998
 4281SOL    HW113742   6.512   4.486   2.929
 4281SOL    HW213743   6.663   4.543   2.955
 4282SOL     OW13744   3.576   4.529   0.123
 4282SOL    HW113745   3.552   4.620   0.091
 4282SOL    HW213746   3.497   4.488   0.169
 4283SOL     OW13747   1.953   0.691   3.539
 4283SOL    HW113748   1.982   0.785   3.560
 4283SOL    HW213749   1.894   0.692   3.459
 4284SOL     OW13750   3.640   3.814   1.498
 4284SOL    HW113751   3.715   3.859   1.450
 4284SOL    HW213752   3.553   3.844   1.459
 4285SOL     OW13753   2.019   0.754   5.488
 4285SOL    HW113754   1.935   0.807   5.473
 4285SOL    HW213755   2.035   0.745   5.586
 4286SOL     OW13756   5.609   6.605   5.914
 4286SOL    HW113757   5.681   6.664   5.950
 4286SOL    HW213758   5.547   6.660   5.857
 4287SOL     OW13759   5.470   0.250   6.008
 4287SOL    HW113760   5.549   0.232   6.066
 4287SOL    HW213761   5.491   0.224   5.914
 4288SOL     OW13762   0.475   5.823   2.655
 4288SOL    HW113763   0.470   5.870   2.744
 4288SOL    HW213764   0.432   5.881   2.586
 4289SOL     OW13765   6.658   3.057   6.505
 4289SOL    HW113766   6.601   3.130   6.543
 4289SOL    HW213767   6.609   2.970   6.510
 4290SOL     OW13768   1.465   6.602   3.979
 4290SOL    HW113769   1.557   6.579   4.012
 4290SOL    HW213770   1.431   6.681   4.030
 4291SOL     OW13771   4.598   3.971   0.225
 4291SOL    HW113772   4.584   4.031   0.147
 4291SOL    HW213773   4.535   3.997   0.299
 4292SOL     OW13774   6.016   2.777   0.242
 4292SOL    HW113775   6.026   2.800   0.339
 4292SOL    HW213776   6.092   2.717   0.215
 4293SOL     OW13777   2.815   3.094   6.961
 4293SOL    HW113778   2.811   3.073   6.863
 4293SOL    HW213779   2.849   3.188   6.973
 4294SOL     OW13780   2.344   1.542   6.329
 4294SOL    HW113781   2.355   1.601   6.409
 4294SOL    HW213782   2.351   1.446   6.357
 4295SOL     OW13783   3.475   5.940   4.958
 4295SOL    HW113784   3.473   6.007   4.885
 4295SOL    HW213785   3.385   5.934   5.001
 4296SOL     OW13786   3.673   6.501   0.486
 4296SOL    HW113787   3.664   6.595   0.519
 4296SOL    HW213788   3.706   6.502   0.391
 4297SOL     OW13789   5.634   0.447   1.180
 4297SOL    HW113790   5.579   0.387   1.121
 4297SOL    HW213791   5.652   0.533   1.133
 4298SOL     OW13792   4.492   5.358   0.893
 4298SOL    HW113793   4.454   5.382   0.982
 4298SOL    HW213794   4.419   5.352   0.826
 4299SOL     OW13795   1.832   3.270   6.690
 4299SOL    HW113796   1.823   3.239   6.595
 4299SOL    HW213797   1.792   3.201   6.751
 4300SOL     OW13798   2.867   0.003   0.215
 4300SOL    HW113799   2.851   6.928   0.189
 4300SOL    HW213800   2.932   0.007   0.291
 4301SOL     OW13801   4.860   0.094   1.226
 4301SOL    HW113802   4.958   0.080   1.236
 4301SOL    HW213803   4.819   0.109   1.317
 4302SOL     OW13804   0.213   0.064   5.908
 4302SOL    HW113805   0.158   0.015   5.841
 4302SOL    HW213806   0.153   0.096   5.982
 4303SOL     OW13807   0.157   4.831   4.147
 4303SOL    HW113808   0.086   4.869   4.206
 4303SOL    HW213809   0.197   4.903   4.091
 4304SOL     OW13810   3.245   2.954   2.605
 4304SOL    HW113811   3.311   2.911   2.543
 4304SOL    HW213812   3.272   2.937   2.700
 4305SOL     OW13813   0.857   6.627   5.697
 4305SOL    HW113814   0.855   6.648   5.795
 4305SOL    HW213815   0.950   6.600   5.671
 4306SOL     OW13816   4.258   4.995   4.703
 4306SOL    HW113817   4.333   4.931   4.721
 4306SOL    HW213818   4.171   4.953   4.728
 4307SOL     OW13819   6.216   4.082   5.994
 4307SOL    HW113820   6.237   4.013   6.063
 4307SOL    HW213821   6.284   4.078   5.920
 4308SOL     OW13822   6.082   5.031   1.411
 4308SOL    HW113823   6.040   5.052   1.500
 4308SOL    HW213824   6.029   5.073   1.338
 4309SOL     OW13825   1.061   1.203   0.824
 4309SOL    HW113826   1.059   1.160   0.734
 4309SOL    HW213827   1.091   1.298   0.815
 4310SOL     OW13828   1.798   2.560   1.810
 4310SOL    HW113829   1.797   2.479   1.869
 4310SOL    HW213830   1.878   2.616   1.830
 4311SOL     OW13831   1.469   6.400   2.513
 4311SOL    HW113832   1.533   6.477   2.503
 4311SOL    HW213833   1.395   6.410   2.447
 4312SOL     OW13834   1.306   6.337   1.970
 4312SOL    HW113835   1.398   6.329   2.007
 4312SOL    HW213836   1.306   6.307   1.874
 4313SOL     OW13837   4.912   1.798   0.911
 4313SOL    HW113838   4.814   1.786   0.929
 4313SOL    HW213839   4.930   1.779   0.815
 4314SOL     OW13840   5.452   1.218   4.667
 4314SOL    HW113841   5.443   1.317   4.663
 4314SOL    HW213842   5.460   1.189   4.763
 4315SOL     OW13843   2.259   0.394   3.400
 4315SOL    HW113844   2.247   0.467   3.467
 4315SOL    HW213845   2.271   0.434   3.309
 4316SOL     OW13846   5.095   0.995   1.627
 4316SOL    HW113847   5.156   0.920   1.604
 4316SOL    HW213848   5.094   1.062   1.553
 4317SOL     OW13849   5.270   2.229   5.573
 4317SOL    HW113850   5.175   2.230   5.544
 4317SOL    HW213851   5.277   2.186   5.663
 4318SOL     OW13852   0.349   2.293   4.741
 4318SOL    HW113853   0.442   2.275   4.709
 4318SOL    HW213854   0.284   2.274   4.668
 4319SOL     OW13855   1.903   1.446   0.431
 4319SOL    HW113856   1.842   1.489   0.498
 4319SOL    HW213857   1.988   1.498   0.425
 4320SOL     OW13858   4.266   4.955   0.962
 4320SOL    HW113859   4.208   4.965   0.880
 4320SOL    HW213860   4.214   4.983   1.042
 4321SOL     OW13861   0.489   5.280   5.197
 4321SOL    HW113862   0.391   5.282   5.214
 4321SOL    HW213863   0.508   5.225   5.115
 4322SOL     OW13864   6.388   2.772   0.105
 4322SOL    HW113865   6.307   2.763   0.047
 4322SOL    HW213866   6.469   2.741   0.055
 4323SOL     OW13867   4.750   3.794   0.053
 4323SOL    HW113868   4.694   3.719   0.018
 4323SOL    HW213869   4.698   3.845   0.122
 4324SOL     OW13870   6.063   4.599   6.718
 4324SOL    HW113871   6.107   4.513   6.691
 4324SOL    HW213872   6.045   4.598   6.816
 4325SOL     OW13873   2.872   1.477   1.663
 4325SOL    HW113874   2.948   1.538   1.687
 4325SOL    HW213875   2.881   1.447   1.569
 4326SOL     OW13876   4.724   4.228   2.825
 4326SOL    HW113877   4.625   4.214   2.827
 4326SOL    HW213878   4.748   4.306   2.882
 4327SOL     OW13879   5.711   6.088   1.912
 4327SOL    HW113880   5.658   6.057   1.991
 4327SOL    HW213881   5.805   6.054   1.920
 4328SOL     OW13882   4.539   4.275   5.955
 4328SOL    HW113883   4.507   4.296   5.863
 4328SOL    HW213884   4.624   4.323   5.972
 4329SOL     OW13885   4.679   2.388   5.505
 4329SOL    HW113886   4.754   2.337   5.462
 4329SOL    HW213887   4.703   2.485   5.509
 4330SOL     OW13888   1.738   6.197   4.618
 4330SOL    HW113889   1.782   6.164   4.701
 4330SOL    HW213890   1.639   6.205   4.634
 4331SOL     OW13891   6.614   1.495   2.072
 4331SOL    HW113892   6.540   1.507   2.006
 4331SOL    HW213893   6.675   1.575   2.068
 4332SOL     OW13894   5.053   2.626   2.579
 4332SOL    HW113895   5.126   2.685   2.616
 4332SOL    HW213896   4.974   2.683   2.556
 4333SOL     OW13897   4.470   1.097   5.591
 4333SOL    HW113898   4.443   1.191   5.611
 4333SOL    HW213899   4.413   1.034   5.643
 4334SOL     OW13900   1.850   2.180   2.413
 4334SOL    HW113901   1.908   2.162   2.492
 4334SOL    HW213902   1.753   2.171   2.439
 4335SOL     OW13903   3.318   4.108   2.285
 4335SOL    HW113904   3.377   4.186   2.262
 4335SOL    HW213905   3.261   4.085   2.206
 4336SOL     OW13906   3.491   6.836   6.159
 4336SOL    HW113907   3.465   6.929   6.134
 4336SOL    HW213908   3.488   6.826   6.259
 4337SOL     OW13909   1.042   4.420   0.628
 4337SOL    HW113910   0.948   4.433   0.659
 4337SOL    HW213911   1.056   4.469   0.542
 4338SOL     OW13912   6.455   6.576   6.366
 4338SOL    HW113913   6.395   6.599   6.289
 4338SOL    HW213914   6.447   6.478   6.386
 4339SOL     OW13915   4.265   3.387   5.330
 4339SOL    HW113916   4.363   3.372   5.341
 4339SOL    HW213917   4.225   3.411   5.418
 4340SOL     OW13918   6.590   3.066   1.323
 4340SOL    HW113919   6.610   3.163   1.304
 4340SOL    HW213920   6.548   3.025   1.242
 4341SOL     OW13921   0.730   5.367   1.757
 4341SOL    HW113922   0.633   5.386   1.772
 4341SOL    HW213923   0.785   5.433   1.808
 4342SOL     OW13924   4.817   3.799   3.148
 4342SOL    HW113925   4.843   3.709   3.182
 4342SOL    HW213926   4.790   3.792   3.052
 4343SOL     OW13927   3.177   6.406   4.730
 4343SOL    HW113928   3.200   6.312   4.758
 4343SOL    HW213929   3.078   6.416   4.726
 4344SOL     OW13930   0.201   4.122   2.233
 4344SOL    HW113931   0.225   4.038   2.185
 4344SOL    HW213932   0.178   4.193   2.167
 4345SOL     OW13933   3.417   4.398   5.759
 4345SOL    HW113934   3.341   4.336   5.740
 4345SOL    HW213935   3.455   4.378   5.850
 4346SOL     OW13936   1.825   3.596   3.108
 4346SOL    HW113937   1.830   3.586   3.207
 4346SOL    HW213938   1.796   3.510   3.067
 4347SOL     OW13939   5.824   7.004   2.403
 4347SOL    HW113940   5.776   6.919   2.381
 4347SOL    HW213941   5.764   0.062   2.386
 4348SOL     OW13942   0.189   5.315   3.640
 4348SOL    HW113943   0.170   5.408   3.610
 4348SOL    HW213944   0.249   5.317   3.720
 4349SOL     OW13945   5.800   2.433   3.447
 4349SOL    HW113946   5.873   2.440   3.379
 4349SOL    HW213947   5.713   2.412   3.402
 4350SOL     OW13948   3.507   1.750   3.841
 4350SOL    HW113949   3.573   1.753   3.917
 4350SOL    HW213950   3.465   1.841   3.831
 4351SOL     OW13951   1.273   6.071   1.371
 4351SOL    HW113952   1.217   6.051   1.291
 4351SOL    HW213953   1.216   6.077   1.452
 4352SOL     OW13954   6.185   3.945   2.500
 4352SOL    HW113955   6.126   3.896   2.435
 4352SOL    HW213956   6.267   3.977   2.453
 4353SOL     OW13957   4.083   2.591   6.588
 4353SOL    HW113958   4.057   2.510   6.535
 4353SOL    HW213959   4.087   2.671   6.527
 4354SOL     OW13960   1.864   0.925   5.997
 4354SOL    HW113961   1.824   0.867   6.067
 4354SOL    HW213962   1.805   1.003   5.979
 4355SOL     OW13963   2.357   0.564   2.554
 4355SOL    HW113964   2.419   0.602   2.485
 4355SOL    HW213965   2.304   0.639   2.595
 4356SOL     OW13966   5.250   3.578   6.632
 4356SOL    HW113967   5.231   3.669   6.594
 4356SOL    HW213968   5.238   3.509   6.561
 4357SOL     OW13969   6.650   0.984   1.349
 4357SOL    HW113970   6.583   0.929   1.299
 4357SOL    HW213971   6.603   1.045   1.411
 4358SOL     OW13972   6.880   0.908   0.999
 4358SOL    HW113973   6.808   0.975   1.011
 4358SOL    HW213974   6.927   0.925   0.912
 4359SOL     OW13975   0.976   1.751   6.195
 4359SOL    HW113976   0.878   1.754   6.216
 4359SOL    HW213977   0.991   1.781   6.101
 4360SOL     OW13978   0.663   3.790   4.063
 4360SOL    HW113979   0.666   3.843   3.978
 4360SOL    HW213980   0.737   3.722   4.062
 4361SOL     OW13981   2.144   3.681   1.854
 4361SOL    HW113982   2.180   3.602   1.905
 4361SOL    HW213983   2.074   3.649   1.790
 4362SOL     OW13984   6.749   5.245   3.420
 4362SOL    HW113985   6.794   5.188   3.350
 4362SOL    HW213986   6.747   5.196   3.507
 4363SOL     OW13987   5.268   2.198   0.573
 4363SOL    HW113988   5.320   2.153   0.500
 4363SOL    HW213989   5.244   2.131   0.643
 4364SOL     OW13990   3.095   4.035   3.394
 4364SOL    HW113991   3.023   4.035   3.325
 4364SOL    HW213992   3.062   3.990   3.477
 4365SOL     OW13993   2.925   0.643   1.712
 4365SOL    HW113994   3.006   0.607   1.666
 4365SOL    HW213995   2.952   0.715   1.776
 4366SOL     OW13996   6.968   0.033   6.727
 4366SOL    HW113997   6.871   0.009   6.731
 4366SOL    HW213998   6.984   0.115   6.783
 4367SOL     OW13999   2.660   4.589   3.934
 4367SOL    HW114000   2.725   4.654   3.895
 4367SOL    HW214001   2.685   4.496   3.906
 4368SOL     OW14002   4.052   6.125   1.497
 4368SOL    HW114003   3.974   6.129   1.560
 4368SOL    HW214004   4.018   6.118   1.403
 4369SOL     OW14005   4.561   4.986   2.683
 4369SOL    HW114006   4.504   4.972   2.764
 4369SOL    HW214007   4.602   4.899   2.655
 4370SOL     OW14008   3.793   4.582   1.671
 4370SOL    HW114009   3.788   4.611   1.575
 4370SOL    HW214010   3.704   4.593   1.714
 4371SOL     OW14011   1.847   2.018   2.143
 4371SOL    HW114012   1.903   1.937   2.126
 4371SOL    HW214013   1.768   2.017   2.082
 4372SOL     OW14014   2.816   2.056   4.261
 4372SOL    HW114015   2.881   2.115   4.307
 4372SOL    HW214016   2.723   2.092   4.272
 4373SOL     OW14017   5.257   1.700   6.815
 4373SOL    HW114018   5.307   1.779   6.850
 4373SOL    HW214019   5.321   1.640   6.766
 4374SOL     OW14020   0.950   1.934   1.166
 4374SOL    HW114021   1.030   1.875   1.182
 4374SOL    HW214022   0.978   2.015   1.116
 4375SOL     OW14023   4.075   6.550   3.283
 4375SOL    HW114024   3.996   6.507   3.327
 4375SOL    HW214025   4.044   6.615   3.214
 4376SOL     OW14026   6.258   0.489   2.683
 4376SOL    HW114027   6.355   0.467   2.690
 4376SOL    HW214028   6.204   0.425   2.738
 4377SOL     OW14029   5.643   5.734   6.590
 4377SOL    HW114030   5.544   5.723   6.596
 4377SOL    HW214031   5.688   5.650   6.621
 4378SOL     OW14032   1.761   2.546   2.572
 4378SOL    HW114033   1.847   2.584   2.605
 4378SOL    HW214034   1.692   2.619   2.568
 4379SOL     OW14035   2.431   2.042   2.581
 4379SOL    HW114036   2.447   2.119   2.519
 4379SOL    HW214037   2.374   2.072   2.657
 4380SOL     OW14038   1.326   6.525   3.240
 4380SOL    HW114039   1.392   6.490   3.307
 4380SOL    HW214040   1.248   6.565   3.288
 4381SOL     OW14041   2.229   3.873   5.309
 4381SOL    HW114042   2.301   3.924   5.262
 4381SOL    HW214043   2.184   3.811   5.245
 4382SOL     OW14044   6.160   3.578   6.645
 4382SOL    HW114045   6.143   3.673   6.618
 4382SOL    HW214046   6.243   3.573   6.700
 4383SOL     OW14047   0.729   2.374   5.823
 4383SOL    HW114048   0.809   2.396   5.767
 4383SOL    HW214049   0.677   2.299   5.780
 4384SOL     OW14050   5.456   1.499   6.164
 4384SOL    HW114051   5.411   1.517   6.077
 4384SOL    HW214052   5.538   1.444   6.149
 4385SOL     OW14053   6.180   2.655   5.250
 4385SOL    HW114054   6.130   2.682   5.168
 4385SOL    HW214055   6.163   2.721   5.322
 4386SOL     OW14056   2.389   3.637   0.097
 4386SOL    HW114057   2.356   3.572   0.029
 4386SOL    HW214058   2.370   3.603   0.188
 4387SOL     OW14059   0.101   0.817   1.884
 4387SOL    HW114060   0.089   0.898   1.942
 4387SOL    HW214061   0.019   0.761   1.888
 4388SOL     OW14062   5.412   1.807   6.443
 4388SOL    HW114063   5.401   1.899   6.481
 4388SOL    HW214064   5.508   1.792   6.421
 4389SOL     OW14065   6.884   3.751   0.757
 4389SOL    HW114066   6.909   3.702   0.673
 4389SOL    HW214067   6.941   3.832   0.767
 4390SOL     OW14068   3.691   1.043   1.976
 4390SOL    HW114069   3.670   0.948   1.997
 4390SOL    HW214070   3.762   1.076   2.038
 4391SOL     OW14071   1.339   5.574   6.649
 4391SOL    HW114072   1.373   5.531   6.564
 4391SOL    HW214073   1.327   5.672   6.634
 4392SOL     OW14074   6.876   3.100   6.334
 4392SOL    HW114075   6.835   3.167   6.273
 4392SOL    HW214076   6.809   3.071   6.403
 4393SOL     OW14077   6.267   0.268   2.326
 4393SOL    HW114078   6.208   0.188   2.319
 4393SOL    HW214079   6.233   0.330   2.397
 4394SOL     OW14080   5.752   5.848   2.669
 4394SOL    HW114081   5.775   5.825   2.574
 4394SOL    HW214082   5.707   5.937   2.672
 4395SOL     OW14083   3.390   0.484   1.825
 4395SOL    HW114084   3.395   0.415   1.896
 4395SOL    HW214085   3.455   0.462   1.752
 4396SOL     OW14086   2.190   2.318   4.261
 4396SOL    HW114087   2.105   2.266   4.251
 4396SOL    HW214088   2.169   2.412   4.287
 4397SOL     OW14089   0.308   1.194   4.581
 4397SOL    HW114090   0.333   1.134   4.504
 4397SOL    HW214091   0.346   1.285   4.565
 4398SOL     OW14092   0.327   4.724   4.977
 4398SOL    HW114093   0.359   4.652   4.916
 4398SOL    HW214094   0.406   4.775   5.013
 4399SOL     OW14095   2.073   1.249   1.491
 4399SOL    HW114096   2.013   1.264   1.569
 4399SOL    HW214097   2.078   1.333   1.437
 4400SOL     OW14098   3.512   6.444   5.955
 4400SOL    HW114099   3.582   6.373   5.952
 4400SOL    HW214100   3.529   6.510   5.882
 4401SOL     OW14101   4.965   6.721   6.683
 4401SOL    HW114102   4.955   6.820   6.691
 4401SOL    HW214103   5.059   6.699   6.656
 4402SOL     OW14104   3.051   6.940   1.046
 4402SOL    HW114105   2.954   6.916   1.035
 4402SOL    HW214106   3.061   7.003   1.123
 4403SOL     OW14107   0.873   0.481   3.919
 4403SOL    HW114108   0.890   0.408   3.986
 4403SOL    HW214109   0.815   0.446   3.846
 4404SOL     OW14110   0.535   4.120   5.499
 4404SOL    HW114111   0.581   4.172   5.571
 4404SOL    HW214112   0.442   4.099   5.528
 4405SOL     OW14113   1.320   4.649   1.650
 4405SOL    HW114114   1.247   4.580   1.647
 4405SOL    HW214115   1.280   4.739   1.636
 4406SOL     OW14116   6.921   3.801   0.335
 4406SOL    HW114117   6.973   3.781   0.418
 4406SOL    HW214118   6.888   3.895   0.337
 4407SOL     OW14119   6.763   4.772   1.047
 4407SOL    HW114120   6.797   4.761   0.953
 4407SOL    HW214121   6.784   4.864   1.079
 4408SOL     OW14122   3.202   1.383   1.445
 4408SOL    HW114123   3.128   1.318   1.461
 4408SOL    HW214124   3.236   1.372   1.351
 4409SOL     OW14125   4.643   6.999   2.135
 4409SOL    HW114126   4.708   7.001   2.059
 4409SOL    HW214127   4.658   0.058   2.194
 4410SOL     OW14128   1.103   5.933   6.799
 4410SOL    HW114129   1.005   5.950   6.805
 4410SOL    HW214130   1.137   5.897   6.886
 4411SOL     OW14131   3.387   4.080   3.957
 4411SOL    HW114132   3.397   4.112   3.862
 4411SOL    HW214133   3.319   4.008   3.961
 4412SOL     OW14134   4.139   6.458   4.665
 4412SOL    HW114135   4.079   6.378   4.665
 4412SOL    HW214136   4.149   6.493   4.758
 4413SOL     OW14137   5.783   5.608   5.210
 4413SOL    HW114138   5.739   5.551   5.280
 4413SOL    HW214139   5.811   5.550   5.133
 4414SOL     OW14140   3.619   4.316   1.507
 4414SOL    HW114141   3.695   4.313   1.571
 4414SOL    HW214142   3.637   4.254   1.431
 4415SOL     OW14143   3.838   3.170   0.144
 4415SOL    HW114144   3.861   3.148   0.049
 4415SOL    HW214145   3.766   3.110   0.176
 4416SOL     OW14146   1.917   0.449   4.181
 4416SOL    HW114147   1.955   0.428   4.091
 4416SOL    HW214148   1.950   0.383   4.248
 4417SOL     OW14149   5.942   4.304   3.334
 4417SOL    HW114150   5.971   4.380   3.276
 4417SOL    HW214151   5.977   4.319   3.427
 4418SOL     OW14152   5.823   1.505   2.402
 4418SOL    HW114153   5.799   1.528   2.307
 4418SOL    HW214154   5.922   1.515   2.414
 4419SOL     OW14155   6.136   5.595   0.174
 4419SOL    HW114156   6.115   5.542   0.092
 4419SOL    HW214157   6.060   5.590   0.238
 4420SOL     OW14158   5.124   1.108   1.880
 4420SOL    HW114159   5.215   1.068   1.895
 4420SOL    HW214160   5.081   1.063   1.802
 4421SOL     OW14161   1.558   0.828   5.190
 4421SOL    HW114162   1.600   0.822   5.099
 4421SOL    HW214163   1.487   0.758   5.199
 4422SOL     OW14164   3.178   4.567   6.318
 4422SOL    HW114165   3.226   4.499   6.262
 4422SOL    HW214166   3.198   4.549   6.415
 4423SOL     OW14167   1.585   2.913   5.847
 4423SOL    HW114168   1.575   2.826   5.895
 4423SOL    HW214169   1.494   2.949   5.824
 4424SOL     OW14170   5.178   0.675   3.945
 4424SOL    HW114171   5.135   0.728   4.018
 4424SOL    HW214172   5.262   0.631   3.980
 4425SOL     OW14173   3.388   5.165   0.355
 4425SOL    HW114174   3.450   5.202   0.286
 4425SOL    HW214175   3.420   5.191   0.446
 4426SOL     OW14176   0.237   0.904   4.736
 4426SOL    HW114177   0.183   0.863   4.662
 4426SOL    HW214178   0.267   0.995   4.709
 4427SOL     OW14179   0.406   6.205   2.481
 4427SOL    HW114180   0.376   6.269   2.410
 4427SOL    HW214181   0.501   6.224   2.504
 4428SOL     OW14182   2.757   0.044   2.214
 4428SOL    HW114183   2.659   0.042   2.237
 4428SOL    HW214184   2.772   0.111   2.141
 4429SOL     OW14185   3.050   0.122   2.352
 4429SOL    HW114186   3.002   0.205   2.324
 4429SOL    HW214187   2.986   0.060   2.398
 4430SOL     OW14188   5.007   3.590   4.751
 4430SOL    HW114189   5.029   3.670   4.808
 4430SOL    HW214190   5.023   3.507   4.804
 4431SOL     OW14191   2.208   0.947   2.356
 4431SOL    HW114192   2.208   0.913   2.450
 4431SOL    HW214193   2.190   0.871   2.294
 4432SOL     OW14194   3.273   3.968   4.989
 4432SOL    HW114195   3.174   3.979   5.000
 4432SOL    HW214196   3.293   3.871   4.973
 4433SOL     OW14197   4.609   1.080   4.734
 4433SOL    HW114198   4.556   1.088   4.818
 4433SOL    HW214199   4.633   0.985   4.718
 4434SOL     OW14200   4.527   1.956   4.459
 4434SOL    HW114201   4.612   1.904   4.461
 4434SOL    HW214202   4.534   2.029   4.391
 4435SOL     OW14203   4.607   3.130   1.500
 4435SOL    HW114204   4.582   3.212   1.449
 4435SOL    HW214205   4.539   3.111   1.571
 4436SOL     OW14206   4.202   1.017   0.926
 4436SOL    HW114207   4.270   0.944   0.930
 4436SOL    HW214208   4.219   1.083   0.999
 4437SOL     OW14209   5.914   1.708   3.114
 4437SOL    HW114210   5.932   1.794   3.162
 4437SOL    HW214211   5.999   1.656   3.107
 4438SOL     OW14212   5.113   0.417   7.012
 4438SOL    HW114213   5.134   0.451   6.921
 4438SOL    HW214214   5.105   0.317   7.009
 4439SOL     OW14215   0.174   5.511   1.977
 4439SOL    HW114216   0.220   5.587   1.932
 4439SOL    HW214217   0.241   5.446   2.011
 4440SOL     OW14218   1.998   5.662   0.598
 4440SOL    HW114219   1.921   5.727   0.603
 4440SOL    HW214220   1.966   5.570   0.621
 4441SOL     OW14221   6.668   1.938   3.013
 4441SOL    HW114222   6.600   1.988   3.067
 4441SOL    HW214223   6.623   1.896   2.934
 4442SOL     OW14224   2.778   5.734   4.594
 4442SOL    HW114225   2.801   5.778   4.680
 4442SOL    HW214226   2.680   5.745   4.576
 4443SOL     OW14227   0.266   2.834   0.621
 4443SOL    HW114228   0.194   2.816   0.554
 4443SOL    HW214229   0.235   2.805   0.711
 4444SOL     OW14230   3.024   5.208   6.364
 4444SOL    HW114231   3.098   5.220   6.298
 4444SOL    HW214232   2.941   5.177   6.317
 4445SOL     OW14233   0.537   0.548   1.123
 4445SOL    HW114234   0.443   0.538   1.152
 4445SOL    HW214235   0.572   0.637   1.153
 4446SOL     OW14236   5.965   1.205   2.226
 4446SOL    HW114237   5.978   1.132   2.159
 4446SOL    HW214238   6.051   1.222   2.274
 4447SOL     OW14239   5.271   3.631   6.195
 4447SOL    HW114240   5.295   3.575   6.274
 4447SOL    HW214241   5.178   3.608   6.165
 4448SOL     OW14242   2.914   3.844   0.984
 4448SOL    HW114243   2.978   3.795   1.043
 4448SOL    HW214244   2.856   3.778   0.936
 4449SOL     OW14245   5.213   0.417   5.622
 4449SOL    HW114246   5.276   0.397   5.546
 4449SOL    HW214247   5.145   0.483   5.592
 4450SOL     OW14248   3.499   2.864   4.250
 4450SOL    HW114249   3.515   2.860   4.349
 4450SOL    HW214250   3.578   2.908   4.206
 4451SOL     OW14251   5.717   4.243   3.898
 4451SOL    HW114252   5.644   4.309   3.880
 4451SOL    HW214253   5.783   4.284   3.961
 4452SOL     OW14254   5.402   6.190   4.423
 4452SOL    HW114255   5.331   6.247   4.463
 4452SOL    HW214256   5.415   6.108   4.479
 4453SOL     OW14257   0.565   2.420   2.072
 4453SOL    HW114258   0.481   2.451   2.116
 4453SOL    HW214259   0.544   2.344   2.010
 4454SOL     OW14260   1.252   2.107   6.877
 4454SOL    HW114261   1.222   2.144   6.789
 4454SOL    HW214262   1.244   2.007   6.876
 4455SOL     OW14263   3.868   5.895   6.195
 4455SOL    HW114264   3.925   5.823   6.235
 4455SOL    HW214265   3.925   5.953   6.136
 4456SOL     OW14266   3.660   6.035   2.119
 4456SOL    HW114267   3.606   6.019   2.202
 4456SOL    HW214268   3.618   6.107   2.064
 4457SOL     OW14269   4.903   1.854   1.483
 4457SOL    HW114270   4.805   1.866   1.465
 4457SOL    HW214271   4.953   1.932   1.445
 4458SOL     OW14272   1.483   3.062   6.415
 4458SOL    HW114273   1.534   3.111   6.345
 4458SOL    HW214274   1.418   3.125   6.459
 4459SOL     OW14275   4.138   0.316   4.695
 4459SOL    HW114276   4.188   0.270   4.769
 4459SOL    HW214277   4.158   0.271   4.608
 4460SOL     OW14278   3.176   2.703   5.635
 4460SOL    HW114279   3.116   2.651   5.697
 4460SOL    HW214280   3.175   2.660   5.545
 4461SOL     OW14281   1.556   1.314   1.660
 4461SOL    HW114282   1.509   1.228   1.680
 4461SOL    HW214283   1.492   1.378   1.618
 4462SOL     OW14284   6.098   4.631   2.286
 4462SOL    HW114285   6.126   4.718   2.246
 4462SOL    HW214286   6.006   4.641   2.325
 4463SOL     OW14287   5.643   1.872   6.237
 4463SOL    HW114288   5.686   1.954   6.275
 4463SOL    HW214289   5.560   1.898   6.189
 4464SOL     OW14290   6.511   5.057   1.024
 4464SOL    HW114291   6.454   4.980   1.052
 4464SOL    HW214292   6.588   5.067   1.089
 4465SOL     OW14293   2.840   5.308   1.331
 4465SOL    HW114294   2.823   5.263   1.419
 4465SOL    HW214295   2.753   5.341   1.294
 4466SOL     OW14296   1.916   2.067   3.122
 4466SOL    HW114297   1.987   2.111   3.067
 4466SOL    HW214298   1.868   2.136   3.176
 4467SOL     OW14299   1.951   6.871   2.638
 4467SOL    HW114300   1.872   6.814   2.656
 4467SOL    HW214301   2.035   6.820   2.658
 4468SOL     OW14302   2.141   2.995   0.954
 4468SOL    HW114303   2.122   2.923   1.021
 4468SOL    HW214304   2.086   3.076   0.975
 4469SOL     OW14305   4.361   0.656   1.507
 4469SOL    HW114306   4.367   0.611   1.418
 4469SOL    HW214307   4.267   0.688   1.522
 4470SOL     OW14308   5.909   2.132   2.550
 4470SOL    HW114309   5.850   2.196   2.599
 4470SOL    HW214310   5.949   2.177   2.471
 4471SOL     OW14311   0.512   1.769   6.713
 4471SOL    HW114312   0.475   1.844   6.768
 4471SOL    HW214313   0.493   1.682   6.759
 4472SOL     OW14314   1.152   2.868   3.470
 4472SOL    HW114315   1.227   2.837   3.529
 4472SOL    HW214316   1.071   2.886   3.527
 4473SOL     OW14317   6.811   2.278   4.761
 4473SOL    HW114318   6.784   2.187   4.729
 4473SOL    HW214319   6.790   2.346   4.691
 4474SOL     OW14320   3.024   1.180   1.429
 4474SOL    HW114321   3.030   1.167   1.330
 4474SOL    HW214322   3.043   1.094   1.476
 4475SOL     OW14323   1.466   4.119   2.969
 4475SOL    HW114324   1.432   4.213   2.960
 4475SOL    HW214325   1.508   4.107   3.059
 4476SOL     OW14326   3.832   6.934   3.640
 4476SOL    HW114327   3.929   6.926   3.660
 4476SOL    HW214328   3.815   7.018   3.589
 4477SOL     OW14329   1.575   6.950   5.038
 4477SOL    HW114330   1.501   6.916   4.982
 4477SOL    HW214331   1.653   6.974   4.980
 4478SOL     OW14332   3.807   6.962   2.704
 4478SOL    HW114333   3.750   7.007   2.773
 4478SOL    HW214334   3.826   6.868   2.733
 4479SOL     OW14335   1.333   0.801   1.271
 4479SOL    HW114336   1.339   0.896   1.304
 4479SOL    HW214337   1.356   0.739   1.345
 4480SOL     OW14338   2.173   3.776   6.131
 4480SOL    HW114339   2.091   3.832   6.139
 4480SOL    HW214340   2.203   3.774   6.035
 4481SOL     OW14341   2.539   6.133   5.378
 4481SOL    HW114342   2.553   6.086   5.291
 4481SOL    HW214343   2.494   6.221   5.361
 4482SOL     OW14344   1.102   4.564   4.305
 4482SOL    HW114345   1.144   4.490   4.252
 4482SOL    HW214346   1.129   4.556   4.401
 4483SOL     OW14347   5.278   3.185   1.560
 4483SOL    HW114348   5.292   3.177   1.461
 4483SOL    HW214349   5.180   3.181   1.581
 4484SOL     OW14350   2.962   2.765   6.071
 4484SOL    HW114351   2.900   2.824   6.121
 4484SOL    HW214352   3.049   2.758   6.120
 4485SOL     OW14353   5.376   1.622   4.908
 4485SOL    HW114354   5.372   1.639   5.006
 4485SOL    HW214355   5.335   1.699   4.859
 4486SOL     OW14356   5.177   4.833   4.847
 4486SOL    HW114357   5.243   4.786   4.788
 4486SOL    HW214358   5.132   4.906   4.796
 4487SOL     OW14359   2.264   2.841   6.406
 4487SOL    HW114360   2.274   2.937   6.433
 4487SOL    HW214361   2.354   2.800   6.395
 4488SOL     OW14362   6.492   2.798   6.248
 4488SOL    HW114363   6.442   2.715   6.273
 4488SOL    HW214364   6.456   2.876   6.299
 4489SOL     OW14365   6.025   5.918   3.916
 4489SOL    HW114366   6.013   5.825   3.950
 4489SOL    HW214367   6.100   5.920   3.849
 4490SOL     OW14368   6.246   2.799   3.405
 4490SOL    HW114369   6.234   2.770   3.310
 4490SOL    HW214370   6.183   2.874   3.425
 4491SOL     OW14371   6.590   2.063   4.738
 4491SOL    HW114372   6.671   2.030   4.690
 4491SOL    HW214373   6.508   2.024   4.696
 4492SOL     OW14374   5.620   4.152   1.823
 4492SOL    HW114375   5.620   4.247   1.854
 4492SOL    HW214376   5.706   4.132   1.775
 4493SOL     OW14377   4.348   5.877   5.453
 4493SOL    HW114378   4.441   5.894   5.423
 4493SOL    HW214379   4.288   5.948   5.416
 4494SOL     OW14380   6.654   0.968   5.785
 4494SOL    HW114381   6.751   0.988   5.794
 4494SOL    HW214382   6.615   0.947   5.874
 4495SOL     OW14383   4.104   6.509   4.047
 4495SOL    HW114384   4.073   6.447   4.119
 4495SOL    HW214385   4.061   6.598   4.059
 4496SOL     OW14386   5.487   5.486   1.225
 4496SOL    HW114387   5.486   5.458   1.322
 4496SOL    HW214388   5.438   5.572   1.215
 4497SOL     OW14389   4.469   1.241   6.613
 4497SOL    HW114390   4.517   1.157   6.587
 4497SOL    HW214391   4.370   1.227   6.605
 4498SOL     OW14392   6.603   3.624   0.390
 4498SOL    HW114393   6.689   3.575   0.403
 4498SOL    HW214394   6.528   3.571   0.429
 4499SOL     OW14395   6.673   3.481   4.659
 4499SOL    HW114396   6.584   3.436   4.655
 4499SOL    HW214397   6.677   3.554   4.591
 4500SOL     OW14398   3.343   3.390   3.711
 4500SOL    HW114399   3.408   3.335   3.658
 4500SOL    HW214400   3.360   3.375   3.809
 4501SOL     OW14401   0.197   3.441   4.382
 4501SOL    HW114402   0.241   3.360   4.343
 4501SOL    HW214403   0.221   3.448   4.479
 4502SOL     OW14404   0.833   3.049   6.810
 4502SOL    HW114405   0.926   3.075   6.784
 4502SOL    HW214406   0.810   2.962   6.766
 4503SOL     OW14407   3.026   6.815   1.574
 4503SOL    HW114408   3.072   6.837   1.660
 4503SOL    HW214409   3.050   6.722   1.547
 4504SOL     OW14410   6.696   0.642   4.468
 4504SOL    HW114411   6.698   0.712   4.539
 4504SOL    HW214412   6.658   0.680   4.384
 4505SOL     OW14413   5.663   5.329   1.860
 4505SOL    HW114414   5.642   5.265   1.934
 4505SOL    HW214415   5.761   5.350   1.860
 4506SOL     OW14416   4.263   2.332   3.668
 4506SOL    HW114417   4.348   2.379   3.691
 4506SOL    HW214418   4.254   2.326   3.569
 4507SOL     OW14419   5.439   5.007   2.235
 4507SOL    HW114420   5.362   5.065   2.210
 4507SOL    HW214421   5.406   4.920   2.271
 4508SOL     OW14422   0.821   4.630   6.535
 4508SOL    HW114423   0.843   4.627   6.437
 4508SOL    HW214424   0.827   4.724   6.568
 4509SOL     OW14425   4.793   2.035   2.672
 4509SOL    HW114426   4.747   2.104   2.617
 4509SOL    HW214427   4.829   2.076   2.756
 4510SOL     OW14428   4.508   0.979   4.086
 4510SOL    HW114429   4.492   0.963   3.989
 4510SOL    HW214430   4.420   0.994   4.132
 4511SOL     OW14431   0.101   3.188   0.126
 4511SOL    HW114432   0.174   3.253   0.104
 4511SOL    HW214433   0.135   3.095   0.113
 4512SOL     OW14434   2.882   0.608   5.040
 4512SOL    HW114435   2.895   0.527   4.983
 4512SOL    HW214436   2.883   0.690   4.982
 4513SOL     OW14437   6.029   4.879   0.380
 4513SOL    HW114438   6.083   4.811   0.330
 4513SOL    HW214439   6.087   4.925   0.447
 4514SOL     OW14440   4.201   1.188   6.575
 4514SOL    HW114441   4.156   1.103   6.546
 4514SOL    HW214442   4.185   1.259   6.506
 4515SOL     OW14443   6.901   1.877   6.077
 4515SOL    HW114444   6.921   1.967   6.114
 4515SOL    HW214445   6.869   1.886   5.982
 4516SOL     OW14446   1.928   0.310   0.036
 4516SOL    HW114447   1.864   0.366   0.088
 4516SOL    HW214448   1.953   0.358   6.972
 4517SOL     OW14449   3.968   0.500   6.605
 4517SOL    HW114450   3.920   0.582   6.634
 4517SOL    HW214451   3.910   0.420   6.621
 4518SOL     OW14452   0.106   0.400   2.840
 4518SOL    HW114453   0.024   0.343   2.831
 4518SOL    HW214454   0.188   0.344   2.826
 4519SOL     OW14455   6.444   0.817   1.279
 4519SOL    HW114456   6.356   0.864   1.270
 4519SOL    HW214457   6.451   0.776   1.370
 4520SOL     OW14458   4.471   6.481   4.708
 4520SOL    HW114459   4.397   6.547   4.724
 4520SOL    HW214460   4.457   6.436   4.620
 4521SOL     OW14461   6.061   1.982   4.135
 4521SOL    HW114462   6.036   1.892   4.101
 4521SOL    HW214463   6.133   2.021   4.078
 4522SOL     OW14464   6.520   6.568   3.241
 4522SOL    HW114465   6.530   6.581   3.339
 4522SOL    HW214466   6.476   6.480   3.223
 4523SOL     OW14467   0.637   4.305   0.438
 4523SOL    HW114468   0.661   4.356   0.520
 4523SOL    HW214469   0.644   4.207   0.456
 4524SOL     OW14470   6.020   2.345   3.734
 4524SOL    HW114471   6.044   2.248   3.737
 4524SOL    HW214472   6.056   2.386   3.650
 4525SOL     OW14473   5.126   1.286   4.143
 4525SOL    HW114474   5.030   1.261   4.132
 4525SOL    HW214475   5.173   1.215   4.195
 4526SOL     OW14476   6.612   0.489   1.226
 4526SOL    HW114477   6.560   0.544   1.160
 4526SOL    HW214478   6.550   0.454   1.296
 4527SOL     OW14479   5.327   0.875   3.635
 4527SOL    HW114480   5.259   0.949   3.633
 4527SOL    HW214481   5.315   0.816   3.555
 4528SOL     OW14482   4.823   0.519   7.014
 4528SOL    HW114483   4.922   0.513   7.010
 4528SOL    HW214484   4.785   0.429   0.016
 4529SOL     OW14485   3.079   1.072   5.557
 4529SOL    HW114486   3.160   1.015   5.570
 4529SOL    HW214487   3.020   1.031   5.487
 4530SOL     OW14488   1.802   4.039   6.351
 4530SOL    HW114489   1.845   3.952   6.373
 4530SOL    HW214490   1.737   4.026   6.276
 4531SOL     OW14491   0.292   3.538   4.622
 4531SOL    HW114492   0.378   3.498   4.656
 4531SOL    HW214493   0.275   3.625   4.668
 4532SOL     OW14494   5.959   2.129   3.462
 4532SOL    HW114495   5.875   2.143   3.409
 4532SOL    HW214496   5.944   2.157   3.557
 4533SOL     OW14497   1.456   1.155   2.089
 4533SOL    HW114498   1.373   1.119   2.133
 4533SOL    HW214499   1.436   1.244   2.049
 4534SOL     OW14500   4.844   3.960   4.455
 4534SOL    HW114501   4.829   4.053   4.488
 4534SOL    HW214502   4.757   3.911   4.451
 4535SOL     OW14503   4.512   1.052   2.537
 4535SOL    HW114504   4.485   0.958   2.517
 4535SOL    HW214505   4.549   1.094   2.454
 4536SOL     OW14506   4.270   0.906   3.465
 4536SOL    HW114507   4.249   1.004   3.476
 4536SOL    HW214508   4.369   0.893   3.470
 4537SOL     OW14509   4.072   3.424   6.284
 4537SOL    HW114510   3.973   3.441   6.274
 4537SOL    HW214511   4.098   3.346   6.227
 4538SOL     OW14512   2.043   0.245   4.312
 4538SOL    HW114513   2.121   0.285   4.263
 4538SOL    HW214514   2.026   0.153   4.276
 4539SOL     OW14515   2.494   0.206   4.936
 4539SOL    HW114516   2.533   0.125   4.978
 4539SOL    HW214517   2.467   0.185   4.842
 4540SOL     OW14518   3.341   2.340   5.593
 4540SOL    HW114519   3.350   2.376   5.501
 4540SOL    HW214520   3.248   2.356   5.626
 4541SOL     OW14521   6.076   2.020   0.866
 4541SOL    HW114522   6.075   2.081   0.787
 4541SOL    HW214523   6.004   2.046   0.930
 4542SOL     OW14524   0.214   1.386   2.654
 4542SOL    HW114525   0.154   1.323   2.704
 4542SOL    HW214526   0.218   1.359   2.558
 4543SOL     OW14527   5.071   2.222   1.295
 4543SOL    HW114528   4.974   2.237   1.317
 4543SOL    HW214529   5.104   2.142   1.343
 4544SOL     OW14530   2.959   6.368   6.096
 4544SOL    HW114531   2.908   6.332   6.174
 4544SOL    HW214532   2.964   6.468   6.102
 4545SOL     OW14533   5.322   3.479   4.797
 4545SOL    HW114534   5.338   3.534   4.879
 4545SOL    HW214535   5.403   3.484   4.738
 4546SOL     OW14536   1.376   1.328   6.170
 4546SOL    HW114537   1.353   1.387   6.092
 4546SOL    HW214538   1.305   1.337   6.240
 4547SOL     OW14539   5.494   2.569   3.257
 4547SOL    HW114540   5.527   2.488   3.305
 4547SOL    HW214541   5.504   2.556   3.159
 4548SOL     OW14542   1.114   4.089   4.251
 4548SOL    HW114543   1.017   4.111   4.239
 4548SOL    HW214544   1.169   4.171   4.238
 4549SOL     OW14545   6.392   4.657   1.599
 4549SOL    HW114546   6.442   4.614   1.673
 4549SOL    HW214547   6.398   4.601   1.517
 4550SOL     OW14548   1.298   5.749   3.036
 4550SOL    HW114549   1.312   5.848   3.030
 4550SOL    HW214550   1.300   5.710   2.945
 4551SOL     OW14551   0.079   1.783   5.715
 4551SOL    HW114552   0.035   1.871   5.694
 4551SOL    HW214553   0.145   1.796   5.789
 4552SOL     OW14554   6.433   3.053   0.841
 4552SOL    HW114555   6.408   3.130   0.783
 4552SOL    HW214556   6.529   3.028   0.825
 4553SOL     OW14557   3.603   4.982   6.741
 4553SOL    HW114558   3.536   4.967   6.668
 4553SOL    HW214559   3.598   4.906   6.806
 4554SOL     OW14560   5.718   0.674   1.055
 4554SOL    HW114561   5.756   0.636   0.972
 4554SOL    HW214562   5.792   0.712   1.112
 4555SOL     OW14563   3.336   1.872   6.102
 4555SOL    HW114564   3.381   1.961   6.097
 4555SOL    HW214565   3.321   1.838   6.009
 4556SOL     OW14566   4.757   2.822   3.915
 4556SOL    HW114567   4.774   2.919   3.934
 4556SOL    HW214568   4.746   2.773   4.001
 4557SOL     OW14569   4.844   6.240   5.591
 4557SOL    HW114570   4.915   6.308   5.573
 4557SOL    HW214571   4.756   6.275   5.559
 4558SOL     OW14572   0.624   4.396   4.832
 4558SOL    HW114573   0.565   4.445   4.768
 4558SOL    HW214574   0.712   4.377   4.789
 4559SOL     OW14575   0.136   3.972   2.001
 4559SOL    HW114576   0.045   4.010   1.986
 4559SOL    HW214577   0.132   3.905   2.076
 4560SOL     OW14578   5.115   4.631   2.032
 4560SOL    HW114579   5.090   4.648   2.127
 4560SOL    HW214580   5.063   4.693   1.972
 4561SOL     OW14581   2.427   1.471   2.302
 4561SOL    HW114582   2.508   1.418   2.275
 4561SOL    HW214583   2.455   1.563   2.330
 4562SOL     OW14584   3.156   6.126   4.802
 4562SOL    HW114585   3.068   6.079   4.808
 4562SOL    HW214586   3.212   6.083   4.731
 4563SOL     OW14587   0.250   3.180   1.088
 4563SOL    HW114588   0.228   3.082   1.089
 4563SOL    HW214589   0.263   3.213   1.182
 4564SOL     OW14590   6.721   6.642   1.218
 4564SOL    HW114591   6.747   6.735   1.193
 4564SOL    HW214592   6.771   6.615   1.300
 4565SOL     OW14593   0.580   1.296   5.292
 4565SOL    HW114594   0.640   1.348   5.354
 4565SOL    HW214595   0.633   1.269   5.211
 4566SOL     OW14596   6.705   2.422   1.107
 4566SOL    HW114597   6.685   2.324   1.105
 4566SOL    HW214598   6.628   2.472   1.069
 4567SOL     OW14599   6.489   0.638   6.919
 4567SOL    HW114600   6.465   0.734   6.905
 4567SOL    HW214601   6.588   0.631   6.934
 4568SOL     OW14602   2.174   4.039   5.744
 4568SOL    HW114603   2.122   4.010   5.663
 4568SOL    HW214604   2.178   3.963   5.809
 4569SOL     OW14605   1.844   1.782   3.377
 4569SOL    HW114606   1.797   1.818   3.457
 4569SOL    HW214607   1.909   1.850   3.342
 4570SOL     OW14608   0.797   6.675   3.796
 4570SOL    HW114609   0.748   6.761   3.778
 4570SOL    HW214610   0.742   6.619   3.858
 4571SOL     OW14611   4.130   3.931   5.956
 4571SOL    HW114612   4.063   3.859   5.977
 4571SOL    HW214613   4.084   4.004   5.906
 4572SOL     OW14614   1.426   6.540   6.784
 4572SOL    HW114615   1.401   6.563   6.690
 4572SOL    HW214616   1.515   6.579   6.806
 4573SOL     OW14617   6.283   6.929   0.630
 4573SOL    HW114618   6.365   6.917   0.574
 4573SOL    HW214619   6.245   6.839   0.652
 4574SOL     OW14620   6.259   3.647   0.648
 4574SOL    HW114621   6.202   3.622   0.726
 4574SOL    HW214622   6.354   3.621   0.667
 4575SOL     OW14623   6.032   1.573   6.154
 4575SOL    HW114624   6.071   1.588   6.245
 4575SOL    HW214625   5.951   1.630   6.143
 4576SOL     OW14626   2.482   6.479   5.985
 4576SOL    HW114627   2.481   6.501   6.083
 4576SOL    HW214628   2.569   6.510   5.946
 4577SOL     OW14629   0.920   2.232   4.546
 4577SOL    HW114630   0.913   2.180   4.631
 4577SOL    HW214631   1.012   2.271   4.538
 4578SOL     OW14632   0.797   3.371   4.850
 4578SOL    HW114633   0.737   3.412   4.919
 4578SOL    HW214634   0.889   3.358   4.888
 4579SOL     OW14635   4.564   1.340   3.200
 4579SOL    HW114636   4.627   1.327   3.124
 4579SOL    HW214637   4.499   1.413   3.178
 4580SOL     OW14638   5.062   4.863   0.248
 4580SOL    HW114639   4.970   4.872   0.285
 4580SOL    HW214640   5.113   4.795   0.301
 4581SOL     OW14641   2.549   4.489   2.985
 4581SOL    HW114642   2.471   4.464   3.042
 4581SOL    HW214643   2.526   4.477   2.889
 4582SOL     OW14644   5.624   6.719   4.769
 4582SOL    HW114645   5.624   6.630   4.724
 4582SOL    HW214646   5.717   6.756   4.771
 4583SOL     OW14647   2.350   2.221   5.879
 4583SOL    HW114648   2.311   2.261   5.961
 4583SOL    HW214649   2.308   2.262   5.798
 4584SOL     OW14650   0.329   5.066   5.965
 4584SOL    HW114651   0.270   4.995   5.928
 4584SOL    HW214652   0.330   5.144   5.902
 4585SOL     OW14653   2.552   6.586   2.786
 4585SOL    HW114654   2.538   6.534   2.702
 4585SOL    HW214655   2.551   6.684   2.764
 4586SOL     OW14656   3.451   5.352   0.829
 4586SOL    HW114657   3.534   5.402   0.854
 4586SOL    HW214658   3.373   5.393   0.877
 4587SOL     OW14659   3.597   3.893   2.377
 4587SOL    HW114660   3.525   3.823   2.368
 4587SOL    HW214661   3.583   3.945   2.461
 4588SOL     OW14662   3.369   4.043   5.235
 4588SOL    HW114663   3.454   4.003   5.268
 4588SOL    HW214664   3.339   3.995   5.153
 4589SOL     OW14665   6.137   0.922   2.380
 4589SOL    HW114666   6.062   0.979   2.414
 4589SOL    HW214667   6.190   0.888   2.458
 4590SOL     OW14668   5.092   5.965   0.736
 4590SOL    HW114669   5.179   6.005   0.764
 4590SOL    HW214670   5.106   5.906   0.657
 4591SOL     OW14671   0.629   5.970   4.647
 4591SOL    HW114672   0.647   6.051   4.703
 4591SOL    HW214673   0.712   5.947   4.595
 4592SOL     OW14674   3.062   1.676   1.729
 4592SOL    HW114675   3.040   1.662   1.826
 4592SOL    HW214676   3.151   1.721   1.722
 4593SOL     OW14677   4.597   5.225   3.551
 4593SOL    HW114678   4.581   5.129   3.576
 4593SOL    HW214679   4.672   5.229   3.485
 4594SOL     OW14680   2.865   1.429   2.297
 4594SOL    HW114681   2.945   1.422   2.238
 4594SOL    HW214682   2.843   1.340   2.335
 4595SOL     OW14683   4.031   2.833   6.433
 4595SOL    HW114684   4.009   2.781   6.350
 4595SOL    HW214685   4.130   2.840   6.444
 4596SOL     OW14686   6.036   6.850   1.883
 4596SOL    HW114687   5.952   6.807   1.917
 4596SOL    HW214688   6.107   6.845   1.953
 4597SOL     OW14689   4.165   4.988   6.330
 4597SOL    HW114690   4.254   4.963   6.291
 4597SOL    HW214691   4.178   5.054   6.403
 4598SOL     OW14692   2.342   6.093   6.623
 4598SOL    HW114693   2.418   6.077   6.560
 4598SOL    HW214694   2.266   6.135   6.574
 4599SOL     OW14695   0.528   5.764   1.268
 4599SOL    HW114696   0.607   5.706   1.285
 4599SOL    HW214697   0.504   5.760   1.171
 4600SOL     OW14698   1.263   4.732   5.414
 4600SOL    HW114699   1.309   4.674   5.481
 4600SOL    HW214700   1.164   4.719   5.421
 4601SOL     OW14701   1.948   0.351   5.035
 4601SOL    HW114702   2.031   0.317   4.990
 4601SOL    HW214703   1.907   0.278   5.089
 4602SOL     OW14704   1.526   5.787   1.292
 4602SOL    HW114705   1.485   5.854   1.231
 4602SOL    HW214706   1.553   5.831   1.377
 4603SOL     OW14707   2.824   6.550   0.652
 4603SOL    HW114708   2.808   6.459   0.615
 4603SOL    HW214709   2.790   6.619   0.589
 4604SOL     OW14710   4.830   0.424   0.812
 4604SOL    HW114711   4.863   0.347   0.866
 4604SOL    HW214712   4.780   0.391   0.732
 4605SOL     OW14713   3.263   0.375   3.275
 4605SOL    HW114714   3.170   0.377   3.239
 4605SOL    HW214715   3.282   0.283   3.312
 4606SOL     OW14716   1.177   0.019   1.758
 4606SOL    HW114717   1.125   6.966   1.802
 4606SOL    HW214718   1.242   0.058   1.824
 4607SOL     OW14719   2.168   2.578   1.557
 4607SOL    HW114720   2.140   2.657   1.502
 4607SOL    HW214721   2.268   2.574   1.560
 4608SOL     OW14722   0.893   6.217   3.653
 4608SOL    HW114723   0.836   6.299   3.652
 4608SOL    HW214724   0.925   6.198   3.560
 4609SOL     OW14725   4.371   5.076   6.861
 4609SOL    HW114726   4.413   5.155   6.818
 4609SOL    HW214727   4.300   5.106   6.924
 4610SOL     OW14728   5.253   2.874   0.675
 4610SOL    HW114729   5.230   2.912   0.585
 4610SOL    HW214730   5.286   2.948   0.735
 4611SOL     OW14731   0.364   5.945   5.907
 4611SOL    HW114732   0.305   5.865   5.916
 4611SOL    HW214733   0.307   6.027   5.896
 4612SOL     OW14734   1.197   5.842   0.046
 4612SOL    HW114735   1.249   5.921   0.078
 4612SOL    HW214736   1.258   5.764   0.034
 4613SOL     OW14737   2.704   6.400   2.000
 4613SOL    HW114738   2.660   6.472   2.054
 4613SOL    HW214739   2.649   6.317   2.004
 4614SOL     OW14740   6.913   3.170   5.003
 4614SOL    HW114741   6.875   3.137   4.916
 4614SOL    HW214742   6.887   3.107   5.076
 4615SOL     OW14743   2.114   0.103   0.080
 4615SOL    HW114744   2.172   0.092   7.019
 4615SOL    HW214745   2.085   0.198   0.088
 4616SOL     OW14746   6.665   0.277   5.103
 4616SOL    HW114747   6.730   0.288   5.027
 4616SOL    HW214748   6.675   0.354   5.167
 4617SOL     OW14749   0.672   2.606   2.234
 4617SOL    HW114750   0.664   2.540   2.159
 4617SOL    HW214751   0.654   2.698   2.200
 4618SOL     OW14752   2.128   3.050   5.196
 4618SOL    HW114753   2.220   3.030   5.162
 4618SOL    HW214754   2.062   2.992   5.148
 4619SOL     OW14755   3.264   6.495   3.394
 4619SOL    HW114756   3.331   6.441   3.444
 4619SOL    HW214757   3.191   6.435   3.361
 4620SOL     OW14758   2.016   4.684   0.344
 4620SOL    HW114759   1.962   4.612   0.299
 4620SOL    HW214760   1.980   4.774   0.318
 4621SOL     OW14761   5.455   1.339   2.244
 4621SOL    HW114762   5.542   1.373   2.209
 4621SOL    HW214763   5.380   1.396   2.209
 4622SOL     OW14764   2.166   4.724   0.591
 4622SOL    HW114765   2.089   4.725   0.527
 4622SOL    HW214766   2.240   4.782   0.556
 4623SOL     OW14767   5.572   6.580   0.267
 4623SOL    HW114768   5.574   6.642   0.189
 4623SOL    HW214769   5.581   6.485   0.235
 4624SOL     OW14770   5.043   6.367   3.335
 4624SOL    HW114771   5.075   6.456   3.366
 4624SOL    HW214772   5.121   6.310   3.309
 4625SOL     OW14773   2.208   3.791   1.142
 4625SOL    HW114774   2.161   3.834   1.065
 4625SOL    HW214775   2.292   3.842   1.162
 4626SOL     OW14776   5.096   4.909   2.260
 4626SOL    HW114777   5.161   4.972   2.303
 4626SOL    HW214778   5.080   4.938   2.166
 4627SOL     OW14779   2.570   4.536   4.385
 4627SOL    HW114780   2.527   4.494   4.465
 4627SOL    HW214781   2.523   4.505   4.303
 4628SOL     OW14782   6.129   4.678   4.131
 4628SOL    HW114783   6.202   4.717   4.186
 4628SOL    HW214784   6.058   4.641   4.191
 4629SOL     OW14785   1.840   5.130   5.492
 4629SOL    HW114786   1.876   5.221   5.515
 4629SOL    HW214787   1.899   5.087   5.424
 4630SOL     OW14788   3.124   5.300   2.006
 4630SOL    HW114789   3.110   5.207   2.039
 4630SOL    HW214790   3.049   5.358   2.038
 4631SOL     OW14791   2.083   6.235   2.427
 4631SOL    HW114792   2.154   6.265   2.491
 4631SOL    HW214793   2.026   6.166   2.472
 4632SOL     OW14794   3.811   5.122   2.588
 4632SOL    HW114795   3.723   5.155   2.622
 4632SOL    HW214796   3.837   5.175   2.507
 4633SOL     OW14797   4.929   0.125   4.670
 4633SOL    HW114798   5.014   0.086   4.636
 4633SOL    HW214799   4.890   0.065   4.740
 4634SOL     OW14800   2.573   5.158   6.176
 4634SOL    HW114801   2.577   5.233   6.241
 4634SOL    HW214802   2.541   5.075   6.222
 4635SOL     OW14803   5.133   3.944   1.357
 4635SOL    HW114804   5.171   3.925   1.447
 4635SOL    HW214805   5.093   3.860   1.319
 4636SOL     OW14806   1.685   4.694   0.093
 4636SOL    HW114807   1.733   4.628   0.151
 4636SOL    HW214808   1.588   4.671   0.089
 4637SOL     OW14809   1.377   6.977   0.841
 4637SOL    HW114810   1.296   0.016   0.851
 4637SOL    HW214811   1.352   6.894   0.792
 4638SOL     OW14812   4.965   3.820   6.405
 4638SOL    HW114813   5.059   3.848   6.426
 4638SOL    HW214814   4.902   3.864   6.470
 4639SOL     OW14815   2.948   4.610   6.188
 4639SOL    HW114816   2.911   4.527   6.147
 4639SOL    HW214817   3.040   4.592   6.223
 4640SOL     OW14818   4.823   3.884   3.606
 4640SOL    HW114819   4.845   3.917   3.514
 4640SOL    HW214820   4.825   3.784   3.607
 4641SOL     OW14821   2.053   6.962   5.033
 4641SOL    HW114822   2.000   6.877   5.038
 4641SOL    HW214823   2.054   7.005   5.124
 4642SOL     OW14824   0.343   5.379   3.859
 4642SOL    HW114825   0.438   5.348   3.860
 4642SOL    HW214826   0.308   5.384   3.952
 4643SOL     OW14827   5.914   2.714   1.303
 4643SOL    HW114828   5.998   2.683   1.260
 4643SOL    HW214829   5.880   2.644   1.366
 4644SOL     OW14830   6.974   5.098   4.941
 4644SOL    HW114831   0.021   5.025   4.930
 4644SOL    HW214832   6.885   5.059   4.964
 4645SOL     OW14833   0.724   0.570   4.402
 4645SOL    HW114834   0.798   0.504   4.403
 4645SOL    HW214835   0.714   0.611   4.492
 4646SOL     OW14836   1.864   5.978   3.371
 4646SOL    HW114837   1.888   5.884   3.346
 4646SOL    HW214838   1.935   6.016   3.430
 4647SOL     OW14839   1.556   0.883   3.222
 4647SOL    HW114840   1.466   0.860   3.258
 4647SOL    HW214841   1.621   0.896   3.297
 4648SOL     OW14842   3.874   0.837   2.359
 4648SOL    HW114843   3.945   0.889   2.407
 4648SOL    HW214844   3.803   0.899   2.326
 4649SOL     OW14845   5.294   0.151   6.663
 4649SOL    HW114846   5.287   0.233   6.719
 4649SOL    HW214847   5.391   0.131   6.645
 4650SOL     OW14848   4.534   5.296   2.830
 4650SOL    HW114849   4.556   5.262   2.922
 4650SOL    HW214850   4.470   5.233   2.786
 4651SOL     OW14851   6.839   2.567   0.689
 4651SOL    HW114852   6.848   2.666   0.690
 4651SOL    HW214853   6.743   2.542   0.679
 4652SOL     OW14854   6.494   0.125   4.049
 4652SOL    HW114855   6.562   0.166   3.989
 4652SOL    HW214856   6.420   0.086   3.994
 4653SOL     OW14857   5.703   4.587   0.377
 4653SOL    HW114858   5.746   4.505   0.339
 4653SOL    HW214859   5.772   4.639   0.429
 4654SOL     OW14860   1.284   6.568   0.141
 4654SOL    HW114861   1.204   6.573   0.081
 4654SOL    HW214862   1.352   6.634   0.111
 4655SOL     OW14863   5.211   4.361   1.814
 4655SOL    HW114864   5.270   4.437   1.840
 4655SOL    HW214865   5.223   4.286   1.879
 4656SOL     OW14866   1.072   0.712   3.210
 4656SOL    HW114867   1.105   0.619   3.228
 4656SOL    HW214868   0.983   0.707   3.165
 4657SOL     OW14869   4.884   6.278   1.578
 4657SOL    HW114870   4.824   6.199   1.592
 4657SOL    HW214871   4.950   6.257   1.505
 4658SOL     OW14872   3.644   1.371   2.907
 4658SOL    HW114873   3.698   1.433   2.849
 4658SOL    HW214874   3.579   1.425   2.961
 4659SOL     OW14875   2.972   4.777   5.280
 4659SOL    HW114876   2.891   4.815   5.325
 4659SOL    HW214877   2.948   4.687   5.241
 4660SOL     OW14878   1.302   4.170   6.218
 4660SOL    HW114879   1.387   4.199   6.261
 4660SOL    HW214880   1.294   4.211   6.127
 4661SOL     OW14881   3.232   4.195   5.669
 4661SOL    HW114882   3.186   4.143   5.741
 4661SOL    HW214883   3.189   4.176   5.581
 4662SOL     OW14884   3.295   0.212   5.579
 4662SOL    HW114885   3.308   0.201   5.678
 4662SOL    HW214886   3.271   0.124   5.538
 4663SOL     OW14887   0.298   2.374   2.480
 4663SOL    HW114888   0.280   2.279   2.509
 4663SOL    HW214889   0.395   2.385   2.461
 4664SOL     OW14890   1.172   1.498   0.915
 4664SOL    HW114891   1.086   1.469   0.957
 4664SOL    HW214892   1.248   1.445   0.952
 4665SOL     OW14893   3.355   6.813   6.783
 4665SOL    HW114894   3.447   6.842   6.808
 4665SOL    HW214895   3.293   6.891   6.788
 4666SOL     OW14896   1.403   2.223   0.815
 4666SOL    HW114897   1.378   2.269   0.730
 4666SOL    HW214898   1.391   2.125   0.805
 4667SOL     OW14899   6.117   3.542   2.672
 4667SOL    HW114900   6.127   3.515   2.768
 4667SOL    HW214901   6.146   3.637   2.661
 4668SOL     OW14902   4.351   1.775   2.164
 4668SOL    HW114903   4.333   1.869   2.193
 4668SOL    HW214904   4.265   1.724   2.160
 4669SOL     OW14905   5.117   5.902   6.474
 4669SOL    HW114906   5.030   5.885   6.428
 4669SOL    HW214907   5.177   5.956   6.413
 4670SOL     OW14908   2.974   2.303   5.356
 4670SOL    HW114909   3.047   2.327   5.291
 4670SOL    HW214910   3.009   2.311   5.449
 4671SOL     OW14911   6.696   2.729   1.938
 4671SOL    HW114912   6.756   2.650   1.953
 4671SOL    HW214913   6.727   2.780   1.858
 4672SOL     OW14914   2.814   5.008   6.286
 4672SOL    HW114915   2.720   4.995   6.319
 4672SOL    HW214916   2.814   5.018   6.187
 4673SOL     OW14917   5.113   0.304   1.457
 4673SOL    HW114918   5.132   0.223   1.400
 4673SOL    HW214919   5.023   0.294   1.499
 4674SOL     OW14920   5.442   6.913   6.251
 4674SOL    HW114921   5.472   6.884   6.161
 4674SOL    HW214922   5.407   7.007   6.246
 4675SOL     OW14923   1.414   1.732   6.061
 4675SOL    HW114924   1.490   1.723   6.125
 4675SOL    HW214925   1.419   1.821   6.016
 4676SOL     OW14926   0.511   6.573   3.637
 4676SOL    HW114927   0.511   6.566   3.737
 4676SOL    HW214928   0.442   6.512   3.599
 4677SOL     OW14929   2.637   1.453   6.507
 4677SOL    HW114930   2.722   1.473   6.555
 4677SOL    HW214931   2.656   1.435   6.410
 4678SOL     OW14932   1.461   4.664   3.099
 4678SOL    HW114933   1.536   4.698   3.156
 4678SOL    HW214934   1.406   4.741   3.066
 4679SOL     OW14935   4.057   0.341   0.336
 4679SOL    HW114936   4.076   0.356   0.433
 4679SOL    HW214937   4.103   0.258   0.305
 4680SOL     OW14938   3.387   1.711   7.005
 4680SOL    HW114939   3.376   1.803   6.968
 4680SOL    HW214940   3.329   1.701   0.066
 4681SOL     OW14941   5.274   5.349   6.697
 4681SOL    HW114942   5.322   5.329   6.611
 4681SOL    HW214943   5.242   5.264   6.737
 4682SOL     OW14944   4.958   4.075   5.413
 4682SOL    HW114945   4.907   4.033   5.337
 4682SOL    HW214946   5.000   4.160   5.381
 4683SOL     OW14947   4.319   4.624   2.266
 4683SOL    HW114948   4.288   4.677   2.187
 4683SOL    HW214949   4.268   4.651   2.347
 4684SOL     OW14950   5.580   0.709   5.006
 4684SOL    HW114951   5.646   0.772   5.044
 4684SOL    HW214952   5.620   0.617   5.002
 4685SOL     OW14953   1.018   5.682   5.703
 4685SOL    HW114954   1.019   5.645   5.796
 4685SOL    HW214955   0.997   5.609   5.638
 4686SOL     OW14956   4.379   5.004   0.439
 4686SOL    HW114957   4.475   5.016   0.415
 4686SOL    HW214958   4.372   4.945   0.520
 4687SOL     OW14959   6.122   3.451   4.458
 4687SOL    HW114960   6.141   3.540   4.499
 4687SOL    HW214961   6.193   3.429   4.390
 4688SOL     OW14962   5.662   4.174   4.904
 4688SOL    HW114963   5.680   4.103   4.836
 4688SOL    HW214964   5.566   4.203   4.898
 4689SOL     OW14965   4.779   1.049   0.046
 4689SOL    HW114966   4.748   1.059   6.972
 4689SOL    HW214967   4.839   0.970   0.053
 4690SOL     OW14968   1.347   0.861   0.098
 4690SOL    HW114969   1.365   0.956   0.073
 4690SOL    HW214970   1.428   0.806   0.077
 4691SOL     OW14971   2.628   5.027   1.512
 4691SOL    HW114972   2.687   4.981   1.445
 4691SOL    HW214973   2.539   5.047   1.469
 4692SOL     OW14974   5.803   5.734   1.758
 4692SOL    HW114975   5.865   5.811   1.771
 4692SOL    HW214976   5.748   5.748   1.676
 4693SOL     OW14977   1.039   2.295   3.820
 4693SOL    HW114978   0.947   2.266   3.791
 4693SOL    HW214979   1.047   2.284   3.919
 4694SOL     OW14980   2.381   1.012   0.110
 4694SOL    HW114981   2.453   0.998   0.042
 4694SOL    HW214982   2.300   1.049   0.065
 4695SOL     OW14983   1.004   3.548   2.493
 4695SOL    HW114984   1.006   3.452   2.466
 4695SOL    HW214985   1.075   3.565   2.561
 4696SOL     OW14986   0.219   4.122   0.100
 4696SOL    HW114987   0.290   4.057   0.074
 4696SOL    HW214988   0.258   4.192   0.160
 4697SOL     OW14989   1.736   3.084   0.715
 4697SOL    HW114990   1.697   3.160   0.662
 4697SOL    HW214991   1.702   3.087   0.809
 4698SOL     OW14992   4.527   5.197   2.494
 4698SOL    HW114993   4.427   5.195   2.492
 4698SOL    HW214994   4.560   5.140   2.570
 4699SOL     OW14995   1.308   6.794   2.332
 4699SOL    HW114996   1.338   6.889   2.323
 4699SOL    HW214997   1.212   6.791   2.361
 4700SOL     OW14998   0.195   1.147   3.202
 4700SOL    HW114999   0.168   1.237   3.236
 4700SOL    HW215000   0.293   1.133   3.217
 4701SOL     OW15001   2.448   2.562   0.711
 4701SOL    HW115002   2.393   2.646   0.710
 4701SOL    HW215003   2.409   2.496   0.647
 4702SOL     OW15004   4.806   4.807   0.005
 4702SOL    HW115005   4.740   4.836   0.075
 4702SOL    HW215006   4.893   4.784   0.049
 4703SOL     OW15007   0.495   1.737   2.041
 4703SOL    HW115008   0.492   1.698   2.133
 4703SOL    HW215009   0.451   1.674   1.977
 4704SOL     OW15010   0.432   6.316   0.150
 4704SOL    HW115011   0.476   6.279   0.068
 4704SOL    HW215012   0.479   6.400   0.178
 4705SOL     OW15013   3.682   2.773   1.806
 4705SOL    HW115014   3.659   2.770   1.904
 4705SOL    HW215015   3.678   2.681   1.768
 4706SOL     OW15016   3.153   0.290   0.282
 4706SOL    HW115017   3.054   0.279   0.287
 4706SOL    HW215018   3.185   0.261   0.191
 4707SOL     OW15019   1.615   6.749   1.007
 4707SOL    HW115020   1.590   6.821   0.942
 4707SOL    HW215021   1.709   6.721   0.991
 4708SOL     OW15022   1.370   2.053   6.381
 4708SOL    HW115023   1.300   1.983   6.365
 4708SOL    HW215024   1.379   2.069   6.479
 4709SOL     OW15025   4.611   5.892   5.658
 4709SOL    HW115026   4.627   5.886   5.559
 4709SOL    HW215027   4.516   5.918   5.675
 4710SOL     OW15028   4.929   6.804   5.406
 4710SOL    HW115029   5.023   6.817   5.437
 4710SOL    HW215030   4.865   6.835   5.476
 4711SOL     OW15031   6.138   1.338   1.607
 4711SOL    HW115032   6.194   1.380   1.678
 4711SOL    HW215033   6.098   1.254   1.643
 4712SOL     OW15034   2.857   4.578   0.193
 4712SOL    HW115035   2.844   4.658   0.135
 4712SOL    HW215036   2.866   4.606   0.288
 4713SOL     OW15037   3.848   3.996   1.222
 4713SOL    HW115038   3.945   4.018   1.231
 4713SOL    HW215039   3.826   3.980   1.126
 4714SOL     OW15040   0.542   2.128   6.284
 4714SOL    HW115041   0.629   2.147   6.240
 4714SOL    HW215042   0.549   2.046   6.339
 4715SOL     OW15043   6.014   2.697   2.679
 4715SOL    HW115044   5.931   2.741   2.646
 4715SOL    HW215045   6.057   2.647   2.605
 4716SOL     OW15046   4.215   6.260   6.374
 4716SOL    HW115047   4.139   6.198   6.392
 4716SOL    HW215048   4.298   6.224   6.416
 4717SOL     OW15049   6.833   0.111   3.822
 4717SOL    HW115050   6.885   0.161   3.892
 4717SOL    HW215051   6.848   0.013   3.834
 4718SOL     OW15052   5.282   2.180   1.800
 4718SOL    HW115053   5.320   2.272   1.794
 4718SOL    HW215054   5.354   2.113   1.781
 4719SOL     OW15055   4.791   3.009   1.671
 4719SOL    HW115056   4.755   3.003   1.764
 4719SOL    HW215057   4.727   3.062   1.615
 4720SOL     OW15058   2.021   5.626   6.032
 4720SOL    HW115059   2.115   5.600   6.056
 4720SOL    HW215060   1.990   5.700   6.091
 4721SOL     OW15061   6.354   2.327   2.385
 4721SOL    HW115062   6.367   2.317   2.484
 4721SOL    HW215063   6.344   2.424   2.363
 4722SOL     OW15064   0.793   6.192   6.693
 4722SOL    HW115065   0.728   6.191   6.769
 4722SOL    HW215066   0.865   6.125   6.708
 4723SOL     OW15067   2.806   3.565   6.241
 4723SOL    HW115068   2.813   3.605   6.332
 4723SOL    HW215069   2.711   3.538   6.223
 4724SOL     OW15070   6.242   6.602   3.071
 4724SOL    HW115071   6.189   6.517   3.064
 4724SOL    HW215072   6.215   6.664   2.996
 4725SOL     OW15073   6.749   5.010   1.432
 4725SOL    HW115074   6.654   5.012   1.463
 4725SOL    HW215075   6.810   5.012   1.512
 4726SOL     OW15076   0.943   3.098   6.245
 4726SOL    HW115077   0.919   3.181   6.194
 4726SOL    HW215078   0.888   3.093   6.328
 4727SOL     OW15079   1.106   5.990   1.167
 4727SOL    HW115080   1.115   5.892   1.179
 4727SOL    HW215081   1.094   6.010   1.069
 4728SOL     OW15082   5.866   0.907   1.705
 4728SOL    HW115083   5.889   0.925   1.801
 4728SOL    HW215084   5.943   0.932   1.647
 4729SOL     OW15085   3.815   1.482   0.390
 4729SOL    HW115086   3.736   1.440   0.435
 4729SOL    HW215087   3.807   1.471   0.291
 4730SOL     OW15088   3.236   5.702   5.768
 4730SOL    HW115089   3.219   5.729   5.674
 4730SOL    HW215090   3.306   5.761   5.808
 4731SOL     OW15091   3.966   0.588   0.015
 4731SOL    HW115092   3.965   0.649   6.956
 4731SOL    HW215093   4.016   0.631   0.090
 4732SOL     OW15094   1.217   3.996   5.599
 4732SOL    HW115095   1.233   3.987   5.697
 4732SOL    HW215096   1.298   4.034   5.555
 4733SOL     OW15097   1.051   3.789   3.913
 4733SOL    HW115098   1.038   3.887   3.931
 4733SOL    HW215099   1.132   3.758   3.963
 4734SOL     OW15100   3.740   2.882   6.771
 4734SOL    HW115101   3.825   2.914   6.730
 4734SOL    HW215102   3.756   2.796   6.820
 4735SOL     OW15103   6.035   5.625   3.919
 4735SOL    HW115104   6.063   5.531   3.942
 4735SOL    HW215105   5.937   5.635   3.936
 4736SOL     OW15106   6.439   1.959   5.338
 4736SOL    HW115107   6.486   1.912   5.413
 4736SOL    HW215108   6.370   2.020   5.375
 4737SOL     OW15109   2.595   4.553   1.802
 4737SOL    HW115110   2.590   4.641   1.755
 4737SOL    HW215111   2.665   4.558   1.874
 4738SOL     OW15112   0.773   6.505   2.985
 4738SOL    HW115113   0.756   6.406   2.988
 4738SOL    HW215114   0.870   6.522   3.006
 4739SOL     OW15115   4.320   0.903   2.921
 4739SOL    HW115116   4.229   0.943   2.925
 4739SOL    HW215117   4.386   0.974   2.894
 4740SOL     OW15118   0.859   1.494   1.530
 4740SOL    HW115119   0.911   1.539   1.603
 4740SOL    HW215120   0.777   1.452   1.569
 4741SOL     OW15121   4.973   3.481   0.427
 4741SOL    HW115122   5.011   3.573   0.417
 4741SOL    HW215123   4.897   3.469   0.363
 4742SOL     OW15124   3.460   6.899   6.427
 4742SOL    HW115125   3.373   6.851   6.438
 4742SOL    HW215126   3.443   6.992   6.396
 4743SOL     OW15127   1.859   3.345   4.289
 4743SOL    HW115128   1.809   3.345   4.376
 4743SOL    HW215129   1.794   3.349   4.213
 4744SOL     OW15130   1.946   4.310   0.588
 4744SOL    HW115131   1.987   4.304   0.497
 4744SOL    HW215132   1.914   4.220   0.616
 4745SOL     OW15133   3.228   5.183   7.012
 4745SOL    HW115134   3.246   5.280   6.995
 4745SOL    HW215135   3.156   5.174   0.061
 4746SOL     OW15136   5.289   5.950   2.008
 4746SOL    HW115137   5.189   5.952   2.012
 4746SOL    HW215138   5.320   6.020   1.944
 4747SOL     OW15139   1.859   3.841   6.858
 4747SOL    HW115140   1.769   3.842   6.816
 4747SOL    HW215141   1.905   3.754   6.836
 4748SOL     OW15142   1.172   5.151   0.693
 4748SOL    HW115143   1.158   5.221   0.762
 4748SOL    HW215144   1.266   5.117   0.699
 4749SOL     OW15145   2.498   5.974   5.774
 4749SOL    HW115146   2.551   5.891   5.758
 4749SOL    HW215147   2.505   6.000   5.871
 4750SOL     OW15148   0.334   4.171   4.019
 4750SOL    HW115149   0.357   4.121   3.936
 4750SOL    HW215150   0.358   4.117   4.099
 4751SOL     OW15151   4.073   1.738   1.731
 4751SOL    HW115152   4.017   1.817   1.707
 4751SOL    HW215153   4.024   1.680   1.796
 4752SOL     OW15154   3.971   0.802   6.052
 4752SOL    HW115155   4.001   0.707   6.058
 4752SOL    HW215156   3.928   0.829   6.138
 4753SOL     OW15157   5.643   0.313   4.383
 4753SOL    HW115158   5.634   0.248   4.308
 4753SOL    HW215159   5.587   0.283   4.460
 4754SOL     OW15160   5.832   6.159   5.190
 4754SOL    HW115161   5.868   6.066   5.180
 4754SOL    HW215162   5.773   6.162   5.271
 4755SOL     OW15163   2.045   0.802   0.786
 4755SOL    HW115164   2.108   0.802   0.864
 4755SOL    HW215165   2.043   0.893   0.745
 4756SOL     OW15166   5.712   2.547   0.305
 4756SOL    HW115167   5.793   2.523   0.358
 4756SOL    HW215168   5.730   2.629   0.251
 4757SOL     OW15169   2.391   1.678   0.856
 4757SOL    HW115170   2.300   1.681   0.897
 4757SOL    HW215171   2.457   1.649   0.925
 4758SOL     OW15172   2.118   6.157   4.036
 4758SOL    HW115173   2.176   6.161   4.117
 4758SOL    HW215174   2.082   6.064   4.026
 4759SOL     OW15175   6.051   4.804   5.411
 4759SOL    HW115176   5.986   4.732   5.435
 4759SOL    HW215177   6.121   4.768   5.350
 4760SOL     OW15178   2.008   2.161   0.742
 4760SOL    HW115179   2.036   2.238   0.800
 4760SOL    HW215180   1.933   2.191   0.683
 4761SOL     OW15181   0.849   6.399   0.106
 4761SOL    HW115182   0.898   6.479   0.073
 4761SOL    HW215183   0.867   6.387   0.204
 4762SOL     OW15184   0.742   5.909   2.345
 4762SOL    HW115185   0.737   5.849   2.425
 4762SOL    HW215186   0.711   5.858   2.264
 4763SOL     OW15187   6.379   6.932   3.090
 4763SOL    HW115188   6.311   6.858   3.087
 4763SOL    HW215189   6.462   6.898   3.134
 4764SOL     OW15190   4.981   3.681   4.430
 4764SOL    HW115191   5.009   3.654   4.522
 4764SOL    HW215192   5.038   3.757   4.398
 4765SOL     OW15193   5.022   0.817   3.753
 4765SOL    HW115194   5.090   0.773   3.811
 4765SOL    HW215195   5.044   0.914   3.743
 4766SOL     OW15196   5.218   5.891   4.072
 4766SOL    HW115197   5.174   5.974   4.107
 4766SOL    HW215198   5.316   5.893   4.095
 4767SOL     OW15199   3.332   5.418   5.676
 4767SOL    HW115200   3.308   5.503   5.722
 4767SOL    HW215201   3.281   5.342   5.718
 4768SOL     OW15202   4.207   2.136   6.144
 4768SOL    HW115203   4.195   2.128   6.045
 4768SOL    HW215204   4.290   2.190   6.163
 4769SOL     OW15205   5.001   4.217   6.542
 4769SOL    HW115206   4.988   4.226   6.640
 4769SOL    HW215207   4.912   4.206   6.497
 4770SOL     OW15208   0.343   1.013   4.395
 4770SOL    HW115209   0.271   0.965   4.343
 4770SOL    HW215210   0.419   0.950   4.412
 4771SOL     OW15211   2.849   5.923   5.206
 4771SOL    HW115212   2.900   6.008   5.192
 4771SOL    HW215213   2.903   5.860   5.262
 4772SOL     OW15214   4.021   4.980   1.416
 4772SOL    HW115215   4.052   4.951   1.326
 4772SOL    HW215216   3.967   5.063   1.408
 4773SOL     OW15217   0.024   5.348   3.166
 4773SOL    HW115218   6.996   5.416   3.112
 4773SOL    HW215219   0.089   5.394   3.228
 4774SOL     OW15220   1.373   3.001   1.567
 4774SOL    HW115221   1.380   3.035   1.661
 4774SOL    HW215222   1.463   3.003   1.524
 4775SOL     OW15223   5.224   6.588   2.594
 4775SOL    HW115224   5.242   6.609   2.498
 4775SOL    HW215225   5.145   6.528   2.601
 4776SOL     OW15226   1.434   6.429   5.416
 4776SOL    HW115227   1.522   6.403   5.456
 4776SOL    HW215228   1.449   6.472   5.328
 4777SOL     OW15229   2.173   5.015   0.947
 4777SOL    HW115230   2.191   4.923   0.912
 4777SOL    HW215231   2.088   5.015   0.998
 4778SOL     OW15232   6.177   2.315   4.149
 4778SOL    HW115233   6.108   2.385   4.129
 4778SOL    HW215234   6.242   2.351   4.216
 4779SOL     OW15235   6.409   5.888   2.423
 4779SOL    HW115236   6.412   5.807   2.482
 4779SOL    HW215237   6.374   5.966   2.475
 4780SOL     OW15238   5.843   0.996   0.153
 4780SOL    HW115239   5.813   0.978   0.246
 4780SOL    HW215240   5.885   1.087   0.148
 4781SOL     OW15241   2.643   5.401   2.163
 4781SOL    HW115242   2.544   5.410   2.174
 4781SOL    HW215243   2.688   5.429   2.248
 4782SOL     OW15244   5.333   5.680   0.301
 4782SOL    HW115245   5.327   5.598   0.358
 4782SOL    HW215246   5.312   5.761   0.356
 4783SOL     OW15247   4.405   3.786   6.821
 4783SOL    HW115248   4.430   3.878   6.851
 4783SOL    HW215249   4.482   3.724   6.836
 4784SOL     OW15250   6.366   4.074   6.828
 4784SOL    HW115251   6.357   4.170   6.803
 4784SOL    HW215252   6.292   4.048   6.889
 4785SOL     OW15253   1.016   6.655   2.775
 4785SOL    HW115254   1.048   6.596   2.700
 4785SOL    HW215255   1.073   6.736   2.780
 4786SOL     OW15256   2.733   1.291   6.963
 4786SOL    HW115257   2.666   1.261   0.011
 4786SOL    HW215258   2.689   1.296   6.873
 4787SOL     OW15259   4.181   1.443   2.314
 4787SOL    HW115260   4.169   1.345   2.296
 4787SOL    HW215261   4.147   1.496   2.237
 4788SOL     OW15262   0.548   5.946   6.298
 4788SOL    HW115263   0.576   6.040   6.277
 4788SOL    HW215264   0.564   5.888   6.218
 4789SOL     OW15265   5.118   1.880   1.075
 4789SOL    HW115266   5.073   1.818   1.010
 4789SOL    HW215267   5.116   1.973   1.039
 4790SOL     OW15268   6.211   2.053   5.503
 4790SOL    HW115269   6.213   2.152   5.494
 4790SOL    HW215270   6.199   2.028   5.599
 4791SOL     OW15271   0.331   2.756   1.561
 4791SOL    HW115272   0.233   2.772   1.551
 4791SOL    HW215273   0.346   2.672   1.614
 4792SOL     OW15274   1.866   3.937   3.667
 4792SOL    HW115275   1.945   3.895   3.622
 4792SOL    HW215276   1.896   3.977   3.754
 4793SOL     OW15277   1.934   3.194   5.343
 4793SOL    HW115278   1.872   3.133   5.393
 4793SOL    HW215279   2.008   3.140   5.303
 4794SOL     OW15280   4.628   0.279   4.470
 4794SOL    HW115281   4.623   0.370   4.428
 4794SOL    HW215282   4.644   0.289   4.568
 4795SOL     OW15283   5.840   2.166   4.041
 4795SOL    HW115284   5.769   2.115   4.090
 4795SOL    HW215285   5.929   2.121   4.054
 4796SOL     OW15286   4.773   1.969   5.084
 4796SOL    HW115287   4.760   2.019   4.999
 4796SOL    HW215288   4.810   1.878   5.064
 4797SOL     OW15289   1.231   6.574   5.548
 4797SOL    HW115290   1.276   6.491   5.513
 4797SOL    HW215291   1.158   6.601   5.485
 4798SOL     OW15292   0.890   3.903   5.156
 4798SOL    HW115293   0.825   3.912   5.081
 4798SOL    HW215294   0.871   3.972   5.225
 4799SOL     OW15295   4.737   1.707   0.306
 4799SOL    HW115296   4.706   1.801   0.314
 4799SOL    HW215297   4.675   1.656   0.247
 4800SOL     OW15298   3.218   2.719   6.251
 4800SOL    HW115299   3.231   2.643   6.314
 4800SOL    HW215300   3.290   2.718   6.182
 4801SOL     OW15301   3.113   2.215   6.548
 4801SOL    HW115302   3.033   2.210   6.488
 4801SOL    HW215303   3.083   2.226   6.643
 4802SOL     OW15304   1.240   6.938   2.061
 4802SOL    HW115305   1.307   6.877   2.102
 4802SOL    HW215306   1.279   0.009   2.050
 4803SOL     OW15307   0.098   4.946   0.819
 4803SOL    HW115308   0.068   4.906   0.733
 4803SOL    HW215309   0.112   4.873   0.887
 4804SOL     OW15310   5.922   5.836   1.203
 4804SOL    HW115311   5.830   5.799   1.211
 4804SOL    HW215312   5.951   5.874   1.292
 4805SOL     OW15313   5.978   1.898   2.436
 4805SOL    HW115314   5.963   1.916   2.338
 4805SOL    HW215315   5.964   1.982   2.488
 4806SOL     OW15316   1.389   4.360   2.993
 4806SOL    HW115317   1.475   4.406   3.017
 4806SOL    HW215318   1.336   4.420   2.932
 4807SOL     OW15319   0.997   5.053   0.472
 4807SOL    HW115320   1.061   5.053   0.549
 4807SOL    HW215321   1.039   5.008   0.393
 4808SOL     OW15322   5.279   4.426   0.182
 4808SOL    HW115323   5.275   4.357   0.254
 4808SOL    HW215324   5.200   4.486   0.188
 4809SOL     OW15325   3.588   4.844   0.461
 4809SOL    HW115326   3.659   4.849   0.390
 4809SOL    HW215327   3.505   4.804   0.422
 4810SOL     OW15328   1.662   5.241   2.484
 4810SOL    HW115329   1.653   5.308   2.557
 4810SOL    HW215330   1.754   5.203   2.485
 4811SOL     OW15331   2.598   4.180   1.344
 4811SOL    HW115332   2.677   4.242   1.337
 4811SOL    HW215333   2.622   4.092   1.303
 4812SOL     OW15334   6.966   5.174   2.559
 4812SOL    HW115335   6.963   5.131   2.649
 4812SOL    HW215336   7.016   5.260   2.565
 4813SOL     OW15337   6.035   2.277   0.348
 4813SOL    HW115338   5.962   2.260   0.283
 4813SOL    HW215339   6.123   2.280   0.300
 4814SOL     OW15340   7.014   3.277   1.167
 4814SOL    HW115341   7.016   3.250   1.264
 4814SOL    HW215342   0.072   3.238   1.120
 4815SOL     OW15343   5.627   4.041   2.493
 4815SOL    HW115344   5.621   3.990   2.407
 4815SOL    HW215345   5.555   4.011   2.556
 4816SOL     OW15346   2.115   4.530   0.982
 4816SOL    HW115347   2.156   4.482   0.904
 4816SOL    HW215348   2.029   4.572   0.953
 4817SOL     OW15349   1.231   1.847   6.842
 4817SOL    HW115350   1.186   1.783   6.780
 4817SOL    HW215351   1.172   1.863   6.922
 4818SOL     OW15352   0.829   6.087   4.272
 4818SOL    HW115353   0.810   6.158   4.340
 4818SOL    HW215354   0.785   6.002   4.300
 4819SOL     OW15355   1.379   2.236   0.517
 4819SOL    HW115356   1.363   2.141   0.490
 4819SOL    HW215357   1.469   2.265   0.485
 4820SOL     OW15358   6.299   2.734   2.471
 4820SOL    HW115359   6.203   2.709   2.461
 4820SOL    HW215360   6.350   2.703   2.391
 4821SOL     OW15361   0.668   6.157   2.526
 4821SOL    HW115362   0.684   6.058   2.515
 4821SOL    HW215363   0.756   6.204   2.528
 4822SOL     OW15364   1.780   3.341   4.777
 4822SOL    HW115365   1.756   3.436   4.795
 4822SOL    HW215366   1.762   3.286   4.858
 4823SOL     OW15367   1.645   0.414   4.488
 4823SOL    HW115368   1.640   0.475   4.409
 4823SOL    HW215369   1.737   0.416   4.526
 4824SOL     OW15370   5.185   1.939   4.531
 4824SOL    HW115371   5.189   1.951   4.432
 4824SOL    HW215372   5.238   2.011   4.576
 4825SOL     OW15373   1.750   2.956   4.061
 4825SOL    HW115374   1.748   2.886   4.132
 4825SOL    HW215375   1.840   2.956   4.017
 4826SOL     OW15376   6.171   1.194   6.626
 4826SOL    HW115377   6.159   1.256   6.549
 4826SOL    HW215378   6.082   1.172   6.665
 4827SOL     OW15379   6.410   1.482   0.641
 4827SOL    HW115380   6.363   1.550   0.585
 4827SOL    HW215381   6.476   1.527   0.701
 4828SOL     OW15382   5.519   2.715   0.595
 4828SOL    HW115383   5.457   2.786   0.629
 4828SOL    HW215384   5.549   2.658   0.671
 4829SOL     OW15385   4.030   6.876   6.357
 4829SOL    HW115386   4.052   6.920   6.270
 4829SOL    HW215387   3.952   6.815   6.344
 4830SOL     OW15388   4.282   6.459   3.863
 4830SOL    HW115389   4.209   6.478   3.929
 4830SOL    HW215390   4.354   6.405   3.907
 4831SOL     OW15391   0.411   4.560   6.245
 4831SOL    HW115392   0.407   4.579   6.146
 4831SOL    HW215393   0.372   4.469   6.263
 4832SOL     OW15394   3.777   3.303   3.837
 4832SOL    HW115395   3.824   3.297   3.748
 4832SOL    HW215396   3.683   3.335   3.822
 4833SOL     OW15397   4.915   2.043   3.168
 4833SOL    HW115398   4.933   2.034   3.070
 4833SOL    HW215399   4.966   1.973   3.218
 4834SOL     OW15400   3.788   6.468   0.818
 4834SOL    HW115401   3.739   6.539   0.869
 4834SOL    HW215402   3.871   6.443   0.867
 4835SOL     OW15403   6.023   1.346   6.917
 4835SOL    HW115404   5.991   1.278   6.851
 4835SOL    HW215405   6.040   1.432   6.869
 4836SOL     OW15406   5.733   2.985   4.968
 4836SOL    HW115407   5.660   2.976   4.900
 4836SOL    HW215408   5.711   2.929   5.048
 4837SOL     OW15409   6.467   4.043   3.123
 4837SOL    HW115410   6.553   4.000   3.095
 4837SOL    HW215411   6.416   3.981   3.182
 4838SOL     OW15412   0.954   5.341   0.388
 4838SOL    HW115413   0.912   5.326   0.298
 4838SOL    HW215414   1.012   5.263   0.411
 4839SOL     OW15415   2.240   3.429   6.931
 4839SOL    HW115416   2.277   3.366   6.999
 4839SOL    HW215417   2.229   3.381   6.844
 4840SOL     OW15418   6.652   4.191   6.404
 4840SOL    HW115419   6.612   4.100   6.413
 4840SOL    HW215420   6.630   4.245   6.486
 4841SOL     OW15421   2.605   5.510   1.908
 4841SOL    HW115422   2.597   5.484   2.004
 4841SOL    HW215423   2.689   5.470   1.870
 4842SOL     OW15424   3.501   5.566   2.799
 4842SOL    HW115425   3.461   5.485   2.756
 4842SOL    HW215426   3.514   5.637   2.730
 4843SOL     OW15427   6.774   2.967   1.521
 4843SOL    HW115428   6.705   2.989   1.452
 4843SOL    HW215429   6.729   2.953   1.609
 4844SOL     OW15430   1.007   3.519   6.597
 4844SOL    HW115431   0.952   3.436   6.604
 4844SOL    HW215432   0.963   3.584   6.535
 4845SOL     OW15433   5.561   5.471   6.976
 4845SOL    HW115434   5.512   5.470   6.889
 4845SOL    HW215435   5.657   5.449   6.961
 4846SOL     OW15436   6.458   3.059   3.641
 4846SOL    HW115437   6.380   3.111   3.607
 4846SOL    HW215438   6.498   3.007   3.565
 4847SOL     OW15439   2.428   0.472   6.567
 4847SOL    HW115440   2.393   0.442   6.478
 4847SOL    HW215441   2.487   0.401   6.605
 4848SOL     OW15442   1.472   1.028   4.542
 4848SOL    HW115443   1.392   1.029   4.481
 4848SOL    HW215444   1.450   1.079   4.626
 4849SOL     OW15445   0.745   5.980   0.066
 4849SOL    HW115446   0.746   6.029   0.153
 4849SOL    HW215447   0.782   5.888   0.079
 4850SOL     OW15448   3.846   1.343   1.913
 4850SOL    HW115449   3.930   1.307   1.952
 4850SOL    HW215450   3.767   1.302   1.959
 4851SOL     OW15451   3.876   6.986   5.588
 4851SOL    HW115452   3.889   6.896   5.630
 4851SOL    HW215453   3.802   0.015   5.635
 4852SOL     OW15454   1.236   5.877   5.138
 4852SOL    HW115455   1.258   5.974   5.129
 4852SOL    HW215456   1.137   5.863   5.126
 4853SOL     OW15457   3.734   0.739   3.360
 4853SOL    HW115458   3.727   0.675   3.436
 4853SOL    HW215459   3.802   0.810   3.381
 4854SOL     OW15460   4.139   6.666   1.768
 4854SOL    HW115461   4.121   6.667   1.669
 4854SOL    HW215462   4.067   6.716   1.815
 4855SOL     OW15463   6.083   2.465   4.496
 4855SOL    HW115464   6.098   2.509   4.408
 4855SOL    HW215465   6.169   2.427   4.530
 4856SOL     OW15466   1.359   2.909   3.195
 4856SOL    HW115467   1.352   2.812   3.219
 4856SOL    HW215468   1.268   2.947   3.182
 4857SOL     OW15469   3.924   2.177   4.307
 4857SOL    HW115470   4.006   2.227   4.332
 4857SOL    HW215471   3.863   2.170   4.386
 4858SOL     OW15472   0.542   0.390   4.744
 4858SOL    HW115473   0.494   0.454   4.683
 4858SOL    HW215474   0.532   0.297   4.710
 4859SOL     OW15475   0.978   6.505   4.422
 4859SOL    HW115476   1.045   6.458   4.479
 4859SOL    HW215477   1.016   6.520   4.331
 4860SOL     OW15478   4.398   4.274   1.360
 4860SOL    HW115479   4.300   4.287   1.344
 4860SOL    HW215480   4.430   4.338   1.430
 4861SOL     OW15481   5.960   5.319   0.327
 4861SOL    HW115482   5.909   5.398   0.296
 4861SOL    HW215483   6.043   5.349   0.374
 4862SOL     OW15484   2.386   4.441   4.980
 4862SOL    HW115485   2.302   4.429   4.927
 4862SOL    HW215486   2.403   4.359   5.035
 4863SOL     OW15487   5.122   3.751   1.021
 4863SOL    HW115488   5.086   3.712   1.106
 4863SOL    HW215489   5.222   3.745   1.022
 4864SOL     OW15490   4.058   1.651   2.156
 4864SOL    HW115491   3.992   1.631   2.084
 4864SOL    HW215492   4.029   1.733   2.206
 4865SOL     OW15493   2.497   6.274   4.291
 4865SOL    HW115494   2.574   6.246   4.234
 4865SOL    HW215495   2.529   6.293   4.384
 4866SOL     OW15496   6.704   4.136   1.496
 4866SOL    HW115497   6.705   4.235   1.508
 4866SOL    HW215498   6.613   4.101   1.516
 4867SOL     OW15499   4.486   5.564   2.191
 4867SOL    HW115500   4.417   5.633   2.170
 4867SOL    HW215501   4.477   5.537   2.287
 4868SOL     OW15502   6.701   4.915   2.422
 4868SOL    HW115503   6.789   4.879   2.455
 4868SOL    HW215504   6.628   4.880   2.480
 4869SOL     OW15505   0.544   1.428   1.408
 4869SOL    HW115506   0.580   1.439   1.501
 4869SOL    HW215507   0.485   1.347   1.405
 4870SOL     OW15508   6.935   6.193   1.942
 4870SOL    HW115509   6.884   6.160   1.862
 4870SOL    HW215510   6.872   6.238   2.005
 4871SOL     OW15511   1.038   1.430   5.148
 4871SOL    HW115512   1.091   1.374   5.211
 4871SOL    HW215513   1.100   1.473   5.082
 4872SOL     OW15514   6.282   5.750   4.051
 4872SOL    HW115515   6.297   5.722   3.956
 4872SOL    HW215516   6.202   5.702   4.088
 4873SOL     OW15517   6.594   5.000   3.935
 4873SOL    HW115518   6.673   5.040   3.887
 4873SOL    HW215519   6.591   4.901   3.917
 4874SOL     OW15520   5.947   3.236   3.292
 4874SOL    HW115521   5.876   3.272   3.231
 4874SOL    HW215522   5.939   3.280   3.382
 4875SOL     OW15523   6.066   3.275   1.663
 4875SOL    HW115524   6.033   3.212   1.734
 4875SOL    HW215525   6.103   3.222   1.587
 4876SOL     OW15526   5.632   1.586   4.177
 4876SOL    HW115527   5.569   1.662   4.196
 4876SOL    HW215528   5.663   1.547   4.264
 4877SOL     OW15529   1.023   1.962   0.063
 4877SOL    HW115530   0.968   1.882   0.037
 4877SOL    HW215531   1.012   2.033   7.014
 4878SOL     OW15532   6.506   0.473   2.854
 4878SOL    HW115533   6.501   0.564   2.813
 4878SOL    HW215534   6.572   0.473   2.928
 4879SOL     OW15535   4.320   4.946   3.519
 4879SOL    HW115536   4.234   4.897   3.508
 4879SOL    HW215537   4.305   5.027   3.575
 4880SOL     OW15538   5.917   3.032   0.112
 4880SOL    HW115539   5.935   2.935   0.093
 4880SOL    HW215540   5.979   3.064   0.183
 4881SOL     OW15541   2.050   0.873   6.784
 4881SOL    HW115542   2.027   0.803   6.851
 4881SOL    HW215543   2.098   0.831   6.707
 4882SOL     OW15544   5.025   1.642   4.510
 4882SOL    HW115545   5.101   1.664   4.449
 4882SOL    HW215546   4.997   1.547   4.495
 4883SOL     OW15547   5.476   4.785   1.912
 4883SOL    HW115548   5.410   4.851   1.874
 4883SOL    HW215549   5.429   4.699   1.932
 4884SOL     OW15550   3.533   0.394   1.606
 4884SOL    HW115551   3.507   0.297   1.610
 4884SOL    HW215552   3.533   0.424   1.510
 4885SOL     OW15553   1.702   5.418   2.685
 4885SOL    HW115554   1.748   5.480   2.621
 4885SOL    HW215555   1.690   5.464   2.773
 4886SOL     OW15556   0.088   6.083   1.044
 4886SOL    HW115557   7.012   6.105   1.023
 4886SOL    HW215558   0.116   6.134   1.126
 4887SOL     OW15559   0.866   0.528   2.964
 4887SOL    HW115560   0.861   0.611   3.020
 4887SOL    HW215561   0.793   0.529   2.896
 4888SOL     OW15562   2.221   6.434   4.280
 4888SOL    HW115563   2.314   6.454   4.311
 4888SOL    HW215564   2.180   6.366   4.340
 4889SOL     OW15565   6.296   0.679   6.451
 4889SOL    HW115566   6.316   0.628   6.535
 4889SOL    HW215567   6.330   0.773   6.459
 4890SOL     OW15568   0.959   2.032   6.495
 4890SOL    HW115569   1.029   1.968   6.465
 4890SOL    HW215570   0.880   1.982   6.530
 4891SOL     OW15571   1.390   4.931   6.986
 4891SOL    HW115572   1.443   4.847   6.993
 4891SOL    HW215573   1.335   4.929   6.903
 4892SOL     OW15574   3.425   5.841   1.486
 4892SOL    HW115575   3.393   5.932   1.460
 4892SOL    HW215576   3.421   5.831   1.585
 4893SOL     OW15577   0.085   3.796   1.787
 4893SOL    HW115578   0.062   3.860   1.860
 4893SOL    HW215579   0.148   3.839   1.723
 4894SOL     OW15580   2.163   1.796   2.641
 4894SOL    HW115581   2.135   1.713   2.689
 4894SOL    HW215582   2.260   1.814   2.661
 4895SOL     OW15583   0.901   5.624   2.808
 4895SOL    HW115584   0.959   5.697   2.843
 4895SOL    HW215585   0.914   5.542   2.864
 4896SOL     OW15586   1.981   5.651   1.662
 4896SOL    HW115587   1.986   5.745   1.628
 4896SOL    HW215588   1.926   5.596   1.600
 4897SOL     OW15589   2.243   4.774   6.332
 4897SOL    HW115590   2.219   4.677   6.335
 4897SOL    HW215591   2.312   4.793   6.402
 4898SOL     OW15592   3.699   1.844   4.002
 4898SOL    HW115593   3.663   1.922   4.054
 4898SOL    HW215594   3.796   1.833   4.021
 4899SOL     OW15595   6.462   5.283   3.060
 4899SOL    HW115596   6.539   5.221   3.046
 4899SOL    HW215597   6.377   5.236   3.034
 4900SOL     OW15598   1.809   5.534   4.552
 4900SOL    HW115599   1.825   5.620   4.601
 4900SOL    HW215600   1.797   5.553   4.455
 4901SOL     OW15601   3.392   6.553   6.178
 4901SOL    HW115602   3.394   6.652   6.160
 4901SOL    HW215603   3.414   6.504   6.094
 4902SOL     OW15604   2.465   1.701   4.634
 4902SOL    HW115605   2.512   1.638   4.696
 4902SOL    HW215606   2.521   1.783   4.622
 4903SOL     OW15607   2.775   5.944   6.935
 4903SOL    HW115608   2.850   6.003   6.964
 4903SOL    HW215609   2.706   5.939   7.007
 4904SOL     OW15610   1.446   0.331   4.164
 4904SOL    HW115611   1.388   0.370   4.235
 4904SOL    HW215612   1.535   0.376   4.164
 4905SOL     OW15613   4.297   0.532   2.293
 4905SOL    HW115614   4.275   0.454   2.351
 4905SOL    HW215615   4.220   0.553   2.234
 4906SOL     OW15616   4.490   2.040   5.876
 4906SOL    HW115617   4.510   2.117   5.816
 4906SOL    HW215618   4.392   2.017   5.870
 4907SOL     OW15619   4.460   5.732   0.886
 4907SOL    HW115620   4.542   5.722   0.831
 4907SOL    HW215621   4.473   5.807   0.952
 4908SOL     OW15622   5.163   4.794   6.527
 4908SOL    HW115623   5.131   4.736   6.603
 4908SOL    HW215624   5.224   4.865   6.563
 4909SOL     OW15625   6.299   6.932   4.697
 4909SOL    HW115626   6.219   6.888   4.657
 4909SOL    HW215627   6.376   6.926   4.633
 4910SOL     OW15628   5.218   6.401   4.521
 4910SOL    HW115629   5.276   6.412   4.603
 4910SOL    HW215630   5.124   6.425   4.544
 4911SOL     OW15631   0.762   3.423   4.171
 4911SOL    HW115632   0.687   3.388   4.228
 4911SOL    HW215633   0.769   3.522   4.183
 4912SOL     OW15634   5.425   2.003   0.409
 4912SOL    HW115635   5.422   1.963   0.318
 4912SOL    HW215636   5.471   2.091   0.406
 4913SOL     OW15637   3.816   3.454   4.825
 4913SOL    HW115638   3.915   3.461   4.835
 4913SOL    HW215639   3.793   3.371   4.774
 4914SOL     OW15640   3.710   6.612   5.212
 4914SOL    HW115641   3.773   6.586   5.139
 4914SOL    HW215642   3.691   6.533   5.270
 4915SOL     OW15643   4.353   0.427   4.413
 4915SOL    HW115644   4.299   0.394   4.490
 4915SOL    HW215645   4.358   0.355   4.343
 4916SOL     OW15646   1.632   1.160   3.896
 4916SOL    HW115647   1.614   1.138   3.992
 4916SOL    HW215648   1.673   1.080   3.851
 4917SOL     OW15649   1.374   4.706   1.367
 4917SOL    HW115650   1.302   4.678   1.304
 4917SOL    HW215651   1.352   4.675   1.459
 4918SOL     OW15652   3.489   6.626   2.457
 4918SOL    HW115653   3.538   6.576   2.528
 4918SOL    HW215654   3.406   6.667   2.495
 4919SOL     OW15655   2.642   2.286   0.046
 4919SOL    HW115656   2.594   2.217   0.100
 4919SOL    HW215657   2.739   2.285   0.070
 4920SOL     OW15658   5.069   0.377   5.263
 4920SOL    HW115659   5.077   0.441   5.187
 4920SOL    HW215660   5.144   0.391   5.326
 4921SOL     OW15661   1.648   4.666   0.498
 4921SOL    HW115662   1.577   4.605   0.532
 4921SOL    HW215663   1.611   4.759   0.489
 4922SOL     OW15664   1.915   2.967   4.891
 4922SOL    HW115665   2.000   3.020   4.888
 4922SOL    HW215666   1.837   3.029   4.894
 4923SOL     OW15667   3.573   1.352   0.484
 4923SOL    HW115668   3.560   1.273   0.425
 4923SOL    HW215669   3.545   1.330   0.578
 4924SOL     OW15670   2.243   1.633   5.330
 4924SOL    HW115671   2.301   1.672   5.402
 4924SOL    HW215672   2.301   1.589   5.261
 4925SOL     OW15673   5.794   6.785   1.983
 4925SOL    HW115674   5.724   6.854   1.963
 4925SOL    HW215675   5.758   6.720   2.050
 4926SOL     OW15676   5.188   1.843   0.482
 4926SOL    HW115677   5.257   1.896   0.432
 4926SOL    HW215678   5.117   1.905   0.515
 4927SOL     OW15679   4.008   3.471   3.939
 4927SOL    HW115680   4.043   3.455   4.032
 4927SOL    HW215681   3.932   3.409   3.921
 4928SOL     OW15682   0.955   0.481   6.937
 4928SOL    HW115683   1.035   0.538   6.958
 4928SOL    HW215684   0.957   0.456   6.840
 4929SOL     OW15685   1.503   4.490   4.397
 4929SOL    HW115686   1.449   4.559   4.348
 4929SOL    HW215687   1.563   4.535   4.463
 4930SOL     OW15688   4.512   0.601   2.878
 4930SOL    HW115689   4.419   0.604   2.913
 4930SOL    HW215690   4.556   0.516   2.906
 4931SOL     OW15691   6.636   0.142   0.635
 4931SOL    HW115692   6.562   0.102   0.581
 4931SOL    HW215693   6.716   0.157   0.576
 4932SOL     OW15694   2.234   3.339   1.679
 4932SOL    HW115695   2.296   3.397   1.626
 4932SOL    HW215696   2.231   3.371   1.774
 4933SOL     OW15697   2.076   0.342   3.711
 4933SOL    HW115698   2.115   0.415   3.654
 4933SOL    HW215699   2.130   0.259   3.700
 4934SOL     OW15700   2.405   5.156   2.653
 4934SOL    HW115701   2.471   5.176   2.725
 4934SOL    HW215702   2.319   5.201   2.672
 4935SOL     OW15703   1.263   1.392   6.848
 4935SOL    HW115704   1.298   1.300   6.859
 4935SOL    HW215705   1.324   1.457   6.894
 4936SOL     OW15706   1.554   4.616   1.136
 4936SOL    HW115707   1.518   4.564   1.214
 4936SOL    HW215708   1.535   4.713   1.149
 4937SOL     OW15709   6.838   2.800   6.420
 4937SOL    HW115710   6.919   2.837   6.464
 4937SOL    HW215711   6.759   2.857   6.442
 4938SOL     OW15712   2.503   6.055   6.383
 4938SOL    HW115713   2.601   6.036   6.377
 4938SOL    HW215714   2.482   6.140   6.334
 4939SOL     OW15715   6.741   1.810   4.171
 4939SOL    HW115716   6.784   1.870   4.239
 4939SOL    HW215717   6.684   1.742   4.218
 4940SOL     OW15718   0.781   1.091   5.026
 4940SOL    HW115719   0.802   1.188   5.035
 4940SOL    HW215720   0.866   1.037   5.029
 4941SOL     OW15721   4.820   3.220   5.568
 4941SOL    HW115722   4.799   3.230   5.471
 4941SOL    HW215723   4.919   3.205   5.580
 4942SOL     OW15724   5.536   2.866   5.984
 4942SOL    HW115725   5.517   2.924   6.063
 4942SOL    HW215726   5.460   2.802   5.971
 4943SOL     OW15727   4.656   3.907   6.100
 4943SOL    HW115728   4.578   3.952   6.143
 4943SOL    HW215729   4.635   3.885   6.005
 4944SOL     OW15730   2.404   4.338   1.809
 4944SOL    HW115731   2.487   4.394   1.811
 4944SOL    HW215732   2.371   4.331   1.715
 4945SOL     OW15733   1.079   6.829   4.203
 4945SOL    HW115734   1.142   6.774   4.258
 4945SOL    HW215735   1.098   6.926   4.218
 4946SOL     OW15736   0.860   5.288   0.141
 4946SOL    HW115737   0.899   5.277   0.049
 4946SOL    HW215738   0.785   5.224   0.152
 4947SOL     OW15739   2.285   0.663   0.560
 4947SOL    HW115740   2.319   0.732   0.496
 4947SOL    HW215741   2.246   0.709   0.640
 4948SOL     OW15742   2.035   2.923   2.696
 4948SOL    HW115743   1.953   2.952   2.746
 4948SOL    HW215744   2.049   2.984   2.618
 4949SOL     OW15745   6.086   4.217   5.738
 4949SOL    HW115746   6.123   4.125   5.747
 4949SOL    HW215747   6.074   4.258   5.828
 4950SOL     OW15748   1.985   4.947   4.924
 4950SOL    HW115749   2.040   4.897   4.857
 4950SOL    HW215750   1.990   5.045   4.903
 4951SOL     OW15751   5.651   0.944   4.725
 4951SOL    HW115752   5.565   0.893   4.729
 4951SOL    HW215753   5.676   0.959   4.629
 4952SOL     OW15754   6.930   0.404   5.972
 4952SOL    HW115755   6.909   0.306   5.977
 4952SOL    HW215756   6.923   0.435   5.877
 4953SOL     OW15757   1.780   6.932   3.416
 4953SOL    HW115758   1.820   7.004   3.472
 4953SOL    HW215759   1.741   6.972   3.333
 4954SOL     OW15760   3.274   3.116   0.262
 4954SOL    HW115761   3.346   3.067   0.213
 4954SOL    HW215762   3.189   3.063   0.257
 4955SOL     OW15763   3.181   6.578   6.794
 4955SOL    HW115764   3.191   6.481   6.774
 4955SOL    HW215765   3.270   6.624   6.783
 4956SOL     OW15766   2.252   6.568   5.136
 4956SOL    HW115767   2.177   6.586   5.199
 4956SOL    HW215768   2.240   6.478   5.094
 4957SOL     OW15769   5.497   2.737   1.729
 4957SOL    HW115770   5.433   2.801   1.686
 4957SOL    HW215771   5.478   2.731   1.827
 4958SOL     OW15772   0.335   5.239   5.756
 4958SOL    HW115773   0.396   5.195   5.689
 4958SOL    HW215774   0.257   5.279   5.708
 4959SOL     OW15775   6.053   1.681   0.210
 4959SOL    HW115776   6.081   1.746   0.140
 4959SOL    HW215777   6.037   1.729   0.296
 4960SOL     OW15778   3.818   4.861   3.417
 4960SOL    HW115779   3.826   4.810   3.332
 4960SOL    HW215780   3.732   4.913   3.417
 4961SOL     OW15781   3.737   1.215   5.818
 4961SOL    HW115782   3.739   1.190   5.915
 4961SOL    HW215783   3.805   1.162   5.768
 4962SOL     OW15784   5.644   2.327   0.155
 4962SOL    HW115785   5.598   2.342   0.067
 4962SOL    HW215786   5.663   2.415   0.198
 4963SOL     OW15787   6.893   6.247   0.985
 4963SOL    HW115788   6.816   6.294   0.943
 4963SOL    HW215789   6.960   6.314   1.016
 4964SOL     OW15790   3.038   0.939   4.075
 4964SOL    HW115791   3.023   0.842   4.094
 4964SOL    HW215792   3.135   0.957   4.061
 4965SOL     OW15793   0.343   1.079   2.035
 4965SOL    HW115794   0.378   0.992   2.000
 4965SOL    HW215795   0.419   1.133   2.072
 4966SOL     OW15796   2.932   6.229   5.220
 4966SOL    HW115797   2.868   6.277   5.279
 4966SOL    HW215798   2.934   6.273   5.130
 4967SOL     OW15799   3.527   4.962   4.994
 4967SOL    HW115800   3.592   4.946   4.920
 4967SOL    HW215801   3.497   5.057   4.992
 4968SOL     OW15802   6.865   1.974   3.995
 4968SOL    HW115803   6.814   1.919   4.060
 4968SOL    HW215804   6.842   2.071   4.009
 4969SOL     OW15805   2.510   5.398   3.055
 4969SOL    HW115806   2.529   5.357   3.144
 4969SOL    HW215807   2.501   5.327   2.986
 4970SOL     OW15808   2.446   2.561   2.578
 4970SOL    HW115809   2.546   2.556   2.571
 4970SOL    HW215810   2.420   2.587   2.671
 4971SOL     OW15811   5.843   5.771   3.286
 4971SOL    HW115812   5.842   5.712   3.367
 4971SOL    HW215813   5.815   5.863   3.311
 4972SOL     OW15814   0.906   3.761   0.869
 4972SOL    HW115815   0.930   3.753   0.772
 4972SOL    HW215816   0.961   3.834   0.910
 4973SOL     OW15817   1.555   6.982   2.572
 4973SOL    HW115818   1.544   0.038   2.637
 4973SOL    HW215819   1.476   6.979   2.510
 4974SOL     OW15820   6.711   4.332   0.911
 4974SOL    HW115821   6.801   4.372   0.927
 4974SOL    HW215822   6.690   4.267   0.984
 4975SOL     OW15823   6.257   3.660   5.718
 4975SOL    HW115824   6.219   3.659   5.810
 4975SOL    HW215825   6.270   3.754   5.688
 4976SOL     OW15826   2.050   1.371   3.683
 4976SOL    HW115827   2.125   1.320   3.640
 4976SOL    HW215828   2.008   1.315   3.755
 4977SOL     OW15829   4.064   4.856   6.877
 4977SOL    HW115830   3.978   4.814   6.907
 4977SOL    HW215831   4.064   4.864   6.777
 4978SOL     OW15832   6.793   4.554   4.849
 4978SOL    HW115833   6.770   4.514   4.938
 4978SOL    HW215834   6.822   4.481   4.786
 4979SOL     OW15835   0.221   6.717   6.710
 4979SOL    HW115836   0.144   6.680   6.762
 4979SOL    HW215837   0.240   6.658   6.632
 4980SOL     OW15838   5.238   6.179   3.279
 4980SOL    HW115839   5.256   6.133   3.366
 4980SOL    HW215840   5.251   6.116   3.204
 4981SOL     OW15841   4.558   5.152   0.242
 4981SOL    HW115842   4.476   5.205   0.263
 4981SOL    HW215843   4.638   5.199   0.279
 4982SOL     OW15844   3.041   0.900   5.276
 4982SOL    HW115845   3.136   0.873   5.256
 4982SOL    HW215846   3.009   0.962   5.205
 4983SOL     OW15847   5.990   3.890   5.626
 4983SOL    HW115848   5.984   3.832   5.545
 4983SOL    HW215849   6.086   3.906   5.649
 4984SOL     OW15850   5.203   4.261   3.484
 4984SOL    HW115851   5.277   4.327   3.491
 4984SOL    HW215852   5.206   4.215   3.395
 4985SOL     OW15853   6.047   0.001   3.505
 4985SOL    HW115854   6.147   7.018   3.509
 4985SOL    HW215855   6.018   0.069   3.437
 4986SOL     OW15856   6.965   4.124   1.663
 4986SOL    HW115857   6.996   4.059   1.593
 4986SOL    HW215858   6.885   4.087   1.709
 4987SOL     OW15859   1.440   0.512   2.395
 4987SOL    HW115860   1.509   0.442   2.411
 4987SOL    HW215861   1.462   0.594   2.448
 4988SOL     OW15862   5.362   1.104   2.200
 4988SOL    HW115863   5.382   1.202   2.199
 4988SOL    HW215864   5.417   1.059   2.270
 4989SOL     OW15865   5.089   7.006   1.583
 4989SOL    HW115866   5.183   0.014   1.564
 4989SOL    HW215867   5.077   6.995   1.681
 4990SOL     OW15868   2.554   2.426   5.510
 4990SOL    HW115869   2.625   2.356   5.514
 4990SOL    HW215870   2.536   2.450   5.415
 4991SOL     OW15871   6.032   5.271   3.796
 4991SOL    HW115872   6.022   5.205   3.722
 4991SOL    HW215873   5.965   5.344   3.785
 4992SOL     OW15874   4.835   0.763   2.959
 4992SOL    HW115875   4.793   0.710   3.033
 4992SOL    HW215876   4.919   0.806   2.992
 4993SOL     OW15877   2.727   5.876   4.143
 4993SOL    HW115878   2.656   5.834   4.198
 4993SOL    HW215879   2.792   5.923   4.202
 4994SOL     OW15880   2.203   0.886   3.783
 4994SOL    HW115881   2.165   0.841   3.864
 4994SOL    HW215882   2.132   0.941   3.739
 4995SOL     OW15883   0.202   2.662   5.304
 4995SOL    HW115884   0.116   2.672   5.353
 4995SOL    HW215885   0.230   2.567   5.305
 4996SOL     OW15886   0.802   1.490   2.883
 4996SOL    HW115887   0.800   1.395   2.854
 4996SOL    HW215888   0.894   1.527   2.868
 4997SOL     OW15889   5.203   2.820   2.717
 4997SOL    HW115890   5.215   2.911   2.676
 4997SOL    HW215891   5.291   2.786   2.749
 4998SOL     OW15892   2.169   4.169   4.835
 4998SOL    HW115893   2.210   4.116   4.909
 4998SOL    HW215894   2.101   4.232   4.873
 4999SOL     OW15895   6.201   3.743   0.190
 4999SOL    HW115896   6.288   3.695   0.186
 4999SOL    HW215897   6.187   3.780   0.282
 5000SOL     OW15898   3.393   6.962   3.598
 5000SOL    HW115899   3.304   6.917   3.590
 5000SOL    HW215900   3.462   6.894   3.622
 5001SOL     OW15901   6.789   3.597   0.976
 5001SOL    HW115902   6.861   3.583   1.044
 5001SOL    HW215903   6.829   3.638   0.893
 5002SOL     OW15904   0.275   3.316   2.993
 5002SOL    HW115905   0.294   3.370   3.076
 5002SOL    HW215906   0.320   3.227   3.001
 5003SOL     OW15907   2.974   6.175   2.619
 5003SOL    HW115908   2.980   6.176   2.519
 5003SOL    HW215909   3.030   6.100   2.654
 5004SOL     OW15910   2.807   5.366   5.600
 5004SOL    HW115911   2.897   5.333   5.630
 5004SOL    HW215912   2.820   5.435   5.529
 5005SOL     OW15913   3.152   2.971   0.617
 5005SOL    HW115914   3.197   3.009   0.698
 5005SOL    HW215915   3.078   3.031   0.589
 5006SOL     OW15916   5.114   0.427   0.302
 5006SOL    HW115917   5.113   0.451   0.205
 5006SOL    HW215918   5.178   0.352   0.317
 5007SOL     OW15919   1.117   0.104   0.858
 5007SOL    HW115920   1.188   0.174   0.847
 5007SOL    HW215921   1.059   0.128   0.936
 5008SOL     OW15922   6.009   0.193   2.036
 5008SOL    HW115923   6.003   0.142   2.121
 5008SOL    HW215924   5.942   0.267   2.036
 5009SOL     OW15925   1.188   0.439   1.004
 5009SOL    HW115926   1.173   0.513   1.070
 5009SOL    HW215927   1.119   0.444   0.932
 5010SOL     OW15928   4.127   3.518   2.567
 5010SOL    HW115929   4.154   3.460   2.490
 5010SOL    HW215930   4.122   3.462   2.650
 5011SOL     OW15931   1.850   3.900   2.212
 5011SOL    HW115932   1.939   3.869   2.243
 5011SOL    HW215933   1.855   3.997   2.186
 5012SOL     OW15934   5.932   4.012   6.028
 5012SOL    HW115935   5.960   4.107   6.013
 5012SOL    HW215936   6.013   3.953   6.031
 5013SOL     OW15937   4.981   1.407   6.513
 5013SOL    HW115938   5.052   1.466   6.552
 5013SOL    HW215939   4.891   1.438   6.544
 5014SOL     OW15940   6.030   4.473   0.749
 5014SOL    HW115941   6.001   4.378   0.750
 5014SOL    HW215942   6.084   4.492   0.667
 5015SOL     OW15943   4.913   1.983   4.580
 5015SOL    HW115944   5.001   1.937   4.575
 5015SOL    HW215945   4.887   1.995   4.676
 5016SOL     OW15946   1.920   2.492   0.059
 5016SOL    HW115947   1.893   2.465   6.987
 5016SOL    HW215948   1.885   2.584   0.079
 5017SOL     OW15949   1.671   2.814   0.098
 5017SOL    HW115950   1.656   2.891   0.160
 5017SOL    HW215951   1.764   2.819   0.061
 5018SOL     OW15952   0.055   3.611   2.659
 5018SOL    HW115953   0.046   3.568   2.569
 5018SOL    HW215954   0.009   3.700   2.658
 5019SOL     OW15955   1.424   4.552   6.326
 5019SOL    HW115956   1.347   4.513   6.376
 5019SOL    HW215957   1.438   4.500   6.241
 5020SOL     OW15958   5.003   0.380   6.246
 5020SOL    HW115959   5.016   0.335   6.334
 5020SOL    HW215960   4.963   0.315   6.182
 5021SOL     OW15961   0.519   1.436   6.122
 5021SOL    HW115962   0.481   1.349   6.154
 5021SOL    HW215963   0.448   1.490   6.077
 5022SOL     OW15964   0.892   1.677   6.517
 5022SOL    HW115965   0.849   1.766   6.530
 5022SOL    HW215966   0.822   1.608   6.504
 5023SOL     OW15967   6.771   2.696   1.409
 5023SOL    HW115968   6.785   2.782   1.459
 5023SOL    HW215969   6.674   2.675   1.405
 5024SOL     OW15970   5.913   5.238   1.629
 5024SOL    HW115971   5.989   5.279   1.679
 5024SOL    HW215972   5.853   5.310   1.595
 5025SOL     OW15973   3.215   1.760   2.139
 5025SOL    HW115974   3.169   1.767   2.228
 5025SOL    HW215975   3.152   1.719   2.073
 5026SOL     OW15976   6.469   5.889   5.789
 5026SOL    HW115977   6.371   5.891   5.810
 5026SOL    HW215978   6.481   5.872   5.691
 5027SOL     OW15979   0.107   6.758   2.253
 5027SOL    HW115980   0.203   6.739   2.232
 5027SOL    HW215981   0.093   6.755   2.352
 5028SOL     OW15982   0.205   1.848   2.729
 5028SOL    HW115983   0.150   1.773   2.764
 5028SOL    HW215984   0.297   1.843   2.766
 5029SOL     OW15985   6.486   2.633   2.682
 5029SOL    HW115986   6.581   2.653   2.658
 5029SOL    HW215987   6.426   2.676   2.615
 5030SOL     OW15988   6.822   7.018   0.437
 5030SOL    HW115989   6.858   0.087   0.409
 5030SOL    HW215990   6.892   6.948   0.422
 5031SOL     OW15991   5.555   7.001   5.035
 5031SOL    HW115992   5.513   6.910   5.027
 5031SOL    HW215993   5.650   6.997   5.005
 5032SOL     OW15994   2.215   2.638   0.984
 5032SOL    HW115995   2.285   2.639   1.056
 5032SOL    HW215996   2.130   2.676   1.020
 5033SOL     OW15997   2.741   6.400   5.692
 5033SOL    HW115998   2.758   6.466   5.765
 5033SOL    HW215999   2.654   6.354   5.708
 5034SOL     OW16000   5.134   0.488   2.904
 5034SOL    HW116001   5.185   0.530   2.829
 5034SOL    HW216002   5.047   0.535   2.915
 5035SOL     OW16003   0.439   4.210   0.260
 5035SOL    HW116004   0.506   4.202   0.334
 5035SOL    HW216005   0.442   4.303   0.223
 5036SOL     OW16006   0.341   4.904   0.273
 5036SOL    HW116007   0.440   4.891   0.271
 5036SOL    HW216008   0.319   4.982   0.332
 5037SOL     OW16009   4.891   3.135   3.136
 5037SOL    HW116010   4.844   3.047   3.143
 5037SOL    HW216011   4.908   3.171   3.228
 5038SOL     OW16012   2.741   4.201   6.227
 5038SOL    HW116013   2.747   4.102   6.211
 5038SOL    HW216014   2.646   4.226   6.244
 5039SOL     OW16015   3.043   4.412   5.402
 5039SOL    HW116016   3.114   4.458   5.455
 5039SOL    HW216017   3.029   4.462   5.316
 5040SOL     OW16018   1.598   5.820   6.222
 5040SOL    HW116019   1.686   5.842   6.265
 5040SOL    HW216020   1.528   5.882   6.256
 5041SOL     OW16021   1.702   1.303   2.499
 5041SOL    HW116022   1.694   1.392   2.454
 5041SOL    HW216023   1.714   1.317   2.597
 5042SOL     OW16024   6.720   2.853   0.490
 5042SOL    HW116025   6.638   2.872   0.437
 5042SOL    HW216026   6.792   2.818   0.430
 5043SOL     OW16027   3.564   0.058   6.063
 5043SOL    HW116028   3.659   0.027   6.064
 5043SOL    HW216029   3.561   0.158   6.056
 5044SOL     OW16030   0.782   6.713   0.354
 5044SOL    HW116031   0.874   6.719   0.391
 5044SOL    HW216032   0.737   6.802   0.362
 5045SOL     OW16033   5.438   1.295   6.420
 5045SOL    HW116034   5.467   1.338   6.506
 5045SOL    HW216035   5.354   1.339   6.388
 5046SOL     OW16036   3.532   4.164   2.818
 5046SOL    HW116037   3.532   4.086   2.881
 5046SOL    HW216038   3.465   4.231   2.849
 5047SOL     OW16039   6.702   3.447   2.408
 5047SOL    HW116040   6.688   3.361   2.360
 5047SOL    HW216041   6.670   3.438   2.502
 5048SOL     OW16042   0.507   1.281   2.219
 5048SOL    HW116043   0.517   1.208   2.287
 5048SOL    HW216044   0.415   1.319   2.225
 5049SOL     OW16045   6.160   2.120   5.851
 5049SOL    HW116046   6.116   2.035   5.824
 5049SOL    HW216047   6.255   2.102   5.877
 5050SOL     OW16048   1.572   0.957   0.952
 5050SOL    HW116049   1.654   0.999   0.991
 5050SOL    HW216050   1.592   0.863   0.925
 5051SOL     OW16051   4.817   4.686   1.199
 5051SOL    HW116052   4.859   4.598   1.179
 5051SOL    HW216053   4.721   4.672   1.226
 5052SOL     OW16054   2.289   0.405   6.353
 5052SOL    HW116055   2.254   0.484   6.302
 5052SOL    HW216056   2.353   0.353   6.296
 5053SOL     OW16057   2.236   4.177   2.943
 5053SOL    HW116058   2.246   4.089   2.990
 5053SOL    HW216059   2.160   4.171   2.878
 5054SOL     OW16060   3.507   6.101   4.729
 5054SOL    HW116061   3.437   6.098   4.658
 5054SOL    HW216062   3.582   6.038   4.706
 5055SOL     OW16063   1.788   0.853   5.382
 5055SOL    HW116064   1.843   0.924   5.339
 5055SOL    HW216065   1.699   0.847   5.335
 5056SOL     OW16066   6.506   4.900   0.366
 5056SOL    HW116067   6.603   4.916   0.383
 5056SOL    HW216068   6.482   4.931   0.274
 5057SOL     OW16069   0.228   5.949   4.837
 5057SOL    HW116070   0.292   5.883   4.878
 5057SOL    HW216071   0.275   6.035   4.820
 5058SOL     OW16072   2.702   3.385   5.539
 5058SOL    HW116073   2.685   3.293   5.504
 5058SOL    HW216074   2.796   3.412   5.517
 5059SOL     OW16075   5.784   1.730   3.488
 5059SOL    HW116076   5.720   1.668   3.442
 5059SOL    HW216077   5.735   1.780   3.559
 5060SOL     OW16078   1.604   1.734   5.263
 5060SOL    HW116079   1.658   1.789   5.200
 5060SOL    HW216080   1.533   1.685   5.213
 5061SOL     OW16081   4.078   3.704   2.315
 5061SOL    HW116082   4.010   3.648   2.362
 5061SOL    HW216083   4.167   3.692   2.359
 5062SOL     OW16084   5.524   0.912   3.438
 5062SOL    HW116085   5.464   0.911   3.518
 5062SOL    HW216086   5.501   0.835   3.378
 5063SOL     OW16087   1.241   0.087   2.532
 5063SOL    HW116088   1.203   0.045   2.614
 5063SOL    HW216089   1.195   0.173   2.513
 5064SOL     OW16090   4.971   4.138   1.682
 5064SOL    HW116091   4.876   4.153   1.708
 5064SOL    HW216092   4.974   4.078   1.601
 5065SOL     OW16093   1.402   1.863   3.760
 5065SOL    HW116094   1.403   1.919   3.843
 5065SOL    HW216095   1.311   1.821   3.750
 5066SOL     OW16096   4.254   4.912   1.263
 5066SOL    HW116097   4.318   4.929   1.338
 5066SOL    HW216098   4.227   5.000   1.223
 5067SOL     OW16099   3.670   0.764   2.151
 5067SOL    HW116100   3.602   0.695   2.129
 5067SOL    HW216101   3.756   0.743   2.105
 5068SOL     OW16102   2.335   5.087   6.530
 5068SOL    HW116103   2.244   5.128   6.535
 5068SOL    HW216104   2.387   5.132   6.457
 5069SOL     OW16105   2.345   3.299   5.798
 5069SOL    HW116106   2.322   3.235   5.724
 5069SOL    HW216107   2.435   3.339   5.781
 5070SOL     OW16108   4.360   4.677   3.959
 5070SOL    HW116109   4.387   4.771   3.978
 5070SOL    HW216110   4.366   4.660   3.861
 5071SOL     OW16111   4.230   1.628   3.243
 5071SOL    HW116112   4.157   1.568   3.277
 5071SOL    HW216113   4.216   1.720   3.278
 5072SOL     OW16114   1.214   0.965   1.575
 5072SOL    HW116115   1.149   1.038   1.597
 5072SOL    HW216116   1.260   0.987   1.489
 5073SOL     OW16117   0.381   5.681   1.831
 5073SOL    HW116118   0.380   5.743   1.908
 5073SOL    HW216119   0.344   5.727   1.750
 5074SOL     OW16120   3.577   2.453   1.227
 5074SOL    HW116121   3.619   2.544   1.234
 5074SOL    HW216122   3.479   2.459   1.246
 5075SOL     OW16123   0.938   2.707   6.815
 5075SOL    HW116124   0.900   2.615   6.806
 5075SOL    HW216125   1.034   2.707   6.785
 5076SOL     OW16126   4.938   0.617   0.435
 5076SOL    HW116127   4.980   0.648   0.521
 5076SOL    HW216128   4.981   0.532   0.405
 5077SOL     OW16129   2.052   4.053   5.469
 5077SOL    HW116130   2.116   4.013   5.403
 5077SOL    HW216131   2.034   4.148   5.444
 5078SOL     OW16132   0.292   1.470   3.932
 5078SOL    HW116133   0.374   1.527   3.942
 5078SOL    HW216134   0.315   1.387   3.880
 5079SOL     OW16135   2.155   3.354   5.131
 5079SOL    HW116136   2.237   3.346   5.187
 5079SOL    HW216137   2.092   3.279   5.153
 5080SOL     OW16138   5.842   6.464   6.295
 5080SOL    HW116139   5.824   6.495   6.388
 5080SOL    HW216140   5.763   6.485   6.237
 5081SOL     OW16141   3.480   3.453   4.935
 5081SOL    HW116142   3.481   3.483   4.840
 5081SOL    HW216143   3.547   3.505   4.988
 5082SOL     OW16144   5.319   5.700   1.235
 5082SOL    HW116145   5.331   5.769   1.307
 5082SOL    HW216146   5.277   5.742   1.155
 5083SOL     OW16147   2.873   0.013   2.579
 5083SOL    HW116148   2.776   0.032   2.564
 5083SOL    HW216149   2.886   7.002   2.673
 5084SOL     OW16150   0.363   4.670   3.589
 5084SOL    HW116151   0.287   4.624   3.543
 5084SOL    HW216152   0.444   4.668   3.530
 5085SOL     OW16153   5.856   2.656   6.511
 5085SOL    HW116154   5.815   2.610   6.432
 5085SOL    HW216155   5.868   2.753   6.490
 5086SOL     OW16156   1.237   5.775   3.299
 5086SOL    HW116157   1.220   5.750   3.204
 5086SOL    HW216158   1.270   5.695   3.350
 5087SOL     OW16159   1.851   5.760   2.822
 5087SOL    HW116160   1.795   5.843   2.828
 5087SOL    HW216161   1.854   5.729   2.727
 5088SOL     OW16162   6.194   0.426   4.376
 5088SOL    HW116163   6.255   0.502   4.400
 5088SOL    HW216164   6.233   0.340   4.410
 5089SOL     OW16165   5.297   3.983   4.129
 5089SOL    HW116166   5.395   3.969   4.142
 5089SOL    HW216167   5.266   3.932   4.048
 5090SOL     OW16168   2.097   3.905   2.402
 5090SOL    HW116169   2.173   3.882   2.341
 5090SOL    HW216170   2.124   3.977   2.465
 5091SOL     OW16171   0.758   0.746   1.882
 5091SOL    HW116172   0.695   0.711   1.812
 5091SOL    HW216173   0.710   0.811   1.940
 5092SOL     OW16174   3.597   3.787   2.690
 5092SOL    HW116175   3.512   3.783   2.638
 5092SOL    HW216176   3.578   3.818   2.783
 5093SOL     OW16177   3.097   1.533   0.921
 5093SOL    HW116178   3.101   1.570   0.828
 5093SOL    HW216179   3.179   1.477   0.938
 5094SOL     OW16180   2.404   5.523   5.811
 5094SOL    HW116181   2.463   5.598   5.782
 5094SOL    HW216182   2.323   5.520   5.753
 5095SOL     OW16183   6.224   2.116   3.956
 5095SOL    HW116184   6.188   2.170   4.032
 5095SOL    HW216185   6.317   2.086   3.977
 5096SOL     OW16186   4.116   5.022   0.280
 5096SOL    HW116187   4.102   4.924   0.266
 5096SOL    HW216188   4.205   5.037   0.323
 5097SOL     OW16189   1.262   0.425   6.374
 5097SOL    HW116190   1.231   0.399   6.466
 5097SOL    HW216191   1.348   0.475   6.381
 5098SOL     OW16192   2.489   0.142   2.146
 5098SOL    HW116193   2.546   0.179   2.072
 5098SOL    HW216194   2.479   0.211   2.217
 5099SOL     OW16195   1.041   6.939   0.143
 5099SOL    HW116196   1.089   6.993   0.074
 5099SOL    HW216197   1.104   6.916   0.218
 5100SOL     OW16198   3.360   5.595   4.961
 5100SOL    HW116199   3.301   5.537   5.018
 5100SOL    HW216200   3.436   5.629   5.017
 5101SOL     OW16201   5.282   0.184   0.376
 5101SOL    HW116202   5.283   0.085   0.383
 5101SOL    HW216203   5.249   0.224   0.462
 5102SOL     OW16204   5.547   6.430   4.408
 5102SOL    HW116205   5.514   6.338   4.430
 5102SOL    HW216206   5.599   6.467   4.485
 5103SOL     OW16207   0.246   0.564   3.356
 5103SOL    HW116208   0.162   0.619   3.358
 5103SOL    HW216209   0.253   0.512   3.441
 5104SOL     OW16210   1.879   6.586   2.689
 5104SOL    HW116211   1.955   6.621   2.634
 5104SOL    HW216212   1.802   6.650   2.682
 5105SOL     OW16213   3.105   3.144   0.836
 5105SOL    HW116214   3.043   3.211   0.794
 5105SOL    HW216215   3.063   3.107   0.919
 5106SOL     OW16216   4.531   1.596   0.183
 5106SOL    HW116217   4.533   1.545   0.097
 5106SOL    HW216218   4.468   1.552   0.246
 5107SOL     OW16219   3.382   1.538   0.422
 5107SOL    HW116220   3.462   1.483   0.446
 5107SOL    HW216221   3.411   1.633   0.405
 5108SOL     OW16222   3.437   3.745   4.954
 5108SOL    HW116223   3.361   3.681   4.953
 5108SOL    HW216224   3.474   3.755   4.861
 5109SOL     OW16225   1.034   1.657   0.621
 5109SOL    HW116226   1.115   1.682   0.674
 5109SOL    HW216227   0.990   1.740   0.587
 5110SOL     OW16228   0.109   0.591   5.760
 5110SOL    HW116229   0.019   0.562   5.728
 5110SOL    HW216230   0.127   0.551   5.850
 5111SOL     OW16231   1.773   1.223   4.867
 5111SOL    HW116232   1.796   1.286   4.793
 5111SOL    HW216233   1.789   1.268   4.955
 5112SOL     OW16234   2.185   1.138   3.027
 5112SOL    HW116235   2.163   1.041   3.019
 5112SOL    HW216236   2.186   1.164   3.123
 5113SOL     OW16237   1.954   0.146   0.883
 5113SOL    HW116238   2.049   0.133   0.854
 5113SOL    HW216239   1.901   0.063   0.863
 5114SOL     OW16240   3.212   0.933   6.589
 5114SOL    HW116241   3.129   0.932   6.533
 5114SOL    HW216242   3.290   0.902   6.534
 5115SOL     OW16243   1.902   4.886   4.234
 5115SOL    HW116244   1.936   4.980   4.240
 5115SOL    HW216245   1.980   4.823   4.230
 5116SOL     OW16246   6.713   0.303   5.667
 5116SOL    HW116247   6.647   0.231   5.646
 5116SOL    HW216248   6.804   0.273   5.638
 5117SOL     OW16249   2.308   4.195   4.608
 5117SOL    HW116250   2.305   4.112   4.552
 5117SOL    HW216251   2.257   4.180   4.692
 5118SOL     OW16252   5.069   0.131   7.019
 5118SOL    HW116253   4.975   0.097   7.017
 5118SOL    HW216254   5.129   0.067   6.971
 5119SOL     OW16255   5.143   0.661   2.128
 5119SOL    HW116256   5.061   0.664   2.185
 5119SOL    HW216257   5.223   0.638   2.185
 5120SOL     OW16258   3.576   0.972   3.704
 5120SOL    HW116259   3.581   1.031   3.785
 5120SOL    HW216260   3.556   0.878   3.732
 5121SOL     OW16261   2.538   2.158   6.227
 5121SOL    HW116262   2.561   2.077   6.174
 5121SOL    HW216263   2.503   2.130   6.317
 5122SOL     OW16264   3.785   6.687   2.765
 5122SOL    HW116265   3.801   6.630   2.845
 5122SOL    HW216266   3.697   6.734   2.775
 5123SOL     OW16267   4.747   2.148   4.786
 5123SOL    HW116268   4.766   2.222   4.851
 5123SOL    HW216269   4.659   2.165   4.741
 5124SOL     OW16270   2.276   5.340   5.184
 5124SOL    HW116271   2.371   5.332   5.216
 5124SOL    HW216272   2.242   5.250   5.159
 5125SOL     OW16273   6.109   3.257   4.642
 5125SOL    HW116274   6.118   3.326   4.570
 5125SOL    HW216275   6.198   3.217   4.663
 5126SOL     OW16276   6.231   4.773   5.161
 5126SOL    HW116277   6.210   4.836   5.087
 5126SOL    HW216278   6.200   4.681   5.137
 5127SOL     OW16279   1.132   3.858   0.181
 5127SOL    HW116280   1.203   3.788   0.185
 5127SOL    HW216281   1.125   3.903   0.270
 5128SOL     OW16282   6.626   0.350   6.334
 5128SOL    HW116283   6.597   0.292   6.258
 5128SOL    HW216284   6.547   0.374   6.390
 5129SOL     OW16285   5.595   0.162   2.626
 5129SOL    HW116286   5.692   0.186   2.631
 5129SOL    HW216287   5.569   0.109   2.706
 5130SOL     OW16288   1.014   5.863   3.482
 5130SOL    HW116289   1.088   5.827   3.424
 5130SOL    HW216290   0.984   5.791   3.545
 5131SOL     OW16291   2.808   4.887   3.504
 5131SOL    HW116292   2.780   4.980   3.483
 5131SOL    HW216293   2.871   4.854   3.434
 5132SOL     OW16294   3.312   2.503   5.874
 5132SOL    HW116295   3.368   2.478   5.795
 5132SOL    HW216296   3.230   2.446   5.875
 5133SOL     OW16297   1.270   5.328   6.991
 5133SOL    HW116298   1.275   5.289   0.063
 5133SOL    HW216299   1.211   5.272   6.934
 5134SOL     OW16300   6.971   1.919   2.245
 5134SOL    HW116301   6.991   1.833   2.292
 5134SOL    HW216302   7.018   1.994   2.292
 5135SOL     OW16303   5.642   3.463   4.277
 5135SOL    HW116304   5.738   3.453   4.252
 5135SOL    HW216305   5.598   3.373   4.279
 5136SOL     OW16306   5.308   0.582   6.504
 5136SOL    HW116307   5.310   0.506   6.438
 5136SOL    HW216308   5.245   0.652   6.472
 5137SOL     OW16309   4.411   4.057   5.639
 5137SOL    HW116310   4.499   4.037   5.597
 5137SOL    HW216311   4.385   3.981   5.700
 5138SOL     OW16312   3.954   2.741   5.641
 5138SOL    HW116313   3.975   2.779   5.551
 5138SOL    HW216314   3.917   2.649   5.631
 5139SOL     OW16315   1.267   1.292   3.539
 5139SOL    HW116316   1.221   1.228   3.477
 5139SOL    HW216317   1.279   1.249   3.628
 5140SOL     OW16318   3.877   2.289   5.710
 5140SOL    HW116319   3.874   2.279   5.810
 5140SOL    HW216320   3.943   2.225   5.672
 5141SOL     OW16321   6.075   3.552   0.823
 5141SOL    HW116322   6.029   3.537   0.736
 5141SOL    HW216323   6.039   3.634   0.867
 5142SOL     OW16324   5.855   6.663   2.770
 5142SOL    HW116325   5.764   6.689   2.803
 5142SOL    HW216326   5.896   6.598   2.834
 5143SOL     OW16327   6.510   4.175   4.339
 5143SOL    HW116328   6.575   4.200   4.267
 5143SOL    HW216329   6.435   4.122   4.300
 5144SOL     OW16330   0.851   4.776   5.423
 5144SOL    HW116331   0.778   4.783   5.490
 5144SOL    HW216332   0.889   4.867   5.405
 5145SOL     OW16333   3.836   5.556   6.235
 5145SOL    HW116334   3.921   5.592   6.274
 5145SOL    HW216335   3.804   5.479   6.291
 5146SOL     OW16336   2.875   3.678   5.545
 5146SOL    HW116337   2.948   3.611   5.532
 5146SOL    HW216338   2.809   3.642   5.612
 5147SOL     OW16339   6.557   5.673   3.180
 5147SOL    HW116340   6.528   5.626   3.097
 5147SOL    HW216341   6.557   5.772   3.164
 5148SOL     OW16342   6.573   0.964   1.829
 5148SOL    HW116343   6.668   0.960   1.859
 5148SOL    HW216344   6.551   0.882   1.777
 5149SOL     OW16345   6.365   6.059   3.437
 5149SOL    HW116346   6.347   5.963   3.459
 5149SOL    HW216347   6.458   6.082   3.466
 5150SOL     OW16348   2.403   5.626   3.186
 5150SOL    HW116349   2.431   5.547   3.131
 5150SOL    HW216350   2.413   5.709   3.132
 5151SOL     OW16351   6.531   3.666   2.394
 5151SOL    HW116352   6.558   3.728   2.468
 5151SOL    HW216353   6.605   3.601   2.376
 5152SOL     OW16354   1.723   5.083   0.237
 5152SOL    HW116355   1.779   5.137   0.300
 5152SOL    HW216356   1.662   5.145   0.186
 5153SOL     OW16357   1.444   1.607   0.623
 5153SOL    HW116358   1.412   1.613   0.528
 5153SOL    HW216359   1.538   1.573   0.625
 5154SOL     OW16360   1.230   2.887   5.954
 5154SOL    HW116361   1.278   2.944   5.887
 5154SOL    HW216362   1.195   2.945   6.028
 5155SOL     OW16363   4.369   0.069   2.242
 5155SOL    HW116364   4.370   0.001   2.169
 5155SOL    HW216365   4.281   0.066   2.289
 5156SOL     OW16366   5.308   3.909   5.678
 5156SOL    HW116367   5.305   4.009   5.679
 5156SOL    HW216368   5.370   3.876   5.749
 5157SOL     OW16369   3.584   1.850   3.537
 5157SOL    HW116370   3.489   1.860   3.507
 5157SOL    HW216371   3.604   1.916   3.609
 5158SOL     OW16372   3.937   2.123   1.359
 5158SOL    HW116373   3.969   2.031   1.383
 5158SOL    HW216374   3.842   2.118   1.329
 5159SOL     OW16375   6.143   3.283   5.660
 5159SOL    HW116376   6.198   3.284   5.744
 5159SOL    HW216377   6.055   3.327   5.678
 5160SOL     OW16378   0.572   4.928   2.969
 5160SOL    HW116379   0.542   4.914   2.875
 5160SOL    HW216380   0.495   4.915   3.032
 5161SOL     OW16381   2.192   3.912   6.554
 5161SOL    HW116382   2.216   3.970   6.631
 5161SOL    HW216383   2.213   3.817   6.575
 5162SOL     OW16384   0.756   5.760   2.605
 5162SOL    HW116385   0.787   5.704   2.682
 5162SOL    HW216386   0.658   5.778   2.614
 5163SOL     OW16387   2.885   6.601   0.274
 5163SOL    HW116388   2.847   6.599   0.182
 5163SOL    HW216389   2.883   6.509   0.313
 5164SOL     OW16390   4.293   2.120   6.798
 5164SOL    HW116391   4.257   2.140   6.707
 5164SOL    HW216392   4.230   2.060   6.847
 5165SOL     OW16393   0.227   4.128   5.413
 5165SOL    HW116394   0.236   4.209   5.471
 5165SOL    HW216395   0.278   4.141   5.328
 5166SOL     OW16396   0.591   5.538   2.433
 5166SOL    HW116397   0.690   5.526   2.440
 5166SOL    HW216398   0.569   5.579   2.345
 5167SOL     OW16399   6.543   4.961   5.818
 5167SOL    HW116400   6.511   5.020   5.892
 5167SOL    HW216401   6.484   4.974   5.738
 5168SOL     OW16402   5.040   3.379   1.437
 5168SOL    HW116403   4.961   3.432   1.406
 5168SOL    HW216404   5.010   3.308   1.500
 5169SOL     OW16405   4.175   2.257   4.382
 5169SOL    HW116406   4.138   2.272   4.474
 5169SOL    HW216407   4.199   2.160   4.371
 5170SOL     OW16408   1.249   4.261   5.188
 5170SOL    HW116409   1.159   4.304   5.202
 5170SOL    HW216410   1.238   4.162   5.185
 5171SOL     OW16411   0.701   4.496   5.083
 5171SOL    HW116412   0.630   4.566   5.094
 5171SOL    HW216413   0.675   4.434   5.010
 5172SOL     OW16414   1.484   3.118   2.657
 5172SOL    HW116415   1.462   3.020   2.651
 5172SOL    HW216416   1.469   3.149   2.751
 5173SOL     OW16417   4.768   5.372   4.816
 5173SOL    HW116418   4.768   5.393   4.914
 5173SOL    HW216419   4.752   5.456   4.764
 5174SOL     OW16420   2.276   5.097   3.066
 5174SOL    HW116421   2.254   5.139   3.154
 5174SOL    HW216422   2.251   5.000   3.069
 5175SOL     OW16423   2.358   4.132   0.023
 5175SOL    HW116424   2.455   4.113   0.035
 5175SOL    HW216425   2.336   4.220   0.065
 5176SOL     OW16426   5.097   3.070   6.909
 5176SOL    HW116427   5.058   3.026   6.991
 5176SOL    HW216428   5.174   3.128   6.936
 5177SOL     OW16429   5.660   0.334   0.259
 5177SOL    HW116430   5.673   0.239   0.289
 5177SOL    HW216431   5.721   0.353   0.182
 5178SOL     OW16432   0.763   3.592   2.611
 5178SOL    HW116433   0.849   3.586   2.560
 5178SOL    HW216434   0.755   3.513   2.673
 5179SOL     OW16435   4.386   4.951   4.027
 5179SOL    HW116436   4.406   5.042   3.991
 5179SOL    HW216437   4.439   4.936   4.111
 5180SOL     OW16438   2.857   2.298   0.838
 5180SOL    HW116439   2.780   2.338   0.789
 5180SOL    HW216440   2.941   2.346   0.811
 5181SOL     OW16441   5.141   0.970   3.038
 5181SOL    HW116442   5.129   0.871   3.046
 5181SOL    HW216443   5.070   1.007   2.977
 5182SOL     OW16444   4.044   4.239   1.582
 5182SOL    HW116445   4.062   4.215   1.677
 5182SOL    HW216446   4.079   4.166   1.522
 5183SOL     OW16447   3.863   2.153   2.781
 5183SOL    HW116448   3.928   2.148   2.858
 5183SOL    HW216449   3.902   2.209   2.708
 5184SOL     OW16450   0.625   1.631   4.138
 5184SOL    HW116451   0.555   1.663   4.201
 5184SOL    HW216452   0.604   1.539   4.108
 5185SOL     OW16453   5.485   0.755   2.794
 5185SOL    HW116454   5.412   0.705   2.748
 5185SOL    HW216455   5.519   0.828   2.734
 5186SOL     OW16456   6.722   2.666   0.189
 5186SOL    HW116457   6.687   2.616   0.111
 5186SOL    HW216458   6.709   2.764   0.174
 5187SOL     OW16459   1.262   6.369   4.470
 5187SOL    HW116460   1.321   6.300   4.512
 5187SOL    HW216461   1.289   6.384   4.375
 5188SOL     OW16462   6.930   6.157   1.415
 5188SOL    HW116463   7.012   6.212   1.430
 5188SOL    HW216464   6.855   6.215   1.384
 5189SOL     OW16465   4.092   5.363   1.010
 5189SOL    HW116466   4.052   5.371   0.919
 5189SOL    HW216467   4.155   5.439   1.025
 5190SOL     OW16468   0.618   2.382   4.793
 5190SOL    HW116469   0.523   2.414   4.784
 5190SOL    HW216470   0.677   2.436   4.733
 5191SOL     OW16471   4.086   0.077   2.034
 5191SOL    HW116472   4.049   0.110   1.948
 5191SOL    HW216473   4.170   0.025   2.017
 5192SOL     OW16474   1.952   5.244   1.649
 5192SOL    HW116475   2.001   5.297   1.718
 5192SOL    HW216476   1.933   5.152   1.684
 5193SOL     OW16477   4.931   5.175   4.585
 5193SOL    HW116478   4.843   5.183   4.539
 5193SOL    HW216479   4.966   5.267   4.605
 5194SOL     OW16480   4.267   2.162   6.527
 5194SOL    HW116481   4.253   2.144   6.429
 5194SOL    HW216482   4.280   2.260   6.541
 5195SOL     OW16483   6.818   6.330   4.198
 5195SOL    HW116484   6.793   6.237   4.222
 5195SOL    HW216485   6.749   6.394   4.233
 5196SOL     OW16486   3.979   6.415   1.129
 5196SOL    HW116487   3.931   6.409   1.216
 5196SOL    HW216488   4.027   6.503   1.123
 5197SOL     OW16489   2.478   4.252   6.218
 5197SOL    HW116490   2.440   4.345   6.217
 5197SOL    HW216491   2.432   4.198   6.288
 5198SOL     OW16492   4.693   6.095   3.180
 5198SOL    HW116493   4.711   6.104   3.277
 5198SOL    HW216494   4.607   6.045   3.166
 5199SOL     OW16495   1.355   5.937   0.508
 5199SOL    HW116496   1.285   5.871   0.481
 5199SOL    HW216497   1.396   5.977   0.426
 5200SOL     OW16498   1.104   3.412   5.427
 5200SOL    HW116499   1.031   3.346   5.444
 5200SOL    HW216500   1.064   3.499   5.398
 5201SOL     OW16501   0.341   0.273   2.819
 5201SOL    HW116502   0.437   0.252   2.837
 5201SOL    HW216503   0.284   0.195   2.846
 5202SOL     OW16504   6.292   3.163   6.454
 5202SOL    HW116505   6.359   3.175   6.381
 5202SOL    HW216506   6.254   3.070   6.449
 5203SOL     OW16507   2.440   2.501   0.292
 5203SOL    HW116508   2.421   2.434   0.363
 5203SOL    HW216509   2.472   2.586   0.334
 5204SOL     OW16510   4.100   5.326   6.881
 5204SOL    HW116511   4.083   5.236   6.922
 5204SOL    HW216512   4.021   5.354   6.827
 5205SOL     OW16513   0.769   6.147   0.790
 5205SOL    HW116514   0.707   6.201   0.734
 5205SOL    HW216515   0.719   6.103   0.864
 5206SOL     OW16516   0.751   4.669   5.905
 5206SOL    HW116517   0.706   4.756   5.927
 5206SOL    HW216518   0.850   4.682   5.903
 5207SOL     OW16519   1.147   5.860   3.830
 5207SOL    HW116520   1.092   5.806   3.766
 5207SOL    HW216521   1.101   5.945   3.851
 5208SOL     OW16522   3.997   2.689   6.217
 5208SOL    HW116523   4.020   2.767   6.159
 5208SOL    HW216524   3.929   2.632   6.171
 5209SOL     OW16525   5.952   6.467   2.889
 5209SOL    HW116526   5.961   6.463   2.988
 5209SOL    HW216527   5.911   6.383   2.855
 5210SOL     OW16528   4.637   2.723   6.382
 5210SOL    HW116529   4.575   2.752   6.310
 5210SOL    HW216530   4.730   2.718   6.346
 5211SOL     OW16531   3.413   2.688   5.293
 5211SOL    HW116532   3.458   2.695   5.382
 5211SOL    HW216533   3.316   2.667   5.306
 5212SOL     OW16534   6.969   2.486   0.917
 5212SOL    HW116535   6.938   2.479   0.822
 5212SOL    HW216536   6.892   2.475   0.979
 5213SOL     OW16537   4.666   3.541   6.400
 5213SOL    HW116538   4.692   3.448   6.376
 5213SOL    HW216539   4.684   3.602   6.323
 5214SOL     OW16540   4.956   1.217   5.681
 5214SOL    HW116541   4.864   1.241   5.712
 5214SOL    HW216542   4.998   1.297   5.638
 5215SOL     OW16543   6.932   4.748   4.405
 5215SOL    HW116544   6.919   4.694   4.322
 5215SOL    HW216545   0.010   4.764   4.420
 5216SOL     OW16546   5.234   5.161   2.136
 5216SOL    HW116547   5.211   5.227   2.207
 5216SOL    HW216548   5.159   5.156   2.070
 5217SOL     OW16549   4.137   5.445   4.375
 5217SOL    HW116550   4.133   5.494   4.288
 5217SOL    HW216551   4.228   5.407   4.388
 5218SOL     OW16552   0.637   0.988   3.800
 5218SOL    HW116553   0.674   0.915   3.858
 5218SOL    HW216554   0.680   1.075   3.823
 5219SOL     OW16555   4.463   1.321   5.097
 5219SOL    HW116556   4.468   1.248   5.029
 5219SOL    HW216557   4.497   1.287   5.185
 5220SOL     OW16558   0.707   6.231   3.026
 5220SOL    HW116559   0.651   6.204   2.948
 5220SOL    HW216560   0.766   6.154   3.053
 5221SOL     OW16561   5.579   2.614   4.226
 5221SOL    HW116562   5.634   2.533   4.203
 5221SOL    HW216563   5.506   2.625   4.158
 5222SOL     OW16564   3.707   5.829   2.903
 5222SOL    HW116565   3.625   5.789   2.943
 5222SOL    HW216566   3.783   5.764   2.911
 5223SOL     OW16567   6.320   2.386   0.740
 5223SOL    HW116568   6.306   2.333   0.656
 5223SOL    HW216569   6.408   2.360   0.781
 5224SOL     OW16570   6.991   2.278   4.972
 5224SOL    HW116571   6.928   2.278   4.894
 5224SOL    HW216572   0.000   2.184   4.990
 5225SOL     OW16573   1.090   0.441   3.232
 5225SOL    HW116574   1.019   0.406   3.171
 5225SOL    HW216575   1.074   0.407   3.324
 5226SOL     OW16576   0.193   5.623   5.162
 5226SOL    HW116577   0.290   5.621   5.140
 5226SOL    HW216578   0.158   5.716   5.156
 5227SOL     OW16579   0.580   3.448   4.667
 5227SOL    HW116580   0.674   3.417   4.682
 5227SOL    HW216581   0.581   3.541   4.631
 5228SOL     OW16582   6.164   2.611   1.349
 5228SOL    HW116583   6.199   2.517   1.356
 5228SOL    HW216584   6.115   2.635   1.432
 5229SOL     OW16585   1.831   5.757   6.992
 5229SOL    HW116586   1.836   5.851   0.007
 5229SOL    HW216587   1.738   5.738   6.962
 5230SOL     OW16588   0.335   5.978   1.654
 5230SOL    HW116589   0.311   5.979   1.557
 5230SOL    HW216590   0.267   6.029   1.706
 5231SOL     OW16591   4.554   3.140   5.362
 5231SOL    HW116592   4.631   3.085   5.328
 5231SOL    HW216593   4.584   3.234   5.376
 5232SOL     OW16594   3.414   2.710   6.061
 5232SOL    HW116595   3.478   2.785   6.045
 5232SOL    HW216596   3.412   2.650   5.981
 5233SOL     OW16597   4.829   1.035   2.193
 5233SOL    HW116598   4.771   1.099   2.243
 5233SOL    HW216599   4.923   1.068   2.193
 5234SOL     OW16600   2.363   1.292   6.442
 5234SOL    HW116601   2.311   1.299   6.527
 5234SOL    HW216602   2.316   1.231   6.378
 5235SOL     OW16603   1.961   2.558   0.391
 5235SOL    HW116604   2.044   2.598   0.353
 5235SOL    HW216605   1.906   2.629   0.434
 5236SOL     OW16606   5.652   4.580   2.772
 5236SOL    HW116607   5.579   4.569   2.705
 5236SOL    HW216608   5.731   4.525   2.744
 5237SOL     OW16609   1.989   1.166   5.052
 5237SOL    HW116610   1.966   1.262   5.065
 5237SOL    HW216611   1.953   1.135   4.965
 5238SOL     OW16612   0.854   4.568   0.215
 5238SOL    HW116613   0.879   4.472   0.199
 5238SOL    HW216614   0.774   4.571   0.275
 5239SOL     OW16615   3.605   2.922   3.922
 5239SOL    HW116616   3.505   2.922   3.918
 5239SOL    HW216617   3.637   2.834   3.956
 5240SOL     OW16618   2.960   1.369   6.177
 5240SOL    HW116619   3.039   1.430   6.178
 5240SOL    HW216620   2.884   1.414   6.130
 5241SOL     OW16621   0.860   4.809   5.100
 5241SOL    HW116622   0.948   4.834   5.059
 5241SOL    HW216623   0.875   4.752   5.180
 5242SOL     OW16624   0.646   6.382   6.453
 5242SOL    HW116625   0.724   6.398   6.513
 5242SOL    HW216626   0.565   6.426   6.492
 5243SOL     OW16627   0.912   5.114   1.732
 5243SOL    HW116628   0.850   5.193   1.731
 5243SOL    HW216629   0.905   5.066   1.644
 5244SOL     OW16630   3.724   5.476   0.086
 5244SOL    HW116631   3.766   5.460   0.176
 5244SOL    HW216632   3.732   5.573   0.063
 5245SOL     OW16633   4.038   4.300   0.217
 5245SOL    HW116634   4.017   4.289   0.119
 5245SOL    HW216635   3.965   4.259   0.271
 5246SOL     OW16636   6.083   3.794   2.282
 5246SOL    HW116637   5.996   3.819   2.238
 5246SOL    HW216638   6.156   3.795   2.214
 5247SOL     OW16639   0.902   0.656   0.404
 5247SOL    HW116640   0.910   0.626   0.499
 5247SOL    HW216641   0.947   0.589   0.345
 5248SOL     OW16642   5.546   1.037   4.065
 5248SOL    HW116643   5.541   1.046   3.965
 5248SOL    HW216644   5.498   0.954   4.094
 5249SOL     OW16645   6.715   4.904   5.399
 5249SOL    HW116646   6.727   4.854   5.485
 5249SOL    HW216647   6.770   4.862   5.328
 5250SOL     OW16648   1.668   6.364   5.491
 5250SOL    HW116649   1.653   6.291   5.558
 5250SOL    HW216650   1.725   6.435   5.532
 5251SOL     OW16651   0.556   3.671   0.690
 5251SOL    HW116652   0.621   3.619   0.745
 5251SOL    HW216653   0.529   3.616   0.611
 5252SOL     OW16654   2.052   6.321   0.512
 5252SOL    HW116655   2.132   6.263   0.498
 5252SOL    HW216656   1.970   6.271   0.483
 5253SOL     OW16657   5.469   4.772   4.369
 5253SOL    HW116658   5.418   4.837   4.425
 5253SOL    HW216659   5.405   4.715   4.317
 5254SOL     OW16660   4.872   1.326   3.288
 5254SOL    HW116661   4.853   1.421   3.313
 5254SOL    HW216662   4.790   1.285   3.249
 5255SOL     OW16663   5.231   1.136   6.008
 5255SOL    HW116664   5.227   1.157   6.106
 5255SOL    HW216665   5.320   1.094   5.987
 5256SOL     OW16666   4.341   0.966   3.181
 5256SOL    HW116667   4.330   0.934   3.087
 5256SOL    HW216668   4.265   0.932   3.237
 5257SOL     OW16669   5.074   6.448   2.137
 5257SOL    HW116670   5.015   6.415   2.211
 5257SOL    HW216671   5.018   6.497   2.070
 5258SOL     OW16672   5.830   4.035   1.722
 5258SOL    HW116673   5.852   3.974   1.798
 5258SOL    HW216674   5.891   4.014   1.645
 5259SOL     OW16675   5.149   6.113   0.456
 5259SOL    HW116676   5.103   6.190   0.500
 5259SOL    HW216677   5.090   6.032   0.461
 5260SOL     OW16678   5.433   3.676   0.974
 5260SOL    HW116679   5.431   3.737   0.895
 5260SOL    HW216680   5.472   3.588   0.948
 5261SOL     OW16681   1.277   3.731   0.668
 5261SOL    HW116682   1.241   3.704   0.757
 5261SOL    HW216683   1.348   3.801   0.680
 5262SOL     OW16684   2.795   0.780   2.880
 5262SOL    HW116685   2.808   0.842   2.958
 5262SOL    HW216686   2.884   0.758   2.840
 5263SOL     OW16687   1.951   1.720   4.760
 5263SOL    HW116688   2.035   1.713   4.706
 5263SOL    HW216689   1.947   1.809   4.805
 5264SOL     OW16690   5.721   1.777   2.339
 5264SOL    HW116691   5.792   1.733   2.284
 5264SOL    HW216692   5.635   1.727   2.328
 5265SOL     OW16693   5.978   3.813   4.516
 5265SOL    HW116694   6.051   3.745   4.526
 5265SOL    HW216695   5.989   3.885   4.585
 5266SOL     OW16696   2.263   6.141   1.288
 5266SOL    HW116697   2.209   6.206   1.341
 5266SOL    HW216698   2.351   6.127   1.334
 5267SOL     OW16699   4.996   3.769   4.984
 5267SOL    HW116700   4.947   3.854   4.963
 5267SOL    HW216701   4.930   3.697   5.005
 5268SOL     OW16702   6.020   6.920   6.620
 5268SOL    HW116703   5.987   6.987   6.554
 5268SOL    HW216704   6.087   6.963   6.680
 5269SOL     OW16705   1.532   6.516   3.448
 5269SOL    HW116706   1.626   6.502   3.417
 5269SOL    HW216707   1.526   6.601   3.500
 5270SOL     OW16708   5.996   1.420   1.379
 5270SOL    HW116709   6.057   1.379   1.447
 5270SOL    HW216710   5.909   1.443   1.422
 5271SOL     OW16711   6.387   5.675   4.757
 5271SOL    HW116712   6.444   5.608   4.803
 5271SOL    HW216713   6.345   5.633   4.676
 5272SOL     OW16714   2.860   5.163   1.590
 5272SOL    HW116715   2.895   5.137   1.680
 5272SOL    HW216716   2.773   5.116   1.573
 5273SOL     OW16717   6.591   3.130   3.272
 5273SOL    HW116718   6.591   3.042   3.318
 5273SOL    HW216719   6.684   3.167   3.270
 5274SOL     OW16720   6.273   6.887   2.087
 5274SOL    HW116721   6.367   6.867   2.117
 5274SOL    HW216722   6.262   6.985   2.072
 5275SOL     OW16723   3.540   2.200   7.012
 5275SOL    HW116724   3.594   2.168   6.934
 5275SOL    HW216725   3.599   2.251   0.055
 5276SOL     OW16726   1.723   6.986   0.755
 5276SOL    HW116727   1.808   6.951   0.717
 5276SOL    HW216728   1.653   6.989   0.683
 5277SOL     OW16729   1.339   2.096   3.167
 5277SOL    HW116730   1.266   2.158   3.139
 5277SOL    HW216731   1.301   2.005   3.185
 5278SOL     OW16732   5.663   0.322   3.146
 5278SOL    HW116733   5.572   0.281   3.149
 5278SOL    HW216734   5.722   0.269   3.084
 5279SOL     OW16735   1.439   5.100   6.750
 5279SOL    HW116736   1.384   5.084   6.832
 5279SOL    HW216737   1.535   5.110   6.776
 5280SOL     OW16738   3.170   6.589   5.038
 5280SOL    HW116739   3.155   6.551   4.946
 5280SOL    HW216740   3.190   6.515   5.102
 5281SOL     OW16741   0.561   1.573   2.259
 5281SOL    HW116742   0.537   1.481   2.231
 5281SOL    HW216743   0.580   1.574   2.358
 5282SOL     OW16744   2.702   1.734   3.119
 5282SOL    HW116745   2.721   1.644   3.080
 5282SOL    HW216746   2.607   1.759   3.102
 5283SOL     OW16747   4.428   6.397   1.552
 5283SOL    HW116748   4.416   6.493   1.525
 5283SOL    HW216749   4.461   6.393   1.646
 5284SOL     OW16750   5.364   3.837   3.464
 5284SOL    HW116751   5.318   3.751   3.442
 5284SOL    HW216752   5.361   3.898   3.385
 5285SOL     OW16753   2.273   4.596   3.695
 5285SOL    HW116754   2.249   4.641   3.781
 5285SOL    HW216755   2.225   4.642   3.620
 5286SOL     OW16756   1.654   3.381   1.308
 5286SOL    HW116757   1.580   3.432   1.352
 5286SOL    HW216758   1.634   3.284   1.311
 5287SOL     OW16759   2.093   6.478   1.224
 5287SOL    HW116760   2.034   6.552   1.257
 5287SOL    HW216761   2.128   6.425   1.302
 5288SOL     OW16762   3.988   0.175   1.805
 5288SOL    HW116763   3.905   0.141   1.759
 5288SOL    HW216764   3.978   0.273   1.822
 5289SOL     OW16765   1.369   5.247   5.912
 5289SOL    HW116766   1.434   5.268   5.838
 5289SOL    HW216767   1.385   5.154   5.945
 5290SOL     OW16768   1.837   4.601   5.392
 5290SOL    HW116769   1.786   4.589   5.307
 5290SOL    HW216770   1.915   4.661   5.376
 5291SOL     OW16771   2.172   5.542   5.549
 5291SOL    HW116772   2.147   5.599   5.627
 5291SOL    HW216773   2.230   5.595   5.486
 5292SOL     OW16774   6.808   3.936   0.088
 5292SOL    HW116775   6.864   4.018   0.092
 5292SOL    HW216776   6.866   3.855   0.093
 5293SOL     OW16777   1.462   0.828   3.791
 5293SOL    HW116778   1.413   0.884   3.858
 5293SOL    HW216779   1.447   0.731   3.812
 5294SOL     OW16780   4.720   3.444   5.784
 5294SOL    HW116781   4.695   3.453   5.881
 5294SOL    HW216782   4.666   3.372   5.742
 5295SOL     OW16783   4.893   0.335   2.167
 5295SOL    HW116784   4.866   0.332   2.071
 5295SOL    HW216785   4.847   0.261   2.217
 5296SOL     OW16786   1.557   5.282   0.535
 5296SOL    HW116787   1.639   5.224   0.540
 5296SOL    HW216788   1.512   5.268   0.447
 5297SOL     OW16789   3.384   1.896   1.234
 5297SOL    HW116790   3.447   1.846   1.174
 5297SOL    HW216791   3.340   1.832   1.297
 5298SOL     OW16792   1.097   6.070   6.409
 5298SOL    HW116793   1.001   6.076   6.436
 5298SOL    HW216794   1.124   5.974   6.402
 5299SOL     OW16795   2.760   2.568   1.106
 5299SOL    HW116796   2.845   2.517   1.093
 5299SOL    HW216797   2.683   2.504   1.105
 5300SOL     OW16798   0.086   6.274   2.154
 5300SOL    HW116799   0.037   6.355   2.122
 5300SOL    HW216800   0.079   6.201   2.086
 5301SOL     OW16801   4.288   2.958   0.712
 5301SOL    HW116802   4.229   2.921   0.640
 5301SOL    HW216803   4.319   2.884   0.771
 5302SOL     OW16804   6.243   4.446   2.663
 5302SOL    HW116805   6.212   4.370   2.605
 5302SOL    HW216806   6.343   4.451   2.660
 5303SOL     OW16807   6.794   5.980   2.983
 5303SOL    HW116808   6.842   5.907   2.933
 5303SOL    HW216809   6.703   5.948   3.009
 5304SOL     OW16810   6.379   1.538   6.418
 5304SOL    HW116811   6.354   1.459   6.361
 5304SOL    HW216812   6.471   1.568   6.394
 5305SOL     OW16813   1.344   5.839   4.247
 5305SOL    HW116814   1.303   5.782   4.176
 5305SOL    HW216815   1.273   5.877   4.306
 5306SOL     OW16816   0.706   5.106   5.034
 5306SOL    HW116817   0.682   5.048   4.957
 5306SOL    HW216818   0.803   5.132   5.027
 5307SOL     OW16819   4.317   0.133   6.974
 5307SOL    HW116820   4.271   0.199   0.013
 5307SOL    HW216821   4.263   0.118   6.891
 5308SOL     OW16822   0.966   6.058   3.898
 5308SOL    HW116823   0.901   5.992   3.936
 5308SOL    HW216824   0.928   6.099   3.815
 5309SOL     OW16825   3.607   4.115   1.807
 5309SOL    HW116826   3.693   4.162   1.789
 5309SOL    HW216827   3.533   4.182   1.810
 5310SOL     OW16828   6.084   2.649   1.609
 5310SOL    HW116829   5.990   2.667   1.635
 5310SOL    HW216830   6.142   2.725   1.638
 5311SOL     OW16831   6.995   6.532   1.295
 5311SOL    HW116832   6.946   6.530   1.208
 5311SOL    HW216833   6.948   6.593   1.358
 5312SOL     OW16834   0.426   3.594   2.081
 5312SOL    HW116835   0.517   3.610   2.043
 5312SOL    HW216836   0.411   3.654   2.160
 5313SOL     OW16837   1.106   3.582   6.939
 5313SOL    HW116838   1.022   3.633   6.921
 5313SOL    HW216839   1.105   3.548   0.013
 5314SOL     OW16840   3.343   5.691   0.253
 5314SOL    HW116841   3.265   5.631   0.268
 5314SOL    HW216842   3.411   5.676   0.326
 5315SOL     OW16843   3.630   3.562   1.382
 5315SOL    HW116844   3.628   3.654   1.421
 5315SOL    HW216845   3.537   3.529   1.370
 5316SOL     OW16846   0.197   4.509   4.304
 5316SOL    HW116847   0.157   4.487   4.214
 5316SOL    HW216848   0.260   4.586   4.294
 5317SOL     OW16849   6.905   0.685   4.763
 5317SOL    HW116850   6.868   0.769   4.802
 5317SOL    HW216851   6.960   0.637   4.831
 5318SOL     OW16852   0.255   1.817   5.472
 5318SOL    HW116853   0.209   1.794   5.557
 5318SOL    HW216854   0.189   1.860   5.410
 5319SOL     OW16855   4.674   6.677   6.551
 5319SOL    HW116856   4.603   6.607   6.548
 5319SOL    HW216857   4.726   6.670   6.635
 5320SOL     OW16858   5.916   4.803   6.616
 5320SOL    HW116859   5.988   4.860   6.577
 5320SOL    HW216860   5.953   4.712   6.637
 5321SOL     OW16861   0.694   4.102   2.840
 5321SOL    HW116862   0.687   4.002   2.836
 5321SOL    HW216863   0.771   4.132   2.785
 5322SOL     OW16864   3.669   5.762   6.057
 5322SOL    HW116865   3.599   5.702   6.097
 5322SOL    HW216866   3.726   5.799   6.129
 5323SOL     OW16867   4.233   3.193   6.920
 5323SOL    HW116868   4.229   3.116   6.983
 5323SOL    HW216869   4.255   3.277   6.969
 5324SOL     OW16870   3.961   2.302   1.752
 5324SOL    HW116871   3.873   2.288   1.799
 5324SOL    HW216872   4.015   2.370   1.801
 5325SOL     OW16873   5.945   6.822   3.859
 5325SOL    HW116874   5.910   6.847   3.769
 5325SOL    HW216875   6.026   6.765   3.849
 5326SOL     OW16876   0.136   5.848   3.381
 5326SOL    HW116877   0.113   5.763   3.429
 5326SOL    HW216878   0.078   5.922   3.415
 5327SOL     OW16879   6.493   4.444   4.870
 5327SOL    HW116880   6.424   4.393   4.820
 5327SOL    HW216881   6.568   4.383   4.895
 5328SOL     OW16882   4.614   2.766   5.862
 5328SOL    HW116883   4.593   2.668   5.873
 5328SOL    HW216884   4.539   2.811   5.814
 5329SOL     OW16885   0.841   3.890   0.314
 5329SOL    HW116886   0.850   3.792   0.297
 5329SOL    HW216887   0.924   3.924   0.358
 5330SOL     OW16888   4.143   4.068   6.731
 5330SOL    HW116889   4.108   4.162   6.733
 5330SOL    HW216890   4.146   4.035   6.637
 5331SOL     OW16891   5.647   0.567   1.522
 5331SOL    HW116892   5.733   0.573   1.574
 5331SOL    HW216893   5.645   0.639   1.453
 5332SOL     OW16894   0.391   4.578   0.518
 5332SOL    HW116895   0.392   4.665   0.568
 5332SOL    HW216896   0.381   4.502   0.583
 5333SOL     OW16897   0.674   0.741   3.885
 5333SOL    HW116898   0.753   0.685   3.860
 5333SOL    HW216899   0.591   0.703   3.846
 5334SOL     OW16900   2.993   5.764   5.415
 5334SOL    HW116901   3.070   5.791   5.473
 5334SOL    HW216902   2.951   5.682   5.451
 5335SOL     OW16903   0.007   4.860   2.170
 5335SOL    HW116904   0.020   4.899   2.261
 5335SOL    HW216905   0.024   4.761   2.173
 5336SOL     OW16906   2.322   1.739   3.543
 5336SOL    HW116907   2.416   1.726   3.513
 5336SOL    HW216908   2.320   1.796   3.625
 5337SOL     OW16909   5.050   4.962   1.995
 5337SOL    HW116910   5.128   4.947   1.934
 5337SOL    HW216911   5.002   5.045   1.968
 5338SOL     OW16912   5.887   0.939   6.083
 5338SOL    HW116913   5.905   0.845   6.113
 5338SOL    HW216914   5.794   0.965   6.110
 5339SOL     OW16915   5.817   1.128   3.001
 5339SOL    HW116916   5.821   1.172   2.911
 5339SOL    HW216917   5.730   1.151   3.045
 5340SOL     OW16918   5.976   4.100   1.178
 5340SOL    HW116919   5.889   4.053   1.193
 5340SOL    HW216920   6.006   4.086   1.083
 5341SOL     OW16921   2.736   5.299   4.995
 5341SOL    HW116922   2.763   5.371   4.931
 5341SOL    HW216923   2.636   5.295   4.999
 5342SOL     OW16924   5.295   6.237   5.112
 5342SOL    HW116925   5.377   6.187   5.139
 5342SOL    HW216926   5.231   6.176   5.066
 5343SOL     OW16927   4.071   3.381   5.103
 5343SOL    HW116928   4.148   3.340   5.151
 5343SOL    HW216929   4.046   3.468   5.147
 5344SOL     OW16930   1.561   1.710   1.074
 5344SOL    HW116931   1.552   1.788   1.135
 5344SOL    HW216932   1.471   1.670   1.057
 5345SOL     OW16933   5.471   6.769   0.091
 5345SOL    HW116934   5.434   6.720   0.011
 5345SOL    HW216935   5.484   6.866   0.067
 5346SOL     OW16936   2.735   5.633   3.580
 5346SOL    HW116937   2.814   5.574   3.599
 5346SOL    HW216938   2.703   5.674   3.665
 5347SOL     OW16939   0.479   3.258   2.726
 5347SOL    HW116940   0.394   3.213   2.699
 5347SOL    HW216941   0.518   3.306   2.648
 5348SOL     OW16942   6.663   1.378   6.942
 5348SOL    HW116943   6.633   1.434   7.019
 5348SOL    HW216944   6.608   1.399   6.861
 5349SOL     OW16945   2.076   3.753   0.612
 5349SOL    HW116946   2.147   3.819   0.585
 5349SOL    HW216947   2.036   3.712   0.531
 5350SOL     OW16948   1.855   0.118   4.653
 5350SOL    HW116949   1.889   0.058   4.581
 5350SOL    HW216950   1.843   0.210   4.617
 5351SOL     OW16951   0.119   5.495   2.282
 5351SOL    HW116952   0.190   5.565   2.280
 5351SOL    HW216953   0.053   5.512   2.209
 5352SOL     OW16954   2.294   4.661   2.952
 5352SOL    HW116955   2.354   4.687   3.027
 5352SOL    HW216956   2.231   4.735   2.931
 5353SOL     OW16957   3.532   5.645   4.357
 5353SOL    HW116958   3.625   5.634   4.321
 5353SOL    HW216959   3.525   5.603   4.447
 5354SOL     OW16960   2.077   4.469   1.261
 5354SOL    HW116961   2.069   4.470   1.161
 5354SOL    HW216962   2.155   4.526   1.288
 5355SOL     OW16963   5.731   4.955   3.992
 5355SOL    HW116964   5.738   4.977   4.089
 5355SOL    HW216965   5.635   4.950   3.965
 5356SOL     OW16966   6.553   3.660   3.104
 5356SOL    HW116967   6.601   3.746   3.126
 5356SOL    HW216968   6.611   3.583   3.130
 5357SOL     OW16969   2.933   5.697   0.753
 5357SOL    HW116970   2.966   5.670   0.844
 5357SOL    HW216971   3.001   5.756   0.709
 5358SOL     OW16972   4.533   1.951   0.767
 5358SOL    HW116973   4.563   2.030   0.821
 5358SOL    HW216974   4.554   1.967   0.670
 5359SOL     OW16975   2.792   1.838   6.307
 5359SOL    HW116976   2.727   1.762   6.300
 5359SOL    HW216977   2.746   1.917   6.348
 5360SOL     OW16978   3.941   6.373   3.594
 5360SOL    HW116979   3.922   6.470   3.579
 5360SOL    HW216980   3.867   6.332   3.647
 5361SOL     OW16981   2.688   6.816   4.688
 5361SOL    HW116982   2.709   6.814   4.590
 5361SOL    HW216983   2.595   6.853   4.701
 5362SOL     OW16984   6.724   6.085   2.387
 5362SOL    HW116985   6.813   6.104   2.344
 5362SOL    HW216986   6.729   5.997   2.434
 5363SOL     OW16987   6.223   6.271   5.823
 5363SOL    HW116988   6.224   6.341   5.751
 5363SOL    HW216989   6.315   6.234   5.836
 5364SOL     OW16990   6.182   0.692   1.317
 5364SOL    HW116991   6.257   0.701   1.382
 5364SOL    HW216992   6.109   0.638   1.357
 5365SOL     OW16993   3.570   3.112   2.171
 5365SOL    HW116994   3.477   3.150   2.168
 5365SOL    HW216995   3.636   3.183   2.147
 5366SOL     OW16996   5.902   6.352   1.787
 5366SOL    HW116997   5.927   6.438   1.743
 5366SOL    HW216998   5.872   6.286   1.718
 5367SOL     OW16999   0.199   6.886   1.891
 5367SOL    HW117000   0.195   6.927   1.982
 5367SOL    HW217001   0.107   6.885   1.851
 5368SOL     OW17002   5.857   0.213   2.662
 5368SOL    HW117003   5.863   0.146   2.589
 5368SOL    HW217004   5.920   0.188   2.736
 5369SOL     OW17005   2.357   6.873   0.833
 5369SOL    HW117006   2.341   6.854   0.737
 5369SOL    HW217007   2.320   6.798   0.889
 5370SOL     OW17008   4.664   3.724   0.617
 5370SOL    HW117009   4.710   3.653   0.670
 5370SOL    HW217010   4.567   3.725   0.640
 5371SOL     OW17011   1.144   4.586   5.698
 5371SOL    HW117012   1.192   4.517   5.644
 5371SOL    HW217013   1.211   4.642   5.748
 5372SOL     OW17014   1.148   6.280   2.835
 5372SOL    HW117015   1.103   6.359   2.794
 5372SOL    HW217016   1.219   6.312   2.898
 5373SOL     OW17017   3.797   6.154   5.086
 5373SOL    HW117018   3.871   6.220   5.084
 5373SOL    HW217019   3.715   6.197   5.123
 5374SOL     OW17020   2.215   4.765   0.867
 5374SOL    HW117021   2.184   4.691   0.927
 5374SOL    HW217022   2.189   4.744   0.773
 5375SOL     OW17023   0.336   5.826   5.432
 5375SOL    HW117024   0.247   5.780   5.438
 5375SOL    HW217025   0.323   5.921   5.404
 5376SOL     OW17026   1.376   2.599   1.426
 5376SOL    HW117027   1.302   2.666   1.438
 5376SOL    HW217028   1.421   2.616   1.338
 5377SOL     OW17029   1.096   0.332   2.549
 5377SOL    HW117030   1.016   0.322   2.609
 5377SOL    HW217031   1.085   0.414   2.493
 5378SOL     OW17032   6.808   6.763   2.413
 5378SOL    HW117033   6.780   6.702   2.487
 5378SOL    HW217034   6.876   6.828   2.448
 5379SOL     OW17035   1.041   3.600   4.880
 5379SOL    HW117036   1.052   3.501   4.890
 5379SOL    HW217037   0.990   3.620   4.796
 5380SOL     OW17038   3.289   6.860   1.938
 5380SOL    HW117039   3.327   6.903   2.019
 5380SOL    HW217040   3.268   6.930   1.869
 5381SOL     OW17041   6.645   6.051   2.034
 5381SOL    HW117042   6.650   6.149   2.051
 5381SOL    HW217043   6.617   6.035   1.939
 5382SOL     OW17044   3.001   2.062   2.029
 5382SOL    HW117045   2.975   2.157   2.010
 5382SOL    HW217046   2.940   2.025   2.099
 5383SOL     OW17047   1.401   3.221   4.614
 5383SOL    HW117048   1.436   3.132   4.586
 5383SOL    HW217049   1.403   3.283   4.535
 5384SOL     OW17050   5.072   6.831   4.614
 5384SOL    HW117051   4.983   6.790   4.634
 5384SOL    HW217052   5.062   6.898   4.540
 5385SOL     OW17053   3.697   3.586   5.032
 5385SOL    HW117054   3.742   3.673   5.053
 5385SOL    HW217055   3.754   3.534   4.968
 5386SOL     OW17056   4.998   1.524   3.676
 5386SOL    HW117057   4.918   1.470   3.650
 5386SOL    HW217058   5.033   1.492   3.764
 5387SOL     OW17059   2.129   6.611   2.609
 5387SOL    HW117060   2.182   6.529   2.589
 5387SOL    HW217061   2.183   6.692   2.584
 5388SOL     OW17062   0.792   0.747   3.116
 5388SOL    HW117063   0.727   0.725   3.188
 5388SOL    HW217064   0.765   0.832   3.070
 5389SOL     OW17065   4.039   1.339   3.727
 5389SOL    HW117066   4.121   1.376   3.769
 5389SOL    HW217067   4.063   1.289   3.644
 5390SOL     OW17068   5.515   3.634   3.218
 5390SOL    HW117069   5.450   3.710   3.212
 5390SOL    HW217070   5.466   3.547   3.212
 5391SOL     OW17071   2.156   2.011   0.557
 5391SOL    HW117072   2.232   1.967   0.604
 5391SOL    HW217073   2.094   2.051   0.625
 5392SOL     OW17074   5.981   3.818   0.970
 5392SOL    HW117075   5.886   3.833   0.941
 5392SOL    HW217076   6.040   3.887   0.928
 5393SOL     OW17077   4.247   0.492   4.925
 5393SOL    HW117078   4.223   0.395   4.920
 5393SOL    HW217079   4.283   0.513   5.015
 5394SOL     OW17080   0.739   5.969   1.180
 5394SOL    HW117081   0.764   5.872   1.179
 5394SOL    HW217082   0.743   6.002   1.274
 5395SOL     OW17083   4.990   0.510   1.143
 5395SOL    HW117084   4.930   0.441   1.102
 5395SOL    HW217085   4.979   0.597   1.095
 5396SOL     OW17086   5.254   5.037   1.014
 5396SOL    HW117087   5.299   5.117   1.052
 5396SOL    HW217088   5.155   5.051   1.015
 5397SOL     OW17089   0.440   2.186   1.346
 5397SOL    HW117090   0.423   2.093   1.380
 5397SOL    HW217091   0.402   2.252   1.411
 5398SOL     OW17092   3.524   2.090   4.254
 5398SOL    HW117093   3.427   2.076   4.236
 5398SOL    HW217094   3.553   2.177   4.214
 5399SOL     OW17095   2.456   6.538   6.240
 5399SOL    HW117096   2.538   6.562   6.292
 5399SOL    HW217097   2.389   6.612   6.247
 5400SOL     OW17098   2.755   4.054   6.912
 5400SOL    HW117099   2.678   4.037   6.851
 5400SOL    HW217100   2.820   4.117   6.869
 5401SOL     OW17101   5.659   4.319   2.387
 5401SOL    HW117102   5.694   4.305   2.295
 5401SOL    HW217103   5.649   4.231   2.434
 5402SOL     OW17104   3.195   6.189   0.875
 5402SOL    HW117105   3.184   6.104   0.928
 5402SOL    HW217106   3.159   6.266   0.927
 5403SOL     OW17107   4.897   3.366   6.125
 5403SOL    HW117108   4.868   3.341   6.217
 5403SOL    HW217109   4.846   3.447   6.096
 5404SOL     OW17110   0.998   0.877   2.118
 5404SOL    HW117111   1.082   0.830   2.091
 5404SOL    HW217112   0.936   0.811   2.161
 5405SOL     OW17113   5.615   4.815   0.064
 5405SOL    HW117114   5.700   4.837   0.112
 5405SOL    HW217115   5.549   4.776   0.129
 5406SOL     OW17116   1.792   0.655   5.051
 5406SOL    HW117117   1.726   0.588   5.085
 5406SOL    HW217118   1.793   0.654   4.951
 5407SOL     OW17119   3.413   2.089   1.026
 5407SOL    HW117120   3.405   2.040   1.113
 5407SOL    HW217121   3.502   2.134   1.021
 5408SOL     OW17122   4.032   0.567   4.786
 5408SOL    HW117123   4.055   0.510   4.708
 5408SOL    HW217124   4.108   0.568   4.851
 5409SOL     OW17125   6.866   1.786   3.116
 5409SOL    HW117126   6.817   1.851   3.058
 5409SOL    HW217127   6.957   1.821   3.136
 5410SOL     OW17128   0.673   2.272   6.063
 5410SOL    HW117129   0.673   2.339   5.988
 5410SOL    HW217130   0.766   2.263   6.099
 5411SOL     OW17131   5.502   5.317   6.110
 5411SOL    HW117132   5.570   5.251   6.079
 5411SOL    HW217133   5.540   5.373   6.182
 5412SOL     OW17134   3.270   1.453   6.891
 5412SOL    HW117135   3.281   1.550   6.915
 5412SOL    HW217136   3.174   1.436   6.867
 5413SOL     OW17137   0.250   0.331   6.572
 5413SOL    HW117138   0.173   0.271   6.552
 5413SOL    HW217139   0.295   0.300   6.656
 5414SOL     OW17140   6.215   4.040   4.934
 5414SOL    HW117141   6.180   3.947   4.925
 5414SOL    HW217142   6.197   4.091   4.850
 5415SOL     OW17143   2.033   6.852   1.465
 5415SOL    HW117144   2.102   6.904   1.416
 5415SOL    HW217145   1.948   6.905   1.470
 5416SOL     OW17146   2.590   4.992   5.043
 5416SOL    HW117147   2.586   5.042   4.957
 5416SOL    HW217148   2.619   5.054   5.116
 5417SOL     OW17149   4.327   6.693   4.433
 5417SOL    HW117150   4.388   6.771   4.417
 5417SOL    HW217151   4.245   6.724   4.480
 5418SOL     OW17152   5.564   6.428   5.192
 5418SOL    HW117153   5.517   6.515   5.206
 5418SOL    HW217154   5.497   6.357   5.171
 5419SOL     OW17155   3.542   5.723   1.080
 5419SOL    HW117156   3.578   5.700   0.990
 5419SOL    HW217157   3.555   5.820   1.098
 5420SOL     OW17158   2.030   2.722   1.816
 5420SOL    HW117159   2.087   2.651   1.857
 5420SOL    HW217160   2.087   2.782   1.760
 5421SOL     OW17161   3.102   5.026   2.008
 5421SOL    HW117162   3.082   5.009   2.104
 5421SOL    HW217163   3.190   4.984   1.984
 5422SOL     OW17164   0.694   4.929   4.009
 5422SOL    HW117165   0.640   5.013   4.015
 5422SOL    HW217166   0.650   4.866   3.944
 5423SOL     OW17167   5.209   4.718   0.430
 5423SOL    HW117168   5.302   4.685   0.446
 5423SOL    HW217169   5.144   4.659   0.479
 5424SOL     OW17170   5.616   4.351   4.572
 5424SOL    HW117171   5.612   4.254   4.598
 5424SOL    HW217172   5.610   4.360   4.473
 5425SOL     OW17173   5.510   2.237   5.177
 5425SOL    HW117174   5.527   2.335   5.169
 5425SOL    HW217175   5.577   2.188   5.121
 5426SOL     OW17176   6.143   5.584   2.754
 5426SOL    HW117177   6.153   5.591   2.655
 5426SOL    HW217178   6.052   5.616   2.780
 5427SOL     OW17179   4.931   3.801   0.594
 5427SOL    HW117180   4.912   3.828   0.500
 5427SOL    HW217181   4.849   3.760   0.634
 5428SOL     OW17182   5.627   6.982   1.954
 5428SOL    HW117183   5.558   6.984   2.027
 5428SOL    HW217184   5.695   0.033   1.970
 5429SOL     OW17185   2.589   0.802   6.265
 5429SOL    HW117186   2.634   0.777   6.351
 5429SOL    HW217187   2.550   0.894   6.274
 5430SOL     OW17188   2.112   2.636   5.666
 5430SOL    HW117189   2.108   2.726   5.623
 5430SOL    HW217190   2.203   2.597   5.654
 5431SOL     OW17191   2.862   4.331   6.430
 5431SOL    HW117192   2.805   4.301   6.354
 5431SOL    HW217193   2.865   4.431   6.432
 5432SOL     OW17194   3.878   5.378   6.754
 5432SOL    HW117195   3.841   5.288   6.729
 5432SOL    HW217196   3.804   5.437   6.785
 5433SOL     OW17197   0.830   1.228   2.825
 5433SOL    HW117198   0.908   1.209   2.884
 5433SOL    HW217199   0.862   1.255   2.734
 5434SOL     OW17200   4.119   0.703   4.455
 5434SOL    HW117201   4.110   0.603   4.457
 5434SOL    HW217202   4.070   0.743   4.532
 5435SOL     OW17203   6.544   2.567   0.660
 5435SOL    HW117204   6.540   2.564   0.760
 5435SOL    HW217205   6.462   2.613   0.625
 5436SOL     OW17206   5.650   4.437   3.648
 5436SOL    HW117207   5.703   4.521   3.636
 5436SOL    HW217208   5.590   4.446   3.728
 5437SOL     OW17209   2.775   5.069   4.750
 5437SOL    HW117210   2.774   4.969   4.752
 5437SOL    HW217211   2.856   5.102   4.799
 5438SOL     OW17212   5.928   3.683   1.845
 5438SOL    HW117213   5.903   3.624   1.768
 5438SOL    HW217214   6.015   3.654   1.883
 5439SOL     OW17215   0.520   2.704   7.015
 5439SOL    HW117216   0.455   2.733   0.065
 5439SOL    HW217217   0.488   2.734   6.925
 5440SOL     OW17218   6.869   6.690   3.627
 5440SOL    HW117219   6.936   6.616   3.630
 5440SOL    HW217220   6.785   6.661   3.674
 5441SOL     OW17221   4.906   3.288   3.759
 5441SOL    HW117222   4.989   3.331   3.723
 5441SOL    HW217223   4.905   3.192   3.731
 5442SOL     OW17224   4.033   0.102   2.700
 5442SOL    HW117225   3.954   0.041   2.714
 5442SOL    HW217226   4.020   0.186   2.752
 5443SOL     OW17227   3.956   5.530   3.724
 5443SOL    HW117228   3.881   5.552   3.786
 5443SOL    HW217229   3.975   5.609   3.665
 5444SOL     OW17230   0.415   0.773   3.163
 5444SOL    HW117231   0.416   0.675   3.184
 5444SOL    HW217232   0.508   0.806   3.155
 5445SOL     OW17233   6.250   4.432   4.149
 5445SOL    HW117234   6.348   4.441   4.132
 5445SOL    HW217235   6.202   4.513   4.115
 5446SOL     OW17236   5.895   5.466   4.715
 5446SOL    HW117237   5.843   5.438   4.797
 5446SOL    HW217238   5.862   5.414   4.636
 5447SOL     OW17239   1.722   1.519   0.635
 5447SOL    HW117240   1.705   1.487   0.728
 5447SOL    HW217241   1.758   1.613   0.638
 5448SOL     OW17242   4.795   4.677   4.014
 5448SOL    HW117243   4.832   4.763   3.979
 5448SOL    HW217244   4.757   4.623   3.939
 5449SOL     OW17245   2.181   1.653   0.417
 5449SOL    HW117246   2.189   1.749   0.445
 5449SOL    HW217247   2.233   1.595   0.479
 5450SOL     OW17248   3.588   0.565   1.341
 5450SOL    HW117249   3.547   0.570   1.250
 5450SOL    HW217250   3.667   0.503   1.339
 5451SOL     OW17251   2.085   6.363   3.375
 5451SOL    HW117252   2.053   6.454   3.403
 5451SOL    HW217253   2.104   6.363   3.277
 5452SOL     OW17254   2.601   4.185   0.826
 5452SOL    HW117255   2.536   4.214   0.897
 5452SOL    HW217256   2.555   4.184   0.737
 5453SOL     OW17257   5.302   4.520   2.387
 5453SOL    HW117258   5.324   4.455   2.314
 5453SOL    HW217259   5.210   4.556   2.373
 5454SOL     OW17260   5.120   5.863   6.750
 5454SOL    HW117261   5.117   5.890   6.654
 5454SOL    HW217262   5.180   5.926   6.800
 5455SOL     OW17263   0.143   2.474   3.491
 5455SOL    HW117264   0.201   2.543   3.534
 5455SOL    HW217265   0.053   2.474   3.535
 5456SOL     OW17266   3.391   1.049   6.779
 5456SOL    HW117267   3.399   1.148   6.776
 5456SOL    HW217268   3.330   1.018   6.706
 5457SOL     OW17269   6.441   2.050   1.326
 5457SOL    HW117270   6.389   2.113   1.384
 5457SOL    HW217271   6.465   1.968   1.378
 5458SOL     OW17272   0.119   5.536   0.331
 5458SOL    HW117273   0.069   5.602   0.387
 5458SOL    HW217274   0.117   5.565   0.235
 5459SOL     OW17275   2.547   3.924   6.112
 5459SOL    HW117276   2.567   3.994   6.044
 5459SOL    HW217277   2.457   3.941   6.152
 5460SOL     OW17278   3.213   0.309   2.959
 5460SOL    HW117279   3.219   0.210   2.973
 5460SOL    HW217280   3.140   0.346   3.016
 5461SOL     OW17281   0.191   6.990   4.893
 5461SOL    HW117282   0.095   6.983   4.921
 5461SOL    HW217283   0.209   6.925   4.818
 5462SOL     OW17284   5.627   6.216   7.016
 5462SOL    HW117285   5.614   6.117   0.002
 5462SOL    HW217286   5.697   6.236   6.948
 5463SOL     OW17287   0.513   1.727   0.034
 5463SOL    HW117288   0.592   1.786   0.015
 5463SOL    HW217289   0.521   1.690   0.126
 5464SOL     OW17290   5.695   6.484   4.953
 5464SOL    HW117291   5.649   6.453   5.036
 5464SOL    HW217292   5.715   6.581   4.961
 5465SOL     OW17293   5.868   0.389   4.023
 5465SOL    HW117294   5.872   0.289   4.014
 5465SOL    HW217295   5.833   0.413   4.113
 5466SOL     OW17296   5.232   2.512   5.808
 5466SOL    HW117297   5.193   2.604   5.822
 5466SOL    HW217298   5.162   2.453   5.769
 5467SOL     OW17299   5.857   3.647   3.239
 5467SOL    HW117300   5.849   3.719   3.171
 5467SOL    HW217301   5.781   3.653   3.304
 5468SOL     OW17302   6.008   1.944   5.028
 5468SOL    HW117303   5.919   1.949   5.075
 5468SOL    HW217304   6.050   1.856   5.048
 5469SOL     OW17305   3.305   6.382   5.263
 5469SOL    HW117306   3.344   6.466   5.301
 5469SOL    HW217307   3.309   6.309   5.332
 5470SOL     OW17308   3.346   5.286   3.710
 5470SOL    HW117309   3.431   5.339   3.706
 5470SOL    HW217310   3.353   5.216   3.781
 5471SOL     OW17311   6.856   1.021   3.455
 5471SOL    HW117312   6.825   0.961   3.381
 5471SOL    HW217313   6.778   1.051   3.509
 5472SOL     OW17314   2.853   3.857   6.565
 5472SOL    HW117315   2.920   3.850   6.492
 5472SOL    HW217316   2.899   3.851   6.654
 5473SOL     OW17317   2.085   3.155   1.534
 5473SOL    HW117318   2.149   3.089   1.495
 5473SOL    HW217319   2.135   3.224   1.586
 5474SOL     OW17320   1.186   4.809   4.693
 5474SOL    HW117321   1.278   4.841   4.670
 5474SOL    HW217322   1.192   4.719   4.735
 5475SOL     OW17323   1.786   2.515   1.066
 5475SOL    HW117324   1.814   2.465   1.147
 5475SOL    HW217325   1.809   2.462   0.984
 5476SOL     OW17326   2.132   4.529   4.917
 5476SOL    HW117327   2.126   4.518   4.818
 5476SOL    HW217328   2.059   4.590   4.948
 5477SOL     OW17329   2.032   4.258   2.791
 5477SOL    HW117330   1.938   4.239   2.822
 5477SOL    HW217331   2.041   4.356   2.771
 5478SOL     OW17332   3.844   6.889   5.245
 5478SOL    HW117333   3.790   6.805   5.247
 5478SOL    HW217334   3.931   6.873   5.291
 5479SOL     OW17335   5.549   2.205   5.471
 5479SOL    HW117336   5.456   2.181   5.501
 5479SOL    HW217337   5.547   2.230   5.374
 5480SOL     OW17338   5.561   5.632   4.435
 5480SOL    HW117339   5.475   5.679   4.420
 5480SOL    HW217340   5.544   5.540   4.469
 5481SOL     OW17341   4.351   1.273   4.364
 5481SOL    HW117342   4.390   1.279   4.456
 5481SOL    HW217343   4.323   1.364   4.333
 5482SOL     OW17344   3.689   3.544   1.879
 5482SOL    HW117345   3.594   3.518   1.863
 5482SOL    HW217346   3.708   3.631   1.833
 5483SOL     OW17347   0.496   2.214   5.317
 5483SOL    HW117348   0.596   2.217   5.319
 5483SOL    HW217349   0.465   2.162   5.237
 5484SOL     OW17350   5.245   0.666   3.385
 5484SOL    HW117351   5.338   0.641   3.357
 5484SOL    HW217352   5.187   0.585   3.383
 5485SOL     OW17353   3.602   0.013   5.439
 5485SOL    HW117354   3.529   6.988   5.491
 5485SOL    HW217355   3.666   6.964   5.406
 5486SOL     OW17356   1.364   5.358   5.441
 5486SOL    HW117357   1.417   5.320   5.365
 5486SOL    HW217358   1.281   5.303   5.454
 5487SOL     OW17359   4.574   3.207   6.613
 5487SOL    HW117360   4.487   3.254   6.596
 5487SOL    HW217361   4.588   3.137   6.543
 5488SOL     OW17362   6.404   0.833   0.838
 5488SOL    HW117363   6.370   0.742   0.813
 5488SOL    HW217364   6.470   0.864   0.770
 5489SOL     OW17365   1.150   4.589   1.265
 5489SOL    HW117366   1.057   4.579   1.302
 5489SOL    HW217367   1.145   4.628   1.174
 5490SOL     OW17368   3.118   6.968   0.344
 5490SOL    HW117369   3.207   6.932   0.317
 5490SOL    HW217370   3.098   6.941   0.438
 5491SOL     OW17371   1.780   4.199   1.051
 5491SOL    HW117372   1.825   4.214   1.139
 5491SOL    HW217373   1.725   4.279   1.027
 5492SOL     OW17374   0.280   2.398   5.931
 5492SOL    HW117375   0.186   2.377   5.903
 5492SOL    HW217376   0.331   2.312   5.940
 5493SOL     OW17377   4.078   3.835   4.482
 5493SOL    HW117378   4.132   3.835   4.398
 5493SOL    HW217379   4.020   3.917   4.484
 5494SOL     OW17380   6.331   2.508   6.025
 5494SOL    HW117381   6.323   2.598   6.067
 5494SOL    HW217382   6.376   2.445   6.088
 5495SOL     OW17383   3.582   1.704   0.819
 5495SOL    HW117384   3.648   1.708   0.744
 5495SOL    HW217385   3.489   1.708   0.783
 5496SOL     OW17386   3.229   0.127   3.389
 5496SOL    HW117387   3.157   0.068   3.352
 5496SOL    HW217388   3.225   0.126   3.489
 5497SOL     OW17389   0.646   2.170   4.058
 5497SOL    HW117390   0.680   2.077   4.046
 5497SOL    HW217391   0.693   2.213   4.135
 5498SOL     OW17392   6.004   6.359   0.755
 5498SOL    HW117393   6.077   6.411   0.711
 5498SOL    HW217394   5.919   6.412   0.753
 5499SOL     OW17395   0.147   0.664   4.911
 5499SOL    HW117396   0.144   0.726   4.990
 5499SOL    HW217397   0.199   0.707   4.837
 5500SOL     OW17398   1.142   0.882   0.353
 5500SOL    HW117399   1.169   0.789   0.326
 5500SOL    HW217400   1.077   0.918   0.287
 5501SOL     OW17401   4.037   6.439   0.198
 5501SOL    HW117402   4.038   6.402   0.105
 5501SOL    HW217403   4.051   6.538   0.195
 5502SOL     OW17404   5.188   3.697   0.292
 5502SOL    HW117405   5.108   3.660   0.245
 5502SOL    HW217406   5.271   3.666   0.246
 5503SOL     OW17407   0.783   4.911   2.561
 5503SOL    HW117408   0.710   4.854   2.598
 5503SOL    HW217409   0.872   4.869   2.582
 5504SOL     OW17410   3.998   1.122   5.424
 5504SOL    HW117411   3.987   1.218   5.398
 5504SOL    HW217412   3.936   1.065   5.369
 5505SOL     OW17413   1.658   5.282   4.143
 5505SOL    HW117414   1.611   5.195   4.129
 5505SOL    HW217415   1.640   5.342   4.065
 5506SOL     OW17416   0.945   2.344   6.095
 5506SOL    HW117417   0.949   2.373   6.000
 5506SOL    HW217418   1.034   2.305   6.121
 5507SOL     OW17419   2.880   0.379   3.773
 5507SOL    HW117420   2.930   0.462   3.748
 5507SOL    HW217421   2.944   0.312   3.812
 5508SOL     OW17422   1.146   0.767   5.984
 5508SOL    HW117423   1.153   0.867   5.993
 5508SOL    HW217424   1.086   0.732   6.056
 5509SOL     OW17425   0.612   6.575   0.077
 5509SOL    HW117426   0.707   6.545   0.086
 5509SOL    HW217427   0.598   6.658   0.130
 5510SOL     OW17428   5.543   5.408   0.708
 5510SOL    HW117429   5.468   5.349   0.739
 5510SOL    HW217430   5.602   5.430   0.785
 5511SOL     OW17431   1.695   1.606   3.766
 5511SOL    HW117432   1.648   1.518   3.766
 5511SOL    HW217433   1.729   1.625   3.858
 5512SOL     OW17434   5.579   1.772   1.729
 5512SOL    HW117435   5.678   1.759   1.731
 5512SOL    HW217436   5.540   1.720   1.653
 5513SOL     OW17437   4.440   4.938   0.087
 5513SOL    HW117438   4.423   4.972   7.014
 5513SOL    HW217439   4.470   5.013   0.146
 5514SOL     OW17440   4.237   6.798   4.055
 5514SOL    HW117441   4.278   6.707   4.057
 5514SOL    HW217442   4.142   6.792   4.087
 5515SOL     OW17443   0.492   5.466   1.696
 5515SOL    HW117444   0.454   5.485   1.605
 5515SOL    HW217445   0.484   5.547   1.753
 5516SOL     OW17446   1.840   4.423   6.628
 5516SOL    HW117447   1.749   4.453   6.657
 5516SOL    HW217448   1.834   4.380   6.538
 5517SOL     OW17449   1.776   3.463   2.170
 5517SOL    HW117450   1.714   3.467   2.091
 5517SOL    HW217451   1.801   3.555   2.198
 5518SOL     OW17452   6.524   6.069   6.104
 5518SOL    HW117453   6.579   6.124   6.166
 5518SOL    HW217454   6.574   5.985   6.081
 5519SOL     OW17455   5.563   3.412   2.933
 5519SOL    HW117456   5.479   3.377   2.892
 5519SOL    HW217457   5.609   3.472   2.868
 5520SOL     OW17458   5.595   6.027   2.128
 5520SOL    HW117459   5.496   6.018   2.140
 5520SOL    HW217460   5.642   5.997   2.211
 5521SOL     OW17461   5.351   0.068   1.510
 5521SOL    HW117462   5.426   0.083   1.446
 5521SOL    HW217463   5.385   0.023   1.593
 5522SOL     OW17464   0.277   5.369   0.470
 5522SOL    HW117465   0.228   5.438   0.417
 5522SOL    HW217466   0.374   5.371   0.445
 5523SOL     OW17467   3.300   0.684   2.008
 5523SOL    HW117468   3.323   0.614   2.076
 5523SOL    HW217469   3.344   0.662   1.921
 5524SOL     OW17470   5.426   6.112   5.673
 5524SOL    HW117471   5.456   6.172   5.748
 5524SOL    HW217472   5.333   6.137   5.646
 5525SOL     OW17473   0.386   2.529   0.844
 5525SOL    HW117474   0.450   2.542   0.920
 5525SOL    HW217475   0.317   2.462   0.871
 5526SOL     OW17476   5.009   5.042   3.902
 5526SOL    HW117477   5.022   4.965   3.965
 5526SOL    HW217478   4.929   5.024   3.844
 5527SOL     OW17479   5.206   3.848   3.883
 5527SOL    HW117480   5.266   3.888   3.813
 5527SOL    HW217481   5.234   3.753   3.900
 5528SOL     OW17482   0.914   0.947   6.608
 5528SOL    HW117483   1.001   0.991   6.628
 5528SOL    HW217484   0.923   0.848   6.620
 5529SOL     OW17485   2.845   0.229   2.873
 5529SOL    HW117486   2.794   0.152   2.911
 5529SOL    HW217487   2.853   0.301   2.941
 5530SOL     OW17488   5.622   2.103   1.986
 5530SOL    HW117489   5.660   2.176   1.930
 5530SOL    HW217490   5.617   2.133   2.081
 5531SOL     OW17491   3.023   3.056   2.461
 5531SOL    HW117492   3.036   3.003   2.377
 5531SOL    HW217493   3.083   3.021   2.533
 5532SOL     OW17494   1.241   2.992   0.083
 5532SOL    HW117495   1.287   2.978   7.015
 5532SOL    HW217496   1.178   2.916   0.100
 5533SOL     OW17497   3.769   1.434   3.209
 5533SOL    HW117498   3.766   1.336   3.229
 5533SOL    HW217499   3.686   1.460   3.158
 5534SOL     OW17500   0.620   1.727   6.162
 5534SOL    HW117501   0.660   1.656   6.221
 5534SOL    HW217502   0.526   1.744   6.189
 5535SOL     OW17503   6.901   2.925   3.367
 5535SOL    HW117504   6.933   2.932   3.461
 5535SOL    HW217505   6.965   2.974   3.306
 5536SOL     OW17506   3.027   1.208   4.181
 5536SOL    HW117507   3.121   1.210   4.146
 5536SOL    HW217508   2.987   1.117   4.164
 5537SOL     OW17509   2.783   0.617   2.482
 5537SOL    HW117510   2.735   0.534   2.452
 5537SOL    HW217511   2.862   0.591   2.537
 5538SOL     OW17512   2.212   6.244   5.480
 5538SOL    HW117513   2.233   6.313   5.411
 5538SOL    HW217514   2.289   6.237   5.544
 5539SOL     OW17515   1.522   3.122   1.309
 5539SOL    HW117516   1.448   3.098   1.247
 5539SOL    HW217517   1.605   3.072   1.282
 5540SOL     OW17518   5.347   3.988   3.691
 5540SOL    HW117519   5.439   4.003   3.728
 5540SOL    HW217520   5.354   3.947   3.601
 5541SOL     OW17521   6.103   0.015   6.198
 5541SOL    HW117522   6.095   0.057   6.288
 5541SOL    HW217523   6.153   0.077   6.137
 5542SOL     OW17524   5.679   3.707   5.853
 5542SOL    HW117525   5.762   3.763   5.844
 5542SOL    HW217526   5.599   3.767   5.861
 5543SOL     OW17527   3.799   5.005   5.705
 5543SOL    HW117528   3.797   4.907   5.727
 5543SOL    HW217529   3.841   5.018   5.615
 5544SOL     OW17530   5.544   6.269   6.400
 5544SOL    HW117531   5.540   6.344   6.334
 5544SOL    HW217532   5.572   6.185   6.353
 5545SOL     OW17533   3.758   1.467   1.635
 5545SOL    HW117534   3.799   1.555   1.613
 5545SOL    HW217535   3.804   1.429   1.716
 5546SOL     OW17536   1.116   5.063   4.535
 5546SOL    HW117537   1.095   4.965   4.529
 5546SOL    HW217538   1.079   5.100   4.621
 5547SOL     OW17539   2.450   0.175   4.684
 5547SOL    HW117540   2.352   0.161   4.675
 5547SOL    HW217541   2.499   0.106   4.631
 5548SOL     OW17542   5.372   3.084   5.727
 5548SOL    HW117543   5.340   3.157   5.666
 5548SOL    HW217544   5.336   2.996   5.695
 5549SOL     OW17545   4.406   3.420   6.514
 5549SOL    HW117546   4.335   3.490   6.527
 5549SOL    HW217547   4.485   3.460   6.468
 5550SOL     OW17548   2.359   4.305   2.071
 5550SOL    HW117549   2.316   4.221   2.103
 5550SOL    HW217550   2.371   4.302   1.972
 5551SOL     OW17551   2.147   0.125   3.362
 5551SOL    HW117552   2.104   0.082   3.283
 5551SOL    HW217553   2.146   0.225   3.351
 5552SOL     OW17554   6.986   0.598   6.912
 5552SOL    HW117555   0.013   0.573   6.997
 5552SOL    HW217556   0.033   0.603   6.838
 5553SOL     OW17557   4.763   6.750   6.879
 5553SOL    HW117558   4.838   6.743   6.813
 5553SOL    HW217559   4.716   6.662   6.885
 5554SOL     OW17560   3.923   1.926   5.735
 5554SOL    HW117561   3.853   1.989   5.769
 5554SOL    HW217562   3.882   1.837   5.717
 5555SOL     OW17563   1.850   4.457   4.121
 5555SOL    HW117564   1.770   4.492   4.072
 5555SOL    HW217565   1.835   4.362   4.147
 5556SOL     OW17566   6.520   1.902   3.795
 5556SOL    HW117567   6.474   1.921   3.881
 5556SOL    HW217568   6.602   1.848   3.812
 5557SOL     OW17569   3.875   6.475   2.568
 5557SOL    HW117570   3.912   6.529   2.644
 5557SOL    HW217571   3.872   6.532   2.486
 5558SOL     OW17572   4.468   3.321   5.943
 5558SOL    HW117573   4.548   3.298   5.998
 5558SOL    HW217574   4.462   3.258   5.865
 5559SOL     OW17575   2.958   0.625   2.216
 5559SOL    HW117576   2.990   0.717   2.197
 5559SOL    HW217577   2.882   0.602   2.156
 5560SOL     OW17578   1.481   6.893   3.752
 5560SOL    HW117579   1.392   6.938   3.761
 5560SOL    HW217580   1.494   6.830   3.828
 5561SOL     OW17581   1.594   2.480   4.232
 5561SOL    HW117582   1.497   2.481   4.255
 5561SOL    HW217583   1.618   2.391   4.193
 5562SOL     OW17584   3.112   1.947   6.912
 5562SOL    HW117585   3.046   1.942   6.987
 5562SOL    HW217586   3.204   1.951   6.949
 5563SOL     OW17587   4.222   5.226   2.738
 5563SOL    HW117588   4.149   5.191   2.797
 5563SOL    HW217589   4.234   5.324   2.753
 5564SOL     OW17590   4.722   0.791   1.975
 5564SOL    HW117591   4.797   0.857   1.977
 5564SOL    HW217592   4.672   0.794   2.061
 5565SOL     OW17593   4.762   1.986   6.653
 5565SOL    HW117594   4.729   1.892   6.646
 5565SOL    HW217595   4.839   1.990   6.716
 5566SOL     OW17596   1.819   5.960   0.138
 5566SOL    HW117597   1.871   6.037   0.176
 5566SOL    HW217598   1.777   5.909   0.213
 5567SOL     OW17599   0.120   4.283   1.820
 5567SOL    HW117600   0.053   4.230   1.767
 5567SOL    HW217601   0.165   4.349   1.760
 5568SOL     OW17602   4.327   2.264   3.369
 5568SOL    HW117603   4.333   2.265   3.269
 5568SOL    HW217604   4.232   2.261   3.397
 5569SOL     OW17605   2.466   1.532   2.613
 5569SOL    HW117606   2.457   1.618   2.563
 5569SOL    HW217607   2.409   1.536   2.696
 5570SOL     OW17608   5.914   4.736   5.042
 5570SOL    HW117609   5.847   4.772   5.106
 5570SOL    HW217610   5.883   4.753   4.948
 5571SOL     OW17611   0.371   6.027   0.861
 5571SOL    HW117612   0.280   6.066   0.872
 5571SOL    HW217613   0.386   5.957   0.930
 5572SOL     OW17614   1.441   2.449   4.829
 5572SOL    HW117615   1.527   2.419   4.787
 5572SOL    HW217616   1.455   2.466   4.926
 5573SOL     OW17617   1.901   3.541   6.757
 5573SOL    HW117618   1.942   3.582   6.675
 5573SOL    HW217619   1.886   3.443   6.742
 5574SOL     OW17620   6.030   2.077   3.765
 5574SOL    HW117621   6.003   1.981   3.767
 5574SOL    HW217622   6.100   2.093   3.835
 5575SOL     OW17623   0.053   1.475   1.469
 5575SOL    HW117624   0.089   1.382   1.482
 5575SOL    HW217625   0.126   1.534   1.435
 5576SOL     OW17626   1.108   6.310   2.174
 5576SOL    HW117627   1.179   6.316   2.105
 5576SOL    HW217628   1.019   6.299   2.130
 5577SOL     OW17629   2.904   2.643   5.620
 5577SOL    HW117630   2.861   2.572   5.676
 5577SOL    HW217631   2.867   2.638   5.527
 5578SOL     OW17632   3.798   4.477   0.567
 5578SOL    HW117633   3.788   4.459   0.469
 5578SOL    HW217634   3.709   4.470   0.612
 5579SOL     OW17635   6.958   3.425   6.313
 5579SOL    HW117636   6.964   3.521   6.341
 5579SOL    HW217637   0.015   3.374   6.351
 5580SOL     OW17638   4.081   2.515   5.801
 5580SOL    HW117639   4.060   2.452   5.876
 5580SOL    HW217640   3.998   2.535   5.749
 5581SOL     OW17641   2.747   6.567   1.789
 5581SOL    HW117642   2.679   6.640   1.796
 5581SOL    HW217643   2.744   6.510   1.871
 5582SOL     OW17644   3.840   3.365   3.549
 5582SOL    HW117645   3.798   3.394   3.463
 5582SOL    HW217646   3.931   3.407   3.558
 5583SOL     OW17647   4.619   7.005   2.766
 5583SOL    HW117648   4.698   6.944   2.769
 5583SOL    HW217649   4.545   6.968   2.821
 5584SOL     OW17650   5.734   4.124   4.209
 5584SOL    HW117651   5.797   4.047   4.213
 5584SOL    HW217652   5.640   4.090   4.200
 5585SOL     OW17653   4.357   6.574   4.172
 5585SOL    HW117654   4.310   6.487   4.185
 5585SOL    HW217655   4.397   6.604   4.259
 5586SOL     OW17656   0.665   2.344   6.606
 5586SOL    HW117657   0.587   2.385   6.557
 5586SOL    HW217658   0.734   2.315   6.539
 5587SOL     OW17659   4.328   6.150   2.794
 5587SOL    HW117660   4.393   6.206   2.845
 5587SOL    HW217661   4.281   6.207   2.726
 5588SOL     OW17662   1.683   6.842   2.936
 5588SOL    HW117663   1.622   6.765   2.952
 5588SOL    HW217664   1.718   6.838   2.842
 5589SOL     OW17665   5.754   2.330   6.783
 5589SOL    HW117666   5.738   2.259   6.715
 5589SOL    HW217667   5.849   2.324   6.816
 5590SOL     OW17668   6.639   6.077   3.450
 5590SOL    HW117669   6.647   5.979   3.433
 5590SOL    HW217670   6.696   6.128   3.385
 5591SOL     OW17671   6.096   1.328   6.374
 5591SOL    HW117672   6.103   1.245   6.319
 5591SOL    HW217673   6.009   1.373   6.356
 5592SOL     OW17674   0.912   4.153   2.701
 5592SOL    HW117675   0.928   4.132   2.604
 5592SOL    HW217676   1.000   4.165   2.748
 5593SOL     OW17677   6.642   2.522   5.973
 5593SOL    HW117678   6.610   2.468   6.051
 5593SOL    HW217679   6.673   2.612   6.005
 5594SOL     OW17680   2.595   0.957   6.987
 5594SOL    HW117681   2.680   0.959   0.021
 5594SOL    HW217682   2.618   0.959   6.890
 5595SOL     OW17683   6.306   0.749   5.088
 5595SOL    HW117684   6.372   0.809   5.134
 5595SOL    HW217685   6.312   0.764   4.989
 5596SOL     OW17686   5.069   0.608   2.511
 5596SOL    HW117687   5.014   0.675   2.462
 5596SOL    HW217688   5.026   0.587   2.599
 5597SOL     OW17689   5.841   1.681   5.743
 5597SOL    HW117690   5.861   1.654   5.648
 5597SOL    HW217691   5.834   1.781   5.748
 5598SOL     OW17692   5.529   2.290   3.978
 5598SOL    HW117693   5.602   2.265   3.915
 5598SOL    HW217694   5.568   2.306   4.069
 5599SOL     OW17695   6.463   2.922   1.993
 5599SOL    HW117696   6.552   2.907   1.950
 5599SOL    HW217697   6.391   2.891   1.931
 5600SOL     OW17698   2.045   0.553   2.168
 5600SOL    HW117699   1.963   0.608   2.152
 5600SOL    HW217700   2.026   0.484   2.238
 5601SOL     OW17701   3.856   1.633   6.488
 5601SOL    HW117702   3.841   1.539   6.517
 5601SOL    HW217703   3.912   1.635   6.406
 5602SOL     OW17704   0.735   0.298   2.534
 5602SOL    HW117705   0.723   0.228   2.463
 5602SOL    HW217706   0.646   0.326   2.570
 5603SOL     OW17707   5.298   2.078   5.812
 5603SOL    HW117708   5.198   2.081   5.818
 5603SOL    HW217709   5.325   2.005   5.749
 5604SOL     OW17710   0.202   2.228   5.202
 5604SOL    HW117711   0.107   2.232   5.232
 5604SOL    HW217712   0.258   2.286   5.261
 5605SOL     OW17713   1.995   6.961   4.475
 5605SOL    HW117714   2.011   6.951   4.377
 5605SOL    HW217715   2.026   6.879   4.523
 5606SOL     OW17716   5.014   0.853   0.294
 5606SOL    HW117717   5.090   0.905   0.333
 5606SOL    HW217718   4.982   0.786   0.360
 5607SOL     OW17719   5.271   1.670   3.641
 5607SOL    HW117720   5.190   1.611   3.651
 5607SOL    HW217721   5.244   1.765   3.654
 5608SOL     OW17722   5.892   1.555   2.855
 5608SOL    HW117723   5.863   1.596   2.941
 5608SOL    HW217724   5.837   1.592   2.780
 5609SOL     OW17725   4.894   5.622   0.845
 5609SOL    HW117726   4.841   5.539   0.863
 5609SOL    HW217727   4.949   5.644   0.925
 5610SOL     OW17728   5.685   4.323   1.510
 5610SOL    HW117729   5.763   4.314   1.449
 5610SOL    HW217730   5.604   4.284   1.466
 5611SOL     OW17731   0.694   4.824   2.154
 5611SOL    HW117732   0.680   4.922   2.171
 5611SOL    HW217733   0.670   4.772   2.235
 5612SOL     OW17734   3.949   3.028   0.386
 5612SOL    HW117735   3.851   3.034   0.371
 5612SOL    HW217736   3.997   3.067   0.307
 5613SOL     OW17737   5.902   5.047   5.319
 5613SOL    HW117738   5.952   4.964   5.343
 5613SOL    HW217739   5.874   5.042   5.223
 5614SOL     OW17740   5.976   3.334   4.997
 5614SOL    HW117741   5.928   3.274   5.061
 5614SOL    HW217742   5.981   3.290   4.907
 5615SOL     OW17743   6.635   1.674   3.473
 5615SOL    HW117744   6.660   1.767   3.445
 5615SOL    HW217745   6.546   1.676   3.518
 5616SOL     OW17746   2.157   3.044   4.858
 5616SOL    HW117747   2.157   3.132   4.811
 5616SOL    HW217748   2.226   3.046   4.931
 5617SOL     OW17749   1.271   3.969   5.137
 5617SOL    HW117750   1.343   3.933   5.196
 5617SOL    HW217751   1.192   3.909   5.139
 5618SOL     OW17752   6.727   4.501   3.383
 5618SOL    HW117753   6.777   4.459   3.459
 5618SOL    HW217754   6.665   4.434   3.342
 5619SOL     OW17755   3.266   3.817   3.297
 5619SOL    HW117756   3.299   3.736   3.345
 5619SOL    HW217757   3.238   3.886   3.364
 5620SOL     OW17758   4.537   3.942   6.569
 5620SOL    HW117759   4.462   3.897   6.520
 5620SOL    HW217760   4.526   4.041   6.565
 5621SOL     OW17761   1.458   3.505   6.151
 5621SOL    HW117762   1.369   3.496   6.195
 5621SOL    HW217763   1.530   3.480   6.216
 5622SOL     OW17764   4.932   6.557   5.829
 5622SOL    HW117765   4.973   6.523   5.914
 5622SOL    HW217766   4.985   6.525   5.751
 5623SOL     OW17767   4.866   6.248   5.192
 5623SOL    HW117768   4.959   6.215   5.176
 5623SOL    HW217769   4.807   6.220   5.117
 5624SOL     OW17770   0.644   5.043   3.711
 5624SOL    HW117771   0.683   5.046   3.618
 5624SOL    HW217772   0.642   4.948   3.743
 5625SOL     OW17773   0.177   5.392   5.298
 5625SOL    HW117774   0.100   5.375   5.359
 5625SOL    HW217775   0.170   5.484   5.259
 5626SOL     OW17776   2.631   5.725   3.808
 5626SOL    HW117777   2.600   5.631   3.822
 5626SOL    HW217778   2.561   5.788   3.841
 5627SOL     OW17779   0.061   4.780   5.947
 5627SOL    HW117780   7.018   4.797   6.023
 5627SOL    HW217781   0.021   4.813   5.862
 5628SOL     OW17782   2.572   2.333   1.132
 5628SOL    HW117783   2.576   2.302   1.037
 5628SOL    HW217784   2.554   2.254   1.191
 5629SOL     OW17785   5.145   2.758   1.993
 5629SOL    HW117786   5.105   2.720   2.076
 5629SOL    HW217787   5.088   2.833   1.959
 5630SOL     OW17788   1.757   4.093   6.680
 5630SOL    HW117789   1.763   4.174   6.622
 5630SOL    HW217790   1.809   4.110   6.765
 5631SOL     OW17791   5.413   1.319   1.039
 5631SOL    HW117792   5.460   1.403   1.068
 5631SOL    HW217793   5.479   1.244   1.032
 5632SOL     OW17794   4.055   1.979   5.399
 5632SOL    HW117795   4.056   1.880   5.391
 5632SOL    HW217796   3.964   2.010   5.424
 5633SOL     OW17797   5.942   4.472   4.841
 5633SOL    HW117798   5.939   4.377   4.808
 5633SOL    HW217799   5.849   4.503   4.859
 5634SOL     OW17800   2.263   4.960   4.056
 5634SOL    HW117801   2.202   5.028   4.096
 5634SOL    HW217802   2.296   4.898   4.128
 5635SOL     OW17803   2.064   6.109   6.507
 5635SOL    HW117804   2.048   6.084   6.411
 5635SOL    HW217805   2.025   6.200   6.524
 5636SOL     OW17806   5.800   0.176   5.237
 5636SOL    HW117807   5.887   0.133   5.259
 5636SOL    HW217808   5.787   0.178   5.138
 5637SOL     OW17809   3.164   6.819   3.659
 5637SOL    HW117810   3.079   6.785   3.618
 5637SOL    HW217811   3.220   6.741   3.687
 5638SOL     OW17812   6.159   4.378   1.022
 5638SOL    HW117813   6.147   4.444   1.097
 5638SOL    HW217814   6.156   4.427   0.934
 5639SOL     OW17815   2.412   0.354   1.876
 5639SOL    HW117816   2.434   0.437   1.825
 5639SOL    HW217817   2.353   0.377   1.953
 5640SOL     OW17818   3.068   0.774   2.774
 5640SOL    HW117819   3.149   0.729   2.809
 5640SOL    HW217820   3.095   0.856   2.723
 5641SOL     OW17821   0.314   4.703   6.016
 5641SOL    HW117822   0.223   4.704   5.974
 5641SOL    HW217823   0.311   4.759   6.099
 5642SOL     OW17824   0.994   5.177   4.961
 5642SOL    HW117825   1.082   5.187   4.915
 5642SOL    HW217826   0.922   5.220   4.906
 5643SOL     OW17827   3.745   1.326   4.303
 5643SOL    HW117828   3.754   1.425   4.293
 5643SOL    HW217829   3.797   1.296   4.383
 5644SOL     OW17830   3.741   0.392   4.068
 5644SOL    HW117831   3.745   0.486   4.035
 5644SOL    HW217832   3.647   0.369   4.093
 5645SOL     OW17833   6.050   4.487   3.160
 5645SOL    HW117834   6.031   4.578   3.198
 5645SOL    HW217835   6.124   4.493   3.094
 5646SOL     OW17836   1.063   6.036   3.025
 5646SOL    HW117837   1.060   6.109   2.957
 5646SOL    HW217838   0.971   6.018   3.060
 5647SOL     OW17839   5.799   6.518   0.692
 5647SOL    HW117840   5.815   6.506   0.594
 5647SOL    HW217841   5.748   6.602   0.707
 5648SOL     OW17842   1.953   1.523   3.373
 5648SOL    HW117843   1.915   1.616   3.377
 5648SOL    HW217844   2.048   1.525   3.403
 5649SOL     OW17845   6.594   6.539   5.374
 5649SOL    HW117846   6.529   6.474   5.336
 5649SOL    HW217847   6.545   6.608   5.427
 5650SOL     OW17848   0.819   5.526   1.037
 5650SOL    HW117849   0.889   5.466   1.076
 5650SOL    HW217850   0.805   5.605   1.096
 5651SOL     OW17851   0.260   1.253   1.485
 5651SOL    HW117852   0.228   1.165   1.449
 5651SOL    HW217853   0.276   1.245   1.584
 5652SOL     OW17854   5.911   6.907   1.654
 5652SOL    HW117855   5.961   6.883   1.737
 5652SOL    HW217856   5.872   6.999   1.664
 5653SOL     OW17857   0.642   5.775   6.711
 5653SOL    HW117858   0.579   5.749   6.783
 5653SOL    HW217859   0.686   5.694   6.673
 5654SOL     OW17860   6.499   6.319   5.555
 5654SOL    HW117861   6.433   6.391   5.577
 5654SOL    HW217862   6.583   6.333   5.608
 5655SOL     OW17863   1.642   3.679   5.214
 5655SOL    HW117864   1.639   3.720   5.122
 5655SOL    HW217865   1.737   3.653   5.235
 5656SOL     OW17866   0.794   3.091   0.816
 5656SOL    HW117867   0.763   3.014   0.760
 5656SOL    HW217868   0.894   3.095   0.815
 5657SOL     OW17869   5.674   0.924   0.371
 5657SOL    HW117870   5.606   0.997   0.381
 5657SOL    HW217871   5.713   0.902   0.460
 5658SOL     OW17872   3.724   5.358   5.816
 5658SOL    HW117873   3.636   5.319   5.789
 5658SOL    HW217874   3.798   5.302   5.781
 5659SOL     OW17875   4.072   3.549   3.525
 5659SOL    HW117876   4.079   3.588   3.433
 5659SOL    HW217877   4.085   3.620   3.593
 5660SOL     OW17878   5.744   6.988   5.452
 5660SOL    HW117879   5.692   7.018   5.532
 5660SOL    HW217880   5.712   0.018   5.371
 5661SOL     OW17881   1.162   4.561   4.778
 5661SOL    HW117882   1.139   4.556   4.875
 5661SOL    HW217883   1.177   4.468   4.743
 5662SOL     OW17884   3.277   5.549   3.484
 5662SOL    HW117885   3.308   5.502   3.567
 5662SOL    HW217886   3.346   5.536   3.412
 5663SOL     OW17887   2.355   3.060   6.818
 5663SOL    HW117888   2.352   3.111   6.905
 5663SOL    HW217889   2.448   3.026   6.803
 5664SOL     OW17890   6.719   4.061   4.513
 5664SOL    HW117891   6.793   4.006   4.474
 5664SOL    HW217892   6.672   4.111   4.441
 5665SOL     OW17893   1.364   2.540   6.843
 5665SOL    HW117894   1.342   2.456   6.892
 5665SOL    HW217895   1.448   2.579   6.880
 5666SOL     OW17896   5.871   5.597   1.396
 5666SOL    HW117897   5.813   5.662   1.446
 5666SOL    HW217898   5.967   5.611   1.421
 5667SOL     OW17899   0.992   4.566   3.360
 5667SOL    HW117900   1.036   4.634   3.301
 5667SOL    HW217901   1.062   4.518   3.414
 5668SOL     OW17902   5.020   2.262   5.435
 5668SOL    HW117903   5.019   2.179   5.379
 5668SOL    HW217904   5.000   2.341   5.377
 5669SOL     OW17905   0.774   2.804   0.025
 5669SOL    HW117906   0.814   2.803   6.953
 5669SOL    HW217907   0.684   2.760   0.022
 5670SOL     OW17908   6.388   2.607   3.751
 5670SOL    HW117909   6.416   2.686   3.804
 5670SOL    HW217910   6.288   2.600   3.751
 5671SOL     OW17911   0.488   5.578   0.080
 5671SOL    HW117912   0.480   5.638   0.160
 5671SOL    HW217913   0.461   5.629   7.018
 5672SOL     OW17914   4.164   5.159   6.542
 5672SOL    HW117915   4.260   5.149   6.567
 5672SOL    HW217916   4.137   5.255   6.554
 5673SOL     OW17917   1.058   6.786   1.934
 5673SOL    HW117918   0.984   6.794   2.001
 5673SOL    HW217919   1.144   6.818   1.975
 5674SOL     OW17920   0.129   4.832   4.539
 5674SOL    HW117921   0.096   4.913   4.587
 5674SOL    HW217922   0.106   4.750   4.592
 5675SOL     OW17923   4.609   2.043   5.500
 5675SOL    HW117924   4.527   1.985   5.499
 5675SOL    HW217925   4.640   2.058   5.407
 5676SOL     OW17926   2.215   2.673   2.391
 5676SOL    HW117927   2.209   2.656   2.292
 5676SOL    HW217928   2.286   2.616   2.431
 5677SOL     OW17929   0.552   1.276   2.977
 5677SOL    HW117930   0.504   1.356   3.014
 5677SOL    HW217931   0.543   1.275   2.878
 5678SOL     OW17932   3.514   6.381   2.932
 5678SOL    HW117933   3.587   6.333   2.981
 5678SOL    HW217934   3.496   6.468   2.977
 5679SOL     OW17935   0.951   1.039   4.125
 5679SOL    HW117936   0.913   1.007   4.212
 5679SOL    HW217937   0.961   0.962   4.062
 5680SOL     OW17938   1.373   5.191   0.226
 5680SOL    HW117939   1.344   5.266   0.286
 5680SOL    HW217940   1.337   5.105   0.260
 5681SOL     OW17941   0.345   4.412   0.033
 5681SOL    HW117942   0.305   4.478   6.990
 5681SOL    HW217943   0.296   4.325   0.027
 5682SOL     OW17944   2.243   4.503   6.240
 5682SOL    HW117945   2.213   4.456   6.323
 5682SOL    HW217946   2.183   4.480   6.164
 5683SOL     OW17947   3.904   0.793   0.364
 5683SOL    HW117948   3.985   0.735   0.356
 5683SOL    HW217949   3.871   0.818   0.274
 5684SOL     OW17950   3.115   3.042   4.723
 5684SOL    HW117951   3.070   3.079   4.804
 5684SOL    HW217952   3.190   2.982   4.751
 5685SOL     OW17953   1.864   3.253   2.583
 5685SOL    HW117954   1.936   3.183   2.585
 5685SOL    HW217955   1.808   3.240   2.501
 5686SOL     OW17956   2.859   0.200   6.289
 5686SOL    HW117957   2.797   0.236   6.219
 5686SOL    HW217958   2.948   0.246   6.282
 5687SOL     OW17959   0.633   4.246   6.087
 5687SOL    HW117960   0.673   4.201   6.008
 5687SOL    HW217961   0.550   4.295   6.060
 5688SOL     OW17962   0.497   2.186   0.228
 5688SOL    HW117963   0.419   2.242   0.198
 5688SOL    HW217964   0.472   2.089   0.222
 5689SOL     OW17965   4.564   1.008   0.736
 5689SOL    HW117966   4.496   0.999   0.664
 5689SOL    HW217967   4.644   1.056   0.701
 5690SOL     OW17968   2.567   6.253   0.890
 5690SOL    HW117969   2.667   6.256   0.883
 5690SOL    HW217970   2.530   6.339   0.853
 5691SOL     OW17971   2.675   6.697   2.137
 5691SOL    HW117972   2.768   6.732   2.147
 5691SOL    HW217973   2.611   6.774   2.129
 5692SOL     OW17974   6.608   2.810   6.896
 5692SOL    HW117975   6.581   2.899   6.933
 5692SOL    HW217976   6.700   2.817   6.857
 5693SOL     OW17977   5.792   2.325   2.744
 5693SOL    HW117978   5.860   2.389   2.781
 5693SOL    HW217979   5.733   2.373   2.679
 5694SOL     OW17980   1.089   2.210   4.077
 5694SOL    HW117981   1.050   2.139   4.019
 5694SOL    HW217982   1.059   2.198   4.171
 5695SOL     OW17983   0.885   2.502   3.094
 5695SOL    HW117984   0.985   2.498   3.097
 5695SOL    HW217985   0.853   2.581   3.146
 5696SOL     OW17986   1.409   0.987   2.964
 5696SOL    HW117987   1.473   1.033   2.902
 5696SOL    HW217988   1.461   0.938   3.034
 5697SOL     OW17989   5.988   2.220   1.877
 5697SOL    HW117990   6.046   2.177   1.946
 5697SOL    HW217991   5.908   2.261   1.921
 5698SOL     OW17992   0.309   3.452   3.211
 5698SOL    HW117993   0.282   3.547   3.227
 5698SOL    HW217994   0.396   3.433   3.256
 5699SOL     OW17995   6.541   2.615   2.952
 5699SOL    HW117996   6.506   2.620   2.859
 5699SOL    HW217997   6.625   2.560   2.953
 5700SOL     OW17998   6.593   6.149   4.503
 5700SOL    HW117999   6.621   6.245   4.508
 5700SOL    HW218000   6.517   6.133   4.567
 5701SOL     OW18001   1.603   0.198   3.009
 5701SOL    HW118002   1.642   0.267   2.947
 5701SOL    HW218003   1.521   0.159   2.966
 5702SOL     OW18004   2.489   6.206   5.651
 5702SOL    HW118005   2.498   6.121   5.703
 5702SOL    HW218006   2.506   6.188   5.554
 5703SOL     OW18007   5.936   4.598   1.829
 5703SOL    HW118008   5.971   4.671   1.771
 5703SOL    HW218009   5.999   4.583   1.906
 5704SOL     OW18010   4.025   5.055   2.279
 5704SOL    HW118011   4.007   4.957   2.271
 5704SOL    HW218012   4.009   5.099   2.191
 5705SOL     OW18013   4.815   0.723   1.362
 5705SOL    HW118014   4.852   0.631   1.346
 5705SOL    HW218015   4.749   0.720   1.438
 5706SOL     OW18016   6.722   3.155   0.417
 5706SOL    HW118017   6.800   3.215   0.437
 5706SOL    HW218018   6.714   3.087   0.491
 5707SOL     OW18019   6.901   6.820   0.679
 5707SOL    HW118020   6.934   6.738   0.726
 5707SOL    HW218021   6.918   6.812   0.581
 5708SOL     OW18022   4.829   6.123   1.091
 5708SOL    HW118023   4.928   6.128   1.104
 5708SOL    HW218024   4.788   6.212   1.112
 5709SOL     OW18025   1.610   0.442   2.852
 5709SOL    HW118026   1.636   0.525   2.901
 5709SOL    HW218027   1.525   0.459   2.802
 5710SOL     OW18028   2.719   3.175   6.701
 5710SOL    HW118029   2.673   3.086   6.697
 5710SOL    HW218030   2.654   3.245   6.733
 5711SOL     OW18031   5.072   1.432   2.875
 5711SOL    HW118032   5.094   1.387   2.961
 5711SOL    HW218033   5.002   1.379   2.826
 5712SOL     OW18034   1.034   5.914   6.096
 5712SOL    HW118035   0.972   5.894   6.172
 5712SOL    HW218036   1.099   5.839   6.085
 5713SOL     OW18037   2.657   3.082   1.706
 5713SOL    HW118038   2.684   3.170   1.744
 5713SOL    HW218039   2.738   3.024   1.697
 5714SOL     OW18040   0.921   5.659   6.768
 5714SOL    HW118041   0.844   5.600   6.744
 5714SOL    HW218042   0.888   5.738   6.819
 5715SOL     OW18043   0.837   6.798   3.395
 5715SOL    HW118044   0.753   6.745   3.389
 5715SOL    HW218045   0.916   6.737   3.402
 5716SOL     OW18046   1.612   3.970   0.102
 5716SOL    HW118047   1.698   3.933   0.139
 5716SOL    HW218048   1.633   4.045   0.039
 5717SOL     OW18049   1.461   6.030   1.177
 5717SOL    HW118050   1.389   6.068   1.236
 5717SOL    HW218051   1.530   6.101   1.161
 5718SOL     OW18052   1.064   2.829   5.705
 5718SOL    HW118053   1.100   2.858   5.793
 5718SOL    HW218054   1.139   2.828   5.638
 5719SOL     OW18055   2.969   1.163   5.986
 5719SOL    HW118056   2.956   1.067   6.013
 5719SOL    HW218057   2.985   1.218   6.068
 5720SOL     OW18058   1.609   5.422   3.917
 5720SOL    HW118059   1.608   5.521   3.905
 5720SOL    HW218060   1.516   5.388   3.924
 5721SOL     OW18061   0.364   3.998   1.300
 5721SOL    HW118062   0.401   3.916   1.256
 5721SOL    HW218063   0.264   3.991   1.306
 5722SOL     OW18064   6.349   1.334   5.498
 5722SOL    HW118065   6.394   1.356   5.584
 5722SOL    HW218066   6.253   1.312   5.515
 5723SOL     OW18067   4.626   3.548   6.985
 5723SOL    HW118068   4.626   3.479   6.912
 5723SOL    HW218069   4.563   3.520   0.037
 5724SOL     OW18070   4.637   2.553   5.174
 5724SOL    HW118071   4.577   2.485   5.217
 5724SOL    HW218072   4.650   2.531   5.078
 5725SOL     OW18073   5.905   5.542   3.539
 5725SOL    HW118074   5.853   5.477   3.595
 5725SOL    HW218075   5.971   5.491   3.484
 5726SOL     OW18076   0.115   4.908   4.909
 5726SOL    HW118077   0.041   4.862   4.859
 5726SOL    HW218078   0.180   4.840   4.942
 5727SOL     OW18079   0.162   2.229   3.862
 5727SOL    HW118080   0.161   2.141   3.908
 5727SOL    HW218081   0.229   2.228   3.788
 5728SOL     OW18082   4.230   1.500   6.316
 5728SOL    HW118083   4.273   1.476   6.229
 5728SOL    HW218084   4.135   1.527   6.300
 5729SOL     OW18085   0.820   1.564   0.468
 5729SOL    HW118086   0.903   1.593   0.516
 5729SOL    HW218087   0.821   1.464   0.457
 5730SOL     OW18088   4.555   5.086   5.897
 5730SOL    HW118089   4.487   5.023   5.861
 5730SOL    HW218090   4.592   5.050   5.983
 5731SOL     OW18091   1.104   6.527   4.166
 5731SOL    HW118092   1.165   6.578   4.106
 5731SOL    HW218093   1.109   6.429   4.142
 5732SOL     OW18094   6.697   4.970   4.965
 5732SOL    HW118095   6.638   4.908   5.018
 5732SOL    HW218096   6.640   5.027   4.906
 5733SOL     OW18097   3.384   0.206   5.243
 5733SOL    HW118098   3.365   0.110   5.222
 5733SOL    HW218099   3.341   0.265   5.174
 5734SOL     OW18100   0.918   6.165   6.115
 5734SOL    HW118101   0.832   6.161   6.164
 5734SOL    HW218102   0.955   6.072   6.105
 5735SOL     OW18103   3.992   1.928   2.304
 5735SOL    HW118104   3.927   2.004   2.308
 5735SOL    HW218105   4.085   1.963   2.314
 5736SOL     OW18106   5.996   3.934   0.497
 5736SOL    HW118107   5.899   3.935   0.522
 5736SOL    HW218108   6.042   4.012   0.539
 5737SOL     OW18109   4.586   5.722   0.210
 5737SOL    HW118110   4.592   5.687   0.116
 5737SOL    HW218111   4.634   5.810   0.216
 5738SOL     OW18112   2.779   2.813   6.352
 5738SOL    HW118113   2.861   2.826   6.406
 5738SOL    HW218114   2.733   2.900   6.338
 5739SOL     OW18115   0.852   0.092   5.309
 5739SOL    HW118116   0.763   0.076   5.352
 5739SOL    HW218117   0.838   0.126   5.216
 5740SOL     OW18118   4.241   3.468   0.736
 5740SOL    HW118119   4.231   3.397   0.806
 5740SOL    HW218120   4.207   3.555   0.771
 5741SOL     OW18121   6.304   4.310   4.671
 5741SOL    HW118122   6.318   4.380   4.601
 5741SOL    HW218123   6.334   4.221   4.636
 5742SOL     OW18124   4.859   6.695   2.787
 5742SOL    HW118125   4.771   6.690   2.740
 5742SOL    HW218126   4.886   6.603   2.817
 5743SOL     OW18127   2.533   5.654   4.870
 5743SOL    HW118128   2.461   5.653   4.939
 5743SOL    HW218129   2.494   5.681   4.782
 5744SOL     OW18130   4.780   1.101   1.525
 5744SOL    HW118131   4.808   1.166   1.596
 5744SOL    HW218132   4.834   1.116   1.443
 5745SOL     OW18133   1.804   1.585   4.033
 5745SOL    HW118134   1.789   1.494   4.072
 5745SOL    HW218135   1.839   1.646   4.105
 5746SOL     OW18136   5.529   0.283   0.957
 5746SOL    HW118137   5.494   0.189   0.950
 5746SOL    HW218138   5.454   0.348   0.946
 5747SOL     OW18139   0.788   4.621   2.501
 5747SOL    HW118140   0.869   4.594   2.555
 5747SOL    HW218141   0.707   4.619   2.560
 5748SOL     OW18142   1.632   6.744   0.434
 5748SOL    HW118143   1.670   6.746   0.342
 5748SOL    HW218144   1.615   6.838   0.465
 5749SOL     OW18145   1.578   6.191   4.335
 5749SOL    HW118146   1.668   6.233   4.323
 5749SOL    HW218147   1.576   6.104   4.286
 5750SOL     OW18148   6.701   5.734   4.784
 5750SOL    HW118149   6.624   5.748   4.847
 5750SOL    HW218150   6.770   5.804   4.800
 5751SOL     OW18151   2.296   2.763   4.755
 5751SOL    HW118152   2.316   2.850   4.801
 5751SOL    HW218153   2.200   2.763   4.726
 5752SOL     OW18154   6.641   0.481   0.198
 5752SOL    HW118155   6.544   0.483   0.176
 5752SOL    HW218156   6.653   0.461   0.296
 5753SOL     OW18157   3.594   3.241   4.136
 5753SOL    HW118158   3.658   3.198   4.072
 5753SOL    HW218159   3.633   3.239   4.228
 5754SOL     OW18160   6.633   4.745   1.850
 5754SOL    HW118161   6.591   4.680   1.787
 5754SOL    HW218162   6.707   4.701   1.900
 5755SOL     OW18163   2.509   2.752   6.374
 5755SOL    HW118164   2.595   2.803   6.366
 5755SOL    HW218165   2.527   2.662   6.413
 5756SOL     OW18166   6.330   0.131   3.316
 5756SOL    HW118167   6.293   0.060   3.256
 5756SOL    HW218168   6.351   0.091   3.405
 5757SOL     OW18169   6.845   6.825   3.378
 5757SOL    HW118170   6.863   6.774   3.462
 5757SOL    HW218171   6.924   6.881   3.355
 5758SOL     OW18172   2.343   0.652   4.557
 5758SOL    HW118173   2.390   0.737   4.581
 5758SOL    HW218174   2.397   0.575   4.590
 5759SOL     OW18175   4.993   1.922   6.818
 5759SOL    HW118176   4.970   1.928   6.915
 5759SOL    HW218177   4.991   1.827   6.789
 5760SOL     OW18178   6.825   4.066   0.819
 5760SOL    HW118179   6.912   4.115   0.817
 5760SOL    HW218180   6.772   4.090   0.737
 5761SOL     OW18181   5.874   5.587   6.656
 5761SOL    HW118182   5.948   5.653   6.663
 5761SOL    HW218183   5.855   5.569   6.559
 5762SOL     OW18184   4.354   3.975   0.400
 5762SOL    HW118185   4.319   4.011   0.314
 5762SOL    HW218186   4.300   3.896   0.428
 5763SOL     OW18187   6.997   6.804   0.432
 5763SOL    HW118188   0.072   6.835   0.428
 5763SOL    HW218189   6.978   6.748   0.351
 5764SOL     OW18190   5.126   5.066   5.553
 5764SOL    HW118191   5.159   5.158   5.573
 5764SOL    HW218192   5.145   5.043   5.458
 5765SOL     OW18193   5.754   2.769   0.163
 5765SOL    HW118194   5.848   2.790   0.187
 5765SOL    HW218195   5.694   2.843   0.193
 5766SOL     OW18196   2.312   1.911   6.865
 5766SOL    HW118197   2.275   2.003   6.850
 5766SOL    HW218198   2.274   1.848   6.797
 5767SOL     OW18199   1.887   1.651   0.205
 5767SOL    HW118200   1.954   1.710   0.249
 5767SOL    HW218201   1.921   1.557   0.204
 5768SOL     OW18202   1.373   6.128   3.740
 5768SOL    HW118203   1.365   6.035   3.705
 5768SOL    HW218204   1.449   6.175   3.695
 5769SOL     OW18205   2.499   5.692   4.477
 5769SOL    HW118206   2.424   5.655   4.423
 5769SOL    HW218207   2.509   5.789   4.457
 5770SOL     OW18208   6.160   6.298   0.184
 5770SOL    HW118209   6.252   6.338   0.183
 5770SOL    HW218210   6.134   6.279   0.279
 5771SOL     OW18211   1.580   0.374   3.515
 5771SOL    HW118212   1.664   0.424   3.533
 5771SOL    HW218213   1.566   0.305   3.586
 5772SOL     OW18214   6.032   2.225   1.403
 5772SOL    HW118215   5.987   2.246   1.489
 5772SOL    HW218216   6.007   2.133   1.374
 5773SOL     OW18217   4.834   0.522   3.458
 5773SOL    HW118218   4.755   0.508   3.399
 5773SOL    HW218219   4.918   0.505   3.406
 5774SOL     OW18220   2.533   6.024   3.446
 5774SOL    HW118221   2.625   6.058   3.460
 5774SOL    HW218222   2.523   5.934   3.488
 5775SOL     OW18223   1.495   0.955   2.295
 5775SOL    HW118224   1.471   0.871   2.247
 5775SOL    HW218225   1.446   1.032   2.253
 5776SOL     OW18226   6.806   0.448   4.662
 5776SOL    HW118227   6.836   0.542   4.677
 5776SOL    HW218228   6.709   0.448   4.638
 5777SOL     OW18229   6.212   6.817   5.879
 5777SOL    HW118230   6.194   6.719   5.881
 5777SOL    HW218231   6.310   6.833   5.866
 5778SOL     OW18232   1.647   0.976   1.419
 5778SOL    HW118233   1.659   0.945   1.513
 5778SOL    HW218234   1.652   1.076   1.415
 5779SOL     OW18235   4.866   2.460   0.644
 5779SOL    HW118236   4.961   2.454   0.673
 5779SOL    HW218237   4.826   2.369   0.638
 5780SOL     OW18238   6.191   5.539   3.595
 5780SOL    HW118239   6.111   5.508   3.647
 5780SOL    HW218240   6.266   5.474   3.607
 5781SOL     OW18241   0.514   4.419   4.124
 5781SOL    HW118242   0.479   4.504   4.164
 5781SOL    HW218243   0.440   4.373   4.075
 5782SOL     OW18244   0.869   1.452   0.753
 5782SOL    HW118245   0.934   1.516   0.714
 5782SOL    HW218246   0.884   1.444   0.852
 5783SOL     OW18247   1.901   0.551   1.573
 5783SOL    HW118248   1.966   0.594   1.510
 5783SOL    HW218249   1.911   0.452   1.568
 5784SOL     OW18250   0.029   6.109   0.685
 5784SOL    HW118251   6.969   6.055   0.711
 5784SOL    HW218252   0.028   6.197   0.733
 5785SOL     OW18253   1.849   2.288   0.579
 5785SOL    HW118254   1.801   2.314   0.495
 5785SOL    HW218255   1.856   2.368   0.639
 5786SOL     OW18256   0.662   4.471   1.097
 5786SOL    HW118257   0.694   4.514   1.182
 5786SOL    HW218258   0.591   4.529   1.056
 5787SOL     OW18259   3.981   1.683   5.459
 5787SOL    HW118260   3.900   1.685   5.518
 5787SOL    HW218261   3.953   1.684   5.363
 5788SOL     OW18262   3.659   1.732   1.348
 5788SOL    HW118263   3.601   1.654   1.324
 5788SOL    HW218264   3.679   1.785   1.265
 5789SOL     OW18265   2.994   4.603   0.787
 5789SOL    HW118266   2.908   4.555   0.772
 5789SOL    HW218267   3.069   4.537   0.785
 5790SOL     OW18268   0.440   4.745   4.573
 5790SOL    HW118269   0.511   4.744   4.502
 5790SOL    HW218270   0.350   4.754   4.530
 5791SOL     OW18271   3.328   1.715   2.534
 5791SOL    HW118272   3.359   1.767   2.613
 5791SOL    HW218273   3.242   1.753   2.500
 5792SOL     OW18274   5.750   3.024   2.178
 5792SOL    HW118275   5.696   2.990   2.254
 5792SOL    HW218276   5.698   3.012   2.093
 5793SOL     OW18277   5.430   0.560   3.997
 5793SOL    HW118278   5.380   0.501   4.061
 5793SOL    HW218279   5.465   0.504   3.922
 5794SOL     OW18280   2.164   1.180   7.007
 5794SOL    HW118281   2.168   1.160   6.909
 5794SOL    HW218282   2.140   1.276   0.001
 5795SOL     OW18283   7.010   6.439   0.088
 5795SOL    HW118284   0.034   6.475   0.005
 5795SOL    HW218285   0.061   6.407   0.151
 5796SOL     OW18286   4.779   0.743   5.777
 5796SOL    HW118287   4.805   0.720   5.871
 5796SOL    HW218288   4.849   0.803   5.737
 5797SOL     OW18289   4.557   2.191   0.377
 5797SOL    HW118290   4.462   2.174   0.349
 5797SOL    HW218291   4.617   2.129   0.327
 5798SOL     OW18292   6.392   5.045   4.165
 5798SOL    HW118293   6.408   5.115   4.235
 5798SOL    HW218294   6.328   5.081   4.097
 5799SOL     OW18295   0.221   0.830   4.213
 5799SOL    HW118296   0.158   0.797   4.143
 5799SOL    HW218297   0.257   0.752   4.265
 5800SOL     OW18298   6.195   0.039   1.548
 5800SOL    HW118299   6.132   0.095   1.493
 5800SOL    HW218300   6.169   6.963   1.540
 5801SOL     OW18301   1.858   2.912   3.075
 5801SOL    HW118302   1.810   2.900   3.163
 5801SOL    HW218303   1.898   2.825   3.047
 5802SOL     OW18304   6.697   3.229   2.244
 5802SOL    HW118305   6.622   3.163   2.240
 5802SOL    HW218306   6.778   3.189   2.200
 5803SOL     OW18307   2.367   5.423   2.211
 5803SOL    HW118308   2.328   5.331   2.211
 5803SOL    HW218309   2.359   5.462   2.303
 5804SOL     OW18310   0.040   4.954   3.069
 5804SOL    HW118311   7.019   5.011   3.140
 5804SOL    HW218312   0.095   4.882   3.111
 5805SOL     OW18313   1.942   3.234   0.647
 5805SOL    HW118314   1.949   3.294   0.727
 5805SOL    HW218315   1.881   3.157   0.668
 5806SOL     OW18316   6.167   5.498   4.653
 5806SOL    HW118317   6.165   5.565   4.579
 5806SOL    HW218318   6.075   5.464   4.670
 5807SOL     OW18319   0.702   4.795   0.658
 5807SOL    HW118320   0.703   4.859   0.581
 5807SOL    HW218321   0.795   4.772   0.684
 5808SOL     OW18322   6.272   5.419   4.039
 5808SOL    HW118323   6.230   5.329   4.048
 5808SOL    HW218324   6.366   5.409   4.008
 5809SOL     OW18325   6.596   1.704   5.081
 5809SOL    HW118326   6.593   1.785   5.139
 5809SOL    HW218327   6.630   1.626   5.133
 5810SOL     OW18328   4.999   1.640   5.163
 5810SOL    HW118329   4.935   1.564   5.176
 5810SOL    HW218330   4.965   1.699   5.090
 5811SOL     OW18331   3.596   0.792   4.777
 5811SOL    HW118332   3.632   0.702   4.752
 5811SOL    HW218333   3.542   0.784   4.861
 5812SOL     OW18334   5.932   3.581   4.911
 5812SOL    HW118335   5.925   3.489   4.949
 5812SOL    HW218336   5.843   3.609   4.875
 5813SOL     OW18337   1.864   1.478   1.304
 5813SOL    HW118338   1.950   1.438   1.273
 5813SOL    HW218339   1.880   1.570   1.338
 5814SOL     OW18340   6.234   3.758   2.030
 5814SOL    HW118341   6.208   3.662   2.031
 5814SOL    HW218342   6.332   3.766   2.048
 5815SOL     OW18343   3.983   1.719   4.004
 5815SOL    HW118344   4.064   1.681   4.048
 5815SOL    HW218345   3.931   1.646   3.959
 5816SOL     OW18346   4.922   4.714   0.710
 5816SOL    HW118347   4.924   4.660   0.626
 5816SOL    HW218348   4.899   4.655   0.787
 5817SOL     OW18349   5.834   4.289   5.643
 5817SOL    HW118350   5.801   4.210   5.592
 5817SOL    HW218351   5.909   4.261   5.703
 5818SOL     OW18352   6.371   5.074   5.297
 5818SOL    HW118353   6.452   5.059   5.240
 5818SOL    HW218354   6.291   5.034   5.253
 5819SOL     OW18355   3.613   0.437   6.845
 5819SOL    HW118356   3.622   0.505   6.917
 5819SOL    HW218357   3.672   0.359   6.865
 5820SOL     OW18358   4.504   4.454   3.446
 5820SOL    HW118359   4.542   4.410   3.364
 5820SOL    HW218360   4.564   4.436   3.524
 5821SOL     OW18361   0.347   0.923   1.767
 5821SOL    HW118362   0.269   0.871   1.803
 5821SOL    HW218363   0.430   0.868   1.777
 5822SOL     OW18364   1.532   2.658   1.201
 5822SOL    HW118365   1.551   2.745   1.156
 5822SOL    HW218366   1.551   2.582   1.138
 5823SOL     OW18367   2.796   0.478   4.527
 5823SOL    HW118368   2.843   0.464   4.440
 5823SOL    HW218369   2.858   0.456   4.602
 5824SOL     OW18370   0.016   5.607   2.557
 5824SOL    HW118371   0.068   5.684   2.594
 5824SOL    HW218372   0.055   5.580   2.469
 5825SOL     OW18373   6.927   6.883   4.572
 5825SOL    HW118374   6.996   6.954   4.583
 5825SOL    HW218375   6.941   6.837   4.484
 5826SOL     OW18376   0.573   5.149   6.080
 5826SOL    HW118377   0.492   5.102   6.045
 5826SOL    HW218378   0.600   5.222   6.016
 5827SOL     OW18379   1.821   3.698   5.527
 5827SOL    HW118380   1.732   3.653   5.535
 5827SOL    HW218381   1.880   3.645   5.465
 5828SOL     OW18382   5.942   1.921   1.880
 5828SOL    HW118383   5.882   1.955   1.953
 5828SOL    HW218384   6.037   1.929   1.909
 5829SOL     OW18385   1.777   0.282   3.921
 5829SOL    HW118386   1.768   0.191   3.880
 5829SOL    HW218387   1.865   0.287   3.969
 5830SOL     OW18388   5.600   6.435   5.694
 5830SOL    HW118389   5.621   6.494   5.772
 5830SOL    HW218390   5.685   6.410   5.648
 5831SOL     OW18391   1.086   1.077   5.734
 5831SOL    HW118392   1.037   1.091   5.820
 5831SOL    HW218393   1.078   0.981   5.708
 5832SOL     OW18394   3.586   5.454   6.880
 5832SOL    HW118395   3.565   5.358   6.864
 5832SOL    HW218396   3.636   5.463   6.966
 5833SOL     OW18397   3.575   4.237   5.141
 5833SOL    HW118398   3.487   4.190   5.147
 5833SOL    HW218399   3.597   4.253   5.045
 5834SOL     OW18400   0.107   2.809   0.393
 5834SOL    HW118401   0.107   2.879   0.322
 5834SOL    HW218402   0.049   2.733   0.365
 5835SOL     OW18403   5.294   3.184   3.628
 5835SOL    HW118404   5.233   3.212   3.554
 5835SOL    HW218405   5.389   3.196   3.600
 5836SOL     OW18406   3.071   0.524   1.947
 5836SOL    HW118407   3.001   0.543   2.016
 5836SOL    HW218408   3.148   0.587   1.960
 5837SOL     OW18409   3.100   4.213   7.012
 5837SOL    HW118410   3.107   4.235   0.090
 5837SOL    HW218411   3.191   4.216   6.971
 5838SOL     OW18412   3.240   1.860   0.966
 5838SOL    HW118413   3.246   1.797   0.889
 5838SOL    HW218414   3.312   1.930   0.958
 5839SOL     OW18415   1.167   1.920   2.074
 5839SOL    HW118416   1.068   1.913   2.062
 5839SOL    HW218417   1.213   1.877   1.997
 5840SOL     OW18418   1.098   4.886   6.515
 5840SOL    HW118419   1.021   4.944   6.485
 5840SOL    HW218420   1.168   4.885   6.444
 5841SOL     OW18421   4.841   1.221   2.432
 5841SOL    HW118422   4.752   1.265   2.442
 5841SOL    HW218423   4.890   1.226   2.519
 5842SOL     OW18424   4.778   2.695   1.581
 5842SOL    HW118425   4.748   2.599   1.583
 5842SOL    HW218426   4.709   2.749   1.533
 5843SOL     OW18427   1.485   4.136   2.376
 5843SOL    HW118428   1.525   4.048   2.352
 5843SOL    HW218429   1.385   4.127   2.381
 5844SOL     OW18430   1.519   5.933   5.836
 5844SOL    HW118431   1.508   5.906   5.932
 5844SOL    HW218432   1.581   5.870   5.790
 5845SOL     OW18433   0.621   0.399   2.234
 5845SOL    HW118434   0.574   0.467   2.291
 5845SOL    HW218435   0.671   0.335   2.293
 5846SOL     OW18436   6.082   3.252   6.302
 5846SOL    HW118437   6.000   3.289   6.346
 5846SOL    HW218438   6.152   3.234   6.371
 5847SOL     OW18439   2.817   2.243   2.257
 5847SOL    HW118440   2.853   2.272   2.169
 5847SOL    HW218441   2.761   2.161   2.245
 5848SOL     OW18442   1.669   5.711   3.439
 5848SOL    HW118443   1.587   5.768   3.447
 5848SOL    HW218444   1.744   5.754   3.489
 5849SOL     OW18445   1.210   0.234   5.465
 5849SOL    HW118446   1.120   0.274   5.484
 5849SOL    HW218447   1.228   0.239   5.366
 5850SOL     OW18448   6.674   3.000   1.795
 5850SOL    HW118449   6.761   2.983   1.843
 5850SOL    HW218450   6.683   3.081   1.738
 5851SOL     OW18451   5.120   3.066   2.548
 5851SOL    HW118452   5.107   3.011   2.465
 5851SOL    HW218453   5.161   3.153   2.523
 5852SOL     OW18454   6.073   6.338   3.151
 5852SOL    HW118455   6.031   6.343   3.241
 5852SOL    HW218456   6.114   6.248   3.138
 5853SOL     OW18457   3.305   5.548   5.247
 5853SOL    HW118458   3.261   5.475   5.300
 5853SOL    HW218459   3.396   5.567   5.284
 5854SOL     OW18460   4.553   4.442   6.486
 5854SOL    HW118461   4.469   4.409   6.443
 5854SOL    HW218462   4.587   4.522   6.437
 5855SOL     OW18463   1.106   1.093   5.287
 5855SOL    HW118464   1.018   1.110   5.332
 5855SOL    HW218465   1.092   1.081   5.189
 5856SOL     OW18466   2.298   6.181   3.494
 5856SOL    HW118467   2.384   6.155   3.450
 5856SOL    HW218468   2.245   6.238   3.431
 5857SOL     OW18469   6.588   2.079   6.095
 5857SOL    HW118470   6.500   2.041   6.122
 5857SOL    HW218471   6.631   2.019   6.028
 5858SOL     OW18472   2.338   2.170   2.798
 5858SOL    HW118473   2.363   2.130   2.887
 5858SOL    HW218474   2.250   2.217   2.807
 5859SOL     OW18475   6.039   5.884   1.775
 5859SOL    HW118476   6.111   5.890   1.707
 5859SOL    HW218477   6.076   5.909   1.865
 5860SOL     OW18478   0.341   3.724   2.773
 5860SOL    HW118479   0.426   3.742   2.722
 5860SOL    HW218480   0.264   3.720   2.709
 5861SOL     OW18481   4.758   1.819   4.392
 5861SOL    HW118482   4.819   1.775   4.326
 5861SOL    HW218483   4.811   1.854   4.469
 5862SOL     OW18484   5.928   5.440   1.014
 5862SOL    HW118485   5.859   5.413   1.080
 5862SOL    HW218486   5.889   5.508   0.951
 5863SOL     OW18487   3.138   2.043   5.212
 5863SOL    HW118488   3.161   2.134   5.178
 5863SOL    HW218489   3.039   2.032   5.216
 5864SOL     OW18490   3.927   3.965   2.500
 5864SOL    HW118491   3.945   4.049   2.449
 5864SOL    HW218492   3.900   3.988   2.594
 5865SOL     OW18493   5.849   6.844   5.222
 5865SOL    HW118494   5.804   6.870   5.307
 5865SOL    HW218495   5.876   6.748   5.228
 5866SOL     OW18496   3.262   4.180   0.492
 5866SOL    HW118497   3.279   4.262   0.546
 5866SOL    HW218498   3.191   4.124   0.535
 5867SOL     OW18499   2.327   3.528   1.068
 5867SOL    HW118500   2.301   3.526   0.971
 5867SOL    HW218501   2.291   3.612   1.109
 5868SOL     OW18502   1.391   1.461   5.504
 5868SOL    HW118503   1.430   1.389   5.561
 5868SOL    HW218504   1.451   1.541   5.505
 5869SOL     OW18505   2.140   6.568   2.898
 5869SOL    HW118506   2.141   6.581   2.799
 5869SOL    HW218507   2.064   6.621   2.937
 5870SOL     OW18508   4.198   6.533   4.914
 5870SOL    HW118509   4.105   6.560   4.936
 5870SOL    HW218510   4.259   6.612   4.924
 5871SOL     OW18511   3.221   3.279   1.202
 5871SOL    HW118512   3.131   3.317   1.221
 5871SOL    HW218513   3.274   3.343   1.146
 5872SOL     OW18514   4.457   6.307   1.120
 5872SOL    HW118515   4.366   6.338   1.148
 5872SOL    HW218516   4.521   6.384   1.124
 5873SOL     OW18517   3.887   1.167   2.131
 5873SOL    HW118518   3.807   1.209   2.175
 5873SOL    HW218519   3.951   1.137   2.201
 5874SOL     OW18520   2.925   4.899   6.509
 5874SOL    HW118521   2.892   4.951   6.430
 5874SOL    HW218522   2.851   4.886   6.574
 5875SOL     OW18523   4.184   1.537   0.150
 5875SOL    HW118524   4.130   1.453   0.138
 5875SOL    HW218525   4.251   1.523   0.223
 5876SOL     OW18526   4.225   3.135   0.373
 5876SOL    HW118527   4.294   3.202   0.346
 5876SOL    HW218528   4.167   3.175   0.445
 5877SOL     OW18529   0.637   7.013   1.529
 5877SOL    HW118530   0.626   0.033   1.620
 5877SOL    HW218531   0.638   0.066   1.460
 5878SOL     OW18532   6.141   5.176   4.030
 5878SOL    HW118533   6.100   5.202   3.942
 5878SOL    HW218534   6.083   5.108   4.074
 5879SOL     OW18535   1.532   4.112   6.837
 5879SOL    HW118536   1.526   4.020   6.876
 5879SOL    HW218537   1.617   4.121   6.786
 5880SOL     OW18538   4.924   4.637   5.956
 5880SOL    HW118539   4.985   4.628   5.878
 5880SOL    HW218540   4.976   4.628   6.041
 5881SOL     OW18541   0.778   0.142   2.308
 5881SOL    HW118542   0.841   0.192   2.249
 5881SOL    HW218543   0.829   0.074   2.360
 5882SOL     OW18544   6.780   5.225   0.795
 5882SOL    HW118545   6.688   5.189   0.780
 5882SOL    HW218546   6.775   5.324   0.811
 5883SOL     OW18547   1.099   1.579   6.351
 5883SOL    HW118548   1.061   1.633   6.276
 5883SOL    HW218549   1.050   1.600   6.436
 5884SOL     OW18550   4.179   1.093   4.508
 5884SOL    HW118551   4.220   1.153   4.440
 5884SOL    HW218552   4.208   0.999   4.492
 5885SOL     OW18553   0.724   6.769   2.515
 5885SOL    HW118554   0.752   6.677   2.488
 5885SOL    HW218555   0.636   6.791   2.473
 5886SOL     OW18556   6.982   2.561   4.509
 5886SOL    HW118557   0.041   2.605   4.551
 5886SOL    HW218558   7.013   2.499   4.437
 5887SOL     OW18559   2.682   1.858   1.987
 5887SOL    HW118560   2.718   1.892   1.900
 5887SOL    HW218561   2.646   1.766   1.974
 5888SOL     OW18562   3.075   0.533   1.392
 5888SOL    HW118563   3.138   0.547   1.468
 5888SOL    HW218564   3.126   0.509   1.310
 5889SOL     OW18565   0.649   0.520   0.601
 5889SOL    HW118566   0.608   0.510   0.692
 5889SOL    HW218567   0.670   0.616   0.585
 5890SOL     OW18568   2.288   1.224   3.289
 5890SOL    HW118569   2.282   1.322   3.307
 5890SOL    HW218570   2.383   1.195   3.295
 5891SOL     OW18571   3.130   3.117   6.954
 5891SOL    HW118572   3.086   3.167   0.009
 5891SOL    HW218573   3.223   3.092   6.981
 5892SOL     OW18574   0.742   5.720   2.115
 5892SOL    HW118575   0.657   5.676   2.145
 5892SOL    HW218576   0.820   5.663   2.140
 5893SOL     OW18577   2.320   4.319   3.706
 5893SOL    HW118578   2.282   4.406   3.675
 5893SOL    HW218579   2.329   4.258   3.627
 5894SOL     OW18580   6.867   5.578   4.070
 5894SOL    HW118581   6.863   5.538   3.979
 5894SOL    HW218582   6.844   5.508   4.138
 5895SOL     OW18583   5.487   3.656   4.146
 5895SOL    HW118584   5.415   3.623   4.086
 5895SOL    HW218585   5.523   3.580   4.200
 5896SOL     OW18586   3.448   0.643   0.519
 5896SOL    HW118587   3.363   0.678   0.559
 5896SOL    HW218588   3.429   0.612   0.426
 5897SOL     OW18589   4.539   6.974   1.384
 5897SOL    HW118590   4.611   6.914   1.420
 5897SOL    HW218591   4.537   6.967   1.285
 5898SOL     OW18592   2.387   6.987   3.695
 5898SOL    HW118593   2.380   6.908   3.635
 5898SOL    HW218594   2.435   6.961   3.779
 5899SOL     OW18595   6.365   5.687   0.311
 5899SOL    HW118596   6.442   5.661   0.253
 5899SOL    HW218597   6.280   5.656   0.270
 5900SOL     OW18598   6.378   5.187   3.866
 5900SOL    HW118599   6.296   5.150   3.910
 5900SOL    HW218600   6.453   5.120   3.876
 5901SOL     OW18601   2.568   1.703   0.150
 5901SOL    HW118602   2.529   1.616   0.181
 5901SOL    HW218603   2.552   1.713   0.051
 5902SOL     OW18604   5.811   1.825   5.300
 5902SOL    HW118605   5.852   1.895   5.358
 5902SOL    HW218606   5.714   1.846   5.286
 5903SOL     OW18607   4.848   4.166   0.184
 5903SOL    HW118608   4.786   4.235   0.146
 5903SOL    HW218609   4.912   4.136   0.112
 5904SOL     OW18610   0.814   4.480   1.619
 5904SOL    HW118611   0.769   4.392   1.603
 5904SOL    HW218612   0.885   4.469   1.689
 5905SOL     OW18613   6.664   6.592   3.999
 5905SOL    HW118614   6.756   6.630   4.002
 5905SOL    HW218615   6.634   6.583   3.904
 5906SOL     OW18616   3.831   2.133   4.064
 5906SOL    HW118617   3.900   2.116   3.994
 5906SOL    HW218618   3.874   2.127   4.154
 5907SOL     OW18619   1.374   4.796   0.585
 5907SOL    HW118620   1.307   4.786   0.512
 5907SOL    HW218621   1.426   4.880   0.571
 5908SOL     OW18622   0.087   3.184   6.795
 5908SOL    HW118623   0.018   3.207   6.726
 5908SOL    HW218624   0.122   3.092   6.777
 5909SOL     OW18625   6.955   5.109   1.006
 5909SOL    HW118626   6.878   5.130   0.946
 5909SOL    HW218627   0.011   5.072   0.953
 5910SOL     OW18628   0.859   4.273   3.526
 5910SOL    HW118629   0.912   4.331   3.464
 5910SOL    HW218630   0.917   4.200   3.561
 5911SOL     OW18631   0.081   5.505   6.263
 5911SOL    HW118632   0.167   5.522   6.216
 5911SOL    HW218633   0.005   5.512   6.198
 5912SOL     OW18634   5.711   1.819   6.723
 5912SOL    HW118635   5.739   1.764   6.644
 5912SOL    HW218636   5.658   1.762   6.787
 5913SOL     OW18637   5.056   3.031   6.061
 5913SOL    HW118638   5.102   2.944   6.078
 5913SOL    HW218639   5.082   3.097   6.131
 5914SOL     OW18640   1.393   5.669   5.900
 5914SOL    HW118641   1.472   5.653   5.959
 5914SOL    HW218642   1.409   5.627   5.810
 5915SOL     OW18643   4.369   5.565   1.279
 5915SOL    HW118644   4.389   5.647   1.332
 5915SOL    HW218645   4.335   5.592   1.188
 5916SOL     OW18646   5.117   6.623   3.954
 5916SOL    HW118647   5.208   6.594   3.984
 5916SOL    HW218648   5.053   6.548   3.966
 5917SOL     OW18649   2.970   3.558   3.886
 5917SOL    HW118650   3.063   3.594   3.882
 5917SOL    HW218651   2.918   3.589   3.806
 5918SOL     OW18652   1.963   3.540   6.287
 5918SOL    HW118653   1.868   3.536   6.318
 5918SOL    HW218654   1.995   3.448   6.265
 5919SOL     OW18655   3.516   3.446   2.443
 5919SOL    HW118656   3.469   3.520   2.491
 5919SOL    HW218657   3.493   3.358   2.486
 5920SOL     OW18658   4.334   0.437   6.567
 5920SOL    HW118659   4.280   0.507   6.614
 5920SOL    HW218660   4.388   0.387   6.633
 5921SOL     OW18661   4.022   5.402   6.514
 5921SOL    HW118662   3.963   5.387   6.435
 5921SOL    HW218663   3.969   5.390   6.598
 5922SOL     OW18664   5.559   5.219   2.951
 5922SOL    HW118665   5.650   5.191   2.983
 5922SOL    HW218666   5.504   5.138   2.933
 5923SOL     OW18667   6.415   1.425   1.417
 5923SOL    HW118668   6.340   1.489   1.434
 5923SOL    HW218669   6.502   1.472   1.429
 5924SOL     OW18670   6.462   0.927   2.849
 5924SOL    HW118671   6.486   1.006   2.793
 5924SOL    HW218672   6.410   0.957   2.929
 5925SOL     OW18673   3.728   6.862   2.072
 5925SOL    HW118674   3.677   6.840   2.155
 5925SOL    HW218675   3.803   6.796   2.060
 5926SOL     OW18676   3.846   5.710   1.338
 5926SOL    HW118677   3.787   5.657   1.276
 5926SOL    HW218678   3.790   5.754   1.407
 5927SOL     OW18679   1.251   4.281   2.533
 5927SOL    HW118680   1.173   4.263   2.472
 5927SOL    HW218681   1.243   4.224   2.614
 5928SOL     OW18682   4.003   0.416   1.069
 5928SOL    HW118683   3.945   0.395   1.147
 5928SOL    HW218684   4.085   0.359   1.073
 5929SOL     OW18685   0.263   0.005   6.929
 5929SOL    HW118686   0.290   6.935   6.963
 5929SOL    HW218687   0.270   0.006   6.829
 5930SOL     OW18688   6.442   3.316   3.772
 5930SOL    HW118689   6.454   3.225   3.732
 5930SOL    HW218690   6.446   3.384   3.699
 5931SOL     OW18691   6.736   5.235   2.983
 5931SOL    HW118692   6.678   5.299   2.932
 5931SOL    HW218693   6.815   5.209   2.927
 5932SOL     OW18694   3.085   0.465   0.662
 5932SOL    HW118695   3.133   0.377   0.658
 5932SOL    HW218696   3.018   0.470   0.588
 5933SOL     OW18697   6.642   6.224   3.191
 5933SOL    HW118698   6.550   6.261   3.178
 5933SOL    HW218699   6.710   6.297   3.180
 5934SOL     OW18700   3.700   2.959   4.493
 5934SOL    HW118701   3.723   2.943   4.589
 5934SOL    HW218702   3.751   3.038   4.460
 5935SOL     OW18703   5.203   5.197   6.369
 5935SOL    HW118704   5.219   5.193   6.271
 5935SOL    HW218705   5.108   5.173   6.389
 5936SOL     OW18706   3.890   2.826   1.230
 5936SOL    HW118707   3.890   2.919   1.195
 5936SOL    HW218708   3.857   2.825   1.324
 5937SOL     OW18709   0.289   4.167   2.559
 5937SOL    HW118710   0.285   4.187   2.461
 5937SOL    HW218711   0.333   4.078   2.573
 5938SOL     OW18712   0.297   5.651   2.909
 5938SOL    HW118713   0.217   5.674   2.965
 5938SOL    HW218714   0.365   5.724   2.916
 5939SOL     OW18715   3.270   6.776   2.889
 5939SOL    HW118716   3.199   6.746   2.825
 5939SOL    HW218717   3.281   6.708   2.961
 5940SOL     OW18718   5.169   5.858   1.000
 5940SOL    HW118719   5.128   5.772   1.031
 5940SOL    HW218720   5.157   5.867   0.901
 5941SOL     OW18721   5.884   2.800   2.149
 5941SOL    HW118722   5.822   2.874   2.174
 5941SOL    HW218723   5.966   2.838   2.108
 5942SOL     OW18724   4.883   3.567   6.772
 5942SOL    HW118725   4.910   3.471   6.768
 5942SOL    HW218726   4.785   3.575   6.756
 5943SOL     OW18727   3.163   4.847   6.612
 5943SOL    HW118728   3.075   4.859   6.565
 5943SOL    HW218729   3.185   4.931   6.661
 5944SOL     OW18730   6.074   3.127   1.430
 5944SOL    HW118731   6.132   3.185   1.373
 5944SOL    HW218732   6.018   3.068   1.372
 5945SOL     OW18733   6.338   5.254   4.638
 5945SOL    HW118734   6.262   5.192   4.620
 5945SOL    HW218735   6.303   5.347   4.651
 5946SOL     OW18736   3.785   3.482   6.277
 5946SOL    HW118737   3.707   3.534   6.244
 5946SOL    HW218738   3.753   3.404   6.331
 5947SOL     OW18739   3.758   3.739   2.101
 5947SOL    HW118740   3.701   3.660   2.124
 5947SOL    HW218741   3.812   3.719   2.020
 5948SOL     OW18742   4.455   5.214   3.847
 5948SOL    HW118743   4.478   5.289   3.785
 5948SOL    HW218744   4.373   5.168   3.814
 5949SOL     OW18745   5.114   3.728   1.720
 5949SOL    HW118746   5.085   3.816   1.757
 5949SOL    HW218747   5.039   3.662   1.728
 5950SOL     OW18748   5.023   1.456   5.584
 5950SOL    HW118749   5.040   1.506   5.669
 5950SOL    HW218750   4.937   1.486   5.544
 5951SOL     OW18751   1.518   6.018   4.135
 5951SOL    HW118752   1.459   5.945   4.171
 5951SOL    HW218753   1.462   6.088   4.092
 5952SOL     OW18754   5.358   4.859   3.364
 5952SOL    HW118755   5.330   4.946   3.405
 5952SOL    HW218756   5.456   4.859   3.347
 5953SOL     OW18757   6.406   2.399   5.591
 5953SOL    HW118758   6.378   2.466   5.659
 5953SOL    HW218759   6.450   2.321   5.636
 5954SOL     OW18760   0.141   4.114   5.818
 5954SOL    HW118761   0.121   4.141   5.912
 5954SOL    HW218762   0.238   4.092   5.810
 5955SOL     OW18763   4.717   6.117   2.690
 5955SOL    HW118764   4.713   6.024   2.727
 5955SOL    HW218765   4.789   6.123   2.621
 5956SOL     OW18766   4.211   1.468   5.075
 5956SOL    HW118767   4.300   1.421   5.074
 5956SOL    HW218768   4.190   1.498   5.168
 5957SOL     OW18769   4.463   0.740   5.141
 5957SOL    HW118770   4.463   0.758   5.042
 5957SOL    HW218771   4.473   0.826   5.190
 5958SOL     OW18772   6.036   0.042   2.756
 5958SOL    HW118773   6.031   6.968   2.790
 5958SOL    HW218774   6.123   0.056   2.710
 5959SOL     OW18775   3.979   2.764   5.357
 5959SOL    HW118776   3.887   2.761   5.317
 5959SOL    HW218777   4.037   2.696   5.313
 5960SOL     OW18778   3.230   5.183   4.909
 5960SOL    HW118779   3.214   5.085   4.905
 5960SOL    HW218780   3.185   5.227   4.831
 5961SOL     OW18781   5.083   1.279   2.587
 5961SOL    HW118782   5.172   1.285   2.541
 5961SOL    HW218783   5.094   1.297   2.684
 5962SOL     OW18784   5.824   6.041   0.281
 5962SOL    HW118785   5.885   6.006   0.352
 5962SOL    HW218786   5.739   5.987   0.280
 5963SOL     OW18787   3.628   4.081   5.405
 5963SOL    HW118788   3.647   4.085   5.307
 5963SOL    HW218789   3.585   4.166   5.435
 5964SOL     OW18790   0.369   5.401   5.525
 5964SOL    HW118791   0.345   5.400   5.428
 5964SOL    HW218792   0.425   5.481   5.545
 5965SOL     OW18793   1.588   2.234   6.561
 5965SOL    HW118794   1.627   2.164   6.501
 5965SOL    HW218795   1.585   2.200   6.655
 5966SOL     OW18796   2.601   5.716   5.727
 5966SOL    HW118797   2.579   5.667   5.643
 5966SOL    HW218798   2.700   5.729   5.732
 5967SOL     OW18799   4.049   6.811   6.640
 5967SOL    HW118800   4.141   6.778   6.660
 5967SOL    HW218801   4.048   6.857   6.551
 5968SOL     OW18802   5.289   1.696   1.214
 5968SOL    HW118803   5.359   1.749   1.262
 5968SOL    HW218804   5.220   1.758   1.176
 5969SOL     OW18805   6.902   6.605   6.356
 5969SOL    HW118806   6.832   6.612   6.428
 5969SOL    HW218807   6.951   6.692   6.349
 5970SOL     OW18808   0.273   4.336   2.913
 5970SOL    HW118809   0.355   4.364   2.863
 5970SOL    HW218810   0.205   4.301   2.848
 5971SOL     OW18811   0.607   1.193   2.487
 5971SOL    HW118812   0.696   1.229   2.459
 5971SOL    HW218813   0.610   1.093   2.484
 5972SOL     OW18814   5.798   5.259   6.196
 5972SOL    HW118815   5.866   5.328   6.170
 5972SOL    HW218816   5.837   5.168   6.184
 5973SOL     OW18817   1.497   3.547   2.852
 5973SOL    HW118818   1.553   3.624   2.824
 5973SOL    HW218819   1.518   3.468   2.794
 5974SOL     OW18820   5.256   5.186   6.093
 5974SOL    HW118821   5.257   5.125   6.013
 5974SOL    HW218822   5.343   5.234   6.099
 5975SOL     OW18823   4.365   0.599   0.227
 5975SOL    HW118824   4.357   0.501   0.243
 5975SOL    HW218825   4.436   0.616   0.160
 5976SOL     OW18826   3.453   2.717   5.560
 5976SOL    HW118827   3.368   2.721   5.611
 5976SOL    HW218828   3.525   2.764   5.611
 5977SOL     OW18829   1.826   5.328   6.753
 5977SOL    HW118830   1.765   5.260   6.795
 5977SOL    HW218831   1.794   5.348   6.660
 5978SOL     OW18832   4.684   5.735   2.166
 5978SOL    HW118833   4.617   5.661   2.173
 5978SOL    HW218834   4.698   5.776   2.256
 5979SOL     OW18835   5.581   0.992   2.667
 5979SOL    HW118836   5.520   1.071   2.680
 5979SOL    HW218837   5.675   1.025   2.653
 5980SOL     OW18838   4.105   4.091   1.153
 5980SOL    HW118839   4.187   4.059   1.104
 5980SOL    HW218840   4.050   4.148   1.092
 5981SOL     OW18841   5.301   2.333   1.484
 5981SOL    HW118842   5.296   2.348   1.385
 5981SOL    HW218843   5.276   2.416   1.532
 5982SOL     OW18844   6.333   3.439   2.293
 5982SOL    HW118845   6.286   3.414   2.378
 5982SOL    HW218846   6.399   3.512   2.313
 5983SOL     OW18847   1.321   1.801   4.255
 5983SOL    HW118848   1.404   1.819   4.308
 5983SOL    HW218849   1.337   1.825   4.159
 5984SOL     OW18850   6.947   5.628   3.470
 5984SOL    HW118851   6.953   5.533   3.502
 5984SOL    HW218852   6.898   5.683   3.538
 5985SOL     OW18853   0.017   2.908   4.197
 5985SOL    HW118854   6.978   2.833   4.229
 5985SOL    HW218855   6.993   2.996   4.218
 5986SOL     OW18856   2.906   3.615   4.207
 5986SOL    HW118857   2.932   3.559   4.286
 5986SOL    HW218858   2.914   3.561   4.124
 5987SOL     OW18859   5.493   0.159   3.780
 5987SOL    HW118860   5.438   0.126   3.703
 5987SOL    HW218861   5.554   0.087   3.811
 5988SOL     OW18862   4.740   6.893   5.612
 5988SOL    HW118863   4.736   6.802   5.655
 5988SOL    HW218864   4.647   6.927   5.598
 5989SOL     OW18865   2.049   6.340   6.233
 5989SOL    HW118866   1.950   6.340   6.245
 5989SOL    HW218867   2.092   6.387   6.311
 5990SOL     OW18868   3.667   4.279   6.942
 5990SOL    HW118869   3.621   4.288   6.853
 5990SOL    HW218870   3.651   4.361   6.996
 5991SOL     OW18871   2.805   5.495   0.167
 5991SOL    HW118872   2.884   5.445   0.204
 5991SOL    HW218873   2.821   5.593   0.176
 5992SOL     OW18874   3.729   0.469   2.639
 5992SOL    HW118875   3.691   0.530   2.569
 5992SOL    HW218876   3.687   0.488   2.727
 5993SOL     OW18877   3.145   5.842   6.758
 5993SOL    HW118878   3.185   5.910   6.819
 5993SOL    HW218879   3.069   5.883   6.707
 5994SOL     OW18880   5.751   2.772   2.606
 5994SOL    HW118881   5.738   2.773   2.507
 5994SOL    HW218882   5.663   2.785   2.651
 5995SOL     OW18883   4.974   3.576   2.468
 5995SOL    HW118884   4.951   3.673   2.459
 5995SOL    HW218885   5.029   3.548   2.389
 5996SOL     OW18886   1.217   6.468   0.629
 5996SOL    HW118887   1.118   6.461   0.630
 5996SOL    HW218888   1.245   6.557   0.665
 5997SOL     OW18889   0.139   5.802   2.702
 5997SOL    HW118890   0.210   5.744   2.742
 5997SOL    HW218891   0.159   5.898   2.723
 5998SOL     OW18892   5.969   0.987   3.419
 5998SOL    HW118893   5.920   1.044   3.485
 5998SOL    HW218894   6.043   0.938   3.465
 5999SOL     OW18895   1.458   1.524   2.461
 5999SOL    HW118896   1.516   1.524   2.380
 5999SOL    HW218897   1.493   1.589   2.528
 6000SOL     OW18898   4.294   6.888   0.749
 6000SOL    HW118899   4.293   6.898   0.848
 6000SOL    HW218900   4.296   6.791   0.725
 6001SOL     OW18901   0.909   4.284   0.182
 6001SOL    HW118902   0.844   4.215   0.149
 6001SOL    HW218903   0.902   4.293   0.281
 6002SOL     OW18904   5.597   0.218   0.535
 6002SOL    HW118905   5.523   0.170   0.488
 6002SOL    HW218906   5.562   0.301   0.578
 6003SOL     OW18907   5.816   2.526   5.052
 6003SOL    HW118908   5.876   2.463   5.101
 6003SOL    HW218909   5.791   2.486   4.964
 6004SOL     OW18910   6.951   3.952   3.024
 6004SOL    HW118911   6.923   3.919   2.934
 6004SOL    HW218912   6.990   4.044   3.016
 6005SOL     OW18913   4.626   5.866   4.424
 6005SOL    HW118914   4.548   5.804   4.413
 6005SOL    HW218915   4.615   5.944   4.362
 6006SOL     OW18916   2.608   0.783   5.404
 6006SOL    HW118917   2.550   0.788   5.322
 6006SOL    HW218918   2.660   0.868   5.413
 6007SOL     OW18919   4.599   3.836   5.843
 6007SOL    HW118920   4.627   3.787   5.760
 6007SOL    HW218921   4.499   3.840   5.848
 6008SOL     OW18922   2.382   4.146   5.605
 6008SOL    HW118923   2.439   4.218   5.646
 6008SOL    HW218924   2.312   4.118   5.671
 6009SOL     OW18925   2.987   0.408   3.161
 6009SOL    HW118926   2.954   0.340   3.227
 6009SOL    HW218927   2.912   0.468   3.134
 6010SOL     OW18928   1.214   4.338   4.179
 6010SOL    HW118929   1.313   4.344   4.168
 6010SOL    HW218930   1.171   4.320   4.091
 6011SOL     OW18931   4.747   2.729   2.946
 6011SOL    HW118932   4.703   2.798   2.889
 6011SOL    HW218933   4.845   2.728   2.929
 6012SOL     OW18934   5.424   1.211   6.909
 6012SOL    HW118935   5.326   1.194   6.893
 6012SOL    HW218936   5.435   1.300   6.952
 6013SOL     OW18937   4.725   1.787   2.388
 6013SOL    HW118938   4.797   1.856   2.380
 6013SOL    HW218939   4.691   1.764   2.297
 6014SOL     OW18940   3.881   3.348   1.821
 6014SOL    HW118941   3.853   3.273   1.762
 6014SOL    HW218942   3.812   3.421   1.819
 6015SOL     OW18943   5.890   3.883   4.243
 6015SOL    HW118944   5.840   3.811   4.195
 6015SOL    HW218945   5.930   3.846   4.327
 6016SOL     OW18946   6.340   1.761   6.010
 6016SOL    HW118947   6.435   1.729   6.013
 6016SOL    HW218948   6.286   1.699   5.953
 6017SOL     OW18949   6.712   4.152   3.455
 6017SOL    HW118950   6.669   4.176   3.542
 6017SOL    HW218951   6.671   4.206   3.381
 6018SOL     OW18952   3.753   0.305   6.573
 6018SOL    HW118953   3.835   0.251   6.553
 6018SOL    HW218954   3.702   0.321   6.489
 6019SOL     OW18955   6.999   1.445   4.472
 6019SOL    HW118956   7.010   1.527   4.528
 6019SOL    HW218957   6.951   1.469   4.388
 6020SOL     OW18958   0.736   5.020   0.465
 6020SOL    HW118959   0.835   5.030   0.476
 6020SOL    HW218960   0.691   5.104   0.494
 6021SOL     OW18961   4.904   0.622   2.746
 6021SOL    HW118962   4.883   0.677   2.827
 6021SOL    HW218963   4.818   0.594   2.702
 6022SOL     OW18964   4.896   2.380   4.135
 6022SOL    HW118965   4.918   2.305   4.197
 6022SOL    HW218966   4.819   2.355   4.077
 6023SOL     OW18967   5.964   0.538   2.242
 6023SOL    HW118968   6.001   0.610   2.183
 6023SOL    HW218969   6.008   0.542   2.331
 6024SOL     OW18970   1.214   4.313   3.201
 6024SOL    HW118971   1.277   4.337   3.126
 6024SOL    HW218972   1.198   4.394   3.258
 6025SOL     OW18973   3.827   1.794   2.758
 6025SOL    HW118974   3.919   1.830   2.776
 6025SOL    HW218975   3.770   1.867   2.720
 6026SOL     OW18976   0.358   4.348   5.520
 6026SOL    HW118977   0.328   4.437   5.486
 6026SOL    HW218978   0.455   4.335   5.497
 6027SOL     OW18979   1.143   3.672   6.314
 6027SOL    HW118980   1.176   3.690   6.407
 6027SOL    HW218981   1.205   3.713   6.247
 6028SOL     OW18982   6.723   5.077   0.049
 6028SOL    HW118983   6.781   4.999   0.073
 6028SOL    HW218984   6.774   5.162   0.062
 6029SOL     OW18985   2.473   6.112   5.019
 6029SOL    HW118986   2.516   6.022   5.027
 6029SOL    HW218987   2.543   6.183   5.023
 6030SOL     OW18988   3.967   6.027   2.501
 6030SOL    HW118989   3.976   5.935   2.538
 6030SOL    HW218990   3.959   6.023   2.401
 6031SOL     OW18991   3.002   5.481   3.497
 6031SOL    HW118992   2.975   5.445   3.408
 6031SOL    HW218993   3.100   5.499   3.497
 6032SOL     OW18994   2.065   4.444   3.028
 6032SOL    HW118995   2.072   4.354   3.073
 6032SOL    HW218996   2.156   4.486   3.026
 6033SOL     OW18997   3.001   2.248   3.275
 6033SOL    HW118998   3.041   2.335   3.303
 6033SOL    HW218999   3.003   2.184   3.353
 6034SOL     OW19000   1.371   5.471   4.532
 6034SOL    HW119001   1.281   5.427   4.531
 6034SOL    HW219002   1.421   5.442   4.613
 6035SOL     OW19003   0.356   1.069   2.714
 6035SOL    HW119004   0.389   1.126   2.789
 6035SOL    HW219005   0.266   1.031   2.736
 6036SOL     OW19006   5.194   5.711   3.388
 6036SOL    HW119007   5.212   5.637   3.452
 6036SOL    HW219008   5.137   5.677   3.313
 6037SOL     OW19009   4.295   5.429   0.054
 6037SOL    HW119010   4.299   5.361   0.127
 6037SOL    HW219011   4.223   5.405   7.009
 6038SOL     OW19012   1.552   2.102   5.640
 6038SOL    HW119013   1.533   2.048   5.557
 6038SOL    HW219014   1.528   2.048   5.721
 6039SOL     OW19015   2.917   3.517   2.583
 6039SOL    HW119016   2.903   3.550   2.490
 6039SOL    HW219017   2.940   3.595   2.642
 6040SOL     OW19018   0.771   1.536   6.793
 6040SOL    HW119019   0.719   1.509   6.712
 6040SOL    HW219020   0.860   1.492   6.791
 6041SOL     OW19021   2.923   0.318   4.933
 6041SOL    HW119022   2.829   0.301   4.964
 6041SOL    HW219023   2.986   0.264   4.990
 6042SOL     OW19024   4.941   5.982   2.175
 6042SOL    HW119025   4.979   5.893   2.149
 6042SOL    HW219026   4.856   5.997   2.126
 6043SOL     OW19027   0.933   4.544   5.535
 6043SOL    HW119028   0.893   4.628   5.500
 6043SOL    HW219029   0.992   4.565   5.613
 6044SOL     OW19030   1.080   2.152   1.426
 6044SOL    HW119031   0.996   2.101   1.407
 6044SOL    HW219032   1.085   2.174   1.524
 6045SOL     OW19033   5.712   4.782   2.129
 6045SOL    HW119034   5.687   4.711   2.194
 6045SOL    HW219035   5.640   4.790   2.060
 6046SOL     OW19036   4.098   2.046   0.155
 6046SOL    HW119037   4.089   1.958   0.202
 6046SOL    HW219038   4.096   2.031   0.056
 6047SOL     OW19039   5.014   1.882   2.060
 6047SOL    HW119040   5.099   1.930   2.036
 6047SOL    HW219041   5.027   1.834   2.147
 6048SOL     OW19042   4.485   5.412   5.014
 6048SOL    HW119043   4.472   5.337   5.078
 6048SOL    HW219044   4.583   5.434   5.007
 6049SOL     OW19045   4.976   3.139   6.533
 6049SOL    HW119046   5.051   3.091   6.579
 6049SOL    HW219047   4.949   3.087   6.452
 6050SOL     OW19048   3.674   5.778   5.066
 6050SOL    HW119049   3.613   5.834   5.008
 6050SOL    HW219050   3.630   5.761   5.154
 6051SOL     OW19051   2.644   0.606   4.175
 6051SOL    HW119052   2.693   0.637   4.257
 6051SOL    HW219053   2.558   0.563   4.202
 6052SOL     OW19054   6.561   0.429   0.478
 6052SOL    HW119055   6.566   0.436   0.578
 6052SOL    HW219056   6.468   0.402   0.451
 6053SOL     OW19057   3.713   1.793   6.702
 6053SOL    HW119058   3.783   1.860   6.729
 6053SOL    HW219059   3.754   1.726   6.640
 6054SOL     OW19060   2.433   3.910   0.321
 6054SOL    HW119061   2.414   3.814   0.340
 6054SOL    HW219062   2.505   3.917   0.253
 6055SOL     OW19063   4.361   0.504   5.226
 6055SOL    HW119064   4.390   0.600   5.220
 6055SOL    HW219065   4.437   0.445   5.199
 6056SOL     OW19066   4.832   2.918   4.805
 6056SOL    HW119067   4.837   3.018   4.800
 6056SOL    HW219068   4.786   2.892   4.890
 6057SOL     OW19069   5.380   3.321   4.022
 6057SOL    HW119070   5.415   3.261   4.093
 6057SOL    HW219071   5.457   3.359   3.970
 6058SOL     OW19072   5.191   2.584   1.541
 6058SOL    HW119073   5.150   2.662   1.493
 6058SOL    HW219074   5.152   2.577   1.632
 6059SOL     OW19075   5.071   4.499   4.810
 6059SOL    HW119076   5.081   4.411   4.858
 6059SOL    HW219077   5.130   4.567   4.853
 6060SOL     OW19078   3.264   4.654   0.096
 6060SOL    HW119079   3.212   4.577   0.133
 6060SOL    HW219080   3.206   4.736   0.096
 6061SOL     OW19081   3.902   1.983   0.870
 6061SOL    HW119082   3.897   1.896   0.822
 6061SOL    HW219083   3.923   1.967   0.966
 6062SOL     OW19084   2.726   1.158   5.022
 6062SOL    HW119085   2.809   1.159   5.078
 6062SOL    HW219086   2.657   1.100   5.065
 6063SOL     OW19087   3.802   1.779   6.054
 6063SOL    HW119088   3.782   1.802   6.149
 6063SOL    HW219089   3.790   1.680   6.041
 6064SOL     OW19090   1.911   5.830   1.048
 6064SOL    HW119091   1.819   5.794   1.032
 6064SOL    HW219092   1.906   5.929   1.061
 6065SOL     OW19093   6.416   0.181   1.609
 6065SOL    HW119094   6.446   0.136   1.693
 6065SOL    HW219095   6.341   0.129   1.568
 6066SOL     OW19096   4.658   1.068   5.871
 6066SOL    HW119097   4.698   0.989   5.917
 6066SOL    HW219098   4.564   1.046   5.843
 6067SOL     OW19099   5.549   0.956   5.582
 6067SOL    HW119100   5.620   1.010   5.626
 6067SOL    HW219101   5.590   0.874   5.542
 6068SOL     OW19102   5.275   3.696   4.517
 6068SOL    HW119103   5.375   3.701   4.523
 6068SOL    HW219104   5.237   3.690   4.610
 6069SOL     OW19105   6.676   2.534   5.270
 6069SOL    HW119106   6.693   2.500   5.177
 6069SOL    HW219107   6.581   2.562   5.278
 6070SOL     OW19108   2.529   2.765   0.407
 6070SOL    HW119109   2.486   2.832   0.467
 6070SOL    HW219110   2.527   2.800   0.313
 6071SOL     OW19111   5.197   5.358   4.331
 6071SOL    HW119112   5.152   5.443   4.302
 6071SOL    HW219113   5.224   5.367   4.427
 6072SOL     OW19114   0.260   0.448   1.909
 6072SOL    HW119115   0.273   0.395   1.826
 6072SOL    HW219116   0.172   0.495   1.906
 6073SOL     OW19117   5.568   3.707   0.043
 6073SOL    HW119118   5.536   3.670   0.130
 6073SOL    HW219119   5.648   3.656   0.012
 6074SOL     OW19120   1.507   6.648   4.294
 6074SOL    HW119121   1.528   6.710   4.218
 6074SOL    HW219122   1.488   6.557   4.259
 6075SOL     OW19123   6.646   1.562   6.402
 6075SOL    HW119124   6.700   1.496   6.349
 6075SOL    HW219125   6.694   1.584   6.487
 6076SOL     OW19126   2.640   5.435   4.186
 6076SOL    HW119127   2.669   5.439   4.281
 6076SOL    HW219128   2.542   5.413   4.182
 6077SOL     OW19129   5.652   6.214   1.205
 6077SOL    HW119130   5.654   6.220   1.105
 6077SOL    HW219131   5.712   6.284   1.243
 6078SOL     OW19132   4.168   4.615   0.490
 6078SOL    HW119133   4.136   4.672   0.414
 6078SOL    HW219134   4.107   4.627   0.568
 6079SOL     OW19135   3.978   3.701   6.019
 6079SOL    HW119136   4.044   3.685   6.092
 6079SOL    HW219137   3.913   3.625   6.016
 6080SOL     OW19138   0.166   0.797   0.958
 6080SOL    HW119139   0.088   0.786   0.896
 6080SOL    HW219140   0.147   0.748   1.044
 6081SOL     OW19141   6.766   3.539   6.143
 6081SOL    HW119142   6.829   3.501   6.211
 6081SOL    HW219143   6.804   3.525   6.052
 6082SOL     OW19144   2.188   1.885   4.023
 6082SOL    HW119145   2.096   1.893   3.986
 6082SOL    HW219146   2.213   1.970   4.069
 6083SOL     OW19147   6.953   4.933   0.113
 6083SOL    HW119148   6.986   4.991   0.187
 6083SOL    HW219149   6.988   4.968   0.026
 6084SOL     OW19150   0.951   6.964   3.905
 6084SOL    HW119151   0.969   6.866   3.908
 6084SOL    HW219152   0.858   6.982   3.938
 6085SOL     OW19153   0.628   4.575   0.356
 6085SOL    HW119154   0.541   4.610   0.391
 6085SOL    HW219155   0.627   4.475   0.359
 6086SOL     OW19156   3.734   0.510   6.060
 6086SOL    HW119157   3.824   0.521   6.102
 6086SOL    HW219158   3.667   0.563   6.110
 6087SOL     OW19159   3.709   5.428   0.922
 6087SOL    HW119160   3.705   5.438   1.021
 6087SOL    HW219161   3.803   5.438   0.890
 6088SOL     OW19162   5.659   5.722   3.991
 6088SOL    HW119163   5.674   5.684   4.083
 6088SOL    HW219164   5.623   5.651   3.931
 6089SOL     OW19165   5.714   3.391   0.458
 6089SOL    HW119166   5.715   3.349   0.368
 6089SOL    HW219167   5.622   3.428   0.477
 6090SOL     OW19168   2.283   5.880   6.080
 6090SOL    HW119169   2.322   5.818   6.148
 6090SOL    HW219170   2.352   5.947   6.052
 6091SOL     OW19171   1.805   1.762   0.535
 6091SOL    HW119172   1.774   1.787   0.443
 6091SOL    HW219173   1.784   1.836   0.599
 6092SOL     OW19174   4.149   6.876   2.869
 6092SOL    HW119175   4.120   6.971   2.874
 6092SOL    HW219176   4.158   6.848   2.774
 6093SOL     OW19177   1.703   3.628   2.459
 6093SOL    HW119178   1.799   3.614   2.434
 6093SOL    HW219179   1.662   3.697   2.399
 6094SOL     OW19180   3.110   0.242   1.564
 6094SOL    HW119181   3.051   0.264   1.487
 6094SOL    HW219182   3.064   0.268   1.649
 6095SOL     OW19183   4.735   3.666   0.366
 6095SOL    HW119184   4.712   3.675   0.462
 6095SOL    HW219185   4.745   3.570   0.343
 6096SOL     OW19186   0.194   0.169   3.284
 6096SOL    HW119187   0.201   0.223   3.200
 6096SOL    HW219188   0.270   0.194   3.345
 6097SOL     OW19189   2.574   0.037   2.572
 6097SOL    HW119190   2.493   0.096   2.566
 6097SOL    HW219191   2.557   6.972   2.521
 6098SOL     OW19192   1.694   2.568   5.325
 6098SOL    HW119193   1.705   2.496   5.256
 6098SOL    HW219194   1.782   2.585   5.370
 6099SOL     OW19195   6.391   6.425   0.188
 6099SOL    HW119196   6.474   6.381   0.222
 6099SOL    HW219197   6.389   6.520   0.219
 6100SOL     OW19198   4.650   4.359   0.047
 6100SOL    HW119199   4.570   4.420   0.048
 6100SOL    HW219200   4.620   4.265   0.031
 6101SOL     OW19201   6.184   2.343   4.971
 6101SOL    HW119202   6.219   2.250   4.956
 6101SOL    HW219203   6.177   2.360   5.069
 6102SOL     OW19204   3.730   6.545   3.310
 6102SOL    HW119205   3.658   6.590   3.257
 6102SOL    HW219206   3.704   6.449   3.325
 6103SOL     OW19207   6.664   2.558   2.251
 6103SOL    HW119208   6.664   2.527   2.346
 6103SOL    HW219209   6.673   2.478   2.191
 6104SOL     OW19210   6.144   0.646   5.484
 6104SOL    HW119211   6.204   0.681   5.412
 6104SOL    HW219212   6.050   0.675   5.465
 6105SOL     OW19213   2.913   6.961   5.987
 6105SOL    HW119214   2.971   6.885   5.958
 6105SOL    HW219215   2.967   0.008   6.037
 6106SOL     OW19216   2.827   4.391   6.081
 6106SOL    HW119217   2.793   4.314   6.134
 6106SOL    HW219218   2.881   4.357   6.003
 6107SOL     OW19219   2.306   4.766   4.628
 6107SOL    HW119220   2.213   4.784   4.595
 6107SOL    HW219221   2.315   4.670   4.651
 6108SOL     OW19222   1.123   2.389   1.903
 6108SOL    HW119223   1.187   2.430   1.968
 6108SOL    HW219224   1.068   2.320   1.950
 6109SOL     OW19225   5.466   2.763   5.394
 6109SOL    HW119226   5.377   2.806   5.384
 6109SOL    HW219227   5.455   2.670   5.428
 6110SOL     OW19228   4.112   3.832   0.436
 6110SOL    HW119229   4.110   3.735   0.459
 6110SOL    HW219230   4.027   3.857   0.389
 6111SOL     OW19231   2.344   4.201   2.414
 6111SOL    HW119232   2.269   4.169   2.355
 6111SOL    HW219233   2.344   4.149   2.499
 6112SOL     OW19234   4.000   0.524   2.598
 6112SOL    HW119235   4.000   0.611   2.646
 6112SOL    HW219236   3.910   0.481   2.607
 6113SOL     OW19237   1.901   1.095   6.315
 6113SOL    HW119238   1.992   1.073   6.279
 6113SOL    HW219239   1.867   1.018   6.369
 6114SOL     OW19240   4.934   5.765   1.322
 6114SOL    HW119241   4.950   5.847   1.376
 6114SOL    HW219242   4.913   5.688   1.383
 6115SOL     OW19243   5.599   6.954   3.873
 6115SOL    HW119244   5.541   6.882   3.836
 6115SOL    HW219245   5.674   6.913   3.925
 6116SOL     OW19246   3.471   0.788   6.810
 6116SOL    HW119247   3.398   0.745   6.757
 6116SOL    HW219248   3.447   0.884   6.828
 6117SOL     OW19249   1.256   1.323   5.294
 6117SOL    HW119250   1.307   1.338   5.379
 6117SOL    HW219251   1.204   1.237   5.302
 6118SOL     OW19252   6.476   1.065   2.224
 6118SOL    HW119253   6.492   0.978   2.177
 6118SOL    HW219254   6.434   1.047   2.313
 6119SOL     OW19255   1.767   3.387   6.171
 6119SOL    HW119256   1.757   3.343   6.082
 6119SOL    HW219257   1.864   3.399   6.192
 6120SOL     OW19258   3.663   6.782   4.636
 6120SOL    HW119259   3.652   6.849   4.709
 6120SOL    HW219260   3.608   6.809   4.557
 6121SOL     OW19261   1.462   3.308   5.750
 6121SOL    HW119262   1.556   3.308   5.716
 6121SOL    HW219263   1.410   3.381   5.704
 6122SOL     OW19264   4.305   6.162   0.433
 6122SOL    HW119265   4.368   6.171   0.509
 6122SOL    HW219266   4.342   6.098   0.366
 6123SOL     OW19267   6.520   6.853   6.288
 6123SOL    HW119268   6.567   6.854   6.200
 6123SOL    HW219269   6.422   6.840   6.273
 6124SOL     OW19270   2.152   0.293   5.689
 6124SOL    HW119271   2.217   0.369   5.695
 6124SOL    HW219272   2.141   0.266   5.593
 6125SOL     OW19273   1.032   5.910   0.327
 6125SOL    HW119274   1.114   5.857   0.350
 6125SOL    HW219275   0.974   5.855   0.266
 6126SOL     OW19276   0.993   0.679   4.173
 6126SOL    HW119277   1.041   0.618   4.236
 6126SOL    HW219278   0.971   0.629   4.089
 6127SOL     OW19279   3.744   6.905   1.329
 6127SOL    HW119280   3.775   6.886   1.422
 6127SOL    HW219281   3.651   6.872   1.317
 6128SOL     OW19282   6.213   3.316   6.884
 6128SOL    HW119283   6.144   3.376   6.925
 6128SOL    HW219284   6.171   3.230   6.856
 6129SOL     OW19285   6.243   3.454   3.288
 6129SOL    HW119286   6.340   3.448   3.311
 6129SOL    HW219287   6.212   3.367   3.249
 6130SOL     OW19288   5.697   2.170   3.794
 6130SOL    HW119289   5.767   2.190   3.863
 6130SOL    HW219290   5.694   2.072   3.777
 6131SOL     OW19291   6.702   1.174   5.337
 6131SOL    HW119292   6.696   1.137   5.244
 6131SOL    HW219293   6.652   1.114   5.399
 6132SOL     OW19294   4.918   1.714   0.513
 6132SOL    HW119295   4.850   1.731   0.442
 6132SOL    HW219296   4.977   1.638   0.486
 6133SOL     OW19297   1.035   2.604   2.266
 6133SOL    HW119298   0.999   2.670   2.200
 6133SOL    HW219299   0.997   2.513   2.248
 6134SOL     OW19300   3.691   4.672   6.575
 6134SOL    HW119301   3.621   4.645   6.509
 6134SOL    HW219302   3.733   4.758   6.544
 6135SOL     OW19303   0.688   0.407   1.960
 6135SOL    HW119304   0.765   0.470   1.970
 6135SOL    HW219305   0.629   0.414   2.040
 6136SOL     OW19306   0.815   2.963   2.633
 6136SOL    HW119307   0.781   3.052   2.602
 6136SOL    HW219308   0.791   2.894   2.565
 6137SOL     OW19309   6.691   2.222   3.978
 6137SOL    HW119310   6.652   2.182   4.060
 6137SOL    HW219311   6.630   2.294   3.944
 6138SOL     OW19312   4.432   6.904   2.913
 6138SOL    HW119313   4.338   6.871   2.911
 6138SOL    HW219314   4.480   6.865   2.993
 6139SOL     OW19315   1.048   0.600   6.409
 6139SOL    HW119316   1.118   0.533   6.384
 6139SOL    HW219317   0.959   0.555   6.413
 6140SOL     OW19318   0.549   6.757   1.615
 6140SOL    HW119319   0.562   6.665   1.577
 6140SOL    HW219320   0.626   6.815   1.589
 6141SOL     OW19321   6.705   5.765   6.158
 6141SOL    HW119322   6.742   5.819   6.083
 6141SOL    HW219323   6.747   5.674   6.159
 6142SOL     OW19324   1.259   5.708   0.884
 6142SOL    HW119325   1.326   5.778   0.908
 6142SOL    HW219326   1.167   5.749   0.883
 6143SOL     OW19327   6.985   3.960   1.063
 6143SOL    HW119328   6.887   3.962   1.086
 6143SOL    HW219329   6.996   3.932   0.968
 6144SOL     OW19330   5.633   4.389   3.267
 6144SOL    HW119331   5.603   4.453   3.196
 6144SOL    HW219332   5.705   4.330   3.229
 6145SOL     OW19333   4.900   5.209   3.458
 6145SOL    HW119334   4.947   5.242   3.539
 6145SOL    HW219335   4.919   5.112   3.445
 6146SOL     OW19336   2.386   6.221   3.144
 6146SOL    HW119337   2.391   6.174   3.056
 6146SOL    HW219338   2.477   6.254   3.170
 6147SOL     OW19339   1.486   3.416   4.394
 6147SOL    HW119340   1.472   3.513   4.373
 6147SOL    HW219341   1.576   3.403   4.437
 6148SOL     OW19342   6.408   6.855   3.749
 6148SOL    HW119343   6.495   6.886   3.710
 6148SOL    HW219344   6.425   6.787   3.820
 6149SOL     OW19345   2.996   5.504   1.250
 6149SOL    HW119346   2.949   5.432   1.301
 6149SOL    HW219347   3.064   5.548   1.309
 6150SOL     OW19348   4.419   4.593   0.363
 6150SOL    HW119349   4.495   4.531   0.382
 6150SOL    HW219350   4.356   4.594   0.442
 6151SOL     OW19351   6.024   4.281   5.992
 6151SOL    HW119352   6.104   4.222   6.004
 6151SOL    HW219353   5.999   4.320   6.080
 6152SOL     OW19354   6.073   5.217   4.905
 6152SOL    HW119355   5.999   5.162   4.942
 6152SOL    HW219356   6.077   5.207   4.805
 6153SOL     OW19357   5.715   4.034   1.185
 6153SOL    HW119358   5.635   3.978   1.166
 6153SOL    HW219359   5.686   4.127   1.208
 6154SOL     OW19360   6.396   2.383   2.671
 6154SOL    HW119361   6.384   2.335   2.758
 6154SOL    HW219362   6.438   2.472   2.687
 6155SOL     OW19363   1.788   2.122   4.681
 6155SOL    HW119364   1.730   2.050   4.641
 6155SOL    HW219365   1.876   2.124   4.635
 6156SOL     OW19366   4.084   4.645   1.625
 6156SOL    HW119367   4.077   4.605   1.533
 6156SOL    HW219368   3.992   4.651   1.665
 6157SOL     OW19369   1.307   0.752   4.012
 6157SOL    HW119370   1.257   0.675   3.971
 6157SOL    HW219371   1.245   0.828   4.026
 6158SOL     OW19372   3.998   1.602   6.252
 6158SOL    HW119373   3.922   1.561   6.201
 6158SOL    HW219374   4.054   1.655   6.189
 6159SOL     OW19375   4.874   2.362   1.963
 6159SOL    HW119376   4.877   2.276   2.014
 6159SOL    HW219377   4.942   2.361   1.890
 6160SOL     OW19378   4.584   1.055   6.420
 6160SOL    HW119379   4.618   1.066   6.327
 6160SOL    HW219380   4.484   1.063   6.420
 6161SOL     OW19381   4.977   1.343   5.053
 6161SOL    HW119382   4.916   1.308   4.982
 6161SOL    HW219383   5.070   1.348   5.018
 6162SOL     OW19384   1.105   6.672   3.685
 6162SOL    HW119385   1.031   6.672   3.752
 6162SOL    HW219386   1.177   6.608   3.715
 6163SOL     OW19387   6.363   6.405   0.840
 6163SOL    HW119388   6.403   6.484   0.887
 6163SOL    HW219389   6.302   6.436   0.767
 6164SOL     OW19390   3.390   2.903   1.967
 6164SOL    HW119391   3.334   2.827   1.936
 6164SOL    HW219392   3.467   2.867   2.020
 6165SOL     OW19393   4.827   1.219   6.747
 6165SOL    HW119394   4.897   1.285   6.776
 6165SOL    HW219395   4.872   1.141   6.703
 6166SOL     OW19396   4.971   1.050   5.977
 6166SOL    HW119397   5.067   1.079   5.983
 6166SOL    HW219398   4.935   1.074   5.887
 6167SOL     OW19399   0.983   5.423   3.345
 6167SOL    HW119400   0.910   5.489   3.363
 6167SOL    HW219401   1.046   5.461   3.278
 6168SOL     OW19402   0.811   3.903   1.240
 6168SOL    HW119403   0.717   3.916   1.273
 6168SOL    HW219404   0.874   3.952   1.300
 6169SOL     OW19405   1.702   2.189   0.863
 6169SOL    HW119406   1.606   2.202   0.837
 6169SOL    HW219407   1.759   2.256   0.815
 6170SOL     OW19408   1.228   4.341   5.493
 6170SOL    HW119409   1.264   4.248   5.494
 6170SOL    HW219410   1.209   4.368   5.399
 6171SOL     OW19411   0.614   3.106   1.015
 6171SOL    HW119412   0.528   3.119   0.966
 6171SOL    HW219413   0.688   3.091   0.950
 6172SOL     OW19414   2.151   2.944   2.362
 6172SOL    HW119415   2.175   2.852   2.394
 6172SOL    HW219416   2.141   2.943   2.263
 6173SOL     OW19417   0.035   5.849   1.904
 6173SOL    HW119418   6.994   5.853   1.983
 6173SOL    HW219419   0.006   5.776   1.843
 6174SOL     OW19420   4.839   5.974   3.777
 6174SOL    HW119421   4.782   5.899   3.743
 6174SOL    HW219422   4.826   5.983   3.876
 6175SOL     OW19423   4.683   0.252   3.649
 6175SOL    HW119424   4.767   0.305   3.659
 6175SOL    HW219425   4.611   0.292   3.705
 6176SOL     OW19426   5.068   4.351   5.367
 6176SOL    HW119427   5.061   4.420   5.296
 6176SOL    HW219428   5.163   4.343   5.397
 6177SOL     OW19429   6.054   1.002   1.226
 6177SOL    HW119430   6.130   0.952   1.185
 6177SOL    HW219431   6.049   1.094   1.186
 6178SOL     OW19432   4.546   4.415   2.547
 6178SOL    HW119433   4.518   4.417   2.451
 6178SOL    HW219434   4.643   4.392   2.552
 6179SOL     OW19435   5.991   4.955   4.112
 6179SOL    HW119436   6.046   4.874   4.134
 6179SOL    HW219437   5.898   4.927   4.091
 6180SOL     OW19438   2.876   4.432   1.018
 6180SOL    HW119439   2.886   4.527   1.049
 6180SOL    HW219440   2.812   4.430   0.941
 6181SOL     OW19441   4.849   6.409   6.821
 6181SOL    HW119442   4.947   6.426   6.823
 6181SOL    HW219443   4.831   6.322   6.775
 6182SOL     OW19444   5.192   3.047   5.336
 6182SOL    HW119445   5.192   2.955   5.296
 6182SOL    HW219446   5.153   3.111   5.270
 6183SOL     OW19447   1.161   2.670   3.764
 6183SOL    HW119448   1.085   2.723   3.728
 6183SOL    HW219449   1.153   2.663   3.864
 6184SOL     OW19450   2.455   6.549   6.536
 6184SOL    HW119451   2.514   6.600   6.473
 6184SOL    HW219452   2.506   6.472   6.574
 6185SOL     OW19453   0.335   3.559   6.217
 6185SOL    HW119454   0.370   3.526   6.130
 6185SOL    HW219455   0.357   3.656   6.227
 6186SOL     OW19456   0.255   0.597   0.289
 6186SOL    HW119457   0.329   0.546   0.334
 6186SOL    HW219458   0.253   0.691   0.324
 6187SOL     OW19459   5.434   4.239   4.141
 6187SOL    HW119460   5.345   4.194   4.138
 6187SOL    HW219461   5.471   4.245   4.048
 6188SOL     OW19462   2.423   1.617   6.593
 6188SOL    HW119463   2.503   1.560   6.574
 6188SOL    HW219464   2.349   1.560   6.629
 6189SOL     OW19465   4.457   4.566   2.805
 6189SOL    HW119466   4.396   4.640   2.778
 6189SOL    HW219467   4.467   4.501   2.730
 6190SOL     OW19468   0.920   3.891   5.575
 6190SOL    HW119469   0.825   3.860   5.572
 6190SOL    HW219470   0.963   3.878   5.485
 6191SOL     OW19471   2.916   2.589   6.904
 6191SOL    HW119472   2.987   2.555   6.966
 6191SOL    HW219473   2.873   2.512   6.857
 6192SOL     OW19474   2.790   2.427   5.758
 6192SOL    HW119475   2.745   2.436   5.846
 6192SOL    HW219476   2.751   2.348   5.709
 6193SOL     OW19477   4.380   6.753   1.819
 6193SOL    HW119478   4.433   6.694   1.880
 6193SOL    HW219479   4.293   6.709   1.797
 6194SOL     OW19480   1.009   0.173   0.590
 6194SOL    HW119481   1.053   0.190   0.679
 6194SOL    HW219482   1.079   0.160   0.520
 6195SOL     OW19483   4.388   5.933   4.761
 6195SOL    HW119484   4.359   5.869   4.690
 6195SOL    HW219485   4.361   6.026   4.736
 6196SOL     OW19486   5.592   3.489   1.610
 6196SOL    HW119487   5.586   3.580   1.651
 6196SOL    HW219488   5.688   3.465   1.596
 6197SOL     OW19489   3.696   5.026   1.340
 6197SOL    HW119490   3.697   5.009   1.241
 6197SOL    HW219491   3.653   5.115   1.358
 6198SOL     OW19492   4.140   6.639   1.494
 6198SOL    HW119493   4.146   6.540   1.504
 6198SOL    HW219494   4.146   6.663   1.397
 6199SOL     OW19495   1.225   1.465   0.382
 6199SOL    HW119496   1.284   1.546   0.380
 6199SOL    HW219497   1.220   1.429   0.475
 6200SOL     OW19498   1.320   1.488   5.940
 6200SOL    HW119499   1.354   1.571   5.985
 6200SOL    HW219500   1.220   1.486   5.946
 6201SOL     OW19501   0.689   4.180   5.748
 6201SOL    HW119502   0.779   4.141   5.767
 6201SOL    HW219503   0.699   4.267   5.700
 6202SOL     OW19504   4.351   1.294   1.384
 6202SOL    HW119505   4.401   1.342   1.311
 6202SOL    HW219506   4.416   1.247   1.443
 6203SOL     OW19507   6.506   5.788   1.904
 6203SOL    HW119508   6.487   5.824   1.995
 6203SOL    HW219509   6.425   5.744   1.867
 6204SOL     OW19510   0.219   5.446   4.084
 6204SOL    HW119511   0.159   5.525   4.082
 6204SOL    HW219512   0.239   5.421   4.179
 6205SOL     OW19513   6.582   5.717   1.454
 6205SOL    HW119514   6.670   5.672   1.470
 6205SOL    HW219515   6.577   5.801   1.507
 6206SOL     OW19516   5.744   2.108   3.320
 6206SOL    HW119517   5.667   2.166   3.344
 6206SOL    HW219518   5.765   2.118   3.222
 6207SOL     OW19519   1.436   4.917   5.631
 6207SOL    HW119520   1.478   5.006   5.643
 6207SOL    HW219521   1.426   4.898   5.533
 6208SOL     OW19522   4.766   2.942   5.573
 6208SOL    HW119523   4.793   3.033   5.604
 6208SOL    HW219524   4.838   2.877   5.595
 6209SOL     OW19525   3.420   6.173   6.823
 6209SOL    HW119526   3.373   6.093   6.861
 6209SOL    HW219527   3.357   6.224   6.764
 6210SOL     OW19528   4.873   3.278   4.197
 6210SOL    HW119529   4.840   3.240   4.284
 6210SOL    HW219530   4.963   3.241   4.177
 6211SOL     OW19531   2.999   6.087   6.042
 6211SOL    HW119532   3.076   6.042   6.086
 6211SOL    HW219533   3.008   6.186   6.053
 6212SOL     OW19534   2.560   4.592   4.831
 6212SOL    HW119535   2.637   4.632   4.881
 6212SOL    HW219536   2.501   4.543   4.894
 6213SOL     OW19537   6.186   0.062   6.758
 6213SOL    HW119538   6.204   0.160   6.759
 6213SOL    HW219539   6.160   0.031   6.849
 6214SOL     OW19540   5.165   5.423   4.644
 6214SOL    HW119541   5.156   5.422   4.744
 6214SOL    HW219542   5.106   5.495   4.606
 6215SOL     OW19543   4.210   2.524   6.209
 6215SOL    HW119544   4.258   2.576   6.138
 6215SOL    HW219545   4.125   2.571   6.233
 6216SOL     OW19546   6.353   2.113   2.901
 6216SOL    HW119547   6.308   2.195   2.866
 6216SOL    HW219548   6.406   2.137   2.982
 6217SOL     OW19549   0.561   3.761   2.564
 6217SOL    HW119550   0.630   3.694   2.590
 6217SOL    HW219551   0.605   3.849   2.547
 6218SOL     OW19552   3.847   6.533   6.223
 6218SOL    HW119553   3.837   6.588   6.305
 6218SOL    HW219554   3.827   6.437   6.244
 6219SOL     OW19555   1.192   2.048   4.703
 6219SOL    HW119556   1.100   2.027   4.737
 6219SOL    HW219557   1.221   2.136   4.739
 6220SOL     OW19558   2.682   1.101   4.758
 6220SOL    HW119559   2.714   1.110   4.852
 6220SOL    HW219560   2.731   1.165   4.699
 6221SOL     OW19561   5.642   6.482   6.975
 6221SOL    HW119562   5.611   6.389   6.993
 6221SOL    HW219563   5.603   6.514   6.889
 6222SOL     OW19564   1.812   6.974   1.528
 6222SOL    HW119565   1.730   6.986   1.472
 6222SOL    HW219566   1.853   0.044   1.546
 6223SOL     OW19567   1.348   4.960   3.324
 6223SOL    HW119568   1.359   4.951   3.423
 6223SOL    HW219569   1.262   4.917   3.296
 6224SOL     OW19570   3.702   1.062   6.059
 6224SOL    HW119571   3.639   1.008   6.003
 6224SOL    HW219572   3.650   1.108   6.132
 6225SOL     OW19573   3.865   3.266   6.664
 6225SOL    HW119574   3.810   3.232   6.588
 6225SOL    HW219575   3.949   3.307   6.628
 6226SOL     OW19576   0.911   1.739   4.825
 6226SOL    HW119577   0.832   1.782   4.868
 6226SOL    HW219578   0.993   1.761   4.878
 6227SOL     OW19579   2.963   4.924   5.036
 6227SOL    HW119580   2.920   4.885   4.956
 6227SOL    HW219581   2.959   4.860   5.112
 6228SOL     OW19582   0.545   3.113   2.246
 6228SOL    HW119583   0.552   3.130   2.148
 6228SOL    HW219584   0.636   3.097   2.285
 6229SOL     OW19585   0.907   2.106   4.799
 6229SOL    HW119586   0.817   2.118   4.841
 6229SOL    HW219587   0.975   2.085   4.869
 6230SOL     OW19588   0.504   2.310   4.305
 6230SOL    HW119589   0.603   2.320   4.297
 6230SOL    HW219590   0.465   2.395   4.340
 6231SOL     OW19591   6.341   5.617   0.575
 6231SOL    HW119592   6.326   5.639   0.478
 6231SOL    HW219593   6.439   5.621   0.594
 6232SOL     OW19594   6.724   1.285   0.956
 6232SOL    HW119595   6.706   1.188   0.975
 6232SOL    HW219596   6.656   1.341   1.002
 6233SOL     OW19597   6.843   2.420   1.667
 6233SOL    HW119598   6.777   2.346   1.669
 6233SOL    HW219599   6.925   2.391   1.617
 6234SOL     OW19600   6.809   6.979   5.407
 6234SOL    HW119601   6.881   7.002   5.342
 6234SOL    HW219602   6.721   7.010   5.372
 6235SOL     OW19603   6.772   0.257   1.289
 6235SOL    HW119604   6.756   0.322   1.214
 6235SOL    HW219605   6.688   0.206   1.307
 6236SOL     OW19606   0.266   4.781   1.446
 6236SOL    HW119607   0.316   4.867   1.455
 6236SOL    HW219608   0.284   4.741   1.356
 6237SOL     OW19609   3.551   6.992   6.946
 6237SOL    HW119610   3.589   0.041   6.884
 6237SOL    HW219611   3.460   0.002   6.976
 6238SOL     OW19612   4.972   5.349   2.748
 6238SOL    HW119613   4.947   5.264   2.794
 6238SOL    HW219614   5.071   5.364   2.759
 6239SOL     OW19615   4.037   1.545   1.491
 6239SOL    HW119616   4.100   1.516   1.563
 6239SOL    HW219617   3.961   1.597   1.531
 6240SOL     OW19618   2.236   3.740   5.555
 6240SOL    HW119619   2.194   3.811   5.498
 6240SOL    HW219620   2.335   3.744   5.545
 6241SOL     OW19621   3.279   0.877   2.202
 6241SOL    HW119622   3.256   0.843   2.111
 6241SOL    HW219623   3.344   0.953   2.194
 6242SOL     OW19624   3.873   0.143   3.328
 6242SOL    HW119625   3.939   0.174   3.260
 6242SOL    HW219626   3.846   0.049   3.308
 6243SOL     OW19627   0.035   6.531   5.127
 6243SOL    HW119628   6.961   6.552   5.157
 6243SOL    HW219629   0.091   6.511   5.207
 6244SOL     OW19630   5.461   3.345   3.269
 6244SOL    HW119631   5.543   3.329   3.214
 6244SOL    HW219632   5.382   3.351   3.208
 6245SOL     OW19633   1.380   3.472   0.982
 6245SOL    HW119634   1.478   3.484   0.963
 6245SOL    HW219635   1.362   3.377   1.006
 6246SOL     OW19636   1.063   1.999   5.424
 6246SOL    HW119637   1.037   2.054   5.503
 6246SOL    HW219638   1.136   1.936   5.450
 6247SOL     OW19639   0.191   6.115   3.905
 6247SOL    HW119640   0.188   6.162   3.993
 6247SOL    HW219641   0.262   6.156   3.847
 6248SOL     OW19642   3.982   3.883   7.003
 6248SOL    HW119643   3.999   3.928   6.915
 6248SOL    HW219644   4.066   3.841   0.017
 6249SOL     OW19645   6.805   3.248   0.955
 6249SOL    HW119646   6.793   3.149   0.953
 6249SOL    HW219647   6.841   3.276   1.044
 6250SOL     OW19648   6.473   0.190   1.071
 6250SOL    HW119649   6.390   0.245   1.065
 6250SOL    HW219650   6.498   0.179   1.167
 6251SOL     OW19651   4.422   5.897   5.035
 6251SOL    HW119652   4.387   5.982   5.074
 6251SOL    HW219653   4.421   5.903   4.935
 6252SOL     OW19654   2.721   6.069   6.576
 6252SOL    HW119655   2.682   5.983   6.609
 6252SOL    HW219656   2.819   6.071   6.596
 6253SOL     OW19657   2.816   4.931   4.173
 6253SOL    HW119658   2.840   4.938   4.076
 6253SOL    HW219659   2.800   4.835   4.196
 6254SOL     OW19660   6.079   1.710   1.292
 6254SOL    HW119661   6.046   1.726   1.199
 6254SOL    HW219662   6.073   1.612   1.312
 6255SOL     OW19663   2.788   0.828   0.663
 6255SOL    HW119664   2.864   0.772   0.695
 6255SOL    HW219665   2.821   0.897   0.599
 6256SOL     OW19666   3.514   5.203   2.624
 6256SOL    HW119667   3.539   5.262   2.547
 6256SOL    HW219668   3.426   5.232   2.660
 6257SOL     OW19669   4.423   2.984   0.276
 6257SOL    HW119670   4.515   3.002   0.310
 6257SOL    HW219671   4.358   3.046   0.321
 6258SOL     OW19672   2.812   0.200   3.332
 6258SOL    HW119673   2.758   0.116   3.329
 6258SOL    HW219674   2.784   0.254   3.411
 6259SOL     OW19675   1.452   1.583   6.913
 6259SOL    HW119676   1.508   1.590   6.831
 6259SOL    HW219677   1.425   1.674   6.943
 6260SOL     OW19678   3.157   6.040   0.153
 6260SOL    HW119679   3.118   5.999   0.235
 6260SOL    HW219680   3.229   6.105   0.179
 6261SOL     OW19681   4.776   0.480   6.442
 6261SOL    HW119682   4.796   0.390   6.403
 6261SOL    HW219683   4.862   0.528   6.461
 6262SOL     OW19684   2.035   6.551   1.621
 6262SOL    HW119685   2.092   6.610   1.680
 6262SOL    HW219686   1.944   6.544   1.660
 6263SOL     OW19687   0.688   0.030   4.460
 6263SOL    HW119688   0.700   6.968   4.516
 6263SOL    HW219689   0.620   0.090   4.502
 6264SOL     OW19690   1.879   0.734   1.799
 6264SOL    HW119691   1.904   0.684   1.716
 6264SOL    HW219692   1.941   0.812   1.810
 6265SOL     OW19693   3.990   3.571   0.198
 6265SOL    HW119694   4.006   3.575   0.099
 6265SOL    HW219695   3.891   3.571   0.216
 6266SOL     OW19696   5.136   0.128   3.471
 6266SOL    HW119697   5.097   0.191   3.537
 6266SOL    HW219698   5.063   0.082   3.420
 6267SOL     OW19699   2.573   6.993   5.079
 6267SOL    HW119700   2.643   6.934   5.040
 6267SOL    HW219701   2.485   6.945   5.081
 6268SOL     OW19702   3.118   1.020   2.396
 6268SOL    HW119703   3.152   1.114   2.390
 6268SOL    HW219704   3.159   0.966   2.323
 6269SOL     OW19705   6.780   6.849   2.156
 6269SOL    HW119706   6.790   6.803   2.244
 6269SOL    HW219707   6.821   6.940   2.161
 6270SOL     OW19708   0.185   0.413   6.002
 6270SOL    HW119709   0.085   0.404   6.010
 6270SOL    HW219710   0.228   0.377   6.084
 6271SOL     OW19711   5.672   2.462   5.652
 6271SOL    HW119712   5.587   2.463   5.598
 6271SOL    HW219713   5.668   2.534   5.722
 6272SOL     OW19714   0.713   2.273   0.378
 6272SOL    HW119715   0.781   2.321   0.323
 6272SOL    HW219716   0.636   2.245   0.320
 6273SOL     OW19717   0.528   6.444   2.839
 6273SOL    HW119718   0.540   6.459   2.741
 6273SOL    HW219719   0.610   6.475   2.888
 6274SOL     OW19720   3.164   6.725   5.360
 6274SOL    HW119721   3.084   6.694   5.411
 6274SOL    HW219722   3.140   6.736   5.263
 6275SOL     OW19723   2.227   6.524   6.907
 6275SOL    HW119724   2.199   6.450   6.845
 6275SOL    HW219725   2.152   6.545   6.969
 6276SOL     OW19726   2.414   5.442   3.655
 6276SOL    HW119727   2.504   5.441   3.699
 6276SOL    HW219728   2.354   5.507   3.702
 6277SOL     OW19729   4.613   2.624   1.039
 6277SOL    HW119730   4.567   2.588   1.120
 6277SOL    HW219731   4.690   2.682   1.068
 6278SOL     OW19732   4.780   0.047   4.405
 6278SOL    HW119733   4.852   0.056   4.474
 6278SOL    HW219734   4.727   0.132   4.402
 6279SOL     OW19735   3.109   6.236   0.378
 6279SOL    HW119736   3.132   6.154   0.429
 6279SOL    HW219737   3.193   6.276   0.340
 6280SOL     OW19738   0.113   1.009   6.189
 6280SOL    HW119739   0.045   0.977   6.255
 6280SOL    HW219740   0.204   0.988   6.223
 6281SOL     OW19741   6.973   5.014   4.181
 6281SOL    HW119742   6.879   5.011   4.214
 6281SOL    HW219743   6.994   5.106   4.147
 6282SOL     OW19744   5.989   4.840   5.890
 6282SOL    HW119745   6.026   4.748   5.900
 6282SOL    HW219746   5.997   4.869   5.795
 6283SOL     OW19747   0.072   4.073   4.247
 6283SOL    HW119748   0.091   3.989   4.196
 6283SOL    HW219749   0.158   4.113   4.278
 6284SOL     OW19750   1.977   5.036   5.216
 6284SOL    HW119751   1.988   4.944   5.254
 6284SOL    HW219752   1.934   5.030   5.126
 6285SOL     OW19753   0.492   3.377   3.953
 6285SOL    HW119754   0.415   3.364   3.890
 6285SOL    HW219755   0.468   3.446   4.022
 6286SOL     OW19756   6.750   2.435   4.578
 6286SOL    HW119757   6.833   2.479   4.544
 6286SOL    HW219758   6.671   2.493   4.556
 6287SOL     OW19759   3.223   4.817   5.198
 6287SOL    HW119760   3.224   4.906   5.152
 6287SOL    HW219761   3.129   4.795   5.226
 6288SOL     OW19762   4.827   4.573   2.193
 6288SOL    HW119763   4.749   4.560   2.255
 6288SOL    HW219764   4.799   4.552   2.100
 6289SOL     OW19765   1.688   5.114   6.866
 6289SOL    HW119766   1.713   5.017   6.879
 6289SOL    HW219767   1.667   5.155   6.954
 6290SOL     OW19768   6.090   4.623   6.285
 6290SOL    HW119769   6.123   4.623   6.379
 6290SOL    HW219770   6.151   4.568   6.228
 6291SOL     OW19771   4.069   3.693   3.776
 6291SOL    HW119772   4.090   3.778   3.825
 6291SOL    HW219773   4.043   3.622   3.841
 6292SOL     OW19774   2.142   2.329   5.213
 6292SOL    HW119775   2.195   2.407   5.246
 6292SOL    HW219776   2.056   2.362   5.172
 6293SOL     OW19777   4.177   1.924   1.196
 6293SOL    HW119778   4.188   1.857   1.269
 6293SOL    HW219779   4.096   1.902   1.142
 6294SOL     OW19780   4.017   0.493   3.520
 6294SOL    HW119781   3.996   0.430   3.594
 6294SOL    HW219782   4.043   0.582   3.558
 6295SOL     OW19783   4.807   4.765   4.470
 6295SOL    HW119784   4.905   4.785   4.465
 6295SOL    HW219785   4.755   4.850   4.474
 6296SOL     OW19786   6.747   5.033   6.066
 6296SOL    HW119787   6.716   5.027   5.971
 6296SOL    HW219788   6.815   4.963   6.084
 6297SOL     OW19789   5.345   0.101   5.232
 6297SOL    HW119790   5.288   0.140   5.160
 6297SOL    HW219791   5.438   0.086   5.197
 6298SOL     OW19792   1.580   3.430   6.459
 6298SOL    HW119793   1.652   3.374   6.500
 6298SOL    HW219794   1.618   3.519   6.434
 6299SOL     OW19795   5.992   2.534   2.159
 6299SOL    HW119796   6.075   2.557   2.109
 6299SOL    HW219797   5.928   2.611   2.154
 6300SOL     OW19798   6.337   0.955   6.508
 6300SOL    HW119799   6.263   1.010   6.547
 6300SOL    HW219800   6.418   1.011   6.496
 6301SOL     OW19801   2.982   7.015   6.925
 6301SOL    HW119802   2.947   6.937   6.875
 6301SOL    HW219803   2.908   0.060   6.942
 6302SOL     OW19804   2.013   2.048   5.288
 6302SOL    HW119805   2.038   1.969   5.233
 6302SOL    HW219806   2.087   2.116   5.285
 6303SOL     OW19807   1.010   0.663   5.115
 6303SOL    HW119808   0.986   0.644   5.210
 6303SOL    HW219809   1.110   0.660   5.105
 6304SOL     OW19810   3.489   1.104   1.767
 6304SOL    HW119811   3.435   1.188   1.769
 6304SOL    HW219812   3.531   1.089   1.856
 6305SOL     OW19813   5.462   6.254   0.522
 6305SOL    HW119814   5.526   6.290   0.453
 6305SOL    HW219815   5.376   6.305   0.518
 6306SOL     OW19816   6.924   4.268   4.179
 6306SOL    HW119817   7.002   4.306   4.130
 6306SOL    HW219818   6.949   4.178   4.216
 6307SOL     OW19819   3.527   3.814   3.646
 6307SOL    HW119820   3.439   3.771   3.665
 6307SOL    HW219821   3.600   3.765   3.693
 6308SOL     OW19822   1.557   3.028   4.520
 6308SOL    HW119823   1.592   2.937   4.541
 6308SOL    HW219824   1.627   3.096   4.540
 6309SOL     OW19825   7.000   5.986   4.364
 6309SOL    HW119826   6.916   6.010   4.315
 6309SOL    HW219827   0.019   6.067   4.407
 6310SOL     OW19828   1.811   6.369   2.514
 6310SOL    HW119829   1.861   6.431   2.575
 6310SOL    HW219830   1.821   6.275   2.546
 6311SOL     OW19831   4.728   1.372   6.207
 6311SOL    HW119832   4.779   1.439   6.260
 6311SOL    HW219833   4.707   1.409   6.117
 6312SOL     OW19834   0.053   6.702   4.880
 6312SOL    HW119835   6.973   6.696   4.885
 6312SOL    HW219836   0.094   6.656   4.959
 6313SOL     OW19837   6.503   5.918   3.795
 6313SOL    HW119838   6.603   5.924   3.785
 6313SOL    HW219839   6.474   5.824   3.777
 6314SOL     OW19840   3.694   6.592   1.546
 6314SOL    HW119841   3.646   6.517   1.593
 6314SOL    HW219842   3.630   6.666   1.526
 6315SOL     OW19843   3.084   2.359   5.910
 6315SOL    HW119844   3.087   2.264   5.940
 6315SOL    HW219845   2.997   2.400   5.940
 6316SOL     OW19846   4.715   2.115   6.224
 6316SOL    HW119847   4.688   2.131   6.319
 6316SOL    HW219848   4.699   2.020   6.199
 6317SOL     OW19849   5.068   4.886   1.707
 6317SOL    HW119850   5.108   4.891   1.615
 6317SOL    HW219851   5.002   4.811   1.710
 6318SOL     OW19852   4.476   7.003   5.985
 6318SOL    HW119853   4.430   6.964   5.905
 6318SOL    HW219854   4.424   6.980   6.067
 6319SOL     OW19855   6.556   2.139   5.670
 6319SOL    HW119856   6.571   2.121   5.573
 6319SOL    HW219857   6.613   2.216   5.699
 6320SOL     OW19858   6.932   6.225   4.849
 6320SOL    HW119859   6.954   6.255   4.756
 6320SOL    HW219860   6.999   6.263   4.913
 6321SOL     OW19861   4.502   3.024   0.989
 6321SOL    HW119862   4.443   3.077   0.929
 6321SOL    HW219863   4.513   2.931   0.953
 6322SOL     OW19864   2.346   2.479   1.241
 6322SOL    HW119865   2.280   2.410   1.271
 6322SOL    HW219866   2.427   2.435   1.202
 6323SOL     OW19867   1.601   2.730   1.709
 6323SOL    HW119868   1.662   2.661   1.747
 6323SOL    HW219869   1.506   2.701   1.720
 6324SOL     OW19870   4.679   1.360   0.764
 6324SOL    HW119871   4.688   1.441   0.706
 6324SOL    HW219872   4.585   1.355   0.799
 6325SOL     OW19873   1.741   3.490   2.705
 6325SOL    HW119874   1.721   3.555   2.632
 6325SOL    HW219875   1.770   3.403   2.666
 6326SOL     OW19876   5.509   5.137   0.523
 6326SOL    HW119877   5.541   5.148   0.429
 6326SOL    HW219878   5.511   5.225   0.570
 6327SOL     OW19879   0.002   2.002   4.956
 6327SOL    HW119880   6.940   1.951   4.930
 6327SOL    HW219881   0.059   2.017   4.875
 6328SOL     OW19882   4.367   3.645   0.238
 6328SOL    HW119883   4.308   3.658   0.318
 6328SOL    HW219884   4.462   3.638   0.268
 6329SOL     OW19885   1.347   3.062   3.930
 6329SOL    HW119886   1.432   3.103   3.965
 6329SOL    HW219887   1.272   3.128   3.941
 6330SOL     OW19888   5.839   0.145   1.685
 6330SOL    HW119889   5.751   0.189   1.698
 6330SOL    HW219890   5.908   0.190   1.741
 6331SOL     OW19891   6.854   3.555   5.365
 6331SOL    HW119892   6.789   3.551   5.289
 6331SOL    HW219893   6.810   3.522   5.448
 6332SOL     OW19894   0.683   2.721   1.305
 6332SOL    HW119895   0.688   2.632   1.349
 6332SOL    HW219896   0.718   2.791   1.367
 6333SOL     OW19897   4.237   6.925   5.261
 6333SOL    HW119898   4.208   6.890   5.172
 6333SOL    HW219899   4.286   6.853   5.311
 6334SOL     OW19900   3.624   1.365   2.544
 6334SOL    HW119901   3.682   1.433   2.588
 6334SOL    HW219902   3.649   1.274   2.577
 6335SOL     OW19903   4.139   0.380   0.626
 6335SOL    HW119904   4.151   0.474   0.658
 6335SOL    HW219905   4.050   0.346   0.654
 6336SOL     OW19906   1.088   2.223   6.615
 6336SOL    HW119907   1.033   2.302   6.588
 6336SOL    HW219908   1.070   2.147   6.554
 6337SOL     OW19909   4.316   5.194   5.508
 6337SOL    HW119910   4.326   5.107   5.557
 6337SOL    HW219911   4.226   5.232   5.526
 6338SOL     OW19912   3.045   2.158   4.128
 6338SOL    HW119913   2.967   2.191   4.075
 6338SOL    HW219914   3.040   2.193   4.221
 6339SOL     OW19915   0.824   3.703   3.770
 6339SOL    HW119916   0.784   3.631   3.827
 6339SOL    HW219917   0.913   3.729   3.807
 6340SOL     OW19918   1.721   4.991   1.426
 6340SOL    HW119919   1.725   5.068   1.490
 6340SOL    HW219920   1.646   5.004   1.361
 6341SOL     OW19921   6.432   3.768   4.658
 6341SOL    HW119922   6.430   3.867   4.648
 6341SOL    HW219923   6.449   3.745   4.754
 6342SOL     OW19924   2.786   1.680   1.233
 6342SOL    HW119925   2.865   1.741   1.228
 6342SOL    HW219926   2.803   1.608   1.301
 6343SOL     OW19927   4.450   0.920   6.130
 6343SOL    HW119928   4.547   0.901   6.118
 6343SOL    HW219929   4.402   0.834   6.149
 6344SOL     OW19930   5.208   2.363   4.642
 6344SOL    HW119931   5.210   2.350   4.542
 6344SOL    HW219932   5.136   2.306   4.681
 6345SOL     OW19933   5.486   2.525   2.169
 6345SOL    HW119934   5.404   2.476   2.198
 6345SOL    HW219935   5.460   2.609   2.121
 6346SOL     OW19936   6.239   5.521   4.294
 6346SOL    HW119937   6.322   5.504   4.346
 6346SOL    HW219938   6.254   5.496   4.199
 6347SOL     OW19939   2.431   1.461   0.184
 6347SOL    HW119940   2.472   1.373   0.208
 6347SOL    HW219941   2.334   1.461   0.208
 6348SOL     OW19942   2.090   2.652   6.306
 6348SOL    HW119943   2.132   2.741   6.324
 6348SOL    HW219944   2.063   2.646   6.210
 6349SOL     OW19945   1.810   1.060   0.786
 6349SOL    HW119946   1.722   1.029   0.748
 6349SOL    HW219947   1.812   1.040   0.885
 6350SOL     OW19948   0.457   5.214   4.089
 6350SOL    HW119949   0.525   5.232   4.018
 6350SOL    HW219950   0.502   5.191   4.175
 6351SOL     OW19951   6.150   3.508   3.637
 6351SOL    HW119952   6.127   3.599   3.603
 6351SOL    HW219953   6.249   3.499   3.644
 6352SOL     OW19954   2.826   6.820   5.106
 6352SOL    HW119955   2.920   6.846   5.085
 6352SOL    HW219956   2.815   6.721   5.097
 6353SOL     OW19957   0.875   5.966   5.587
 6353SOL    HW119958   0.942   6.038   5.568
 6353SOL    HW219959   0.915   5.899   5.650
 6354SOL     OW19960   3.600   5.464   3.055
 6354SOL    HW119961   3.565   5.495   2.966
 6354SOL    HW219962   3.649   5.378   3.043
 6355SOL     OW19963   1.804   5.473   0.004
 6355SOL    HW119964   1.818   5.453   6.927
 6355SOL    HW219965   1.803   5.572   0.017
 6356SOL     OW19966   4.736   5.347   1.267
 6356SOL    HW119967   4.790   5.430   1.281
 6356SOL    HW219968   4.641   5.372   1.249
 6357SOL     OW19969   5.905   3.379   2.816
 6357SOL    HW119970   5.838   3.442   2.778
 6357SOL    HW219971   5.885   3.362   2.912
 6358SOL     OW19972   0.371   1.730   6.254
 6358SOL    HW119973   0.273   1.737   6.236
 6358SOL    HW219974   0.393   1.636   6.281
 6359SOL     OW19975   6.282   7.000   0.291
 6359SOL    HW119976   6.377   0.008   0.301
 6359SOL    HW219977   6.225   0.036   0.351
 6360SOL     OW19978   1.176   3.709   5.594
 6360SOL    HW119979   1.216   3.799   5.579
 6360SOL    HW219980   1.099   3.696   5.531
 6361SOL     OW19981   1.281   0.733   0.691
 6361SOL    HW119982   1.260   0.826   0.659
 6361SOL    HW219983   1.235   0.667   0.632
 6362SOL     OW19984   0.706   5.526   6.659
 6362SOL    HW119985   0.666   5.490   6.743
 6362SOL    HW219986   0.677   5.471   6.581
 6363SOL     OW19987   2.238   5.836   3.564
 6363SOL    HW119988   2.240   5.926   3.522
 6363SOL    HW219989   2.312   5.780   3.526
 6364SOL     OW19990   2.953   1.916   5.778
 6364SOL    HW119991   2.942   1.926   5.877
 6364SOL    HW219992   2.966   1.819   5.756
 6365SOL     OW19993   4.999   6.687   3.666
 6365SOL    HW119994   4.933   6.761   3.677
 6365SOL    HW219995   4.999   6.630   3.748
 6366SOL     OW19996   0.981   5.264   5.201
 6366SOL    HW119997   1.007   5.220   5.115
 6366SOL    HW219998   0.991   5.363   5.191
 6367SOL     OW19999   4.185   1.415   3.975
 6367SOL    HW120000   4.238   1.499   3.966
 6367SOL    HW220001   4.137   1.414   4.063
 6368SOL     OW20002   3.517   4.943   3.655
 6368SOL    HW120003   3.578   5.003   3.603
 6368SOL    HW220004   3.435   4.924   3.601
 6369SOL     OW20005   2.068   0.586   4.604
 6369SOL    HW120006   2.155   0.622   4.570
 6369SOL    HW220007   2.055   0.614   4.699
 6370SOL     OW20008   6.058   3.280   4.161
 6370SOL    HW120009   6.070   3.199   4.103
 6370SOL    HW220010   6.096   3.360   4.114
 6371SOL     OW20011   5.339   4.678   3.161
 6371SOL    HW120012   5.266   4.718   3.106
 6371SOL    HW220013   5.353   4.734   3.243
 6372SOL     OW20014   1.357   1.519   1.995
 6372SOL    HW120015   1.341   1.489   2.089
 6372SOL    HW220016   1.450   1.496   1.968
 6373SOL     OW20017   4.867   4.098   2.601
 6373SOL    HW120018   4.819   4.115   2.687
 6373SOL    HW220019   4.861   4.179   2.543
 6374SOL     OW20020   4.077   3.551   1.813
 6374SOL    HW120021   4.137   3.567   1.735
 6374SOL    HW220022   4.021   3.470   1.797
 6375SOL     OW20023   0.082   2.077   2.439
 6375SOL    HW120024   0.060   2.028   2.523
 6375SOL    HW220025   0.182   2.082   2.428
 6376SOL     OW20026   4.875   2.169   5.994
 6376SOL    HW120027   4.827   2.152   6.080
 6376SOL    HW220028   4.961   2.216   6.012
 6377SOL     OW20029   6.966   1.066   5.671
 6377SOL    HW120030   6.965   1.080   5.770
 6377SOL    HW220031   0.012   0.994   5.647
 6378SOL     OW20032   4.577   4.348   3.686
 6378SOL    HW120033   4.487   4.391   3.698
 6378SOL    HW220034   4.619   4.334   3.775
 6379SOL     OW20035   0.785   4.130   5.304
 6379SOL    HW120036   0.734   4.079   5.375
 6379SOL    HW220037   0.786   4.227   5.327
 6380SOL     OW20038   0.191   1.603   5.074
 6380SOL    HW120039   0.255   1.537   5.115
 6380SOL    HW220040   0.209   1.694   5.111
 6381SOL     OW20041   4.184   2.823   1.242
 6381SOL    HW120042   4.269   2.873   1.235
 6381SOL    HW220043   4.125   2.867   1.310
 6382SOL     OW20044   3.375   1.970   0.643
 6382SOL    HW120045   3.312   2.047   0.636
 6382SOL    HW220046   3.462   2.000   0.681
 6383SOL     OW20047   2.397   2.554   3.202
 6383SOL    HW120048   2.366   2.648   3.193
 6383SOL    HW220049   2.325   2.492   3.170
 6384SOL     OW20050   6.265   3.712   3.126
 6384SOL    HW120051   6.361   3.695   3.101
 6384SOL    HW220052   6.251   3.686   3.222
 6385SOL     OW20053   6.907   3.355   3.614
 6385SOL    HW120054   6.913   3.433   3.552
 6385SOL    HW220055   6.999   3.321   3.634
 6386SOL     OW20056   2.901   3.387   6.939
 6386SOL    HW120057   2.872   3.482   6.928
 6386SOL    HW220058   2.967   3.364   6.868
 6387SOL     OW20059   6.828   1.969   6.823
 6387SOL    HW120060   6.779   1.976   6.910
 6387SOL    HW220061   6.890   1.890   6.826
 6388SOL     OW20062   4.395   6.238   1.816
 6388SOL    HW120063   4.362   6.170   1.751
 6388SOL    HW220064   4.483   6.208   1.854
 6389SOL     OW20065   0.929   6.826   0.735
 6389SOL    HW120066   0.885   6.743   0.770
 6389SOL    HW220067   0.957   6.810   0.641
 6390SOL     OW20068   0.206   0.540   5.512
 6390SOL    HW120069   0.170   0.567   5.601
 6390SOL    HW220070   0.132   0.506   5.454
 6391SOL     OW20071   1.121   0.381   6.150
 6391SOL    HW120072   1.159   0.408   6.062
 6391SOL    HW220073   1.191   0.387   6.221
 6392SOL     OW20074   2.783   5.312   2.721
 6392SOL    HW120075   2.750   5.219   2.731
 6392SOL    HW220076   2.760   5.346   2.630
 6393SOL     OW20077   0.422   6.135   2.012
 6393SOL    HW120078   0.510   6.132   1.964
 6393SOL    HW220079   0.354   6.177   1.953
 6394SOL     OW20080   1.480   5.751   0.657
 6394SOL    HW120081   1.434   5.779   0.741
 6394SOL    HW220082   1.437   5.797   0.579
 6395SOL     OW20083   0.442   2.995   1.665
 6395SOL    HW120084   0.421   2.904   1.627
 6395SOL    HW220085   0.361   3.030   1.712
 6396SOL     OW20086   6.160   3.038   6.916
 6396SOL    HW120087   6.167   2.939   6.905
 6396SOL    HW220088   6.076   3.061   6.965
 6397SOL     OW20089   5.715   1.325   1.894
 6397SOL    HW120090   5.675   1.243   1.852
 6397SOL    HW220091   5.733   1.307   1.991
 6398SOL     OW20092   2.894   0.241   2.024
 6398SOL    HW120093   2.796   0.252   2.005
 6398SOL    HW220094   2.945   0.249   1.939
 6399SOL     OW20095   1.662   0.379   6.772
 6399SOL    HW120096   1.714   0.297   6.795
 6399SOL    HW220097   1.576   0.354   6.728
 6400SOL     OW20098   2.094   4.930   2.386
 6400SOL    HW120099   2.096   4.894   2.293
 6400SOL    HW220100   2.123   4.859   2.450
 6401SOL     OW20101   5.801   6.051   3.266
 6401SOL    HW120102   5.733   6.048   3.339
 6401SOL    HW220103   5.890   6.074   3.305
 6402SOL     OW20104   2.198   3.050   3.269
 6402SOL    HW120105   2.115   3.045   3.325
 6402SOL    HW220106   2.220   3.145   3.250
 6403SOL     OW20107   6.524   5.003   6.254
 6403SOL    HW120108   6.601   5.012   6.191
 6403SOL    HW220109   6.480   5.092   6.267
 6404SOL     OW20110   4.112   1.155   2.302
 6404SOL    HW120111   4.140   1.088   2.234
 6404SOL    HW220112   4.161   1.137   2.388
 6405SOL     OW20113   4.008   0.567   3.948
 6405SOL    HW120114   3.916   0.606   3.951
 6405SOL    HW220115   4.074   0.639   3.925
 6406SOL     OW20116   0.425   2.859   2.981
 6406SOL    HW120117   0.326   2.867   2.967
 6406SOL    HW220118   0.472   2.915   2.913
 6407SOL     OW20119   2.540   6.952   3.947
 6407SOL    HW120120   2.494   6.981   4.031
 6407SOL    HW220121   2.557   6.853   3.951
 6408SOL     OW20122   5.813   0.964   0.612
 6408SOL    HW120123   5.852   1.033   0.551
 6408SOL    HW220124   5.761   1.010   0.684
 6409SOL     OW20125   6.242   4.591   4.508
 6409SOL    HW120126   6.313   4.527   4.480
 6409SOL    HW220127   6.274   4.684   4.497
 6410SOL     OW20128   2.046   1.078   5.873
 6410SOL    HW120129   1.990   1.031   5.941
 6410SOL    HW220130   2.023   1.175   5.871
 6411SOL     OW20131   0.417   3.115   3.105
 6411SOL    HW120132   0.482   3.072   3.042
 6411SOL    HW220133   0.450   3.105   3.199
 6412SOL     OW20134   1.823   1.395   5.070
 6412SOL    HW120135   1.815   1.389   5.170
 6412SOL    HW220136   1.866   1.482   5.046
 6413SOL     OW20137   4.027   4.863   3.554
 6413SOL    HW120138   4.010   4.867   3.653
 6413SOL    HW220139   3.940   4.863   3.505
 6414SOL     OW20140   5.542   1.154   0.385
 6414SOL    HW120141   5.564   1.248   0.357
 6414SOL    HW220142   5.450   1.152   0.425
 6415SOL     OW20143   1.445   3.520   3.484
 6415SOL    HW120144   1.396   3.606   3.490
 6415SOL    HW220145   1.383   3.444   3.502
 6416SOL     OW20146   1.651   6.908   6.736
 6416SOL    HW120147   1.643   6.996   6.783
 6416SOL    HW220148   1.655   6.923   6.638
 6417SOL     OW20149   5.451   4.620   0.484
 6417SOL    HW120150   5.540   4.610   0.440
 6417SOL    HW220151   5.416   4.530   0.509
 6418SOL     OW20152   4.874   3.329   2.477
 6418SOL    HW120153   4.788   3.319   2.428
 6418SOL    HW220154   4.909   3.422   2.465
 6419SOL     OW20155   0.695   5.206   2.942
 6419SOL    HW120156   0.681   5.108   2.932
 6419SOL    HW220157   0.652   5.254   2.866
 6420SOL     OW20158   2.456   6.686   4.052
 6420SOL    HW120159   2.510   6.607   4.022
 6420SOL    HW220160   2.361   6.675   4.022
 6421SOL     OW20161   4.564   0.498   2.185
 6421SOL    HW120162   4.478   0.541   2.212
 6421SOL    HW220163   4.546   0.410   2.143
 6422SOL     OW20164   6.724   0.037   4.877
 6422SOL    HW120165   6.627   0.029   4.853
 6422SOL    HW220166   6.757   0.128   4.853
 6423SOL     OW20167   4.651   5.537   3.382
 6423SOL    HW120168   4.555   5.561   3.367
 6423SOL    HW220169   4.677   5.558   3.476
 6424SOL     OW20170   0.416   4.286   4.572
 6424SOL    HW120171   0.397   4.362   4.633
 6424SOL    HW220172   0.428   4.202   4.625
 6425SOL     OW20173   6.824   6.589   2.889
 6425SOL    HW120174   6.896   6.557   2.827
 6425SOL    HW220175   6.741   6.608   2.837
 6426SOL     OW20176   0.627   5.353   2.719
 6426SOL    HW120177   0.562   5.427   2.741
 6426SOL    HW220178   0.688   5.383   2.646
 6427SOL     OW20179   4.034   3.882   4.020
 6427SOL    HW120180   4.064   3.975   4.042
 6427SOL    HW220181   4.060   3.820   4.094
 6428SOL     OW20182   5.413   3.216   6.638
 6428SOL    HW120183   5.439   3.171   6.724
 6428SOL    HW220184   5.442   3.311   6.640
 6429SOL     OW20185   6.934   1.331   5.915
 6429SOL    HW120186   6.899   1.361   5.826
 6429SOL    HW220187   6.928   1.407   5.980
 6430SOL     OW20188   6.137   0.776   4.135
 6430SOL    HW120189   6.232   0.756   4.159
 6430SOL    HW220190   6.117   0.742   4.043
 6431SOL     OW20191   3.755   6.046   3.533
 6431SOL    HW120192   3.664   6.007   3.516
 6431SOL    HW220193   3.754   6.096   3.620
 6432SOL     OW20194   4.765   4.410   6.035
 6432SOL    HW120195   4.806   4.488   5.989
 6432SOL    HW220196   4.831   4.371   6.100
 6433SOL     OW20197   1.537   5.195   5.669
 6433SOL    HW120198   1.623   5.200   5.720
 6433SOL    HW220199   1.547   5.240   5.580
 6434SOL     OW20200   2.901   6.630   6.110
 6434SOL    HW120201   2.973   6.669   6.052
 6434SOL    HW220202   2.870   6.699   6.175
 6435SOL     OW20203   5.316   6.967   0.514
 6435SOL    HW120204   5.286   6.904   0.442
 6435SOL    HW220205   5.273   6.941   0.600
 6436SOL     OW20206   1.270   2.952   2.502
 6436SOL    HW120207   1.242   3.048   2.499
 6436SOL    HW220208   1.242   2.913   2.590
 6437SOL     OW20209   1.613   2.425   0.043
 6437SOL    HW120210   1.659   2.419   6.974
 6437SOL    HW220211   1.565   2.339   0.062
 6438SOL     OW20212   0.648   3.847   5.569
 6438SOL    HW120213   0.609   3.796   5.645
 6438SOL    HW220214   0.599   3.934   5.559
 6439SOL     OW20215   5.380   1.019   1.924
 6439SOL    HW120216   5.381   0.922   1.902
 6439SOL    HW220217   5.371   1.031   2.023
 6440SOL     OW20218   2.758   1.450   5.763
 6440SOL    HW120219   2.734   1.369   5.816
 6440SOL    HW220220   2.846   1.486   5.794
 6441SOL     OW20221   0.220   0.078   1.277
 6441SOL    HW120222   0.232   6.999   1.291
 6441SOL    HW220223   0.132   0.095   1.233
 6442SOL     OW20224   2.442   1.645   5.140
 6442SOL    HW120225   2.493   1.603   5.215
 6442SOL    HW220226   2.427   1.742   5.160
 6443SOL     OW20227   3.657   2.516   5.350
 6443SOL    HW120228   3.648   2.589   5.282
 6443SOL    HW220229   3.570   2.467   5.357
 6444SOL     OW20230   5.733   3.392   4.619
 6444SOL    HW120231   5.781   3.323   4.565
 6444SOL    HW220232   5.641   3.358   4.642
 6445SOL     OW20233   4.114   3.366   4.534
 6445SOL    HW120234   4.132   3.458   4.569
 6445SOL    HW220235   4.141   3.298   4.602
 6446SOL     OW20236   1.249   1.092   6.842
 6446SOL    HW120237   1.224   1.075   6.746
 6446SOL    HW220238   1.326   1.034   6.867
 6447SOL     OW20239   6.214   4.925   2.765
 6447SOL    HW120240   6.256   4.888   2.848
 6447SOL    HW220241   6.190   4.850   2.703
 6448SOL     OW20242   5.151   5.517   1.421
 6448SOL    HW120243   5.202   5.559   1.346
 6448SOL    HW220244   5.130   5.586   1.490
 6449SOL     OW20245   3.792   6.198   1.637
 6449SOL    HW120246   3.733   6.146   1.699
 6449SOL    HW220247   3.821   6.282   1.682
 6450SOL     OW20248   1.390   3.044   0.764
 6450SOL    HW120249   1.324   2.974   0.735
 6450SOL    HW220250   1.434   3.084   0.684
 6451SOL     OW20251   2.413   0.525   5.355
 6451SOL    HW120252   2.360   0.608   5.335
 6451SOL    HW220253   2.507   0.537   5.322
 6452SOL     OW20254   4.422   4.531   3.071
 6452SOL    HW120255   4.445   4.517   2.974
 6452SOL    HW220256   4.465   4.459   3.125
 6453SOL     OW20257   2.192   0.064   2.085
 6453SOL    HW120258   2.289   0.063   2.063
 6453SOL    HW220259   2.180   0.085   2.181
 6454SOL     OW20260   0.640   1.759   3.494
 6454SOL    HW120261   0.666   1.666   3.468
 6454SOL    HW220262   0.554   1.783   3.448
 6455SOL     OW20263   0.362   3.222   4.357
 6455SOL    HW120264   0.319   3.181   4.277
 6455SOL    HW220265   0.372   3.153   4.428
 6456SOL     OW20266   1.685   1.198   3.260
 6456SOL    HW120267   1.616   1.271   3.253
 6456SOL    HW220268   1.747   1.218   3.335
 6457SOL     OW20269   4.956   0.779   1.716
 6457SOL    HW120270   4.991   0.870   1.695
 6457SOL    HW220271   4.868   0.765   1.670
 6458SOL     OW20272   1.049   5.713   4.147
 6458SOL    HW120273   1.103   5.668   4.075
 6458SOL    HW220274   0.965   5.749   4.107
 6459SOL     OW20275   6.348   3.403   1.454
 6459SOL    HW120276   6.380   3.327   1.510
 6459SOL    HW220277   6.258   3.381   1.416
 6460SOL     OW20278   6.298   6.087   6.274
 6460SOL    HW120279   6.364   6.056   6.206
 6460SOL    HW220280   6.315   6.040   6.361
 6461SOL     OW20281   2.583   4.691   6.855
 6461SOL    HW120282   2.653   4.664   6.921
 6461SOL    HW220283   2.494   4.694   6.901
 6462SOL     OW20284   1.795   3.183   4.527
 6462SOL    HW120285   1.806   3.233   4.614
 6462SOL    HW220286   1.883   3.146   4.499
 6463SOL     OW20287   5.757   1.666   0.695
 6463SOL    HW120288   5.693   1.738   0.721
 6463SOL    HW220289   5.850   1.694   0.721
 6464SOL     OW20290   1.668   4.923   4.851
 6464SOL    HW120291   1.654   4.977   4.934
 6464SOL    HW220292   1.766   4.908   4.838
 6465SOL     OW20293   6.667   2.976   2.686
 6465SOL    HW120294   6.654   3.044   2.759
 6465SOL    HW220295   6.696   2.889   2.726
 6466SOL     OW20296   6.114   1.152   5.848
 6466SOL    HW120297   6.057   1.073   5.869
 6466SOL    HW220298   6.208   1.122   5.831
 6467SOL     OW20299   3.802   0.270   6.952
 6467SOL    HW120300   3.855   0.227   0.005
 6467SOL    HW220301   3.852   0.348   6.915
 6468SOL     OW20302   2.627   6.415   1.265
 6468SOL    HW120303   2.556   6.478   1.231
 6468SOL    HW220304   2.671   6.370   1.188
 6469SOL     OW20305   4.388   2.406   3.969
 6469SOL    HW120306   4.487   2.415   3.956
 6469SOL    HW220307   4.342   2.416   3.880
 6470SOL     OW20308   5.599   2.701   0.950
 6470SOL    HW120309   5.694   2.728   0.967
 6470SOL    HW220310   5.595   2.603   0.932
 6471SOL     OW20311   0.248   6.220   5.877
 6471SOL    HW120312   0.266   6.171   5.792
 6471SOL    HW220313   0.192   6.301   5.859
 6472SOL     OW20314   6.784   6.148   1.654
 6472SOL    HW120315   6.716   6.221   1.658
 6472SOL    HW220316   6.830   6.151   1.566
 6473SOL     OW20317   2.964   1.717   4.696
 6473SOL    HW120318   2.880   1.768   4.713
 6473SOL    HW220319   2.979   1.708   4.597
 6474SOL     OW20320   3.637   5.309   6.364
 6474SOL    HW120321   3.716   5.247   6.361
 6474SOL    HW220322   3.587   5.294   6.449
 6475SOL     OW20323   5.842   4.901   3.744
 6475SOL    HW120324   5.804   4.916   3.835
 6475SOL    HW220325   5.901   4.820   3.745
 6476SOL     OW20326   4.818   3.536   0.731
 6476SOL    HW120327   4.834   3.471   0.805
 6476SOL    HW220328   4.823   3.487   0.643
 6477SOL     OW20329   5.852   4.942   0.158
 6477SOL    HW120330   5.896   5.007   0.096
 6477SOL    HW220331   5.901   4.940   0.244
 6478SOL     OW20332   3.553   0.190   2.295
 6478SOL    HW120333   3.473   0.240   2.260
 6478SOL    HW220334   3.525   0.133   2.373
 6479SOL     OW20335   4.300   5.515   3.933
 6479SOL    HW120336   4.261   5.442   3.990
 6479SOL    HW220337   4.318   5.478   3.841
 6480SOL     OW20338   2.885   1.081   6.852
 6480SOL    HW120339   2.843   1.169   6.874
 6480SOL    HW220340   2.826   1.007   6.882
 6481SOL     OW20341   3.305   2.074   2.182
 6481SOL    HW120342   3.217   2.081   2.134
 6481SOL    HW220343   3.288   2.065   2.280
 6482SOL     OW20344   6.417   1.971   5.832
 6482SOL    HW120345   6.363   1.899   5.789
 6482SOL    HW220346   6.479   2.012   5.764
 6483SOL     OW20347   0.773   0.355   3.364
 6483SOL    HW120348   0.860   0.344   3.413
 6483SOL    HW220349   0.785   0.328   3.269
 6484SOL     OW20350   3.378   0.198   1.503
 6484SOL    HW120351   3.280   0.208   1.523
 6484SOL    HW220352   3.393   0.201   1.404
 6485SOL     OW20353   2.135   5.203   3.725
 6485SOL    HW120354   2.226   5.168   3.701
 6485SOL    HW220355   2.101   5.263   3.653
 6486SOL     OW20356   0.393   4.231   3.143
 6486SOL    HW120357   0.335   4.273   3.073
 6486SOL    HW220358   0.428   4.143   3.109
 6487SOL     OW20359   0.761   6.896   4.954
 6487SOL    HW120360   0.834   6.833   4.979
 6487SOL    HW220361   0.787   6.989   4.979
 6488SOL     OW20362   3.884   6.284   4.367
 6488SOL    HW120363   3.795   6.255   4.334
 6488SOL    HW220364   3.904   6.239   4.454
 6489SOL     OW20365   3.198   3.556   6.358
 6489SOL    HW120366   3.137   3.609   6.417
 6489SOL    HW220367   3.212   3.606   6.272
 6490SOL     OW20368   3.910   1.319   6.518
 6490SOL    HW120369   3.953   1.339   6.606
 6490SOL    HW220370   3.828   1.265   6.533
 6491SOL     OW20371   3.781   0.957   1.466
 6491SOL    HW120372   3.815   0.990   1.554
 6491SOL    HW220373   3.842   0.987   1.393
 6492SOL     OW20374   3.924   4.976   6.227
 6492SOL    HW120375   3.929   4.983   6.127
 6492SOL    HW220376   4.016   4.977   6.266
 6493SOL     OW20377   2.051   4.732   6.074
 6493SOL    HW120378   2.051   4.638   6.041
 6493SOL    HW220379   2.118   4.742   6.148
 6494SOL     OW20380   6.778   0.486   3.324
 6494SOL    HW120381   6.859   0.442   3.286
 6494SOL    HW220382   6.795   0.584   3.333
 6495SOL     OW20383   6.568   0.467   4.846
 6495SOL    HW120384   6.580   0.380   4.799
 6495SOL    HW220385   6.473   0.497   4.837
 6496SOL     OW20386   6.028   1.090   3.168
 6496SOL    HW120387   5.960   1.116   3.100
 6496SOL    HW220388   5.983   1.047   3.246
 6497SOL     OW20389   1.084   1.047   1.286
 6497SOL    HW120390   1.158   1.012   1.227
 6497SOL    HW220391   1.014   1.089   1.229
 6498SOL     OW20392   1.587   3.140   4.011
 6498SOL    HW120393   1.657   3.068   4.017
 6498SOL    HW220394   1.568   3.175   4.103
 6499SOL     OW20395   5.644   4.225   5.343
 6499SOL    HW120396   5.611   4.138   5.308
 6499SOL    HW220397   5.654   4.289   5.267
 6500SOL     OW20398   6.416   3.872   5.084
 6500SOL    HW120399   6.388   3.946   5.023
 6500SOL    HW220400   6.370   3.787   5.058
 6501SOL     OW20401   6.591   0.876   6.337
 6501SOL    HW120402   6.604   0.827   6.251
 6501SOL    HW220403   6.631   0.823   6.412
 6502SOL     OW20404   6.379   2.893   2.747
 6502SOL    HW120405   6.474   2.912   2.770
 6502SOL    HW220406   6.362   2.920   2.652
 6503SOL     OW20407   5.630   1.421   3.595
 6503SOL    HW120408   5.587   1.351   3.652
 6503SOL    HW220409   5.625   1.393   3.499
 6504SOL     OW20410   4.552   6.245   5.234
 6504SOL    HW120411   4.476   6.198   5.190
 6504SOL    HW220412   4.631   6.244   5.174
 6505SOL     OW20413   5.547   5.905   6.280
 6505SOL    HW120414   5.490   5.840   6.331
 6505SOL    HW220415   5.643   5.892   6.306
 6506SOL     OW20416   6.861   2.805   2.912
 6506SOL    HW120417   6.805   2.738   2.960
 6506SOL    HW220418   6.956   2.773   2.909
 6507SOL     OW20419   1.640   5.501   6.509
 6507SOL    HW120420   1.566   5.454   6.461
 6507SOL    HW220421   1.608   5.590   6.541
 6508SOL     OW20422   1.605   0.985   2.778
 6508SOL    HW120423   1.696   1.025   2.794
 6508SOL    HW220424   1.562   1.031   2.701
 6509SOL     OW20425   4.356   1.903   4.713
 6509SOL    HW120426   4.403   1.862   4.792
 6509SOL    HW220427   4.415   1.898   4.633
 6510SOL     OW20428   6.861   5.312   0.117
 6510SOL    HW120429   6.896   5.372   0.046
 6510SOL    HW220430   6.868   5.357   0.206
 6511SOL     OW20431   4.050   0.833   4.721
 6511SOL    HW120432   4.059   0.735   4.737
 6511SOL    HW220433   4.109   0.883   4.784
 6512SOL     OW20434   3.846   6.460   2.072
 6512SOL    HW120435   3.881   6.367   2.060
 6512SOL    HW220436   3.906   6.511   2.133
 6513SOL     OW20437   2.646   5.018   3.178
 6513SOL    HW120438   2.651   5.042   3.081
 6513SOL    HW220439   2.618   5.098   3.231
 6514SOL     OW20440   5.918   1.754   4.097
 6514SOL    HW120441   5.919   1.654   4.090
 6514SOL    HW220442   5.869   1.781   4.180
 6515SOL     OW20443   0.795   4.704   3.510
 6515SOL    HW120444   0.835   4.796   3.507
 6515SOL    HW220445   0.857   4.640   3.465
 6516SOL     OW20446   0.238   3.349   1.774
 6516SOL    HW120447   0.224   3.436   1.821
 6516SOL    HW220448   0.157   3.291   1.785
 6517SOL     OW20449   6.908   1.387   1.868
 6517SOL    HW120450   6.810   1.369   1.857
 6517SOL    HW220451   6.925   1.423   1.960
 6518SOL     OW20452   7.018   0.471   0.365
 6518SOL    HW120453   6.945   0.539   0.377
 6518SOL    HW220454   0.079   0.516   0.327
 6519SOL     OW20455   0.664   2.323   3.124
 6519SOL    HW120456   0.730   2.386   3.081
 6519SOL    HW220457   0.713   2.262   3.186
 6520SOL     OW20458   6.470   5.103   1.347
 6520SOL    HW120459   6.455   5.077   1.442
 6520SOL    HW220460   6.383   5.099   1.297
 6521SOL     OW20461   1.963   2.702   4.170
 6521SOL    HW120462   1.875   2.728   4.211
 6521SOL    HW220463   2.029   2.682   4.243
 6522SOL     OW20464   2.826   4.928   5.443
 6522SOL    HW120465   2.729   4.904   5.451
 6522SOL    HW220466   2.834   5.017   5.398
 6523SOL     OW20467   3.482   1.309   6.779
 6523SOL    HW120468   3.573   1.349   6.780
 6523SOL    HW220469   3.415   1.378   6.807
 6524SOL     OW20470   2.984   3.391   1.694
 6524SOL    HW120471   3.007   3.319   1.629
 6524SOL    HW220472   3.067   3.423   1.739
 6525SOL     OW20473   2.172   5.318   3.266
 6525SOL    HW120474   2.225   5.399   3.243
 6525SOL    HW220475   2.075   5.335   3.250
 6526SOL     OW20476   2.546   0.673   0.723
 6526SOL    HW120477   2.631   0.720   0.700
 6526SOL    HW220478   2.498   0.724   0.794
 6527SOL     OW20479   0.388   1.575   5.437
 6527SOL    HW120480   0.322   1.501   5.428
 6527SOL    HW220481   0.341   1.661   5.457
 6528SOL     OW20482   6.045   1.059   4.894
 6528SOL    HW120483   6.001   1.140   4.933
 6528SOL    HW220484   5.984   0.981   4.903
 6529SOL     OW20485   2.121   0.896   2.989
 6529SOL    HW120486   2.042   0.866   3.042
 6529SOL    HW220487   2.157   0.819   2.936
 6530SOL     OW20488   0.149   2.227   0.191
 6530SOL    HW120489   0.147   2.293   0.266
 6530SOL    HW220490   0.175   2.137   0.226
 6531SOL     OW20491   5.059   3.279   5.278
 6531SOL    HW120492   5.051   3.377   5.293
 6531SOL    HW220493   4.968   3.239   5.270
 6532SOL     OW20494   0.074   1.073   1.060
 6532SOL    HW120495   7.012   1.019   1.080
 6532SOL    HW220496   0.139   1.017   1.010
 6533SOL     OW20497   4.722   0.039   0.790
 6533SOL    HW120498   4.624   0.045   0.774
 6533SOL    HW220499   4.760   6.984   0.736
 6534SOL     OW20500   4.678   4.185   1.418
 6534SOL    HW120501   4.582   4.208   1.406
 6534SOL    HW220502   4.724   4.183   1.330
 6535SOL     OW20503   6.278   4.651   3.858
 6535SOL    HW120504   6.220   4.672   3.936
 6535SOL    HW220505   6.374   4.665   3.882
 6536SOL     OW20506   0.467   1.186   5.527
 6536SOL    HW120507   0.495   1.225   5.440
 6536SOL    HW220508   0.546   1.182   5.588
 6537SOL     OW20509   6.924   5.017   6.610
 6537SOL    HW120510   6.884   5.066   6.687
 6537SOL    HW220511   6.910   5.068   6.525
 6538SOL     OW20512   2.479   3.765   6.424
 6538SOL    HW120513   2.402   3.707   6.400
 6538SOL    HW220514   2.551   3.709   6.466
 6539SOL     OW20515   5.251   0.907   6.566
 6539SOL    HW120516   5.182   0.858   6.512
 6539SOL    HW220517   5.219   0.916   6.661
 6540SOL     OW20518   4.671   1.925   6.050
 6540SOL    HW120519   4.608   1.976   5.992
 6540SOL    HW220520   4.755   1.905   6.000
 6541SOL     OW20521   4.863   1.698   4.723
 6541SOL    HW120522   4.935   1.703   4.653
 6541SOL    HW220523   4.787   1.643   4.689
 6542SOL     OW20524   6.504   3.083   4.273
 6542SOL    HW120525   6.460   3.100   4.361
 6542SOL    HW220526   6.451   3.015   4.222
 6543SOL     OW20527   4.790   3.132   5.964
 6543SOL    HW120528   4.816   3.036   5.977
 6543SOL    HW220529   4.867   3.191   5.988
 6544SOL     OW20530   1.057   6.573   3.040
 6544SOL    HW120531   1.141   6.604   3.084
 6544SOL    HW220532   1.053   6.608   2.946
 6545SOL     OW20533   4.111   0.670   0.982
 6545SOL    HW120534   4.090   0.704   0.890
 6545SOL    HW220535   4.050   0.595   1.005
 6546SOL     OW20536   2.934   4.197   0.250
 6546SOL    HW120537   2.882   4.281   0.235
 6546SOL    HW220538   2.913   4.132   0.177
 6547SOL     OW20539   4.678   1.122   6.163
 6547SOL    HW120540   4.596   1.153   6.115
 6547SOL    HW220541   4.724   1.200   6.205
 6548SOL     OW20542   0.425   3.886   0.922
 6548SOL    HW120543   0.485   3.844   0.855
 6548SOL    HW220544   0.471   3.890   1.011
 6549SOL     OW20545   3.933   0.425   1.821
 6549SOL    HW120546   3.926   0.495   1.750
 6549SOL    HW220547   3.960   0.467   1.907
 6550SOL     OW20548   0.050   6.966   3.370
 6550SOL    HW120549   0.047   7.013   3.458
 6550SOL    HW220550   0.092   0.007   3.302
 6551SOL     OW20551   1.571   4.742   1.998
 6551SOL    HW120552   1.623   4.687   2.063
 6551SOL    HW220553   1.634   4.788   1.935
 6552SOL     OW20554   1.787   0.093   0.382
 6552SOL    HW120555   1.865   0.156   0.375
 6552SOL    HW220556   1.805   0.012   0.325
 6553SOL     OW20557   6.778   2.510   3.334
 6553SOL    HW120558   6.812   2.435   3.278
 6553SOL    HW220559   6.746   2.475   3.421
 6554SOL     OW20560   0.737   0.542   4.875
 6554SOL    HW120561   0.688   0.465   4.834
 6554SOL    HW220562   0.835   0.526   4.867
 6555SOL     OW20563   5.751   1.408   3.288
 6555SOL    HW120564   5.660   1.450   3.288
 6555SOL    HW220565   5.747   1.322   3.339
 6556SOL     OW20566   5.085   4.259   4.136
 6556SOL    HW120567   5.082   4.322   4.213
 6556SOL    HW220568   5.050   4.170   4.165
 6557SOL     OW20569   3.251   0.017   2.593
 6557SOL    HW120570   3.206   0.106   2.593
 6557SOL    HW220571   3.184   6.966   2.571
 6558SOL     OW20572   6.778   5.181   0.500
 6558SOL    HW120573   6.794   5.090   0.462
 6558SOL    HW220574   6.738   5.173   0.591
 6559SOL     OW20575   0.613   4.034   0.430
 6559SOL    HW120576   0.701   3.994   0.405
 6559SOL    HW220577   0.560   3.967   0.482
 6560SOL     OW20578   4.650   4.943   1.651
 6560SOL    HW120579   4.702   4.953   1.737
 6560SOL    HW220580   4.667   5.023   1.593
 6561SOL     OW20581   3.049   4.165   1.756
 6561SOL    HW120582   3.029   4.192   1.850
 6561SOL    HW220583   3.098   4.077   1.756
 6562SOL     OW20584   6.265   3.240   0.653
 6562SOL    HW120585   6.341   3.194   0.607
 6562SOL    HW220586   6.180   3.218   0.605
 6563SOL     OW20587   5.318   5.540   6.240
 6563SOL    HW120588   5.306   5.506   6.334
 6563SOL    HW220589   5.240   5.512   6.184
 6564SOL     OW20590   6.677   3.911   3.197
 6564SOL    HW120591   6.692   3.879   3.290
 6564SOL    HW220592   6.761   3.953   3.162
 6565SOL     OW20593   5.457   1.951   3.021
 6565SOL    HW120594   5.516   1.878   3.054
 6565SOL    HW220595   5.514   2.027   2.987
 6566SOL     OW20596   4.021   6.235   2.044
 6566SOL    HW120597   4.053   6.297   1.972
 6566SOL    HW220598   4.084   6.240   2.122
 6567SOL     OW20599   4.970   1.060   2.862
 6567SOL    HW120600   4.996   1.041   2.767
 6567SOL    HW220601   4.871   1.046   2.873
 6568SOL     OW20602   2.697   0.979   3.597
 6568SOL    HW120603   2.715   1.072   3.628
 6568SOL    HW220604   2.777   0.943   3.550
 6569SOL     OW20605   2.960   3.327   0.459
 6569SOL    HW120606   2.951   3.238   0.504
 6569SOL    HW220607   2.875   3.348   0.410
 6570SOL     OW20608   3.608   1.082   2.552
 6570SOL    HW120609   3.539   1.126   2.608
 6570SOL    HW220610   3.579   0.989   2.529
 6571SOL     OW20611   3.161   5.276   1.713
 6571SOL    HW120612   3.074   5.251   1.672
 6571SOL    HW220613   3.148   5.296   1.810
 6572SOL     OW20614   0.459   5.189   4.874
 6572SOL    HW120615   0.498   5.110   4.827
 6572SOL    HW220616   0.361   5.176   4.886
 6573SOL     OW20617   1.043   2.143   2.265
 6573SOL    HW120618   1.079   2.084   2.193
 6573SOL    HW220619   0.999   2.222   2.223
 6574SOL     OW20620   2.679   5.159   2.269
 6574SOL    HW120621   2.590   5.148   2.314
 6574SOL    HW220622   2.673   5.231   2.200
 6575SOL     OW20623   0.783   0.194   3.139
 6575SOL    HW120624   0.761   0.097   3.129
 6575SOL    HW220625   0.827   0.227   3.056
 6576SOL     OW20626   2.083   6.333   6.747
 6576SOL    HW120627   2.039   6.244   6.757
 6576SOL    HW220628   2.024   6.393   6.694
 6577SOL     OW20629   0.615   1.885   4.500
 6577SOL    HW120630   0.698   1.838   4.528
 6577SOL    HW220631   0.557   1.823   4.447
 6578SOL     OW20632   0.798   5.961   3.075
 6578SOL    HW120633   0.746   5.877   3.058
 6578SOL    HW220634   0.826   5.963   3.171
 6579SOL     OW20635   0.092   3.539   4.124
 6579SOL    HW120636   0.109   3.475   4.199
 6579SOL    HW220637   0.093   3.490   4.037
 6580SOL     OW20638   0.920   2.254   1.111
 6580SOL    HW120639   0.879   2.340   1.079
 6580SOL    HW220640   0.855   2.207   1.170
 6581SOL     OW20641   2.914   0.995   0.454
 6581SOL    HW120642   2.969   1.009   0.372
 6581SOL    HW220643   2.817   1.013   0.433
 6582SOL     OW20644   0.482   1.180   3.530
 6582SOL    HW120645   0.448   1.118   3.600
 6582SOL    HW220646   0.580   1.198   3.546
 6583SOL     OW20647   4.490   7.015   5.568
 6583SOL    HW120648   4.421   0.063   5.544
 6583SOL    HW220649   4.445   6.934   5.606
 6584SOL     OW20650   4.606   2.438   0.849
 6584SOL    HW120651   4.585   2.478   0.760
 6584SOL    HW220652   4.615   2.510   0.917
 6585SOL     OW20653   6.740   6.255   6.919
 6585SOL    HW120654   6.737   6.345   6.961
 6585SOL    HW220655   6.667   6.247   6.851
 6586SOL     OW20656   5.343   0.650   5.324
 6586SOL    HW120657   5.410   0.576   5.330
 6586SOL    HW220658   5.279   0.632   5.250
 6587SOL     OW20659   1.675   5.520   5.510
 6587SOL    HW120660   1.739   5.446   5.531
 6587SOL    HW220661   1.616   5.536   5.589
 6588SOL     OW20662   0.792   3.302   2.132
 6588SOL    HW120663   0.777   3.346   2.221
 6588SOL    HW220664   0.874   3.340   2.090
 6589SOL     OW20665   5.002   0.920   0.614
 6589SOL    HW120666   5.019   0.827   0.647
 6589SOL    HW220667   4.934   0.964   0.674
 6590SOL     OW20668   0.169   1.244   5.907
 6590SOL    HW120669   0.075   1.271   5.927
 6590SOL    HW220670   0.186   1.255   5.809
 6591SOL     OW20671   6.193   5.285   2.272
 6591SOL    HW120672   6.289   5.259   2.273
 6591SOL    HW220673   6.144   5.236   2.344
 6592SOL     OW20674   5.722   6.785   3.134
 6592SOL    HW120675   5.810   6.779   3.182
 6592SOL    HW220676   5.732   6.842   3.053
 6593SOL     OW20677   1.805   2.490   2.895
 6593SOL    HW120678   1.764   2.434   2.822
 6593SOL    HW220679   1.732   2.531   2.950
 6594SOL     OW20680   3.515   1.647   6.769
 6594SOL    HW120681   3.598   1.704   6.765
 6594SOL    HW220682   3.490   1.633   6.865
 6595SOL     OW20683   1.396   4.347   6.894
 6595SOL    HW120684   1.319   4.299   6.851
 6595SOL    HW220685   1.472   4.283   6.905
 6596SOL     OW20686   3.268   6.594   4.530
 6596SOL    HW120687   3.274   6.689   4.560
 6596SOL    HW220688   3.256   6.535   4.610
 6597SOL     OW20689   1.147   5.631   1.479
 6597SOL    HW120690   1.231   5.611   1.529
 6597SOL    HW220691   1.109   5.546   1.443
 6598SOL     OW20692   1.425   5.758   4.497
 6598SOL    HW120693   1.405   5.663   4.519
 6598SOL    HW220694   1.384   5.782   4.409
 6599SOL     OW20695   4.082   6.029   6.396
 6599SOL    HW120696   4.017   5.987   6.460
 6599SOL    HW220697   4.064   5.995   6.304
 6600SOL     OW20698   4.308   5.615   5.322
 6600SOL    HW120699   4.327   5.703   5.364
 6600SOL    HW220700   4.219   5.618   5.278
 6601SOL     OW20701   1.689   2.154   4.931
 6601SOL    HW120702   1.591   2.141   4.914
 6601SOL    HW220703   1.737   2.164   4.844
 6602SOL     OW20704   1.521   1.092   2.535
 6602SOL    HW120705   1.502   1.034   2.456
 6602SOL    HW220706   1.600   1.150   2.515
 6603SOL     OW20707   6.923   2.663   3.662
 6603SOL    HW120708   6.840   2.675   3.608
 6603SOL    HW220709   6.928   2.569   3.696
 6604SOL     OW20710   1.627   0.408   0.627
 6604SOL    HW120711   1.565   0.486   0.638
 6604SOL    HW220712   1.628   0.355   0.712
 6605SOL     OW20713   5.631   4.976   1.459
 6605SOL    HW120714   5.553   4.998   1.400
 6605SOL    HW220715   5.645   5.050   1.525
 6606SOL     OW20716   0.510   5.629   2.177
 6606SOL    HW120717   0.462   5.700   2.126
 6606SOL    HW220718   0.501   5.541   2.130
 6607SOL     OW20719   1.979   3.672   2.354
 6607SOL    HW120720   2.043   3.619   2.298
 6607SOL    HW220721   2.028   3.744   2.402
 6608SOL     OW20722   6.317   6.229   1.029
 6608SOL    HW120723   6.407   6.223   1.072
 6608SOL    HW220724   6.319   6.297   0.956
 6609SOL     OW20725   4.900   0.948   6.245
 6609SOL    HW120726   4.924   1.022   6.308
 6609SOL    HW220727   4.900   0.983   6.151
 6610SOL     OW20728   2.664   6.250   6.953
 6610SOL    HW120729   2.599   6.176   6.940
 6610SOL    HW220730   2.732   6.248   6.879
 6611SOL     OW20731   4.784   2.583   3.806
 6611SOL    HW120732   4.828   2.590   3.716
 6611SOL    HW220733   4.772   2.674   3.845
 6612SOL     OW20734   6.089   1.969   6.158
 6612SOL    HW120735   6.107   1.893   6.096
 6612SOL    HW220736   6.038   1.936   6.237
 6613SOL     OW20737   6.184   6.498   4.907
 6613SOL    HW120738   6.205   6.584   4.953
 6613SOL    HW220739   6.113   6.449   4.958
 6614SOL     OW20740   4.311   5.651   0.205
 6614SOL    HW120741   4.399   5.696   0.222
 6614SOL    HW220742   4.322   5.584   0.132
 6615SOL     OW20743   1.830   5.870   1.336
 6615SOL    HW120744   1.806   5.965   1.355
 6615SOL    HW220745   1.852   5.861   1.239
 6616SOL     OW20746   5.207   0.698   6.105
 6616SOL    HW120747   5.213   0.745   6.017
 6616SOL    HW220748   5.157   0.612   6.093
 6617SOL     OW20749   4.698   5.109   3.917
 6617SOL    HW120750   4.616   5.165   3.901
 6617SOL    HW220751   4.698   5.033   3.852
 6618SOL     OW20752   1.262   2.556   2.079
 6618SOL    HW120753   1.224   2.642   2.046
 6618SOL    HW220754   1.346   2.573   2.130
 6619SOL     OW20755   5.823   0.524   4.280
 6619SOL    HW120756   5.848   0.620   4.289
 6619SOL    HW220757   5.738   0.507   4.331
 6620SOL     OW20758   1.863   2.487   5.714
 6620SOL    HW120759   1.956   2.525   5.709
 6620SOL    HW220760   1.797   2.559   5.695
 6621SOL     OW20761   3.385   3.245   5.785
 6621SOL    HW120762   3.359   3.159   5.829
 6621SOL    HW220763   3.308   3.308   5.788
 6622SOL     OW20764   5.791   6.374   2.085
 6622SOL    HW120765   5.700   6.391   2.047
 6622SOL    HW220766   5.848   6.330   2.016
 6623SOL     OW20767   3.365   2.922   4.792
 6623SOL    HW120768   3.456   2.887   4.767
 6623SOL    HW220769   3.350   2.911   4.890
 6624SOL     OW20770   0.429   4.397   5.980
 6624SOL    HW120771   0.336   4.403   5.944
 6624SOL    HW220772   0.493   4.437   5.914
 6625SOL     OW20773   5.227   1.377   4.962
 6625SOL    HW120774   5.238   1.345   5.056
 6625SOL    HW220775   5.268   1.467   4.952
 6626SOL     OW20776   3.608   5.506   5.237
 6626SOL    HW120777   3.647   5.491   5.328
 6626SOL    HW220778   3.536   5.439   5.221
 6627SOL     OW20779   2.036   6.624   5.344
 6627SOL    HW120780   2.072   6.646   5.435
 6627SOL    HW220781   1.938   6.644   5.342
 6628SOL     OW20782   5.278   4.960   4.512
 6628SOL    HW120783   5.213   4.887   4.496
 6628SOL    HW220784   5.239   5.027   4.576
 6629SOL     OW20785   4.497   6.279   6.852
 6629SOL    HW120786   4.455   6.325   6.931
 6629SOL    HW220787   4.568   6.216   6.884
 6630SOL     OW20788   3.895   1.886   1.147
 6630SOL    HW120789   3.815   1.922   1.197
 6630SOL    HW220790   3.898   1.787   1.157
 6631SOL     OW20791   2.424   5.197   3.522
 6631SOL    HW120792   2.403   5.291   3.551
 6631SOL    HW220793   2.510   5.168   3.563
 6632SOL     OW20794   0.246   0.511   1.020
 6632SOL    HW120795   0.249   0.589   1.082
 6632SOL    HW220796   0.203   0.538   0.934
 6633SOL     OW20797   1.634   4.520   6.775
 6633SOL    HW120798   1.594   4.474   6.855
 6633SOL    HW220799   1.594   4.611   6.765
 6634SOL     OW20800   5.090   2.206   5.033
 6634SOL    HW120801   5.077   2.156   5.119
 6634SOL    HW220802   5.180   2.186   4.996
 6635SOL     OW20803   4.862   4.840   2.985
 6635SOL    HW120804   4.804   4.826   3.065
 6635SOL    HW220805   4.814   4.811   2.903
 6636SOL     OW20806   4.464   1.811   6.202
 6636SOL    HW120807   4.455   1.849   6.294
 6636SOL    HW220808   4.530   1.866   6.151
 6637SOL     OW20809   1.313   0.018   6.645
 6637SOL    HW120810   1.361   6.957   6.677
 6637SOL    HW220811   1.215   0.007   6.659
 6638SOL     OW20812   2.995   3.848   3.120
 6638SOL    HW120813   3.015   3.934   3.074
 6638SOL    HW220814   3.071   3.784   3.107
 6639SOL     OW20815   4.891   4.914   6.425
 6639SOL    HW120816   4.958   4.848   6.459
 6639SOL    HW220817   4.922   4.951   6.338
 6640SOL     OW20818   0.749   1.908   4.980
 6640SOL    HW120819   0.743   2.000   4.942
 6640SOL    HW220820   0.811   1.908   5.059
 6641SOL     OW20821   2.500   1.227   6.077
 6641SOL    HW120822   2.537   1.242   6.169
 6641SOL    HW220823   2.575   1.220   6.012
 6642SOL     OW20824   1.875   5.714   6.698
 6642SOL    HW120825   1.806   5.702   6.626
 6642SOL    HW220826   1.830   5.737   6.784
 6643SOL     OW20827   6.121   5.344   0.544
 6643SOL    HW120828   6.207   5.358   0.592
 6643SOL    HW220829   6.048   5.325   0.610
 6644SOL     OW20830   2.570   5.804   1.377
 6644SOL    HW120831   2.472   5.823   1.387
 6644SOL    HW220832   2.598   5.736   1.445
 6645SOL     OW20833   6.267   4.487   0.338
 6645SOL    HW120834   6.254   4.568   0.280
 6645SOL    HW220835   6.360   4.452   0.326
 6646SOL     OW20836   3.772   0.505   4.802
 6646SOL    HW120837   3.751   0.539   4.893
 6646SOL    HW220838   3.871   0.499   4.790
 6647SOL     OW20839   4.934   1.009   0.868
 6647SOL    HW120840   5.028   1.001   0.903
 6647SOL    HW220841   4.872   1.031   0.944
 6648SOL     OW20842   3.472   6.240   3.771
 6648SOL    HW120843   3.458   6.310   3.840
 6648SOL    HW220844   3.454   6.150   3.811
 6649SOL     OW20845   5.592   1.329   6.707
 6649SOL    HW120846   5.520   1.288   6.764
 6649SOL    HW220847   5.642   1.256   6.661
 6650SOL     OW20848   3.328   1.201   5.644
 6650SOL    HW120849   3.327   1.101   5.637
 6650SOL    HW220850   3.240   1.237   5.612
 6651SOL     OW20851   2.659   0.898   5.798
 6651SOL    HW120852   2.740   0.892   5.739
 6651SOL    HW220853   2.576   0.888   5.742
 6652SOL     OW20854   0.787   4.002   0.715
 6652SOL    HW120855   0.733   3.918   0.714
 6652SOL    HW220856   0.733   4.077   0.753
 6653SOL     OW20857   3.802   3.777   1.744
 6653SOL    HW120858   3.891   3.818   1.722
 6653SOL    HW220859   3.734   3.806   1.677
 6654SOL     OW20860   0.934   4.980   1.233
 6654SOL    HW120861   0.858   5.015   1.178
 6654SOL    HW220862   1.020   5.006   1.190
 6655SOL     OW20863   1.128   0.111   4.105
 6655SOL    HW120864   1.064   0.183   4.133
 6655SOL    HW220865   1.082   0.047   4.044
 6656SOL     OW20866   4.909   1.737   3.808
 6656SOL    HW120867   4.990   1.753   3.865
 6656SOL    HW220868   4.930   1.667   3.740
 6657SOL     OW20869   6.301   4.692   6.509
 6657SOL    HW120870   6.362   4.618   6.482
 6657SOL    HW220871   6.319   4.717   6.604
 6658SOL     OW20872   6.400   0.879   4.645
 6658SOL    HW120873   6.376   0.930   4.728
 6658SOL    HW220874   6.495   0.897   4.621
 6659SOL     OW20875   2.043   3.526   0.074
 6659SOL    HW120876   1.952   3.541   0.036
 6659SOL    HW220877   2.107   3.504   0.001
 6660SOL     OW20878   0.995   5.420   1.401
 6660SOL    HW120879   0.905   5.381   1.423
 6660SOL    HW220880   1.008   5.417   1.302
 6661SOL     OW20881   1.127   6.773   5.063
 6661SOL    HW120882   1.078   6.856   5.090
 6661SOL    HW220883   1.122   6.706   5.137
 6662SOL     OW20884   1.427   0.035   0.075
 6662SOL    HW120885   1.346   0.046   0.017
 6662SOL    HW220886   1.484   0.116   0.068
 6663SOL     OW20887   6.005   5.403   4.292
 6663SOL    HW120888   6.088   5.453   4.320
 6663SOL    HW220889   6.014   5.377   4.196
 6664SOL     OW20890   2.132   7.013   0.440
 6664SOL    HW120891   2.110   0.086   0.471
 6664SOL    HW220892   2.206   7.017   0.373
 6665SOL     OW20893   1.896   5.751   4.769
 6665SOL    HW120894   1.972   5.689   4.791
 6665SOL    HW220895   1.818   5.729   4.828
 6666SOL     OW20896   6.421   6.634   5.999
 6666SOL    HW120897   6.450   6.664   5.908
 6666SOL    HW220898   6.338   6.579   5.991
 6667SOL     OW20899   6.754   6.344   6.575
 6667SOL    HW120900   6.763   6.244   6.573
 6667SOL    HW220901   6.708   6.372   6.659
 6668SOL     OW20902   6.376   5.323   0.645
 6668SOL    HW120903   6.435   5.251   0.684
 6668SOL    HW220904   6.390   5.325   0.545
 6669SOL     OW20905   1.556   2.495   3.063
 6669SOL    HW120906   1.560   2.417   3.127
 6669SOL    HW220907   1.579   2.579   3.112
 6670SOL     OW20908   3.550   1.300   5.485
 6670SOL    HW120909   3.518   1.313   5.391
 6670SOL    HW220910   3.472   1.274   5.543
 6671SOL     OW20911   4.985   6.709   0.571
 6671SOL    HW120912   4.997   6.735   0.475
 6671SOL    HW220913   5.011   6.613   0.583
 6672SOL     OW20914   6.351   2.495   6.789
 6672SOL    HW120915   6.369   2.401   6.819
 6672SOL    HW220916   6.384   2.507   6.696
 6673SOL     OW20917   4.874   4.449   4.574
 6673SOL    HW120918   4.900   4.467   4.668
 6673SOL    HW220919   4.821   4.527   4.539
 6674SOL     OW20920   0.484   3.592   6.736
 6674SOL    HW120921   0.510   3.559   6.827
 6674SOL    HW220922   0.391   3.563   6.715
 6675SOL     OW20923   5.497   3.525   0.551
 6675SOL    HW120924   5.522   3.609   0.598
 6675SOL    HW220925   5.397   3.515   0.551
 6676SOL     OW20926   1.106   4.248   5.781
 6676SOL    HW120927   1.150   4.245   5.691
 6676SOL    HW220928   1.175   4.272   5.850
 6677SOL     OW20929   1.607   1.891   5.870
 6677SOL    HW120930   1.673   1.882   5.795
 6677SOL    HW220931   1.633   1.967   5.928
 6678SOL     OW20932   3.482   3.079   6.405
 6678SOL    HW120933   3.417   3.153   6.387
 6678SOL    HW220934   3.437   3.007   6.458
 6679SOL     OW20935   3.470   1.210   3.915
 6679SOL    HW120936   3.473   1.283   3.847
 6679SOL    HW220937   3.555   1.210   3.968
 6680SOL     OW20938   5.253   7.015   6.876
 6680SOL    HW120939   5.275   0.035   6.787
 6680SOL    HW220940   5.335   7.015   6.934
 6681SOL     OW20941   3.689   5.798   1.525
 6681SOL    HW120942   3.693   5.754   1.615
 6681SOL    HW220943   3.593   5.802   1.495
 6682SOL     OW20944   1.175   4.411   2.251
 6682SOL    HW120945   1.094   4.470   2.257
 6682SOL    HW220946   1.256   4.464   2.272
 6683SOL     OW20947   6.006   3.522   5.248
 6683SOL    HW120948   6.081   3.481   5.299
 6683SOL    HW220949   6.016   3.500   5.150
 6684SOL     OW20950   2.997   0.075   1.279
 6684SOL    HW120951   2.972   0.171   1.294
 6684SOL    HW220952   2.916   0.017   1.288
 6685SOL     OW20953   6.374   2.779   5.537
 6685SOL    HW120954   6.384   2.734   5.626
 6685SOL    HW220955   6.302   2.849   5.543
 6686SOL     OW20956   4.931   6.336   4.327
 6686SOL    HW120957   4.979   6.398   4.265
 6686SOL    HW220958   4.961   6.353   4.421
 6687SOL     OW20959   1.134   3.329   0.852
 6687SOL    HW120960   1.198   3.318   0.928
 6687SOL    HW220961   1.050   3.373   0.885
 6688SOL     OW20962   5.901   4.601   2.508
 6688SOL    HW120963   5.968   4.668   2.541
 6688SOL    HW220964   5.898   4.524   2.571
 6689SOL     OW20965   3.967   3.141   6.905
 6689SOL    HW120966   4.066   3.156   6.902
 6689SOL    HW220967   3.925   3.180   6.823
 6690SOL     OW20968   0.886   1.231   0.553
 6690SOL    HW120969   0.954   1.158   0.555
 6690SOL    HW220970   0.892   1.284   0.638
 6691SOL     OW20971   3.014   6.457   2.397
 6691SOL    HW120972   3.078   6.509   2.341
 6691SOL    HW220973   3.018   6.360   2.371
 6692SOL     OW20974   3.158   2.993   4.432
 6692SOL    HW120975   3.249   2.958   4.455
 6692SOL    HW220976   3.114   3.029   4.515
 6693SOL     OW20977   4.019   3.179   5.561
 6693SOL    HW120978   4.039   3.274   5.539
 6693SOL    HW220979   4.046   3.120   5.484
 6694SOL     OW20980   4.062   5.767   1.105
 6694SOL    HW120981   3.999   5.762   1.183
 6694SOL    HW220982   4.011   5.784   1.021
 6695SOL     OW20983   2.905   1.922   0.124
 6695SOL    HW120984   2.838   1.900   0.195
 6695SOL    HW220985   2.968   1.992   0.159
 6696SOL     OW20986   2.921   2.949   5.590
 6696SOL    HW120987   2.938   3.012   5.514
 6696SOL    HW220988   2.949   2.857   5.563
 6697SOL     OW20989   5.035   1.971   2.906
 6697SOL    HW120990   5.124   1.966   2.860
 6697SOL    HW220991   4.988   1.883   2.896
 6698SOL     OW20992   2.925   2.352   1.098
 6698SOL    HW120993   3.023   2.333   1.092
 6698SOL    HW220994   2.883   2.339   1.008
 6699SOL     OW20995   2.318   5.721   5.360
 6699SOL    HW120996   2.330   5.711   5.261
 6699SOL    HW220997   2.264   5.802   5.379
 6700SOL     OW20998   1.006   0.431   1.346
 6700SOL    HW120999   0.934   0.428   1.277
 6700SOL    HW221000   0.964   0.431   1.438
 6701SOL     OW21001   5.685   4.609   2.354
 6701SOL    HW121002   5.763   4.627   2.413
 6701SOL    HW221003   5.668   4.510   2.351
 6702SOL     OW21004   3.169   2.146   1.639
 6702SOL    HW121005   3.178   2.064   1.695
 6702SOL    HW221006   3.219   2.134   1.553
 6703SOL     OW21007   6.749   1.677   0.021
 6703SOL    HW121008   6.771   1.626   0.104
 6703SOL    HW221009   6.823   1.741   0.001
 6704SOL     OW21010   3.468   1.475   3.412
 6704SOL    HW121011   3.543   1.536   3.435
 6704SOL    HW221012   3.426   1.440   3.496
 6705SOL     OW21013   6.620   3.575   1.662
 6705SOL    HW121014   6.561   3.649   1.630
 6705SOL    HW221015   6.564   3.505   1.707
 6706SOL     OW21016   1.878   4.711   2.296
 6706SOL    HW121017   1.832   4.651   2.230
 6706SOL    HW221018   1.941   4.771   2.248
 6707SOL     OW21019   6.763   6.264   3.720
 6707SOL    HW121020   6.802   6.296   3.806
 6707SOL    HW221021   6.783   6.166   3.709
 6708SOL     OW21022   6.739   5.011   1.167
 6708SOL    HW121023   6.815   5.063   1.128
 6708SOL    HW221024   6.741   5.020   1.267
 6709SOL     OW21025   2.844   6.545   2.912
 6709SOL    HW121026   2.767   6.557   2.850
 6709SOL    HW221027   2.921   6.505   2.862
 6710SOL     OW21028   3.620   0.356   6.323
 6710SOL    HW121029   3.698   0.392   6.272
 6710SOL    HW221030   3.536   0.397   6.289
 6711SOL     OW21031   4.499   5.848   5.957
 6711SOL    HW121032   4.458   5.790   6.027
 6711SOL    HW221033   4.427   5.895   5.906
 6712SOL     OW21034   5.229   4.168   0.635
 6712SOL    HW121035   5.170   4.187   0.714
 6712SOL    HW221036   5.182   4.104   0.574
 6713SOL     OW21037   2.143   0.358   2.574
 6713SOL    HW121038   2.218   0.424   2.568
 6713SOL    HW221039   2.063   0.403   2.614
 6714SOL     OW21040   6.474   0.380   5.839
 6714SOL    HW121041   6.544   0.318   5.800
 6714SOL    HW221042   6.464   0.459   5.780
 6715SOL     OW21043   0.749   0.461   0.070
 6715SOL    HW121044   0.699   0.548   0.063
 6715SOL    HW221045   0.819   0.457   7.018
 6716SOL     OW21046   0.304   5.881   2.019
 6716SOL    HW121047   0.217   5.886   1.971
 6716SOL    HW221048   0.335   5.973   2.043
 6717SOL     OW21049   3.938   3.062   6.259
 6717SOL    HW121050   4.019   3.102   6.216
 6717SOL    HW221051   3.964   2.979   6.308
 6718SOL     OW21052   5.828   0.701   0.657
 6718SOL    HW121053   5.834   0.801   0.658
 6718SOL    HW221054   5.823   0.670   0.562
 6719SOL     OW21055   2.399   6.826   6.249
 6719SOL    HW121056   2.452   6.902   6.287
 6719SOL    HW221057   2.367   6.850   6.157
 6720SOL     OW21058   1.444   0.006   4.224
 6720SOL    HW121059   1.464   0.093   4.179
 6720SOL    HW221060   1.396   0.024   4.310
 6721SOL     OW21061   6.820   0.303   0.488
 6721SOL    HW121062   6.878   0.361   0.430
 6721SOL    HW221063   6.729   0.345   0.496
 6722SOL     OW21064   6.198   2.631   1.990
 6722SOL    HW121065   6.151   2.704   1.941
 6722SOL    HW221066   6.292   2.623   1.956
 6723SOL     OW21067   2.175   6.163   2.761
 6723SOL    HW121068   2.110   6.184   2.834
 6723SOL    HW221069   2.267   6.156   2.801
 6724SOL     OW21070   2.038   3.290   6.240
 6724SOL    HW121071   2.010   3.197   6.265
 6724SOL    HW221072   2.113   3.285   6.174
 6725SOL     OW21073   6.986   3.221   1.795
 6725SOL    HW121074   6.920   3.264   1.733
 6725SOL    HW221075   6.939   3.155   1.853
 6726SOL     OW21076   0.381   2.416   5.659
 6726SOL    HW121077   0.468   2.367   5.654
 6726SOL    HW221078   0.366   2.448   5.753
 6727SOL     OW21079   0.187   4.373   5.058
 6727SOL    HW121080   0.128   4.417   5.127
 6727SOL    HW221081   0.164   4.276   5.053
 6728SOL     OW21082   3.655   2.132   3.098
 6728SOL    HW121083   3.678   2.194   3.023
 6728SOL    HW221084   3.708   2.048   3.089
 6729SOL     OW21085   0.100   1.263   2.964
 6729SOL    HW121086   0.145   1.221   3.042
 6729SOL    HW221087   0.081   1.194   2.895
 6730SOL     OW21088   1.692   6.829   1.266
 6730SOL    HW121089   1.665   6.814   1.170
 6730SOL    HW221090   1.649   6.913   1.299
 6731SOL     OW21091   0.772   6.305   1.038
 6731SOL    HW121092   0.700   6.236   1.039
 6731SOL    HW221093   0.842   6.281   1.105
 6732SOL     OW21094   5.368   4.716   4.666
 6732SOL    HW121095   5.441   4.762   4.717
 6732SOL    HW221096   5.371   4.618   4.684
 6733SOL     OW21097   4.036   5.766   6.882
 6733SOL    HW121098   3.938   5.782   6.869
 6733SOL    HW221099   4.064   5.687   6.826
 6734SOL     OW21100   6.169   2.607   4.290
 6734SOL    HW121101   6.133   2.651   4.207
 6734SOL    HW221102   6.189   2.677   4.358
 6735SOL     OW21103   6.725   4.429   5.097
 6735SOL    HW121104   6.711   4.345   5.043
 6735SOL    HW221105   6.653   4.437   5.166
 6736SOL     OW21106   3.153   3.951   0.595
 6736SOL    HW121107   3.063   3.918   0.568
 6736SOL    HW221108   3.223   3.894   0.553
 6737SOL     OW21109   1.563   2.717   0.488
 6737SOL    HW121110   1.550   2.637   0.429
 6737SOL    HW221111   1.516   2.702   0.575
 6738SOL     OW21112   1.920   5.988   3.093
 6738SOL    HW121113   1.848   5.960   3.156
 6738SOL    HW221114   2.000   5.930   3.105
 6739SOL     OW21115   3.450   5.795   5.280
 6739SOL    HW121116   3.465   5.886   5.321
 6739SOL    HW221117   3.357   5.790   5.244
 6740SOL     OW21118   1.274   0.057   4.436
 6740SOL    HW121119   1.296   0.115   4.514
 6740SOL    HW221120   1.211   7.005   4.465
 6741SOL     OW21121   3.781   1.696   5.682
 6741SOL    HW121122   3.828   1.621   5.727
 6741SOL    HW221123   3.682   1.679   5.683
 6742SOL     OW21124   5.997   6.158   2.583
 6742SOL    HW121125   6.028   6.251   2.563
 6742SOL    HW221126   5.947   6.157   2.670
 6743SOL     OW21127   3.449   5.723   7.013
 6743SOL    HW121128   3.423   5.689   0.084
 6743SOL    HW221129   3.549   5.728   7.007
 6744SOL     OW21130   5.783   3.958   5.808
 6744SOL    HW121131   5.838   3.966   5.891
 6744SOL    HW221132   5.843   3.937   5.731
 6745SOL     OW21133   6.880   6.926   2.865
 6745SOL    HW121134   6.859   6.848   2.924
 6745SOL    HW221135   6.908   6.893   2.775
 6746SOL     OW21136   0.902   1.599   4.103
 6746SOL    HW121137   0.807   1.629   4.111
 6746SOL    HW221138   0.910   1.503   4.130
 6747SOL     OW21139   5.451   1.205   4.936
 6747SOL    HW121140   5.490   1.151   5.011
 6747SOL    HW221141   5.357   1.230   4.959
 6748SOL     OW21142   2.352   0.844   3.570
 6748SOL    HW121143   2.439   0.822   3.614
 6748SOL    HW221144   2.289   0.882   3.638
 6749SOL     OW21145   2.767   5.495   0.681
 6749SOL    HW121146   2.835   5.567   0.693
 6749SOL    HW221147   2.748   5.452   0.770
 6750SOL     OW21148   3.982   2.169   5.047
 6750SOL    HW121149   4.056   2.102   5.036
 6750SOL    HW221150   4.018   2.250   5.093
 6751SOL     OW21151   4.359   0.118   3.574
 6751SOL    HW121152   4.385   0.085   3.483
 6751SOL    HW221153   4.260   0.132   3.578
 6752SOL     OW21154   0.799   1.546   3.171
 6752SOL    HW121155   0.706   1.578   3.191
 6752SOL    HW221156   0.807   1.527   3.074
 6753SOL     OW21157   3.172   0.361   6.533
 6753SOL    HW121158   3.249   0.363   6.596
 6753SOL    HW221159   3.087   0.369   6.585
 6754SOL     OW21160   0.679   1.832   0.323
 6754SOL    HW121161   0.629   1.833   0.409
 6754SOL    HW221162   0.752   1.901   0.325
 6755SOL     OW21163   4.323   0.523   3.157
 6755SOL    HW121164   4.369   0.563   3.236
 6755SOL    HW221165   4.240   0.575   3.136
 6756SOL     OW21166   3.854   4.941   5.163
 6756SOL    HW121167   3.768   4.946   5.111
 6756SOL    HW221168   3.833   4.922   5.259
 6757SOL     OW21169   4.477   1.990   1.185
 6757SOL    HW121170   4.377   1.995   1.195
 6757SOL    HW221171   4.515   2.082   1.180
 6758SOL     OW21172   6.500   2.078   1.990
 6758SOL    HW121173   6.559   2.006   1.953
 6758SOL    HW221174   6.405   2.058   1.969
 6759SOL     OW21175   0.877   4.326   4.697
 6759SOL    HW121176   0.877   4.227   4.717
 6759SOL    HW221177   0.957   4.349   4.643
 6760SOL     OW21178   6.610   4.071   2.556
 6760SOL    HW121179   6.554   4.033   2.482
 6760SOL    HW221180   6.685   4.124   2.517
 6761SOL     OW21181   6.512   2.320   6.154
 6761SOL    HW121182   6.538   2.239   6.102
 6761SOL    HW221183   6.447   2.295   6.226
 6762SOL     OW21184   0.820   5.871   4.059
 6762SOL    HW121185   0.797   5.873   4.157
 6762SOL    HW221186   0.762   5.805   4.012
 6763SOL     OW21187   1.041   5.132   2.648
 6763SOL    HW121188   1.040   5.230   2.628
 6763SOL    HW221189   1.071   5.081   2.568
 6764SOL     OW21190   1.777   5.054   0.548
 6764SOL    HW121191   1.807   4.992   0.621
 6764SOL    HW221192   1.853   5.112   0.521
 6765SOL     OW21193   5.703   3.911   3.695
 6765SOL    HW121194   5.684   3.937   3.790
 6765SOL    HW221195   5.735   3.992   3.644
 6766SOL     OW21196   4.954   6.765   6.362
 6766SOL    HW121197   4.957   6.863   6.379
 6766SOL    HW221198   5.013   6.718   6.429
 6767SOL     OW21199   1.480   2.441   1.042
 6767SOL    HW121200   1.441   2.368   1.098
 6767SOL    HW221201   1.508   2.405   0.953
 6768SOL     OW21202   1.343   6.528   3.757
 6768SOL    HW121203   1.385   6.442   3.729
 6768SOL    HW221204   1.379   6.556   3.846
 6769SOL     OW21205   2.660   0.504   5.211
 6769SOL    HW121206   2.701   0.569   5.149
 6769SOL    HW221207   2.675   0.411   5.178
 6770SOL     OW21208   4.849   2.022   3.649
 6770SOL    HW121209   4.922   2.084   3.678
 6770SOL    HW221210   4.876   1.927   3.665
 6771SOL     OW21211   4.258   1.154   2.527
 6771SOL    HW121212   4.356   1.136   2.537
 6771SOL    HW221213   4.223   1.198   2.610
 6772SOL     OW21214   4.444   2.494   2.300
 6772SOL    HW121215   4.483   2.568   2.246
 6772SOL    HW221216   4.446   2.519   2.397
 6773SOL     OW21217   0.822   6.412   2.023
 6773SOL    HW121218   0.746   6.374   1.970
 6773SOL    HW221219   0.878   6.469   1.963
 6774SOL     OW21220   2.151   3.524   4.931
 6774SOL    HW121221   2.156   3.434   4.975
 6774SOL    HW221222   2.197   3.592   4.987
 6775SOL     OW21223   1.318   2.641   3.313
 6775SOL    HW121224   1.314   2.651   3.412
 6775SOL    HW221225   1.256   2.568   3.284
 6776SOL     OW21226   4.466   3.398   0.602
 6776SOL    HW121227   4.457   3.396   0.503
 6776SOL    HW221228   4.377   3.418   0.644
 6777SOL     OW21229   4.991   5.058   0.936
 6777SOL    HW121230   4.964   5.013   0.850
 6777SOL    HW221231   4.913   5.109   0.973
 6778SOL     OW21232   6.983   5.188   1.894
 6778SOL    HW121233   6.940   5.146   1.974
 6778SOL    HW221234   0.062   5.199   1.911
 6779SOL     OW21235   5.811   4.711   6.219
 6779SOL    HW121236   5.817   4.799   6.173
 6779SOL    HW221237   5.903   4.673   6.232
 6780SOL     OW21238   1.373   2.860   2.815
 6780SOL    HW121239   1.368   2.762   2.837
 6780SOL    HW221240   1.321   2.911   2.883
 6781SOL     OW21241   6.474   1.466   4.907
 6781SOL    HW121242   6.375   1.473   4.925
 6781SOL    HW221243   6.522   1.538   4.957
 6782SOL     OW21244   1.001   1.362   3.248
 6782SOL    HW121245   0.942   1.441   3.231
 6782SOL    HW221246   1.092   1.394   3.275
 6783SOL     OW21247   0.800   1.671   5.693
 6783SOL    HW121248   0.778   1.768   5.703
 6783SOL    HW221249   0.734   1.616   5.744
 6784SOL     OW21250   2.096   3.821   0.888
 6784SOL    HW121251   2.178   3.799   0.836
 6784SOL    HW221252   2.028   3.864   0.829
 6785SOL     OW21253   6.047   5.477   5.346
 6785SOL    HW121254   5.981   5.439   5.410
 6785SOL    HW221255   6.085   5.403   5.290
 6786SOL     OW21256   1.105   2.238   0.611
 6786SOL    HW121257   1.124   2.243   0.709
 6786SOL    HW221258   1.190   2.221   0.562
 6787SOL     OW21259   3.650   3.393   0.515
 6787SOL    HW121260   3.667   3.469   0.453
 6787SOL    HW221261   3.601   3.321   0.467
 6788SOL     OW21262   0.994   4.617   2.013
 6788SOL    HW121263   0.990   4.617   2.113
 6788SOL    HW221264   0.994   4.712   1.980
 6789SOL     OW21265   0.563   4.801   3.798
 6789SOL    HW121266   0.469   4.806   3.765
 6789SOL    HW221267   0.599   4.709   3.784
 6790SOL     OW21268   0.444   3.421   0.195
 6790SOL    HW121269   0.447   3.362   0.114
 6790SOL    HW221270   0.533   3.419   0.241
 6791SOL     OW21271   3.801   2.139   2.308
 6791SOL    HW121272   3.778   2.180   2.219
 6791SOL    HW221273   3.717   2.107   2.352
 6792SOL     OW21274   5.203   6.810   5.161
 6792SOL    HW121275   5.267   6.858   5.101
 6792SOL    HW221276   5.245   6.798   5.251
 6793SOL     OW21277   2.566   1.067   6.712
 6793SOL    HW121278   2.639   1.064   6.644
 6793SOL    HW221279   2.495   1.001   6.688
 6794SOL     OW21280   5.615   1.341   5.155
 6794SOL    HW121281   5.572   1.422   5.116
 6794SOL    HW221282   5.714   1.354   5.155
 6795SOL     OW21283   1.017   6.476   1.379
 6795SOL    HW121284   0.983   6.438   1.293
 6795SOL    HW221285   1.114   6.453   1.390
 6796SOL     OW21286   6.293   1.102   3.205
 6796SOL    HW121287   6.329   1.024   3.153
 6796SOL    HW221288   6.193   1.100   3.204
 6797SOL     OW21289   0.183   2.176   1.848
 6797SOL    HW121290   0.131   2.236   1.909
 6797SOL    HW221291   0.187   2.084   1.888
 6798SOL     OW21292   5.969   6.589   1.644
 6798SOL    HW121293   5.895   6.653   1.668
 6798SOL    HW221294   5.942   6.536   1.564
 6799SOL     OW21295   6.132   0.804   2.116
 6799SOL    HW121296   6.207   0.786   2.052
 6799SOL    HW221297   6.164   0.865   2.188
 6800SOL     OW21298   2.262   2.589   2.123
 6800SOL    HW121299   2.254   2.672   2.068
 6800SOL    HW221300   2.175   2.539   2.122
 6801SOL     OW21301   1.413   0.622   3.523
 6801SOL    HW121302   1.455   0.532   3.507
 6801SOL    HW221303   1.482   0.685   3.558
 6802SOL     OW21304   2.936   5.690   1.587
 6802SOL    HW121305   2.983   5.733   1.664
 6802SOL    HW221306   3.003   5.644   1.529
 6803SOL     OW21307   4.011   4.132   6.295
 6803SOL    HW121308   4.041   4.096   6.207
 6803SOL    HW221309   3.962   4.061   6.346
 6804SOL     OW21310   3.912   5.149   3.504
 6804SOL    HW121311   3.816   5.139   3.479
 6804SOL    HW221312   3.965   5.075   3.464
 6805SOL     OW21313   0.566   4.769   6.318
 6805SOL    HW121314   0.664   4.762   6.296
 6805SOL    HW221315   0.526   4.677   6.317
 6806SOL     OW21316   6.550   1.392   3.469
 6806SOL    HW121317   6.453   1.385   3.491
 6806SOL    HW221318   6.583   1.484   3.491
 6807SOL     OW21319   3.384   2.973   1.585
 6807SOL    HW121320   3.346   2.994   1.675
 6807SOL    HW221321   3.384   2.873   1.572
 6808SOL     OW21322   6.703   1.917   5.861
 6808SOL    HW121323   6.605   1.932   5.855
 6808SOL    HW221324   6.751   2.000   5.832
 6809SOL     OW21325   6.971   3.433   1.541
 6809SOL    HW121326   6.894   3.478   1.496
 6809SOL    HW221327   0.024   3.500   1.557
 6810SOL     OW21328   3.348   1.442   2.527
 6810SOL    HW121329   3.446   1.423   2.536
 6810SOL    HW221330   3.334   1.541   2.522
 6811SOL     OW21331   5.873   3.499   1.614
 6811SOL    HW121332   5.924   3.415   1.631
 6811SOL    HW221333   5.909   3.544   1.532
 6812SOL     OW21334   2.981   3.993   5.036
 6812SOL    HW121335   2.956   3.898   5.058
 6812SOL    HW221336   2.926   4.024   4.958
 6813SOL     OW21337   5.746   3.160   2.671
 6813SOL    HW121338   5.704   3.229   2.612
 6813SOL    HW221339   5.841   3.146   2.643
 6814SOL     OW21340   3.877   2.200   5.958
 6814SOL    HW121341   3.951   2.268   5.964
 6814SOL    HW221342   3.817   2.210   6.037
 6815SOL     OW21343   2.129   6.107   6.960
 6815SOL    HW121344   2.213   6.161   6.957
 6815SOL    HW221345   2.060   6.153   7.016
 6816SOL     OW21346   6.484   0.622   5.691
 6816SOL    HW121347   6.572   0.669   5.685
 6816SOL    HW221348   6.411   0.688   5.711
 6817SOL     OW21349   2.264   2.590   3.830
 6817SOL    HW121350   2.210   2.634   3.902
 6817SOL    HW221351   2.283   2.656   3.757
 6818SOL     OW21352   2.070   6.618   0.574
 6818SOL    HW121353   2.083   6.523   0.545
 6818SOL    HW221354   1.987   6.625   0.629
 6819SOL     OW21355   4.402   1.413   2.843
 6819SOL    HW121356   4.397   1.487   2.909
 6819SOL    HW221357   4.311   1.398   2.803
 6820SOL     OW21358   1.981   6.167   1.592
 6820SOL    HW121359   1.935   6.254   1.577
 6820SOL    HW221360   2.076   6.183   1.617
 6821SOL     OW21361   3.890   2.363   5.284
 6821SOL    HW121362   3.956   2.431   5.252
 6821SOL    HW221363   3.806   2.410   5.311
 6822SOL     OW21364   5.823   2.243   5.780
 6822SOL    HW121365   5.736   2.286   5.757
 6822SOL    HW221366   5.892   2.269   5.712
 6823SOL     OW21367   5.528   3.502   5.733
 6823SOL    HW121368   5.533   3.493   5.633
 6823SOL    HW221369   5.591   3.573   5.763
 6824SOL     OW21370   0.939   1.908   0.541
 6824SOL    HW121371   0.919   1.974   0.468
 6824SOL    HW221372   0.882   1.927   0.621
 6825SOL     OW21373   5.986   0.217   0.105
 6825SOL    HW121374   5.952   0.283   0.039
 6825SOL    HW221375   6.026   0.266   0.183
 6826SOL     OW21376   1.878   3.590   3.633
 6826SOL    HW121377   1.814   3.565   3.561
 6826SOL    HW221378   1.951   3.647   3.595
 6827SOL     OW21379   5.014   5.031   6.154
 6827SOL    HW121380   5.047   5.087   6.077
 6827SOL    HW221381   5.068   4.947   6.158
 6828SOL     OW21382   3.830   1.722   1.562
 6828SOL    HW121383   3.840   1.794   1.631
 6828SOL    HW221384   3.755   1.745   1.501
 6829SOL     OW21385   5.458   6.273   5.911
 6829SOL    HW121386   5.425   6.231   5.995
 6829SOL    HW221387   5.551   6.306   5.925
 6830SOL     OW21388   5.772   0.469   3.362
 6830SOL    HW121389   5.751   0.406   3.288
 6830SOL    HW221390   5.836   0.539   3.329
 6831SOL     OW21391   1.767   1.269   6.119
 6831SOL    HW121392   1.828   1.206   6.167
 6831SOL    HW221393   1.750   1.235   6.026
 6832SOL     OW21394   2.149   4.470   0.692
 6832SOL    HW121395   2.056   4.432   0.694
 6832SOL    HW221396   2.152   4.546   0.626
 6833SOL     OW21397   2.667   4.802   0.144
 6833SOL    HW121398   2.718   4.885   0.119
 6833SOL    HW221399   2.584   4.829   0.194
 6834SOL     OW21400   6.292   0.354   0.481
 6834SOL    HW121401   6.262   0.260   0.466
 6834SOL    HW221402   6.222   0.417   0.447
 6835SOL     OW21403   3.889   1.153   4.489
 6835SOL    HW121404   3.841   1.089   4.548
 6835SOL    HW221405   3.963   1.106   4.441
 6836SOL     OW21406   3.556   4.770   6.937
 6836SOL    HW121407   3.487   4.819   6.991
 6836SOL    HW221408   3.512   4.697   6.884
 6837SOL     OW21409   0.526   2.398   3.367
 6837SOL    HW121410   0.556   2.340   3.443
 6837SOL    HW221411   0.551   2.354   3.280
 6838SOL     OW21412   3.101   6.235   6.475
 6838SOL    HW121413   3.027   6.178   6.440
 6838SOL    HW221414   3.166   6.254   6.402
 6839SOL     OW21415   5.274   0.830   5.539
 6839SOL    HW121416   5.363   0.864   5.568
 6839SOL    HW221417   5.282   0.786   5.449
 6840SOL     OW21418   3.389   6.887   4.833
 6840SOL    HW121419   3.387   6.882   4.733
 6840SOL    HW221420   3.307   6.843   4.870
 6841SOL     OW21421   3.755   4.861   0.228
 6841SOL    HW121422   3.765   4.920   0.148
 6841SOL    HW221423   3.759   4.766   0.200
 6842SOL     OW21424   2.405   2.922   1.017
 6842SOL    HW121425   2.391   2.854   1.089
 6842SOL    HW221426   2.317   2.965   0.995
 6843SOL     OW21427   5.726   0.262   1.936
 6843SOL    HW121428   5.748   0.360   1.944
 6843SOL    HW221429   5.626   0.251   1.937
 6844SOL     OW21430   5.848   6.840   3.581
 6844SOL    HW121431   5.759   6.885   3.568
 6844SOL    HW221432   5.921   6.903   3.559
 6845SOL     OW21433   5.908   5.267   2.885
 6845SOL    HW121434   5.927   5.181   2.837
 6845SOL    HW221435   5.837   5.317   2.835
 6846SOL     OW21436   4.195   3.128   1.048
 6846SOL    HW121437   4.125   3.091   1.110
 6846SOL    HW221438   4.150   3.165   0.966
 6847SOL     OW21439   7.009   5.114   3.271
 6847SOL    HW121440   0.010   5.202   3.227
 6847SOL    HW221441   0.050   5.100   3.349
 6848SOL     OW21442   3.455   6.429   3.992
 6848SOL    HW121443   3.388   6.391   4.057
 6848SOL    HW221444   3.473   6.525   4.015
 6849SOL     OW21445   3.067   5.027   5.576
 6849SOL    HW121446   3.101   5.087   5.504
 6849SOL    HW221447   2.986   4.978   5.543
 6850SOL     OW21448   5.884   3.828   2.072
 6850SOL    HW121449   5.889   3.782   1.983
 6850SOL    HW221450   5.876   3.926   2.058
 6851SOL     OW21451   0.656   2.830   3.548
 6851SOL    HW121452   0.600   2.853   3.467
 6851SOL    HW221453   0.710   2.749   3.529
 6852SOL     OW21454   1.425   5.053   0.703
 6852SOL    HW121455   1.460   4.987   0.769
 6852SOL    HW221456   1.492   5.126   0.690
 6853SOL     OW21457   6.651   3.679   6.935
 6853SOL    HW121458   6.747   3.689   6.959
 6853SOL    HW221459   6.621   3.586   6.957
 6854SOL     OW21460   4.666   1.740   6.568
 6854SOL    HW121461   4.663   1.642   6.588
 6854SOL    HW221462   4.590   1.765   6.509
 6855SOL     OW21463   3.215   5.826   3.441
 6855SOL    HW121464   3.311   5.853   3.434
 6855SOL    HW221465   3.209   5.729   3.464
 6856SOL     OW21466   4.845   3.543   5.557
 6856SOL    HW121467   4.943   3.546   5.574
 6856SOL    HW221468   4.797   3.512   5.639
 6857SOL     OW21469   2.914   2.294   0.080
 6857SOL    HW121470   2.956   2.223   0.136
 6857SOL    HW221471   2.980   2.368   0.067
 6858SOL     OW21472   3.780   3.808   3.960
 6858SOL    HW121473   3.738   3.802   4.050
 6858SOL    HW221474   3.875   3.838   3.969
 6859SOL     OW21475   0.704   0.681   0.867
 6859SOL    HW121476   0.634   0.613   0.888
 6859SOL    HW221477   0.660   0.767   0.839
 6860SOL     OW21478   6.255   5.123   1.130
 6860SOL    HW121479   6.340   5.122   1.079
 6860SOL    HW221480   6.215   5.031   1.131
 6861SOL     OW21481   4.586   4.423   0.457
 6861SOL    HW121482   4.526   4.352   0.494
 6861SOL    HW221483   4.677   4.386   0.442
 6862SOL     OW21484   1.890   4.318   5.478
 6862SOL    HW121485   1.905   4.416   5.488
 6862SOL    HW221486   1.908   4.273   5.566
 6863SOL     OW21487   5.621   0.487   5.814
 6863SOL    HW121488   5.526   0.518   5.819
 6863SOL    HW221489   5.681   0.566   5.800
 6864SOL     OW21490   2.885   5.878   4.388
 6864SOL    HW121491   2.984   5.883   4.385
 6864SOL    HW221492   2.857   5.810   4.455
 6865SOL     OW21493   0.475   5.845   2.957
 6865SOL    HW121494   0.495   5.941   2.973
 6865SOL    HW221495   0.560   5.796   2.936
 6866SOL     OW21496   6.286   4.860   3.030
 6866SOL    HW121497   6.273   4.763   3.048
 6866SOL    HW221498   6.381   4.885   3.048
 6867SOL     OW21499   2.016   4.685   1.459
 6867SOL    HW121500   2.104   4.731   1.445
 6867SOL    HW221501   2.013   4.602   1.404
 6868SOL     OW21502   1.068   5.553   6.355
 6868SOL    HW121503   0.979   5.595   6.377
 6868SOL    HW221504   1.099   5.498   6.433
 6869SOL     OW21505   4.850   0.594   4.628
 6869SOL    HW121506   4.876   0.684   4.664
 6869SOL    HW221507   4.806   0.606   4.539
 6870SOL     OW21508   6.800   4.577   2.324
 6870SOL    HW121509   6.895   4.581   2.293
 6870SOL    HW221510   6.739   4.601   2.248
 6871SOL     OW21511   6.364   4.595   3.173
 6871SOL    HW121512   6.457   4.563   3.154
 6871SOL    HW221513   6.301   4.551   3.109
 6872SOL     OW21514   0.653   3.159   1.541
 6872SOL    HW121515   0.616   3.177   1.450
 6872SOL    HW221516   0.588   3.102   1.592
 6873SOL     OW21517   6.827   4.056   4.783
 6873SOL    HW121518   6.741   4.077   4.829
 6873SOL    HW221519   6.814   3.976   4.724
 6874SOL     OW21520   0.767   5.880   1.890
 6874SOL    HW121521   0.839   5.947   1.905
 6874SOL    HW221522   0.739   5.840   1.977
 6875SOL     OW21523   1.813   2.569   3.361
 6875SOL    HW121524   1.832   2.594   3.456
 6875SOL    HW221525   1.719   2.594   3.338
 6876SOL     OW21526   3.746   6.220   3.731
 6876SOL    HW121527   3.780   6.261   3.816
 6876SOL    HW221528   3.646   6.226   3.730
 6877SOL     OW21529   2.410   3.780   0.756
 6877SOL    HW121530   2.409   3.836   0.839
 6877SOL    HW221531   2.368   3.831   0.681
 6878SOL     OW21532   3.302   1.494   5.306
 6878SOL    HW121533   3.354   1.409   5.292
 6878SOL    HW221534   3.339   1.542   5.385
 6879SOL     OW21535   1.253   2.075   0.254
 6879SOL    HW121536   1.239   2.042   0.347
 6879SOL    HW221537   1.173   2.054   0.199
 6880SOL     OW21538   1.880   4.303   5.195
 6880SOL    HW121539   1.859   4.228   5.257
 6880SOL    HW221540   1.972   4.337   5.213
 6881SOL     OW21541   1.222   3.588   1.694
 6881SOL    HW121542   1.158   3.605   1.618
 6881SOL    HW221543   1.308   3.554   1.657
 6882SOL     OW21544   3.269   0.662   6.690
 6882SOL    HW121545   3.211   0.597   6.739
 6882SOL    HW221546   3.229   0.754   6.696
 6883SOL     OW21547   4.361   1.488   0.368
 6883SOL    HW121548   4.427   1.416   0.385
 6883SOL    HW221549   4.283   1.477   0.430
 6884SOL     OW21550   2.023   4.483   4.361
 6884SOL    HW121551   1.975   4.464   4.275
 6884SOL    HW221552   2.086   4.408   4.382
 6885SOL     OW21553   3.747   5.243   3.881
 6885SOL    HW121554   3.841   5.276   3.881
 6885SOL    HW221555   3.743   5.154   3.836
 6886SOL     OW21556   6.556   0.253   4.693
 6886SOL    HW121557   6.594   0.221   4.606
 6886SOL    HW221558   6.498   0.181   4.732
 6887SOL     OW21559   5.279   6.013   5.949
 6887SOL    HW121560   5.301   6.104   5.917
 6887SOL    HW221561   5.184   6.010   5.980
 6888SOL     OW21562   5.401   6.098   6.589
 6888SOL    HW121563   5.435   6.159   6.517
 6888SOL    HW221564   5.475   6.080   6.655
 6889SOL     OW21565   1.925   1.953   4.903
 6889SOL    HW121566   1.879   2.042   4.902
 6889SOL    HW221567   2.017   1.963   4.940
 6890SOL     OW21568   3.860   6.425   1.755
 6890SOL    HW121569   3.950   6.440   1.796
 6890SOL    HW221570   3.800   6.502   1.775
 6891SOL     OW21571   2.000   4.385   3.625
 6891SOL    HW121572   1.918   4.425   3.666
 6891SOL    HW221573   2.057   4.346   3.698
 6892SOL     OW21574   2.979   2.137   3.525
 6892SOL    HW121575   2.971   2.039   3.542
 6892SOL    HW221576   2.899   2.184   3.563
 6893SOL     OW21577   4.485   4.376   6.762
 6893SOL    HW121578   4.536   4.415   6.685
 6893SOL    HW221579   4.542   4.380   6.844
 6894SOL     OW21580   6.182   4.729   0.219
 6894SOL    HW121581   6.269   4.771   0.191
 6894SOL    HW221582   6.120   4.727   0.141
 6895SOL     OW21583   2.412   5.897   0.019
 6895SOL    HW121584   2.324   5.853   0.039
 6895SOL    HW221585   2.483   5.859   0.078
 6896SOL     OW21586   1.918   0.101   3.557
 6896SOL    HW121587   1.877   0.191   3.577
 6896SOL    HW221588   2.013   0.100   3.586
 6897SOL     OW21589   3.467   3.595   6.380
 6897SOL    HW121590   3.368   3.599   6.379
 6897SOL    HW221591   3.500   3.550   6.297
 6898SOL     OW21592   3.918   1.616   1.917
 6898SOL    HW121593   3.844   1.684   1.911
 6898SOL    HW221594   3.879   1.524   1.913
 6899SOL     OW21595   5.966   6.898   0.682
 6899SOL    HW121596   5.916   6.983   0.668
 6899SOL    HW221597   5.929   6.827   0.623
 6900SOL     OW21598   6.719   6.386   5.702
 6900SOL    HW121599   6.723   6.483   5.678
 6900SOL    HW221600   6.724   6.375   5.801
 6901SOL     OW21601   0.455   6.297   6.041
 6901SOL    HW121602   0.409   6.381   6.071
 6901SOL    HW221603   0.395   6.247   5.979
 6902SOL     OW21604   6.016   6.092   0.087
 6902SOL    HW121605   5.943   6.087   0.156
 6902SOL    HW221606   6.073   6.172   0.105
 6903SOL     OW21607   3.464   5.510   4.590
 6903SOL    HW121608   3.440   5.429   4.536
 6903SOL    HW221609   3.471   5.485   4.686
 6904SOL     OW21610   6.205   1.263   4.595
 6904SOL    HW121611   6.287   1.320   4.601
 6904SOL    HW221612   6.141   1.288   4.667
 6905SOL     OW21613   6.003   6.146   6.313
 6905SOL    HW121614   6.018   6.222   6.376
 6905SOL    HW221615   6.089   6.098   6.298
 6906SOL     OW21616   5.131   1.068   3.641
 6906SOL    HW121617   5.070   1.108   3.710
 6906SOL    HW221618   5.103   1.098   3.550
 6907SOL     OW21619   5.416   2.297   1.221
 6907SOL    HW121620   5.349   2.332   1.155
 6907SOL    HW221621   5.486   2.367   1.238
 6908SOL     OW21622   0.878   5.854   6.314
 6908SOL    HW121623   0.857   5.931   6.373
 6908SOL    HW221624   0.798   5.794   6.307
 6909SOL     OW21625   6.102   4.513   1.284
 6909SOL    HW121626   6.187   4.475   1.320
 6909SOL    HW221627   6.067   4.582   1.348
 6910SOL     OW21628   6.620   2.633   3.618
 6910SOL    HW121629   6.619   2.545   3.570
 6910SOL    HW221630   6.533   2.646   3.665
 6911SOL     OW21631   4.204   5.947   3.641
 6911SOL    HW121632   4.160   5.970   3.727
 6911SOL    HW221633   4.252   6.027   3.605
 6912SOL     OW21634   2.957   5.626   0.445
 6912SOL    HW121635   3.051   5.605   0.472
 6912SOL    HW221636   2.898   5.547   0.464
 6913SOL     OW21637   4.661   5.106   4.823
 6913SOL    HW121638   4.685   5.197   4.791
 6913SOL    HW221639   4.723   5.078   4.896
 6914SOL     OW21640   6.402   4.099   5.821
 6914SOL    HW121641   6.476   4.058   5.875
 6914SOL    HW221642   6.438   4.176   5.768
 6915SOL     OW21643   6.020   3.521   1.366
 6915SOL    HW121644   5.958   3.460   1.317
 6915SOL    HW221645   6.072   3.575   1.300
 6916SOL     OW21646   6.906   3.349   0.101
 6916SOL    HW121647   6.838   3.286   0.138
 6916SOL    HW221648   6.997   3.310   0.112
 6917SOL     OW21649   2.820   6.046   0.994
 6917SOL    HW121650   2.888   5.978   1.022
 6917SOL    HW221651   2.796   6.032   0.898
 6918SOL     OW21652   6.914   3.092   4.547
 6918SOL    HW121653   6.991   3.043   4.587
 6918SOL    HW221654   6.875   3.039   4.472
 6919SOL     OW21655   0.345   6.315   2.249
 6919SOL    HW121656   0.401   6.273   2.177
 6919SOL    HW221657   0.249   6.313   2.222
 6920SOL     OW21658   4.832   5.123   5.510
 6920SOL    HW121659   4.932   5.129   5.513
 6920SOL    HW221660   4.794   5.176   5.585
 6921SOL     OW21661   5.584   6.030   3.081
 6921SOL    HW121662   5.667   6.060   3.126
 6921SOL    HW221663   5.581   5.930   3.080
 6922SOL     OW21664   2.041   6.005   6.109
 6922SOL    HW121665   2.117   5.942   6.089
 6922SOL    HW221666   2.051   6.087   6.053
 6923SOL     OW21667   4.594   4.915   3.528
 6923SOL    HW121668   4.495   4.921   3.520
 6923SOL    HW221669   4.628   4.837   3.476
 6924SOL     OW21670   1.988   4.074   6.854
 6924SOL    HW121671   1.966   3.976   6.861
 6924SOL    HW221672   2.082   4.084   6.822
 6925SOL     OW21673   4.291   6.290   4.881
 6925SOL    HW121674   4.365   6.293   4.813
 6925SOL    HW221675   4.273   6.382   4.914
 6926SOL     OW21676   3.486   2.812   1.327
 6926SOL    HW121677   3.419   2.885   1.314
 6926SOL    HW221678   3.465   2.736   1.265
 6927SOL     OW21679   5.146   2.772   6.241
 6927SOL    HW121680   5.201   2.713   6.181
 6927SOL    HW221681   5.207   2.821   6.304
 6928SOL     OW21682   6.323   5.942   1.122
 6928SOL    HW121683   6.419   5.914   1.109
 6928SOL    HW221684   6.306   6.027   1.073
 6929SOL     OW21685   5.520   4.676   0.771
 6929SOL    HW121686   5.618   4.692   0.761
 6929SOL    HW221687   5.477   4.675   0.681
 6930SOL     OW21688   0.437   6.574   1.969
 6930SOL    HW121689   0.451   6.488   1.921
 6930SOL    HW221690   0.342   6.604   1.957
 6931SOL     OW21691   1.841   0.711   2.096
 6931SOL    HW121692   1.838   0.698   1.996
 6931SOL    HW221693   1.866   0.805   2.116
 6932SOL     OW21694   4.195   6.655   0.641
 6932SOL    HW121695   4.107   6.686   0.677
 6932SOL    HW221696   4.186   6.561   0.607
 6933SOL     OW21697   2.880   6.518   4.359
 6933SOL    HW121698   2.849   6.545   4.451
 6933SOL    HW221699   2.916   6.599   4.312
 6934SOL     OW21700   4.752   3.584   6.043
 6934SOL    HW121701   4.823   3.623   5.985
 6934SOL    HW221702   4.672   3.644   6.042
 6935SOL     OW21703   4.011   4.768   2.898
 6935SOL    HW121704   3.918   4.734   2.887
 6935SOL    HW221705   4.036   4.827   2.822
 6936SOL     OW21706   6.528   2.184   4.238
 6936SOL    HW121707   6.483   2.268   4.268
 6936SOL    HW221708   6.579   2.146   4.315
 6937SOL     OW21709   0.204   6.349   0.258
 6937SOL    HW121710   0.180   6.267   0.309
 6937SOL    HW221711   0.280   6.329   0.197
 6938SOL     OW21712   5.246   3.331   5.582
 6938SOL    HW121713   5.205   3.395   5.647
 6938SOL    HW221714   5.319   3.377   5.531
 6939SOL     OW21715   0.593   4.613   2.284
 6939SOL    HW121716   0.501   4.633   2.315
 6939SOL    HW221717   0.651   4.587   2.361
 6940SOL     OW21718   4.634   0.940   0.349
 6940SOL    HW121719   4.697   0.863   0.340
 6940SOL    HW221720   4.685   1.026   0.343
 6941SOL     OW21721   3.771   3.272   2.089
 6941SOL    HW121722   3.862   3.266   2.129
 6941SOL    HW221723   3.779   3.301   1.994
 6942SOL     OW21724   5.553   1.143   1.746
 6942SOL    HW121725   5.478   1.134   1.812
 6942SOL    HW221726   5.529   1.094   1.662
 6943SOL     OW21727   4.118   6.135   6.788
 6943SOL    HW121728   4.193   6.103   6.730
 6943SOL    HW221729   4.032   6.126   6.738
 6944SOL     OW21730   0.972   3.971   7.004
 6944SOL    HW121731   0.925   3.893   6.963
 6944SOL    HW221732   1.043   3.938   0.047
 6945SOL     OW21733   6.379   2.275   6.376
 6945SOL    HW121734   6.431   2.251   6.458
 6945SOL    HW221735   6.291   2.228   6.377
 6946SOL     OW21736   5.853   6.387   1.173
 6946SOL    HW121737   5.918   6.319   1.139
 6946SOL    HW221738   5.896   6.478   1.171
 6947SOL     OW21739   3.754   6.280   6.255
 6947SOL    HW121740   3.753   6.195   6.307
 6947SOL    HW221741   3.709   6.266   6.167
 6948SOL     OW21742   6.777   0.284   6.687
 6948SOL    HW121743   6.876   0.285   6.679
 6948SOL    HW221744   6.747   0.357   6.748
 6949SOL     OW21745   5.199   6.368   2.950
 6949SOL    HW121746   5.112   6.331   2.917
 6949SOL    HW221747   5.183   6.460   2.986
 6950SOL     OW21748   2.433   1.232   4.803
 6950SOL    HW121749   2.415   1.329   4.788
 6950SOL    HW221750   2.531   1.214   4.793
 6951SOL     OW21751   6.779   5.915   5.363
 6951SOL    HW121752   6.768   5.873   5.273
 6951SOL    HW221753   6.741   6.008   5.360
 6952SOL     OW21754   0.572   6.291   4.032
 6952SOL    HW121755   0.651   6.339   4.072
 6952SOL    HW221756   0.604   6.221   3.969
 6953SOL     OW21757   5.244   6.415   0.485
 6953SOL    HW121758   5.303   6.493   0.504
 6953SOL    HW221759   5.161   6.422   0.540
 6954SOL     OW21760   0.105   3.925   3.596
 6954SOL    HW121761   0.201   3.902   3.615
 6954SOL    HW221762   0.093   3.939   3.497
 6955SOL     OW21763   6.741   0.693   2.205
 6955SOL    HW121764   6.736   0.697   2.305
 6955SOL    HW221765   6.672   0.754   2.167
 6956SOL     OW21766   4.970   5.646   3.190
 6956SOL    HW121767   4.953   5.548   3.202
 6956SOL    HW221768   4.897   5.698   3.234
 6957SOL     OW21769   5.968   5.036   0.814
 6957SOL    HW121770   5.871   5.023   0.792
 6957SOL    HW221771   5.981   5.029   0.913
 6958SOL     OW21772   2.961   3.321   4.069
 6958SOL    HW121773   3.033   3.259   4.037
 6958SOL    HW221774   2.926   3.373   3.992
 6959SOL     OW21775   1.806   1.653   4.390
 6959SOL    HW121776   1.879   1.611   4.444
 6959SOL    HW221777   1.841   1.733   4.343
 6960SOL     OW21778   2.418   5.310   1.610
 6960SOL    HW121779   2.403   5.241   1.681
 6960SOL    HW221780   2.505   5.356   1.626
 6961SOL     OW21781   5.430   2.058   4.195
 6961SOL    HW121782   5.518   2.035   4.154
 6961SOL    HW221783   5.377   2.113   4.131
 6962SOL     OW21784   4.652   6.160   1.825
 6962SOL    HW121785   4.644   6.257   1.802
 6962SOL    HW221786   4.664   6.107   1.741
 6963SOL     OW21787   5.650   6.036   1.418
 6963SOL    HW121788   5.650   6.081   1.329
 6963SOL    HW221789   5.604   6.095   1.485
 6964SOL     OW21790   3.379   0.376   4.921
 6964SOL    HW121791   3.344   0.415   4.837
 6964SOL    HW221792   3.458   0.317   4.900
 6965SOL     OW21793   0.861   3.296   1.273
 6965SOL    HW121794   0.767   3.269   1.294
 6965SOL    HW221795   0.886   3.374   1.330
 6966SOL     OW21796   0.083   2.625   3.011
 6966SOL    HW121797   0.124   2.614   3.102
 6966SOL    HW221798   0.092   2.539   2.961
 6967SOL     OW21799   2.267   6.294   5.077
 6967SOL    HW121800   2.326   6.219   5.048
 6967SOL    HW221801   2.184   6.257   5.120
 6968SOL     OW21802   4.623   6.695   2.672
 6968SOL    HW121803   4.569   6.718   2.591
 6968SOL    HW221804   4.562   6.675   2.748
 6969SOL     OW21805   2.844   2.204   1.336
 6969SOL    HW121806   2.845   2.223   1.238
 6969SOL    HW221807   2.816   2.287   1.386
 6970SOL     OW21808   3.231   4.490   6.566
 6970SOL    HW121809   3.190   4.541   6.642
 6970SOL    HW221810   3.187   4.401   6.558
 6971SOL     OW21811   6.160   4.579   2.000
 6971SOL    HW121812   6.143   4.579   2.099
 6971SOL    HW221813   6.190   4.488   1.971
 6972SOL     OW21814   5.008   3.914   3.286
 6972SOL    HW121815   4.952   3.867   3.217
 6972SOL    HW221816   5.071   3.849   3.328
 6973SOL     OW21817   0.372   2.979   4.519
 6973SOL    HW121818   0.462   3.006   4.553
 6973SOL    HW221819   0.302   3.010   4.583
 6974SOL     OW21820   3.059   3.846   2.160
 6974SOL    HW121821   3.141   3.873   2.109
 6974SOL    HW221822   3.000   3.791   2.101
 6975SOL     OW21823   2.180   6.492   6.447
 6975SOL    HW121824   2.271   6.508   6.486
 6975SOL    HW221825   2.111   6.510   6.516
 6976SOL     OW21826   4.937   5.977   5.016
 6976SOL    HW121827   4.871   5.928   5.073
 6976SOL    HW221828   5.027   5.974   5.059
 6977SOL     OW21829   4.320   2.302   1.402
 6977SOL    HW121830   4.416   2.281   1.419
 6977SOL    HW221831   4.286   2.246   1.326
 6978SOL     OW21832   4.437   1.126   2.816
 6978SOL    HW121833   4.443   1.222   2.841
 6978SOL    HW221834   4.455   1.116   2.718
 6979SOL     OW21835   0.886   4.274   1.251
 6979SOL    HW121836   0.841   4.338   1.313
 6979SOL    HW221837   0.858   4.293   1.157
 6980SOL     OW21838   1.522   1.367   3.800
 6980SOL    HW121839   1.536   1.383   3.702
 6980SOL    HW221840   1.596   1.309   3.835
 6981SOL     OW21841   3.843   2.515   5.581
 6981SOL    HW121842   3.786   2.502   5.499
 6981SOL    HW221843   3.861   2.427   5.623
 6982SOL     OW21844   1.411   0.749   4.273
 6982SOL    HW121845   1.361   0.731   4.188
 6982SOL    HW221846   1.387   0.840   4.307
 6983SOL     OW21847   4.021   2.028   3.894
 6983SOL    HW121848   4.091   1.958   3.885
 6983SOL    HW221849   4.065   2.117   3.908
 6984SOL     OW21850   2.626   1.671   3.642
 6984SOL    HW121851   2.557   1.636   3.705
 6984SOL    HW221852   2.686   1.735   3.690
 6985SOL     OW21853   4.613   5.277   2.076
 6985SOL    HW121854   4.608   5.218   2.156
 6985SOL    HW221855   4.668   5.358   2.097
 6986SOL     OW21856   1.670   6.875   6.446
 6986SOL    HW121857   1.675   6.975   6.438
 6986SOL    HW221858   1.601   6.841   6.382
 6987SOL     OW21859   6.508   1.545   5.693
 6987SOL    HW121860   6.590   1.603   5.693
 6987SOL    HW221861   6.427   1.603   5.681
 6988SOL     OW21862   0.489   0.343   5.359
 6988SOL    HW121863   0.434   0.338   5.442
 6988SOL    HW221864   0.558   0.415   5.369
 6989SOL     OW21865   0.942   4.411   2.801
 6989SOL    HW121866   0.946   4.392   2.899
 6989SOL    HW221867   0.929   4.325   2.751
 6990SOL     OW21868   4.768   2.746   1.265
 6990SOL    HW121869   4.846   2.777   1.320
 6990SOL    HW221870   4.683   2.773   1.310
 6991SOL     OW21871   3.179   4.901   3.321
 6991SOL    HW121872   3.137   4.984   3.285
 6991SOL    HW221873   3.145   4.822   3.271
 6992SOL     OW21874   5.242   6.064   6.307
 6992SOL    HW121875   5.329   6.107   6.283
 6992SOL    HW221876   5.181   6.065   6.227
 6993SOL     OW21877   6.039   0.705   2.969
 6993SOL    HW121878   5.952   0.753   2.979
 6993SOL    HW221879   6.029   0.610   2.998
 6994SOL     OW21880   0.347   2.572   4.401
 6994SOL    HW121881   0.368   2.652   4.345
 6994SOL    HW221882   0.258   2.536   4.374
 6995SOL     OW21883   6.893   4.455   6.038
 6995SOL    HW121884   6.865   4.451   5.942
 6995SOL    HW221885   6.991   4.474   6.044
 6996SOL     OW21886   1.455   0.230   6.556
 6996SOL    HW121887   1.403   0.154   6.593
 6996SOL    HW221888   1.401   0.314   6.563
 6997SOL     OW21889   6.920   5.650   5.057
 6997SOL    HW121890   6.931   5.744   5.026
 6997SOL    HW221891   7.006   5.618   5.099
 6998SOL     OW21892   2.396   1.114   1.753
 6998SOL    HW121893   2.417   1.195   1.808
 6998SOL    HW221894   2.299   1.090   1.765
 6999SOL     OW21895   2.562   2.476   5.948
 6999SOL    HW121896   2.524   2.558   5.991
 6999SOL    HW221897   2.487   2.420   5.913
 7000SOL     OW21898   5.404   6.207   1.532
 7000SOL    HW121899   5.321   6.252   1.566
 7000SOL    HW221900   5.484   6.244   1.580
 7001SOL     OW21901   1.968   2.572   5.411
 7001SOL    HW121902   2.010   2.563   5.501
 7001SOL    HW221903   2.038   2.594   5.343
 7002SOL     OW21904   1.870   5.632   3.753
 7002SOL    HW121905   1.928   5.660   3.676
 7002SOL    HW221906   1.796   5.575   3.719
 7003SOL     OW21907   3.756   5.365   0.504
 7003SOL    HW121908   3.760   5.304   0.425
 7003SOL    HW221909   3.758   5.310   0.588
 7004SOL     OW21910   1.063   4.621   2.539
 7004SOL    HW121911   1.155   4.582   2.542
 7004SOL    HW221912   1.063   4.712   2.581
 7005SOL     OW21913   1.747   0.467   0.155
 7005SOL    HW121914   1.665   0.525   0.147
 7005SOL    HW221915   1.777   0.465   0.250
 7006SOL     OW21916   4.976   4.857   4.138
 7006SOL    HW121917   4.965   4.922   4.213
 7006SOL    HW221918   5.036   4.782   4.167
 7007SOL     OW21919   5.354   0.217   3.272
 7007SOL    HW121920   5.331   0.209   3.175
 7007SOL    HW221921   5.295   0.156   3.325
 7008SOL     OW21922   0.888   4.065   4.728
 7008SOL    HW121923   0.956   4.041   4.660
 7008SOL    HW221924   0.842   3.982   4.761
 7009SOL     OW21925   5.684   6.357   2.357
 7009SOL    HW121926   5.728   6.338   2.269
 7009SOL    HW221927   5.752   6.384   2.424
 7010SOL     OW21928   5.273   4.609   4.251
 7010SOL    HW121929   5.268   4.572   4.158
 7010SOL    HW221930   5.212   4.558   4.310
 7011SOL     OW21931   3.721   6.800   6.835
 7011SOL    HW121932   3.672   6.786   6.749
 7011SOL    HW221933   3.664   6.855   6.897
 7012SOL     OW21934   1.613   2.378   1.599
 7012SOL    HW121935   1.577   2.398   1.690
 7012SOL    HW221936   1.628   2.463   1.550
 7013SOL     OW21937   0.454   0.196   0.402
 7013SOL    HW121938   0.361   0.162   0.395
 7013SOL    HW221939   0.484   0.192   0.498
 7014SOL     OW21940   4.309   3.438   1.074
 7014SOL    HW121941   4.272   3.348   1.099
 7014SOL    HW221942   4.234   3.504   1.070
 7015SOL     OW21943   5.702   4.995   2.308
 7015SOL    HW121944   5.758   4.923   2.268
 7015SOL    HW221945   5.609   4.988   2.272
 7016SOL     OW21946   3.804   4.676   1.410
 7016SOL    HW121947   3.889   4.728   1.401
 7016SOL    HW221948   3.726   4.738   1.399
 7017SOL     OW21949   2.066   4.866   2.124
 7017SOL    HW121950   2.105   4.776   2.103
 7017SOL    HW221951   2.134   4.936   2.104
 7018SOL     OW21952   5.677   3.853   4.430
 7018SOL    HW121953   5.619   3.783   4.472
 7018SOL    HW221954   5.771   3.821   4.427
 7019SOL     OW21955   3.213   4.063   0.241
 7019SOL    HW121956   3.217   4.126   0.318
 7019SOL    HW221957   3.286   3.995   0.249
 7020SOL     OW21958   6.636   5.469   6.930
 7020SOL    HW121959   6.636   5.433   0.003
 7020SOL    HW221960   6.550   5.445   6.884
 7021SOL     OW21961   1.421   1.764   5.732
 7021SOL    HW121962   1.452   1.694   5.667
 7021SOL    HW221963   1.499   1.802   5.781
 7022SOL     OW21964   4.938   0.076   6.309
 7022SOL    HW121965   4.981   0.142   6.371
 7022SOL    HW221966   4.985   0.078   6.220
 7023SOL     OW21967   0.280   1.816   4.562
 7023SOL    HW121968   0.369   1.837   4.522
 7023SOL    HW221969   0.290   1.808   4.662
 7024SOL     OW21970   2.666   3.891   5.266
 7024SOL    HW121971   2.576   3.899   5.223
 7024SOL    HW221972   2.695   3.979   5.303
 7025SOL     OW21973   2.789   1.461   0.243
 7025SOL    HW121974   2.815   1.494   0.152
 7025SOL    HW221975   2.847   1.384   0.269
 7026SOL     OW21976   3.483   1.759   2.153
 7026SOL    HW121977   3.385   1.764   2.136
 7026SOL    HW221978   3.522   1.851   2.151
 7027SOL     OW21979   2.379   5.419   4.149
 7027SOL    HW121980   2.295   5.385   4.106
 7027SOL    HW221981   2.363   5.513   4.182
 7028SOL     OW21982   3.940   1.171   3.929
 7028SOL    HW121983   4.008   1.100   3.913
 7028SOL    HW221984   3.968   1.254   3.881
 7029SOL     OW21985   4.977   4.811   5.298
 7029SOL    HW121986   4.986   4.725   5.248
 7029SOL    HW221987   4.904   4.802   5.366
 7030SOL     OW21988   1.500   1.087   5.170
 7030SOL    HW121989   1.457   1.124   5.251
 7030SOL    HW221990   1.552   1.005   5.194
 7031SOL     OW21991   2.781   5.803   4.867
 7031SOL    HW121992   2.693   5.756   4.867
 7031SOL    HW221993   2.812   5.816   4.962
 7032SOL     OW21994   4.036   0.619   3.152
 7032SOL    HW121995   3.951   0.605   3.100
 7032SOL    HW221996   4.047   0.545   3.218
 7033SOL     OW21997   1.449   2.270   3.926
 7033SOL    HW121998   1.541   2.267   3.887
 7033SOL    HW221999   1.382   2.270   3.852
 7034SOL     OW22000   6.087   0.642   3.914
 7034SOL    HW122001   6.008   0.596   3.874
 7034SOL    HW222002   6.132   0.697   3.844
 7035SOL     OW22003   1.588   6.410   1.679
 7035SOL    HW122004   1.583   6.380   1.584
 7035SOL    HW222005   1.673   6.461   1.693
 7036SOL     OW22006   0.420   0.662   2.737
 7036SOL    HW122007   0.386   0.735   2.796
 7036SOL    HW222008   0.376   0.668   2.648
 7037SOL     OW22009   1.630   1.724   6.726
 7037SOL    HW122010   1.726   1.746   6.742
 7037SOL    HW222011   1.622   1.665   6.646
 7038SOL     OW22012   2.784   3.216   6.002
 7038SOL    HW122013   2.855   3.273   6.044
 7038SOL    HW222014   2.819   3.124   5.988
 7039SOL     OW22015   2.927   5.038   1.816
 7039SOL    HW122016   2.995   5.052   1.888
 7039SOL    HW222017   2.895   4.943   1.817
 7040SOL     OW22018   6.302   1.707   5.233
 7040SOL    HW122019   6.332   1.801   5.251
 7040SOL    HW222020   6.380   1.645   5.245
 7041SOL     OW22021   6.788   1.927   2.030
 7041SOL    HW122022   6.733   1.845   2.016
 7041SOL    HW222023   6.871   1.903   2.080
 7042SOL     OW22024   4.704   4.926   5.329
 7042SOL    HW122025   4.703   4.992   5.404
 7042SOL    HW222026   4.735   4.837   5.363
 7043SOL     OW22027   1.937   3.815   2.954
 7043SOL    HW122028   1.877   3.750   3.000
 7043SOL    HW222029   1.889   3.857   2.878
 7044SOL     OW22030   4.475   4.608   4.223
 7044SOL    HW122031   4.510   4.700   4.239
 7044SOL    HW222032   4.406   4.611   4.150
 7045SOL     OW22033   4.734   5.814   3.339
 7045SOL    HW122034   4.695   5.728   3.372
 7045SOL    HW222035   4.689   5.890   3.386
 7046SOL     OW22036   3.292   0.830   3.384
 7046SOL    HW122037   3.232   0.882   3.324
 7046SOL    HW222038   3.373   0.801   3.334
 7047SOL     OW22039   6.989   1.943   2.632
 7047SOL    HW122040   6.940   1.987   2.707
 7047SOL    HW222041   0.048   1.894   2.668
 7048SOL     OW22042   5.464   6.333   3.069
 7048SOL    HW122043   5.498   6.240   3.060
 7048SOL    HW222044   5.369   6.337   3.036
 7049SOL     OW22045   3.747   1.694   0.593
 7049SOL    HW122046   3.840   1.704   0.630
 7049SOL    HW222047   3.752   1.663   0.498
 7050SOL     OW22048   4.480   3.655   1.347
 7050SOL    HW122049   4.396   3.648   1.294
 7050SOL    HW222050   4.486   3.746   1.388
 7051SOL     OW22051   6.871   0.362   1.760
 7051SOL    HW122052   6.880   0.319   1.671
 7051SOL    HW222053   6.853   0.292   1.830
 7052SOL     OW22054   5.574   2.865   3.477
 7052SOL    HW122055   5.565   2.958   3.513
 7052SOL    HW222056   5.657   2.859   3.421
 7053SOL     OW22057   0.946   3.085   5.683
 7053SOL    HW122058   0.975   2.989   5.678
 7053SOL    HW222059   0.932   3.110   5.778
 7054SOL     OW22060   1.024   6.752   0.465
 7054SOL    HW122061   1.014   6.673   0.525
 7054SOL    HW222062   1.117   6.756   0.430
 7055SOL     OW22063   2.646   6.827   5.289
 7055SOL    HW122064   2.715   6.835   5.217
 7055SOL    HW222065   2.621   6.919   5.321
 7056SOL     OW22066   6.558   4.628   2.118
 7056SOL    HW122067   6.532   4.568   2.042
 7056SOL    HW222068   6.570   4.721   2.084
 7057SOL     OW22069   1.648   5.701   3.911
 7057SOL    HW122070   1.676   5.748   3.995
 7057SOL    HW222071   1.726   5.693   3.850
 7058SOL     OW22072   5.789   4.633   5.478
 7058SOL    HW122073   5.755   4.576   5.553
 7058SOL    HW222074   5.772   4.729   5.498
 7059SOL     OW22075   6.598   1.333   4.078
 7059SOL    HW122076   6.657   1.373   4.008
 7059SOL    HW222077   6.530   1.274   4.034
 7060SOL     OW22078   4.189   0.304   1.547
 7060SOL    HW122079   4.260   0.267   1.487
 7060SOL    HW222080   4.127   0.231   1.575
 7061SOL     OW22081   0.559   2.901   3.301
 7061SOL    HW122082   0.519   2.810   3.294
 7061SOL    HW222083   0.635   2.909   3.236
 7062SOL     OW22084   4.243   0.973   5.371
 7062SOL    HW122085   4.186   1.046   5.409
 7062SOL    HW222086   4.230   0.890   5.425
 7063SOL     OW22087   1.356   0.138   1.952
 7063SOL    HW122088   1.272   0.190   1.965
 7063SOL    HW222089   1.404   0.170   1.871
 7064SOL     OW22090   4.186   1.952   0.713
 7064SOL    HW122091   4.153   2.030   0.660
 7064SOL    HW222092   4.248   1.897   0.656
 7065SOL     OW22093   3.944   4.107   5.777
 7065SOL    HW122094   3.952   4.148   5.686
 7065SOL    HW222095   3.967   4.010   5.772
 7066SOL     OW22096   4.435   0.660   6.824
 7066SOL    HW122097   4.351   0.684   6.775
 7066SOL    HW222098   4.426   0.568   6.861
 7067SOL     OW22099   1.888   2.892   5.156
 7067SOL    HW122100   1.822   2.913   5.228
 7067SOL    HW222101   1.862   2.939   5.072
 7068SOL     OW22102   6.462   4.409   4.448
 7068SOL    HW122103   6.490   4.332   4.391
 7068SOL    HW222104   6.535   4.476   4.453
 7069SOL     OW22105   5.378   1.566   4.424
 7069SOL    HW122106   5.419   1.655   4.406
 7069SOL    HW222107   5.414   1.530   4.510
 7070SOL     OW22108   6.996   6.366   4.602
 7070SOL    HW122109   6.936   6.425   4.548
 7070SOL    HW222110   0.043   6.322   4.542
 7071SOL     OW22111   2.999   5.689   6.120
 7071SOL    HW122112   3.067   5.654   6.184
 7071SOL    HW222113   2.914   5.710   6.169
 7072SOL     OW22114   1.600   6.458   0.180
 7072SOL    HW122115   1.507   6.427   0.161
 7072SOL    HW222116   1.634   6.411   0.262
 7073SOL     OW22117   4.778   6.678   4.442
 7073SOL    HW122118   4.695   6.731   4.421
 7073SOL    HW222119   4.849   6.700   4.375
 7074SOL     OW22120   4.927   2.372   1.493
 7074SOL    HW122121   4.919   2.353   1.591
 7074SOL    HW222122   5.024   2.372   1.468
 7075SOL     OW22123   1.895   3.931   5.637
 7075SOL    HW122124   1.951   3.978   5.568
 7075SOL    HW222125   1.878   3.837   5.607
 7076SOL     OW22126   6.016   2.224   6.085
 7076SOL    HW122127   6.049   2.130   6.091
 7076SOL    HW222128   6.050   2.266   6.000
 7077SOL     OW22129   2.650   4.952   3.814
 7077SOL    HW122130   2.711   4.875   3.834
 7077SOL    HW222131   2.555   4.922   3.819
 7078SOL     OW22132   6.949   6.798   1.756
 7078SOL    HW122133   6.858   6.840   1.764
 7078SOL    HW222134   6.989   6.822   1.668
 7079SOL     OW22135   0.093   5.693   4.058
 7079SOL    HW122136   7.018   5.669   4.081
 7079SOL    HW222137   0.140   5.725   4.140
 7080SOL     OW22138   3.616   1.070   4.920
 7080SOL    HW122139   3.577   1.045   4.831
 7080SOL    HW222140   3.686   1.140   4.908
 7081SOL     OW22141   3.012   6.774   6.689
 7081SOL    HW122142   2.915   6.757   6.705
 7081SOL    HW222143   3.066   6.704   6.736
 7082SOL     OW22144   6.551   3.907   0.136
 7082SOL    HW122145   6.509   3.818   0.116
 7082SOL    HW222146   6.650   3.898   0.136
 7083SOL     OW22147   2.723   0.187   0.887
 7083SOL    HW122148   2.703   0.112   0.949
 7083SOL    HW222149   2.639   0.237   0.866
 7084SOL     OW22150   0.367   5.507   5.821
 7084SOL    HW122151   0.363   5.413   5.785
 7084SOL    HW222152   0.400   5.568   5.749
 7085SOL     OW22153   0.974   1.283   2.000
 7085SOL    HW122154   0.888   1.333   2.011
 7085SOL    HW222155   0.982   1.253   1.905
 7086SOL     OW22156   5.274   0.042   5.486
 7086SOL    HW122157   5.313   0.034   5.394
 7086SOL    HW222158   5.194   0.102   5.483
 7087SOL     OW22159   6.237   4.050   4.557
 7087SOL    HW122160   6.193   4.133   4.522
 7087SOL    HW222161   6.259   3.990   4.481
 7088SOL     OW22162   4.979   2.900   3.628
 7088SOL    HW122163   5.004   2.902   3.725
 7088SOL    HW222164   4.880   2.898   3.619
 7089SOL     OW22165   2.744   1.855   4.784
 7089SOL    HW122166   2.765   1.926   4.851
 7089SOL    HW222167   2.731   1.897   4.694
 7090SOL     OW22168   2.360   0.769   6.962
 7090SOL    HW122169   2.305   0.753   0.024
 7090SOL    HW222170   2.431   0.836   6.982
 7091SOL     OW22171   0.524   1.987   0.534
 7091SOL    HW122172   0.587   2.065   0.538
 7091SOL    HW222173   0.516   1.945   0.625
 7092SOL     OW22174   3.532   3.375   5.591
 7092SOL    HW122175   3.476   3.319   5.652
 7092SOL    HW222176   3.625   3.337   5.587
 7093SOL     OW22177   3.225   3.891   2.402
 7093SOL    HW122178   3.140   3.888   2.350
 7093SOL    HW222179   3.282   3.966   2.369
 7094SOL     OW22180   0.119   5.812   6.022
 7094SOL    HW122181   0.085   5.903   5.997
 7094SOL    HW222182   0.146   5.811   6.118
 7095SOL     OW22183   4.372   4.584   5.612
 7095SOL    HW122184   4.282   4.628   5.621
 7095SOL    HW222185   4.438   4.633   5.669
 7096SOL     OW22186   6.675   0.649   3.872
 7096SOL    HW122187   6.624   0.734   3.870
 7096SOL    HW222188   6.753   0.655   3.810
 7097SOL     OW22189   5.718   1.909   1.416
 7097SOL    HW122190   5.720   1.841   1.489
 7097SOL    HW222191   5.808   1.951   1.408
 7098SOL     OW22192   1.654   5.531   5.820
 7098SOL    HW122193   1.638   5.554   5.916
 7098SOL    HW222194   1.673   5.433   5.813
 7099SOL     OW22195   3.907   1.400   5.333
 7099SOL    HW122196   3.895   1.423   5.430
 7099SOL    HW222197   3.875   1.476   5.277
 7100SOL     OW22198   6.047   3.185   0.291
 7100SOL    HW122199   6.026   3.174   0.389
 7100SOL    HW222200   6.078   3.278   0.273
 7101SOL     OW22201   2.071   1.383   4.852
 7101SOL    HW122202   1.997   1.448   4.837
 7101SOL    HW222203   2.152   1.432   4.885
 7102SOL     OW22204   5.159   6.877   0.736
 7102SOL    HW122205   5.103   6.809   0.690
 7102SOL    HW222206   5.100   6.945   0.779
 7103SOL     OW22207   4.869   4.893   2.482
 7103SOL    HW122208   4.877   4.849   2.571
 7103SOL    HW222209   4.954   4.879   2.431
 7104SOL     OW22210   0.074   3.153   3.766
 7104SOL    HW122211   0.074   3.117   3.672
 7104SOL    HW222212   0.105   3.082   3.829
 7105SOL     OW22213   3.470   3.181   5.151
 7105SOL    HW122214   3.421   3.241   5.215
 7105SOL    HW222215   3.456   3.086   5.177
 7106SOL     OW22216   3.800   3.627   2.424
 7106SOL    HW122217   3.822   3.608   2.520
 7106SOL    HW222218   3.727   3.565   2.394
 7107SOL     OW22219   4.784   1.184   0.592
 7107SOL    HW122220   4.882   1.204   0.583
 7107SOL    HW222221   4.742   1.251   0.653
 7108SOL     OW22222   3.596   6.485   2.667
 7108SOL    HW122223   3.691   6.512   2.652
 7108SOL    HW222224   3.584   6.455   2.762
 7109SOL     OW22225   2.518   0.185   5.819
 7109SOL    HW122226   2.427   0.211   5.852
 7109SOL    HW222227   2.509   0.131   5.735
 7110SOL     OW22228   3.241   5.618   4.396
 7110SOL    HW122229   3.339   5.598   4.402
 7110SOL    HW222230   3.212   5.614   4.300
 7111SOL     OW22231   1.494   2.755   5.282
 7111SOL    HW122232   1.573   2.694   5.284
 7111SOL    HW222233   1.500   2.815   5.203
 7112SOL     OW22234   1.868   5.024   4.652
 7112SOL    HW122235   1.876   5.114   4.695
 7112SOL    HW222236   1.779   5.016   4.608
 7113SOL     OW22237   3.575   3.887   4.691
 7113SOL    HW122238   3.532   3.943   4.621
 7113SOL    HW222239   3.673   3.880   4.673
 7114SOL     OW22240   5.054   6.182   1.389
 7114SOL    HW122241   5.106   6.264   1.410
 7114SOL    HW222242   5.078   6.149   1.298
 7115SOL     OW22243   5.320   3.128   0.855
 7115SOL    HW122244   5.407   3.123   0.903
 7115SOL    HW222245   5.245   3.115   0.920
 7116SOL     OW22246   5.746   4.170   3.115
 7116SOL    HW122247   5.698   4.133   3.195
 7116SOL    HW222248   5.839   4.135   3.113
 7117SOL     OW22249   0.448   6.329   5.580
 7117SOL    HW122250   0.479   6.421   5.606
 7117SOL    HW222251   0.447   6.321   5.480
 7118SOL     OW22252   2.855   4.878   0.928
 7118SOL    HW122253   2.824   4.973   0.939
 7118SOL    HW222254   2.821   4.824   1.005
 7119SOL     OW22255   4.571   2.179   4.282
 7119SOL    HW122256   4.552   2.277   4.281
 7119SOL    HW222257   4.603   2.150   4.192
 7120SOL     OW22258   3.602   2.011   2.442
 7120SOL    HW122259   3.625   1.916   2.424
 7120SOL    HW222260   3.509   2.030   2.409
 7121SOL     OW22261   0.932   0.160   3.692
 7121SOL    HW122262   0.963   0.098   3.764
 7121SOL    HW222263   0.885   0.108   3.621
 7122SOL     OW22264   1.770   0.533   6.020
 7122SOL    HW122265   1.716   0.615   6.003
 7122SOL    HW222266   1.825   0.512   5.938
 7123SOL     OW22267   1.656   4.534   2.947
 7123SOL    HW122268   1.583   4.587   2.992
 7123SOL    HW222269   1.664   4.562   2.852
 7124SOL     OW22270   6.663   2.209   1.660
 7124SOL    HW122271   6.657   2.116   1.697
 7124SOL    HW222272   6.592   2.266   1.701
 7125SOL     OW22273   0.746   0.196   1.007
 7125SOL    HW122274   0.769   0.099   0.996
 7125SOL    HW222275   0.675   0.221   0.941
 7126SOL     OW22276   3.187   4.980   0.449
 7126SOL    HW122277   3.149   4.966   0.540
 7126SOL    HW222278   3.270   5.035   0.455
 7127SOL     OW22279   1.668   4.959   5.933
 7127SOL    HW122280   1.726   4.949   5.852
 7127SOL    HW222281   1.691   4.888   6.000
 7128SOL     OW22282   2.765   5.047   0.018
 7128SOL    HW122283   2.703   5.110   6.991
 7128SOL    HW222284   2.831   5.011   6.972
 7129SOL     OW22285   2.285   1.883   0.146
 7129SOL    HW122286   2.329   1.796   0.170
 7129SOL    HW222287   2.290   1.897   0.047
 7130SOL     OW22288   3.839   5.483   4.998
 7130SOL    HW122289   3.875   5.389   4.999
 7130SOL    HW222290   3.779   5.497   5.077
 7131SOL     OW22291   2.678   0.582   1.182
 7131SOL    HW122292   2.728   0.626   1.256
 7131SOL    HW222293   2.733   0.506   1.145
 7132SOL     OW22294   3.939   3.946   0.264
 7132SOL    HW122295   3.949   3.907   0.173
 7132SOL    HW222296   3.921   4.044   0.257
 7133SOL     OW22297   4.927   5.589   5.961
 7133SOL    HW122298   4.843   5.538   5.945
 7133SOL    HW222299   4.995   5.529   6.004
 7134SOL     OW22300   5.036   6.645   1.816
 7134SOL    HW122301   4.989   6.560   1.842
 7134SOL    HW222302   5.049   6.702   1.897
 7135SOL     OW22303   1.343   2.634   3.578
 7135SOL    HW122304   1.438   2.663   3.588
 7135SOL    HW222305   1.293   2.654   3.661
 7136SOL     OW22306   2.376   1.874   0.673
 7136SOL    HW122307   2.473   1.893   0.654
 7136SOL    HW222308   2.369   1.808   0.747
 7137SOL     OW22309   3.963   0.083   6.523
 7137SOL    HW122310   3.892   0.035   6.574
 7137SOL    HW222311   3.989   0.029   6.443
 7138SOL     OW22312   2.770   2.073   0.487
 7138SOL    HW122313   2.861   2.092   0.524
 7138SOL    HW222314   2.776   1.995   0.424
 7139SOL     OW22315   6.226   4.148   1.696
 7139SOL    HW122316   6.206   4.237   1.656
 7139SOL    HW222317   6.171   4.077   1.652
 7140SOL     OW22318   6.497   3.724   2.840
 7140SOL    HW122319   6.400   3.741   2.822
 7140SOL    HW222320   6.506   3.665   2.921
 7141SOL     OW22321   3.875   6.299   0.639
 7141SOL    HW122322   3.844   6.322   0.547
 7141SOL    HW222323   3.842   6.368   0.704
 7142SOL     OW22324   4.285   0.100   2.961
 7142SOL    HW122325   4.355   0.034   2.933
 7142SOL    HW222326   4.263   0.161   2.885
 7143SOL     OW22327   1.453   2.346   5.713
 7143SOL    HW122328   1.489   2.261   5.674
 7143SOL    HW222329   1.458   2.419   5.645
 7144SOL     OW22330   2.003   2.038   2.604
 7144SOL    HW122331   2.062   2.107   2.561
 7144SOL    HW222332   2.057   1.958   2.628
 7145SOL     OW22333   4.378   0.296   0.270
 7145SOL    HW122334   4.325   0.213   0.257
 7145SOL    HW222335   4.436   0.311   0.190
 7146SOL     OW22336   1.825   6.658   0.747
 7146SOL    HW122337   1.850   6.650   0.843
 7146SOL    HW222338   1.764   6.582   0.722
 7147SOL     OW22339   6.894   0.207   2.445
 7147SOL    HW122340   6.833   0.158   2.507
 7147SOL    HW222341   6.986   0.171   2.454
 7148SOL     OW22342   0.076   6.446   0.999
 7148SOL    HW122343   0.090   6.545   1.005
 7148SOL    HW222344   0.154   6.399   1.039
 7149SOL     OW22345   6.587   6.824   3.258
 7149SOL    HW122346   6.549   6.732   3.258
 7149SOL    HW222347   6.681   6.822   3.291
 7150SOL     OW22348   3.733   2.650   1.086
 7150SOL    HW122349   3.787   2.722   1.129
 7150SOL    HW222350   3.792   2.572   1.064
 7151SOL     OW22351   2.744   6.745   0.451
 7151SOL    HW122352   2.657   6.695   0.446
 7151SOL    HW222353   2.803   6.716   0.376
 7152SOL     OW22354   0.484   0.893   5.718
 7152SOL    HW122355   0.433   0.951   5.782
 7152SOL    HW222356   0.428   0.815   5.692
 7153SOL     OW22357   4.341   5.232   1.569
 7153SOL    HW122358   4.404   5.277   1.633
 7153SOL    HW222359   4.268   5.295   1.544
 7154SOL     OW22360   4.884   6.495   3.170
 7154SOL    HW122361   4.914   6.584   3.206
 7154SOL    HW222362   4.940   6.423   3.211
 7155SOL     OW22363   1.636   3.492   1.053
 7155SOL    HW122364   1.716   3.548   1.035
 7155SOL    HW222365   1.640   3.455   1.146
 7156SOL     OW22366   6.601   3.317   4.185
 7156SOL    HW122367   6.652   3.378   4.246
 7156SOL    HW222368   6.582   3.231   4.232
 7157SOL     OW22369   0.297   3.446   1.511
 7157SOL    HW122370   0.260   3.535   1.484
 7157SOL    HW222371   0.265   3.422   1.602
 7158SOL     OW22372   1.552   0.159   3.716
 7158SOL    HW122373   1.492   0.184   3.792
 7158SOL    HW222374   1.538   0.063   3.693
 7159SOL     OW22375   1.096   4.686   3.010
 7159SOL    HW122376   1.066   4.753   2.942
 7159SOL    HW222377   1.116   4.733   3.096
 7160SOL     OW22378   5.691   0.492   2.930
 7160SOL    HW122379   5.693   0.423   3.002
 7160SOL    HW222380   5.651   0.577   2.965
 7161SOL     OW22381   3.354   4.165   3.418
 7161SOL    HW122382   3.280   4.097   3.428
 7161SOL    HW222383   3.370   4.209   3.507
 7162SOL     OW22384   0.915   5.344   6.898
 7162SOL    HW122385   0.825   5.386   6.892
 7162SOL    HW222386   0.979   5.395   6.840
 7163SOL     OW22387   2.749   6.310   2.555
 7163SOL    HW122388   2.805   6.246   2.607
 7163SOL    HW222389   2.805   6.354   2.484
 7164SOL     OW22390   3.009   0.675   4.114
 7164SOL    HW122391   3.103   0.650   4.089
 7164SOL    HW222392   2.973   0.609   4.180
 7165SOL     OW22393   0.071   1.063   2.804
 7165SOL    HW122394   0.052   1.077   2.707
 7165SOL    HW222395   0.007   0.995   2.841
 7166SOL     OW22396   5.160   2.055   0.773
 7166SOL    HW122397   5.140   2.094   0.863
 7166SOL    HW222398   5.076   2.026   0.729
 7167SOL     OW22399   5.886   3.168   4.500
 7167SOL    HW122400   5.977   3.201   4.525
 7167SOL    HW222401   5.886   3.136   4.405
 7168SOL     OW22402   1.451   2.591   2.811
 7168SOL    HW122403   1.485   2.575   2.718
 7168SOL    HW222404   1.524   2.572   2.877
 7169SOL     OW22405   0.797   2.784   5.706
 7169SOL    HW122406   0.762   2.712   5.645
 7169SOL    HW222407   0.896   2.790   5.696
 7170SOL     OW22408   5.122   6.605   3.438
 7170SOL    HW122409   5.208   6.573   3.479
 7170SOL    HW222410   5.061   6.637   3.511
 7171SOL     OW22411   6.428   3.620   0.178
 7171SOL    HW122412   6.490   3.654   0.249
 7171SOL    HW222413   6.475   3.550   0.123
 7172SOL     OW22414   0.937   0.173   4.535
 7172SOL    HW122415   0.853   0.121   4.520
 7172SOL    HW222416   1.013   0.126   4.489
 7173SOL     OW22417   6.612   4.413   6.608
 7173SOL    HW122418   6.682   4.383   6.672
 7173SOL    HW222419   6.655   4.450   6.525
 7174SOL     OW22420   1.622   3.318   0.622
 7174SOL    HW122421   1.689   3.392   0.624
 7174SOL    HW222422   1.530   3.358   0.625
 7175SOL     OW22423   5.581   3.062   6.446
 7175SOL    HW122424   5.592   2.979   6.500
 7175SOL    HW222425   5.557   3.138   6.507
 7176SOL     OW22426   6.578   0.727   3.062
 7176SOL    HW122427   6.544   0.795   2.996
 7176SOL    HW222428   6.502   0.697   3.120
 7177SOL     OW22429   1.422   4.961   4.716
 7177SOL    HW122430   1.455   5.042   4.666
 7177SOL    HW222431   1.496   4.923   4.771
 7178SOL     OW22432   0.640   1.527   5.845
 7178SOL    HW122433   0.652   1.503   5.941
 7178SOL    HW222434   0.570   1.468   5.804
 7179SOL     OW22435   2.201   3.147   4.243
 7179SOL    HW122436   2.183   3.236   4.286
 7179SOL    HW222437   2.211   3.078   4.314
 7180SOL     OW22438   1.963   5.193   0.418
 7180SOL    HW122439   1.983   5.272   0.359
 7180SOL    HW222440   2.049   5.153   0.449
 7181SOL     OW22441   2.276   0.266   0.487
 7181SOL    HW122442   2.357   0.215   0.516
 7181SOL    HW222443   2.298   0.321   0.406
 7182SOL     OW22444   0.324   3.406   4.972
 7182SOL    HW122445   0.421   3.384   4.962
 7182SOL    HW222446   0.314   3.504   4.987
 7183SOL     OW22447   1.659   5.656   0.995
 7183SOL    HW122448   1.696   5.596   0.925
 7183SOL    HW222449   1.614   5.601   1.066
 7184SOL     OW22450   0.025   1.216   3.476
 7184SOL    HW122451   6.972   1.153   3.447
 7184SOL    HW222452   0.019   1.230   3.574
 7185SOL     OW22453   5.976   0.267   4.623
 7185SOL    HW122454   5.975   0.272   4.523
 7185SOL    HW222455   5.913   0.336   4.660
 7186SOL     OW22456   6.513   1.966   1.702
 7186SOL    HW122457   6.498   1.877   1.745
 7186SOL    HW222458   6.429   2.019   1.704
 7187SOL     OW22459   4.004   4.597   6.219
 7187SOL    HW122460   3.916   4.584   6.264
 7187SOL    HW222461   4.076   4.605   6.289
 7188SOL     OW22462   5.442   0.387   6.889
 7188SOL    HW122463   5.423   0.361   6.983
 7188SOL    HW222464   5.539   0.377   6.870
 7189SOL     OW22465   6.593   0.965   5.453
 7189SOL    HW122466   6.520   0.987   5.517
 7189SOL    HW222467   6.652   0.893   5.491
 7190SOL     OW22468   0.035   3.824   2.212
 7190SOL    HW122469   0.091   3.751   2.253
 7190SOL    HW222470   6.961   3.792   2.201
 7191SOL     OW22471   1.092   5.402   2.639
 7191SOL    HW122472   1.168   5.406   2.703
 7191SOL    HW222473   1.016   5.458   2.674
 7192SOL     OW22474   2.574   4.328   5.692
 7192SOL    HW122475   2.663   4.341   5.648
 7192SOL    HW222476   2.563   4.396   5.764
 7193SOL     OW22477   1.066   2.834   2.695
 7193SOL    HW122478   1.061   2.832   2.795
 7193SOL    HW222479   0.989   2.886   2.659
 7194SOL     OW22480   2.648   2.798   1.005
 7194SOL    HW122481   2.655   2.702   1.032
 7194SOL    HW222482   2.552   2.826   1.007
 7195SOL     OW22483   1.161   4.216   6.759
 7195SOL    HW122484   1.089   4.246   6.696
 7195SOL    HW222485   1.137   4.127   6.797
 7196SOL     OW22486   2.727   3.716   1.299
 7196SOL    HW122487   2.770   3.806   1.295
 7196SOL    HW222488   2.778   3.657   1.362
 7197SOL     OW22489   0.513   2.444   6.195
 7197SOL    HW122490   0.564   2.381   6.136
 7197SOL    HW222491   0.577   2.490   6.257
 7198SOL     OW22492   0.007   0.947   0.779
 7198SOL    HW122493   0.021   0.885   0.701
 7198SOL    HW222494   0.006   1.041   0.746
 7199SOL     OW22495   1.717   0.777   2.369
 7199SOL    HW122496   1.748   0.775   2.274
 7199SOL    HW222497   1.642   0.843   2.378
 7200SOL     OW22498   2.644   2.645   0.010
 7200SOL    HW122499   2.629   2.700   6.948
 7200SOL    HW222500   2.722   2.584   7.016
 7201SOL     OW22501   0.698   5.626   4.481
 7201SOL    HW122502   0.682   5.553   4.414
 7201SOL    HW222503   0.794   5.624   4.509
 7202SOL     OW22504   5.481   0.015   0.032
 7202SOL    HW122505   5.580   0.014   0.018
 7202SOL    HW222506   5.455   0.099   0.079
 7203SOL     OW22507   0.273   1.651   0.811
 7203SOL    HW122508   0.330   1.733   0.806
 7203SOL    HW222509   0.280   1.612   0.903
 7204SOL     OW22510   7.008   0.171   5.577
 7204SOL    HW122511   0.028   0.087   5.614
 7204SOL    HW222512   6.991   0.159   5.479
 7205SOL     OW22513   1.000   4.051   3.936
 7205SOL    HW122514   0.986   4.129   3.875
 7205SOL    HW222515   1.037   4.083   4.024
 7206SOL     OW22516   1.402   1.099   1.726
 7206SOL    HW122517   1.349   1.051   1.657
 7206SOL    HW222518   1.360   1.083   1.816
 7207SOL     OW22519   3.678   0.819   2.850
 7207SOL    HW122520   3.677   0.917   2.870
 7207SOL    HW222521   3.766   0.794   2.810
 7208SOL     OW22522   4.191   6.793   3.681
 7208SOL    HW122523   4.192   6.737   3.599
 7208SOL    HW222524   4.210   6.736   3.761
 7209SOL     OW22525   2.597   3.450   1.648
 7209SOL    HW122526   2.507   3.461   1.690
 7209SOL    HW222527   2.654   3.393   1.707
 7210SOL     OW22528   4.413   1.271   3.653
 7210SOL    HW122529   4.424   1.364   3.618
 7210SOL    HW222530   4.504   1.229   3.663
 7211SOL     OW22531   2.718   0.119   4.519
 7211SOL    HW122532   2.714   0.172   4.434
 7211SOL    HW222533   2.752   0.027   4.500
 7212SOL     OW22534   0.199   6.425   4.755
 7212SOL    HW122535   0.124   6.405   4.691
 7212SOL    HW222536   0.173   6.394   4.846
 7213SOL     OW22537   5.220   5.929   0.112
 7213SOL    HW122538   5.258   5.837   0.110
 7213SOL    HW222539   5.268   5.987   0.046
 7214SOL     OW22540   6.228   6.468   5.642
 7214SOL    HW122541   6.157   6.446   5.575
 7214SOL    HW222542   6.243   6.567   5.643
 7215SOL     OW22543   6.962   3.624   4.404
 7215SOL    HW122544   0.022   3.600   4.348
 7215SOL    HW222545   6.974   3.589   4.497
 7216SOL     OW22546   3.360   0.174   6.972
 7216SOL    HW122547   3.336   0.271   6.979
 7216SOL    HW222548   3.310   0.122   0.021
 7217SOL     OW22549   2.076   3.734   3.495
 7217SOL    HW122550   2.076   3.807   3.426
 7217SOL    HW222551   2.091   3.646   3.451
 7218SOL     OW22552   5.507   3.126   5.305
 7218SOL    HW122553   5.421   3.086   5.336
 7218SOL    HW222554   5.549   3.177   5.381
 7219SOL     OW22555   5.121   0.251   3.093
 7219SOL    HW122556   5.139   0.338   3.046
 7219SOL    HW222557   5.078   0.270   3.181
 7220SOL     OW22558   1.220   4.674   5.081
 7220SOL    HW122559   1.268   4.699   5.165
 7220SOL    HW222560   1.152   4.744   5.060
 7221SOL     OW22561   3.628   6.209   4.317
 7221SOL    HW122562   3.594   6.276   4.383
 7221SOL    HW222563   3.604   6.117   4.347
 7222SOL     OW22564   6.267   6.785   3.312
 7222SOL    HW122565   6.250   6.759   3.407
 7222SOL    HW222566   6.303   6.706   3.262
 7223SOL     OW22567   2.904   1.389   0.594
 7223SOL    HW122568   2.825   1.449   0.612
 7223SOL    HW222569   2.892   1.303   0.643
 7224SOL     OW22570   5.613   1.738   3.942
 7224SOL    HW122571   5.658   1.668   3.996
 7224SOL    HW222572   5.556   1.694   3.872
 7225SOL     OW22573   0.698   5.536   0.688
 7225SOL    HW122574   0.739   5.604   0.627
 7225SOL    HW222575   0.739   5.543   0.779
 7226SOL     OW22576   6.533   1.791   1.967
 7226SOL    HW122577   6.494   1.715   1.915
 7226SOL    HW222578   6.460   1.839   2.015
 7227SOL     OW22579   1.893   2.354   1.253
 7227SOL    HW122580   1.968   2.309   1.204
 7227SOL    HW222581   1.909   2.348   1.351
 7228SOL     OW22582   0.936   2.197   2.905
 7228SOL    HW122583   0.848   2.225   2.944
 7228SOL    HW222584   0.943   2.231   2.812
 7229SOL     OW22585   1.419   6.128   5.342
 7229SOL    HW122586   1.369   6.135   5.256
 7229SOL    HW222587   1.447   6.219   5.372
 7230SOL     OW22588   3.462   5.259   4.419
 7230SOL    HW122589   3.483   5.179   4.475
 7230SOL    HW222590   3.420   5.231   4.333
 7231SOL     OW22591   3.999   0.997   6.511
 7231SOL    HW122592   3.922   1.005   6.448
 7231SOL    HW222593   3.967   1.006   6.605
 7232SOL     OW22594   5.317   5.952   3.458
 7232SOL    HW122595   5.284   5.862   3.429
 7232SOL    HW222596   5.384   5.941   3.532
 7233SOL     OW22597   1.018   1.956   3.958
 7233SOL    HW122598   0.950   1.924   3.892
 7233SOL    HW222599   1.010   1.904   4.043
 7234SOL     OW22600   5.429   2.967   4.326
 7234SOL    HW122601   5.486   2.978   4.408
 7234SOL    HW222602   5.347   2.916   4.351
 7235SOL     OW22603   0.050   4.570   2.260
 7235SOL    HW122604   0.093   4.500   2.204
 7235SOL    HW222605   0.064   4.549   2.357
 7236SOL     OW22606   1.931   2.197   1.793
 7236SOL    HW122607   1.984   2.188   1.709
 7236SOL    HW222608   1.990   2.226   1.868
 7237SOL     OW22609   3.956   0.508   5.087
 7237SOL    HW122610   3.905   0.590   5.060
 7237SOL    HW222611   3.927   0.431   5.030
 7238SOL     OW22612   3.398   1.819   0.415
 7238SOL    HW122613   3.397   1.874   0.498
 7238SOL    HW222614   3.350   1.868   0.342
 7239SOL     OW22615   1.130   2.601   2.789
 7239SOL    HW122616   1.089   2.669   2.729
 7239SOL    HW222617   1.227   2.591   2.767
 7240SOL     OW22618   1.030   6.842   5.809
 7240SOL    HW122619   0.964   6.859   5.882
 7240SOL    HW222620   1.045   6.927   5.757
 7241SOL     OW22621   1.466   0.564   0.800
 7241SOL    HW122622   1.501   0.627   0.870
 7241SOL    HW222623   1.383   0.601   0.760
 7242SOL     OW22624   6.549   6.123   0.388
 7242SOL    HW122625   6.458   6.088   0.365
 7242SOL    HW222626   6.545   6.222   0.400
 7243SOL     OW22627   6.823   4.584   6.253
 7243SOL    HW122628   6.854   4.518   6.321
 7243SOL    HW222629   6.842   4.548   6.161
 7244SOL     OW22630   6.022   1.184   1.836
 7244SOL    HW122631   6.049   1.123   1.910
 7244SOL    HW222632   5.922   1.184   1.827
 7245SOL     OW22633   0.762   2.159   5.261
 7245SOL    HW122634   0.812   2.222   5.321
 7245SOL    HW222635   0.804   2.068   5.265
 7246SOL     OW22636   0.010   0.057   4.124
 7246SOL    HW122637   0.110   0.055   4.118
 7246SOL    HW222638   6.994   0.124   4.059
 7247SOL     OW22639   1.924   0.789   4.261
 7247SOL    HW122640   1.896   0.698   4.291
 7247SOL    HW222641   2.016   0.809   4.296
 7248SOL     OW22642   2.285   1.205   3.615
 7248SOL    HW122643   2.366   1.261   3.630
 7248SOL    HW222644   2.292   1.157   3.528
 7249SOL     OW22645   6.168   4.714   2.588
 7249SOL    HW122646   6.176   4.616   2.603
 7249SOL    HW222647   6.174   4.733   2.490
 7250SOL     OW22648   4.623   6.758   6.274
 7250SOL    HW122649   4.670   6.680   6.234
 7250SOL    HW222650   4.657   6.774   6.366
 7251SOL     OW22651   0.617   6.516   5.723
 7251SOL    HW122652   0.624   6.426   5.767
 7251SOL    HW222653   0.708   6.549   5.700
 7252SOL     OW22654   3.791   3.570   2.717
 7252SOL    HW122655   3.722   3.639   2.692
 7252SOL    HW222656   3.880   3.615   2.729
 7253SOL     OW22657   1.888   6.137   6.792
 7253SOL    HW122658   1.821   6.088   6.735
 7253SOL    HW222659   1.961   6.075   6.819
 7254SOL     OW22660   4.766   5.161   4.197
 7254SOL    HW122661   4.777   5.111   4.111
 7254SOL    HW222662   4.694   5.230   4.187
 7255SOL     OW22663   3.085   3.805   1.207
 7255SOL    HW122664   3.002   3.848   1.241
 7255SOL    HW222665   3.097   3.716   1.253
 7256SOL     OW22666   3.453   4.976   4.475
 7256SOL    HW122667   3.406   4.929   4.401
 7256SOL    HW222668   3.422   4.940   4.563
 7257SOL     OW22669   5.768   2.762   3.808
 7257SOL    HW122670   5.785   2.690   3.742
 7257SOL    HW222671   5.855   2.792   3.847
 7258SOL     OW22672   4.240   1.700   4.052
 7258SOL    HW122673   4.245   1.793   4.015
 7258SOL    HW222674   4.327   1.677   4.095
 7259SOL     OW22675   2.987   3.385   1.280
 7259SOL    HW122676   2.910   3.361   1.339
 7259SOL    HW222677   3.048   3.448   1.329
 7260SOL     OW22678   3.708   1.776   1.930
 7260SOL    HW122679   3.636   1.772   1.999
 7260SOL    HW222680   3.710   1.867   1.889
 7261SOL     OW22681   1.693   2.614   1.454
 7261SOL    HW122682   1.616   2.622   1.391
 7261SOL    HW222683   1.673   2.664   1.538
 7262SOL     OW22684   5.080   1.779   5.398
 7262SOL    HW122685   5.036   1.718   5.332
 7262SOL    HW222686   5.168   1.740   5.426
 7263SOL     OW22687   0.907   0.444   0.577
 7263SOL    HW122688   0.902   0.348   0.551
 7263SOL    HW222689   0.815   0.480   0.592
 7264SOL     OW22690   5.668   1.670   6.444
 7264SOL    HW122691   5.683   1.688   6.347
 7264SOL    HW222692   5.714   1.585   6.471
 7265SOL     OW22693   5.648   5.348   5.831
 7265SOL    HW122694   5.553   5.325   5.851
 7265SOL    HW222695   5.654   5.389   5.740
 7266SOL     OW22696   5.506   0.015   1.232
 7266SOL    HW122697   5.564   7.009   1.155
 7266SOL    HW222698   5.562   0.060   1.302
 7267SOL     OW22699   6.517   5.508   4.925
 7267SOL    HW122700   6.567   5.526   5.010
 7267SOL    HW222701   6.447   5.439   4.943
 7268SOL     OW22702   5.441   5.213   3.776
 7268SOL    HW122703   5.467   5.248   3.686
 7268SOL    HW222704   5.393   5.284   3.828
 7269SOL     OW22705   0.399   6.743   0.210
 7269SOL    HW122706   0.348   6.747   0.124
 7269SOL    HW222707   0.430   6.834   0.235
 7270SOL     OW22708   1.709   3.318   5.640
 7270SOL    HW122709   1.766   3.340   5.719
 7270SOL    HW222710   1.708   3.395   5.576
 7271SOL     OW22711   0.212   6.081   3.134
 7271SOL    HW122712   0.311   6.065   3.140
 7271SOL    HW222713   0.188   6.160   3.191
 7272SOL     OW22714   5.895   5.530   2.123
 7272SOL    HW122715   5.918   5.462   2.053
 7272SOL    HW222716   5.823   5.590   2.089
 7273SOL     OW22717   5.621   5.115   2.039
 7273SOL    HW122718   5.580   5.070   2.119
 7273SOL    HW222719   5.716   5.084   2.029
 7274SOL     OW22720   0.840   5.960   6.835
 7274SOL    HW122721   0.780   5.902   6.781
 7274SOL    HW222722   0.804   5.968   6.928
 7275SOL     OW22723   6.895   0.216   2.802
 7275SOL    HW122724   6.915   0.123   2.833
 7275SOL    HW222725   6.830   0.259   2.865
 7276SOL     OW22726   3.808   1.893   3.040
 7276SOL    HW122727   3.836   1.828   2.969
 7276SOL    HW222728   3.797   1.845   3.127
 7277SOL     OW22729   5.049   0.323   3.604
 7277SOL    HW122730   5.117   0.378   3.654
 7277SOL    HW222731   4.969   0.310   3.662
 7278SOL     OW22732   3.093   2.752   1.361
 7278SOL    HW122733   3.082   2.768   1.263
 7278SOL    HW222734   3.048   2.666   1.386
 7279SOL     OW22735   3.614   4.035   5.687
 7279SOL    HW122736   3.682   4.015   5.758
 7279SOL    HW222737   3.652   4.011   5.597
 7280SOL     OW22738   0.133   1.983   3.982
 7280SOL    HW122739   0.155   1.896   3.938
 7280SOL    HW222740   0.038   1.982   4.011
 7281SOL     OW22741   1.560   1.380   0.449
 7281SOL    HW122742   1.626   1.418   0.513
 7281SOL    HW222743   1.558   1.280   0.459
 7282SOL     OW22744   5.890   6.383   1.473
 7282SOL    HW122745   5.898   6.298   1.525
 7282SOL    HW222746   5.890   6.362   1.375
 7283SOL     OW22747   3.904   0.780   1.996
 7283SOL    HW122748   3.853   0.760   1.912
 7283SOL    HW222749   3.979   0.842   1.975
 7284SOL     OW22750   0.023   2.055   5.630
 7284SOL    HW122751   6.952   2.028   5.596
 7284SOL    HW222752   0.044   2.147   5.596
 7285SOL     OW22753   5.372   3.622   1.834
 7285SOL    HW122754   5.449   3.665   1.786
 7285SOL    HW222755   5.287   3.643   1.785
 7286SOL     OW22756   1.082   0.668   1.214
 7286SOL    HW122757   1.049   0.604   1.283
 7286SOL    HW222758   1.147   0.732   1.255
 7287SOL     OW22759   6.428   2.650   5.302
 7287SOL    HW122760   6.340   2.638   5.256
 7287SOL    HW222761   6.414   2.702   5.387
 7288SOL     OW22762   1.634   1.884   1.458
 7288SOL    HW122763   1.610   1.975   1.494
 7288SOL    HW222764   1.576   1.815   1.501
 7289SOL     OW22765   5.608   2.519   4.488
 7289SOL    HW122766   5.563   2.430   4.477
 7289SOL    HW222767   5.598   2.572   4.405
 7290SOL     OW22768   2.298   1.499   4.952
 7290SOL    HW122769   2.350   1.568   5.002
 7290SOL    HW222770   2.301   1.412   5.002
 7291SOL     OW22771   1.574   0.002   0.527
 7291SOL    HW122772   1.651   0.047   0.480
 7291SOL    HW222773   1.488   0.039   0.493
 7292SOL     OW22774   3.397   0.565   3.097
 7292SOL    HW122775   3.349   0.507   3.162
 7292SOL    HW222776   3.495   0.557   3.111
 7293SOL     OW22777   0.904   1.889   5.226
 7293SOL    HW122778   0.897   1.792   5.248
 7293SOL    HW222779   0.983   1.928   5.272
 7294SOL     OW22780   2.964   4.943   0.300
 7294SOL    HW122781   2.868   4.959   0.324
 7294SOL    HW222782   3.021   4.956   0.380
 7295SOL     OW22783   6.538   3.969   0.890
 7295SOL    HW122784   6.633   3.952   0.867
 7295SOL    HW222785   6.493   4.016   0.814
 7296SOL     OW22786   4.290   5.880   1.805
 7296SOL    HW122787   4.275   5.946   1.732
 7296SOL    HW222788   4.387   5.876   1.828
 7297SOL     OW22789   3.262   6.707   1.190
 7297SOL    HW122790   3.177   6.705   1.139
 7297SOL    HW222791   3.245   6.739   1.283
 7298SOL     OW22792   4.737   5.239   5.748
 7298SOL    HW122793   4.696   5.160   5.793
 7298SOL    HW222794   4.712   5.323   5.796
 7299SOL     OW22795   1.170   2.454   0.825
 7299SOL    HW122796   1.269   2.467   0.817
 7299SOL    HW222797   1.151   2.361   0.855
 7300SOL     OW22798   0.461   6.766   2.448
 7300SOL    HW122799   0.493   6.727   2.362
 7300SOL    HW222800   0.377   6.720   2.476
 7301SOL     OW22801   5.598   2.220   4.716
 7301SOL    HW122802   5.611   2.315   4.745
 7301SOL    HW222803   5.607   2.159   4.795
 7302SOL     OW22804   0.059   2.529   6.164
 7302SOL    HW122805   0.029   2.469   6.238
 7302SOL    HW222806   7.012   2.602   6.151
 7303SOL     OW22807   3.819   0.854   0.116
 7303SOL    HW122808   3.824   0.934   0.057
 7303SOL    HW222809   3.759   0.785   0.075
 7304SOL     OW22810   3.110   5.162   1.429
 7304SOL    HW122811   3.105   5.167   1.329
 7304SOL    HW222812   3.035   5.215   1.469
 7305SOL     OW22813   5.233   1.799   1.534
 7305SOL    HW122814   5.248   1.709   1.492
 7305SOL    HW222815   5.248   1.793   1.632
 7306SOL     OW22816   3.904   1.969   1.697
 7306SOL    HW122817   3.922   2.001   1.790
 7306SOL    HW222818   3.817   2.006   1.666
 7307SOL     OW22819   3.281   6.409   2.520
 7307SOL    HW122820   3.195   6.446   2.487
 7307SOL    HW222821   3.329   6.479   2.573
 7308SOL     OW22822   6.208   1.669   4.508
 7308SOL    HW122823   6.130   1.608   4.496
 7308SOL    HW222824   6.187   1.737   4.577
 7309SOL     OW22825   4.001   5.718   1.740
 7309SOL    HW122826   3.952   5.802   1.761
 7309SOL    HW222827   4.076   5.737   1.677
 7310SOL     OW22828   2.024   3.587   0.379
 7310SOL    HW122829   2.023   3.557   0.284
 7310SOL    HW222830   1.939   3.634   0.400
 7311SOL     OW22831   1.533   1.949   1.215
 7311SOL    HW122832   1.586   1.921   1.295
 7311SOL    HW222833   1.583   2.021   1.166
 7312SOL     OW22834   0.851   2.645   4.726
 7312SOL    HW122835   0.806   2.582   4.663
 7312SOL    HW222836   0.894   2.719   4.674
 7313SOL     OW22837   2.120   1.442   0.200
 7313SOL    HW122838   2.136   1.522   0.257
 7313SOL    HW222839   2.142   1.359   0.251
 7314SOL     OW22840   0.186   3.830   6.434
 7314SOL    HW122841   0.116   3.759   6.438
 7314SOL    HW222842   0.186   3.881   6.521
 7315SOL     OW22843   5.089   5.681   1.630
 7315SOL    HW122844   5.069   5.773   1.596
 7315SOL    HW222845   5.137   5.687   1.717
 7316SOL     OW22846   3.043   3.452   6.696
 7316SOL    HW122847   3.055   3.541   6.740
 7316SOL    HW222848   3.128   3.399   6.703
 7317SOL     OW22849   4.176   1.792   1.428
 7317SOL    HW122850   4.220   1.830   1.509
 7317SOL    HW222851   4.132   1.705   1.452
 7318SOL     OW22852   2.961   0.350   2.259
 7318SOL    HW122853   2.971   0.449   2.251
 7318SOL    HW222854   2.950   0.311   2.167
 7319SOL     OW22855   6.160   3.579   6.993
 7319SOL    HW122856   6.129   3.672   7.013
 7319SOL    HW222857   6.201   3.576   6.901
 7320SOL     OW22858   0.568   3.526   1.392
 7320SOL    HW122859   0.562   3.608   1.448
 7320SOL    HW222860   0.481   3.477   1.396
 7321SOL     OW22861   2.084   6.686   5.619
 7321SOL    HW122862   2.137   6.670   5.703
 7321SOL    HW222863   2.060   6.782   5.613
 7322SOL     OW22864   6.561   2.857   3.055
 7322SOL    HW122865   6.647   2.842   3.104
 7322SOL    HW222866   6.535   2.773   3.007
 7323SOL     OW22867   2.199   2.883   1.669
 7323SOL    HW122868   2.178   2.875   1.572
 7323SOL    HW222869   2.261   2.959   1.684
 7324SOL     OW22870   5.637   5.157   1.650
 7324SOL    HW122871   5.602   5.218   1.721
 7324SOL    HW222872   5.736   5.171   1.640
 7325SOL     OW22873   2.471   0.256   6.196
 7325SOL    HW122874   2.451   0.215   6.107
 7325SOL    HW222875   2.561   0.300   6.193
 7326SOL     OW22876   3.351   5.780   6.316
 7326SOL    HW122877   3.439   5.733   6.313
 7326SOL    HW222878   3.278   5.716   6.293
 7327SOL     OW22879   6.179   2.353   5.234
 7327SOL    HW122880   6.176   2.453   5.238
 7327SOL    HW222881   6.264   2.320   5.275
 7328SOL     OW22882   4.722   0.007   6.079
 7328SOL    HW122883   4.631   0.003   6.038
 7328SOL    HW222884   4.721   6.981   6.168
 7329SOL     OW22885   0.353   4.363   0.683
 7329SOL    HW122886   0.332   4.293   0.615
 7329SOL    HW222887   0.350   4.324   0.775
 7330SOL     OW22888   2.485   3.411   0.379
 7330SOL    HW122889   2.469   3.368   0.467
 7330SOL    HW222890   2.582   3.409   0.358
 7331SOL     OW22891   5.382   6.758   0.844
 7331SOL    HW122892   5.377   6.766   0.944
 7331SOL    HW222893   5.293   6.777   0.804
 7332SOL     OW22894   3.437   4.963   0.063
 7332SOL    HW122895   3.493   5.031   0.110
 7332SOL    HW222896   3.344   4.998   0.053
 7333SOL     OW22897   6.022   2.966   3.335
 7333SOL    HW122898   6.094   2.948   3.268
 7333SOL    HW222899   5.980   3.054   3.316
 7334SOL     OW22900   1.527   6.591   6.238
 7334SOL    HW122901   1.513   6.689   6.227
 7334SOL    HW222902   1.497   6.543   6.155
 7335SOL     OW22903   0.097   3.276   3.302
 7335SOL    HW122904   0.139   3.239   3.385
 7335SOL    HW222905   0.147   3.357   3.272
 7336SOL     OW22906   2.314   6.804   2.287
 7336SOL    HW122907   2.241   6.851   2.336
 7336SOL    HW222908   2.276   6.724   2.240
 7337SOL     OW22909   1.605   3.125   2.197
 7337SOL    HW122910   1.696   3.138   2.237
 7337SOL    HW222911   1.615   3.099   2.101
 7338SOL     OW22912   5.515   1.542   1.568
 7338SOL    HW122913   5.432   1.537   1.511
 7338SOL    HW222914   5.490   1.529   1.664
 7339SOL     OW22915   5.787   0.192   4.954
 7339SOL    HW122916   5.752   0.098   4.962
 7339SOL    HW222917   5.823   0.206   4.862
 7340SOL     OW22918   3.338   1.257   0.184
 7340SOL    HW122919   3.282   1.330   0.223
 7340SOL    HW222920   3.347   1.183   0.252
 7341SOL     OW22921   0.851   4.633   4.709
 7341SOL    HW122922   0.818   4.594   4.623
 7341SOL    HW222923   0.906   4.565   4.758
 7342SOL     OW22924   0.375   6.706   6.225
 7342SOL    HW122925   0.369   6.799   6.190
 7342SOL    HW222926   0.453   6.699   6.288
 7343SOL     OW22927   5.612   4.602   1.481
 7343SOL    HW122928   5.636   4.507   1.497
 7343SOL    HW222929   5.621   4.654   1.566
 7344SOL     OW22930   1.082   0.770   5.712
 7344SOL    HW122931   1.039   0.690   5.670
 7344SOL    HW222932   1.124   0.744   5.799
 7345SOL     OW22933   5.039   5.733   5.374
 7345SOL    HW122934   5.120   5.775   5.415
 7345SOL    HW222935   5.001   5.667   5.439
 7346SOL     OW22936   4.719   4.210   1.727
 7346SOL    HW122937   4.632   4.204   1.775
 7346SOL    HW222938   4.703   4.217   1.629
 7347SOL     OW22939   0.586   3.218   1.264
 7347SOL    HW122940   0.610   3.176   1.177
 7347SOL    HW222941   0.488   3.208   1.281
 7348SOL     OW22942   1.112   3.843   3.514
 7348SOL    HW122943   1.162   3.828   3.428
 7348SOL    HW222944   1.173   3.825   3.591
 7349SOL     OW22945   4.627   1.932   0.520
 7349SOL    HW122946   4.545   1.904   0.470
 7349SOL    HW222947   4.697   1.963   0.455
 7350SOL     OW22948   2.066   3.018   5.630
 7350SOL    HW122949   2.131   3.084   5.595
 7350SOL    HW222950   1.973   3.042   5.600
 7351SOL     OW22951   4.853   5.964   5.317
 7351SOL    HW122952   4.905   6.050   5.313
 7351SOL    HW222953   4.917   5.888   5.330
 7352SOL     OW22954   1.794   3.001   2.820
 7352SOL    HW122955   1.749   3.091   2.820
 7352SOL    HW222956   1.808   2.972   2.915
 7353SOL     OW22957   0.328   6.842   5.949
 7353SOL    HW122958   0.251   6.792   5.990
 7353SOL    HW222959   0.304   6.939   5.940
 7354SOL     OW22960   0.779   1.893   6.652
 7354SOL    HW122961   0.707   1.850   6.706
 7354SOL    HW222962   0.834   1.952   6.711
 7355SOL     OW22963   2.262   1.236   0.334
 7355SOL    HW122964   2.177   1.211   0.379
 7355SOL    HW222965   2.287   1.165   0.269
 7356SOL     OW22966   3.788   3.514   5.932
 7356SOL    HW122967   3.732   3.434   5.953
 7356SOL    HW222968   3.752   3.560   5.850
 7357SOL     OW22969   4.320   6.972   1.981
 7357SOL    HW122970   4.344   6.898   1.918
 7357SOL    HW222971   4.379   0.031   1.965
 7358SOL     OW22972   6.818   3.058   3.020
 7358SOL    HW122973   6.877   3.121   2.971
 7358SOL    HW222974   6.835   2.964   2.990
 7359SOL     OW22975   2.523   2.497   6.520
 7359SOL    HW122976   2.435   2.450   6.524
 7359SOL    HW222977   2.540   2.544   6.606
 7360SOL     OW22978   3.504   4.277   6.009
 7360SOL    HW122979   3.485   4.180   6.022
 7360SOL    HW222980   3.585   4.288   5.952
 7361SOL     OW22981   4.881   0.193   1.553
 7361SOL    HW122982   4.945   0.116   1.562
 7361SOL    HW222983   4.797   0.172   1.601
 7362SOL     OW22984   1.298   5.193   4.139
 7362SOL    HW122985   1.314   5.269   4.076
 7362SOL    HW222986   1.378   5.133   4.142
 7363SOL     OW22987   4.235   1.213   1.109
 7363SOL    HW122988   4.136   1.226   1.111
 7363SOL    HW222989   4.275   1.249   1.193
 7364SOL     OW22990   4.308   0.550   1.251
 7364SOL    HW122991   4.396   0.510   1.276
 7364SOL    HW222992   4.320   0.610   1.172
 7365SOL     OW22993   1.397   0.238   1.693
 7365SOL    HW122994   1.353   0.224   1.604
 7365SOL    HW222995   1.479   0.294   1.681
 7366SOL     OW22996   2.130   5.782   0.055
 7366SOL    HW122997   2.112   5.857   7.012
 7366SOL    HW222998   2.049   5.724   0.064
 7367SOL     OW22999   4.897   3.393   0.940
 7367SOL    HW123000   4.871   3.485   0.970
 7367SOL    HW223001   4.929   3.340   1.018
 7368SOL     OW23002   3.841   2.951   3.343
 7368SOL    HW123003   3.918   3.015   3.343
 7368SOL    HW223004   3.817   2.927   3.437
 7369SOL     OW23005   3.862   2.569   6.770
 7369SOL    HW123006   3.857   2.473   6.795
 7369SOL    HW223007   3.941   2.584   6.710
 7370SOL     OW23008   2.609   0.851   4.705
 7370SOL    HW123009   2.567   0.836   4.615
 7370SOL    HW223010   2.617   0.949   4.722
 7371SOL     OW23011   2.010   6.147   3.538
 7371SOL    HW123012   2.041   6.206   3.463
 7371SOL    HW223013   2.049   6.180   3.624
 7372SOL     OW23014   4.171   1.354   4.801
 7372SOL    HW123015   4.260   1.318   4.773
 7372SOL    HW223016   4.180   1.405   4.886
 7373SOL     OW23017   5.715   1.440   4.415
 7373SOL    HW123018   5.756   1.362   4.367
 7373SOL    HW223019   5.703   1.416   4.512
 7374SOL     OW23020   3.042   1.418   5.220
 7374SOL    HW123021   3.133   1.458   5.212
 7374SOL    HW223022   2.985   1.476   5.277
 7375SOL     OW23023   2.115   3.344   3.182
 7375SOL    HW123024   2.077   3.275   3.121
 7375SOL    HW223025   2.154   3.419   3.129
 7376SOL     OW23026   3.337   1.979   0.211
 7376SOL    HW123027   3.418   2.017   0.254
 7376SOL    HW223028   3.348   1.981   0.111
 7377SOL     OW23029   5.377   4.399   0.581
 7377SOL    HW123030   5.307   4.327   0.589
 7377SOL    HW223031   5.451   4.382   0.645
 7378SOL     OW23032   0.670   1.163   5.707
 7378SOL    HW123033   0.692   1.065   5.707
 7378SOL    HW223034   0.753   1.216   5.690
 7379SOL     OW23035   3.046   2.199   2.865
 7379SOL    HW123036   3.053   2.239   2.956
 7379SOL    HW223037   3.124   2.140   2.847
 7380SOL     OW23038   0.456   3.651   4.971
 7380SOL    HW123039   0.445   3.692   4.881
 7380SOL    HW223040   0.434   3.718   5.042
 7381SOL     OW23041   4.704   3.581   1.589
 7381SOL    HW123042   4.673   3.661   1.641
 7381SOL    HW223043   4.647   3.502   1.612
 7382SOL     OW23044   0.349   5.565   6.141
 7382SOL    HW123045   0.388   5.519   6.061
 7382SOL    HW223046   0.400   5.649   6.159
 7383SOL     OW23047   0.908   6.831   1.137
 7383SOL    HW123048   0.940   6.901   1.201
 7383SOL    HW223049   0.982   6.807   1.074
 7384SOL     OW23050   5.853   1.056   3.654
 7384SOL    HW123051   5.838   0.960   3.675
 7384SOL    HW223052   5.861   1.108   3.739
 7385SOL     OW23053   4.559   5.852   1.924
 7385SOL    HW123054   4.629   5.886   1.987
 7385SOL    HW223055   4.548   5.754   1.936
 7386SOL     OW23056   0.596   2.250   5.617
 7386SOL    HW123057   0.536   2.175   5.589
 7386SOL    HW223058   0.682   2.244   5.567
 7387SOL     OW23059   4.645   6.394   4.353
 7387SOL    HW123060   4.649   6.459   4.277
 7387SOL    HW223061   4.738   6.367   4.378
 7388SOL     OW23062   7.015   4.931   2.428
 7388SOL    HW123063   6.993   5.010   2.485
 7388SOL    HW223064   0.032   4.858   2.484
 7389SOL     OW23065   0.473   3.107   6.228
 7389SOL    HW123066   0.493   3.157   6.312
 7389SOL    HW223067   0.456   3.172   6.154
 7390SOL     OW23068   1.831   2.079   0.239
 7390SOL    HW123069   1.848   2.164   0.288
 7390SOL    HW223070   1.904   2.013   0.260
 7391SOL     OW23071   4.014   3.600   5.308
 7391SOL    HW123072   4.055   3.691   5.309
 7391SOL    HW223073   3.915   3.608   5.305
 7392SOL     OW23074   2.407   6.134   6.881
 7392SOL    HW123075   2.409   6.046   6.928
 7392SOL    HW223076   2.350   6.128   6.799
 7393SOL     OW23077   5.314   4.971   2.657
 7393SOL    HW123078   5.285   5.060   2.621
 7393SOL    HW223079   5.411   4.956   2.635
 7394SOL     OW23080   3.207   1.905   5.616
 7394SOL    HW123081   3.122   1.941   5.654
 7394SOL    HW223082   3.256   1.978   5.568
 7395SOL     OW23083   1.786   2.463   6.825
 7395SOL    HW123084   1.721   2.536   6.805
 7395SOL    HW223085   1.850   2.453   6.749
 7396SOL     OW23086   1.238   6.809   0.312
 7396SOL    HW123087   1.302   6.881   0.339
 7396SOL    HW223088   1.281   6.751   0.242
 7397SOL     OW23089   4.263   5.163   4.991
 7397SOL    HW123090   4.229   5.070   5.007
 7397SOL    HW223091   4.337   5.161   4.925
 7398SOL     OW23092   2.723   4.678   4.200
 7398SOL    HW123093   2.689   4.636   4.284
 7398SOL    HW223094   2.693   4.624   4.121
 7399SOL     OW23095   0.970   2.123   5.664
 7399SOL    HW123096   0.885   2.077   5.691
 7399SOL    HW223097   1.025   2.142   5.746
 7400SOL     OW23098   4.115   2.894   6.059
 7400SOL    HW123099   4.076   2.888   5.967
 7400SOL    HW223100   4.196   2.952   6.058
 7401SOL     OW23101   1.529   0.764   4.521
 7401SOL    HW123102   1.493   0.857   4.530
 7401SOL    HW223103   1.491   0.721   4.439
 7402SOL     OW23104   2.936   6.077   6.340
 7402SOL    HW123105   2.890   6.075   6.252
 7402SOL    HW223106   2.978   5.988   6.358
 7403SOL     OW23107   2.178   4.065   2.602
 7403SOL    HW123108   2.168   3.990   2.668
 7403SOL    HW223109   2.118   4.140   2.628
 7404SOL     OW23110   1.550   4.882   1.172
 7404SOL    HW123111   1.526   4.875   1.075
 7404SOL    HW223112   1.481   4.937   1.220
 7405SOL     OW23113   3.713   4.900   3.831
 7405SOL    HW123114   3.694   4.817   3.884
 7405SOL    HW223115   3.647   4.908   3.757
 7406SOL     OW23116   0.299   3.322   3.488
 7406SOL    HW123117   0.329   3.231   3.518
 7406SOL    HW223118   0.364   3.359   3.422
 7407SOL     OW23119   0.197   6.325   4.423
 7407SOL    HW123120   0.262   6.250   4.436
 7407SOL    HW223121   0.240   6.412   4.446
 7408SOL     OW23122   2.369   4.357   6.688
 7408SOL    HW123123   2.367   4.415   6.769
 7408SOL    HW223124   2.448   4.382   6.631
 7409SOL     OW23125   0.326   1.565   5.956
 7409SOL    HW123126   0.367   1.638   5.902
 7409SOL    HW223127   0.317   1.483   5.900
 7410SOL     OW23128   0.537   6.910   0.842
 7410SOL    HW123129   0.631   6.944   0.843
 7410SOL    HW223130   0.537   6.811   0.828
 7411SOL     OW23131   2.686   0.246   5.144
 7411SOL    HW123132   2.719   0.156   5.172
 7411SOL    HW223133   2.605   0.236   5.087
 7412SOL     OW23134   4.855   0.103   1.941
 7412SOL    HW123135   4.853   0.203   1.941
 7412SOL    HW223136   4.799   0.068   1.866
 7413SOL     OW23137   4.891   5.788   4.396
 7413SOL    HW123138   4.793   5.800   4.411
 7413SOL    HW223139   4.927   5.865   4.343
 7414SOL     OW23140   0.311   0.417   3.582
 7414SOL    HW123141   0.406   0.396   3.557
 7414SOL    HW223142   0.265   0.335   3.615
 7415SOL     OW23143   1.930   4.109   4.388
 7415SOL    HW123144   1.868   4.143   4.318
 7415SOL    HW223145   1.895   4.134   4.478
 7416SOL     OW23146   2.263   1.928   3.739
 7416SOL    HW123147   2.235   1.890   3.828
 7416SOL    HW223148   2.354   1.969   3.748
 7417SOL     OW23149   1.973   0.702   6.986
 7417SOL    HW123150   1.992   0.624   6.926
 7417SOL    HW223151   1.877   0.699   7.015
 7418SOL     OW23152   3.081   5.934   0.993
 7418SOL    HW123153   3.109   5.851   0.945
 7418SOL    HW223154   3.142   5.949   1.071
 7419SOL     OW23155   5.849   3.157   5.143
 7419SOL    HW123156   5.930   3.102   5.165
 7419SOL    HW223157   5.799   3.113   5.069
 7420SOL     OW23158   0.581   6.803   2.007
 7420SOL    HW123159   0.507   6.742   1.978
 7420SOL    HW223160   0.544   6.875   2.065
 7421SOL     OW23161   3.435   4.065   0.818
 7421SOL    HW123162   3.359   3.999   0.821
 7421SOL    HW223163   3.510   4.027   0.764
 7422SOL     OW23164   0.005   3.230   2.910
 7422SOL    HW123165   6.963   3.297   2.869
 7422SOL    HW223166   0.090   3.276   2.936
 7423SOL     OW23167   6.248   3.951   5.647
 7423SOL    HW123168   6.302   4.010   5.706
 7423SOL    HW223169   6.293   3.941   5.558
 7424SOL     OW23170   6.897   6.695   5.453
 7424SOL    HW123171   6.884   6.794   5.445
 7424SOL    HW223172   6.861   6.650   5.372
 7425SOL     OW23173   4.505   5.302   6.758
 7425SOL    HW123174   4.578   5.306   6.826
 7425SOL    HW223175   4.460   5.390   6.752
 7426SOL     OW23176   2.252   1.046   5.658
 7426SOL    HW123177   2.264   1.133   5.610
 7426SOL    HW223178   2.187   1.057   5.733
 7427SOL     OW23179   3.799   0.122   4.134
 7427SOL    HW123180   3.785   0.218   4.112
 7427SOL    HW223181   3.887   0.092   4.098
 7428SOL     OW23182   3.796   1.469   6.087
 7428SOL    HW123183   3.853   1.454   6.006
 7428SOL    HW223184   3.708   1.506   6.059
 7429SOL     OW23185   0.134   6.836   3.926
 7429SOL    HW123186   0.174   6.833   3.834
 7429SOL    HW223187   0.179   6.908   3.979
 7430SOL     OW23188   0.688   3.271   6.916
 7430SOL    HW123189   0.730   3.186   6.885
 7430SOL    HW223190   0.589   3.259   6.923
 7431SOL     OW23191   0.732   2.928   3.078
 7431SOL    HW123192   0.660   2.922   3.009
 7431SOL    HW223193   0.817   2.960   3.035
 7432SOL     OW23194   0.942   0.961   3.337
 7432SOL    HW123195   0.979   0.883   3.286
 7432SOL    HW223196   0.994   1.043   3.314
 7433SOL     OW23197   4.586   5.658   6.295
 7433SOL    HW123198   4.598   5.570   6.247
 7433SOL    HW223199   4.554   5.641   6.388
 7434SOL     OW23200   5.114   6.519   6.030
 7434SOL    HW123201   5.166   6.585   6.083
 7434SOL    HW223202   5.171   6.482   5.957
 7435SOL     OW23203   3.946   5.763   0.814
 7435SOL    HW123204   3.846   5.770   0.813
 7435SOL    HW223205   3.981   5.770   0.721
 7436SOL     OW23206   5.965   3.648   6.240
 7436SOL    HW123207   5.956   3.583   6.165
 7436SOL    HW223208   5.911   3.730   6.220
 7437SOL     OW23209   0.935   6.391   0.362
 7437SOL    HW123210   0.904   6.455   0.433
 7437SOL    HW223211   1.035   6.398   0.353
 7438SOL     OW23212   1.094   5.543   0.147
 7438SOL    HW123213   1.088   5.493   0.060
 7438SOL    HW223214   1.185   5.582   0.156
 7439SOL     OW23215   1.545   5.744   5.352
 7439SOL    HW123216   1.627   5.799   5.367
 7439SOL    HW223217   1.537   5.675   5.423
 7440SOL     OW23218   0.146   3.842   4.105
 7440SOL    HW123219   0.143   3.743   4.119
 7440SOL    HW223220   0.230   3.878   4.145
 7441SOL     OW23221   5.464   6.344   3.941
 7441SOL    HW123222   5.492   6.438   3.962
 7441SOL    HW223223   5.404   6.311   4.014
 7442SOL     OW23224   6.280   0.804   5.771
 7442SOL    HW123225   6.181   0.794   5.764
 7442SOL    HW223226   6.305   0.813   5.868
 7443SOL     OW23227   6.830   0.139   1.899
 7443SOL    HW123228   6.757   0.110   1.960
 7443SOL    HW223229   6.919   0.122   1.942
 7444SOL     OW23230   5.994   2.803   5.697
 7444SOL    HW123231   5.898   2.802   5.727
 7444SOL    HW223232   6.053   2.774   5.772
 7445SOL     OW23233   3.737   1.363   1.332
 7445SOL    HW123234   3.770   1.400   1.419
 7445SOL    HW223235   3.671   1.290   1.351
 7446SOL     OW23236   5.714   3.556   0.954
 7446SOL    HW123237   5.771   3.517   1.027
 7446SOL    HW223238   5.654   3.485   0.917
 7447SOL     OW23239   0.623   3.514   6.264
 7447SOL    HW123240   0.535   3.554   6.290
 7447SOL    HW223241   0.634   3.521   6.164
 7448SOL     OW23242   6.727   5.983   5.626
 7448SOL    HW123243   6.738   5.924   5.547
 7448SOL    HW223244   6.632   5.979   5.659
 7449SOL     OW23245   6.504   3.365   1.779
 7449SOL    HW123246   6.408   3.388   1.789
 7449SOL    HW223247   6.549   3.368   1.869
 7450SOL     OW23248   5.151   1.921   4.268
 7450SOL    HW123249   5.063   1.943   4.227
 7450SOL    HW223250   5.225   1.955   4.208
 7451SOL     OW23251   6.994   0.362   3.225
 7451SOL    HW123252   7.019   0.301   3.301
 7451SOL    HW223253   0.057   0.390   3.177
 7452SOL     OW23254   0.684   6.232   4.746
 7452SOL    HW123255   0.754   6.246   4.676
 7452SOL    HW223256   0.714   6.273   4.832
 7453SOL     OW23257   4.976   6.868   5.872
 7453SOL    HW123258   4.893   6.912   5.906
 7453SOL    HW223259   4.964   6.769   5.873
 7454SOL     OW23260   0.569   2.522   2.715
 7454SOL    HW123261   0.655   2.495   2.759
 7454SOL    HW223262   0.572   2.497   2.618
 7455SOL     OW23263   0.043   1.675   2.366
 7455SOL    HW123264   0.126   1.723   2.335
 7455SOL    HW223265   0.049   1.659   2.464
 7456SOL     OW23266   1.007   1.212   4.471
 7456SOL    HW123267   0.990   1.146   4.544
 7456SOL    HW223268   0.924   1.264   4.452
 7457SOL     OW23269   3.754   0.138   5.839
 7457SOL    HW123270   3.706   0.209   5.787
 7457SOL    HW223271   3.843   0.173   5.868
 7458SOL     OW23272   1.754   6.609   6.037
 7458SOL    HW123273   1.724   6.532   5.980
 7458SOL    HW223274   1.719   6.598   6.130
 7459SOL     OW23275   4.693   0.564   1.834
 7459SOL    HW123276   4.721   0.651   1.875
 7459SOL    HW223277   4.626   0.519   1.893
 7460SOL     OW23278   1.179   5.316   0.897
 7460SOL    HW123279   1.255   5.357   0.948
 7460SOL    HW223280   1.121   5.389   0.861
 7461SOL     OW23281   5.962   1.327   6.043
 7461SOL    HW123282   6.023   1.291   5.972
 7461SOL    HW223283   5.989   1.420   6.066
 7462SOL     OW23284   1.799   3.957   2.782
 7462SOL    HW123285   1.764   4.050   2.778
 7462SOL    HW223286   1.843   3.934   2.695
 7463SOL     OW23287   2.494   4.550   1.073
 7463SOL    HW123288   2.494   4.648   1.094
 7463SOL    HW223289   2.495   4.538   0.973
 7464SOL     OW23290   4.840   0.294   6.689
 7464SOL    HW123291   4.775   0.247   6.749
 7464SOL    HW223292   4.812   0.389   6.677
 7465SOL     OW23293   0.692   5.496   0.277
 7465SOL    HW123294   0.651   5.533   0.194
 7465SOL    HW223295   0.777   5.448   0.254
 7466SOL     OW23296   6.933   0.666   5.332
 7466SOL    HW123297   6.918   0.569   5.312
 7466SOL    HW223298   6.855   0.720   5.300
 7467SOL     OW23299   0.392   1.928   1.200
 7467SOL    HW123300   0.443   1.859   1.149
 7467SOL    HW223301   0.374   2.007   1.141
 7468SOL     OW23302   5.336   2.895   3.702
 7468SOL    HW123303   5.314   2.977   3.648
 7468SOL    HW223304   5.257   2.835   3.705
 7469SOL     OW23305   0.009   1.195   0.657
 7469SOL    HW123306   6.974   1.149   0.587
 7469SOL    HW223307   6.973   1.264   0.704
 7470SOL     OW23308   6.599   3.499   3.968
 7470SOL    HW123309   6.584   3.440   3.889
 7470SOL    HW223310   6.601   3.443   4.051
 7471SOL     OW23311   6.752   5.877   5.910
 7471SOL    HW123312   6.821   5.894   5.840
 7471SOL    HW223313   6.664   5.859   5.866
 7472SOL     OW23314   6.297   6.753   4.929
 7472SOL    HW123315   6.251   6.799   5.005
 7472SOL    HW223316   6.303   6.816   4.851
 7473SOL     OW23317   6.193   5.070   3.233
 7473SOL    HW123318   6.203   5.003   3.159
 7473SOL    HW223319   6.283   5.095   3.268
 7474SOL     OW23320   1.711   1.356   5.587
 7474SOL    HW123321   1.784   1.291   5.609
 7474SOL    HW223322   1.639   1.352   5.656
 7475SOL     OW23323   4.645   2.087   2.016
 7475SOL    HW123324   4.590   2.007   1.990
 7475SOL    HW223325   4.634   2.159   1.948
 7476SOL     OW23326   2.964   6.528   3.681
 7476SOL    HW123327   2.968   6.614   3.630
 7476SOL    HW223328   2.992   6.452   3.622
 7477SOL     OW23329   0.418   0.736   5.047
 7477SOL    HW123330   0.466   0.649   5.064
 7477SOL    HW223331   0.333   0.738   5.099
 7478SOL     OW23332   4.890   5.623   6.522
 7478SOL    HW123333   4.975   5.595   6.567
 7478SOL    HW223334   4.904   5.713   6.479
 7479SOL     OW23335   4.689   2.434   1.655
 7479SOL    HW123336   4.595   2.427   1.687
 7479SOL    HW223337   4.752   2.425   1.732
 7480SOL     OW23338   0.480   4.227   1.799
 7480SOL    HW123339   0.434   4.247   1.713
 7480SOL    HW223340   0.425   4.162   1.852
 7481SOL     OW23341   5.977   5.007   1.084
 7481SOL    HW123342   5.938   4.914   1.079
 7481SOL    HW223343   5.926   5.061   1.150
 7482SOL     OW23344   4.547   2.130   3.134
 7482SOL    HW123345   4.516   2.040   3.165
 7482SOL    HW223346   4.604   2.172   3.205
 7483SOL     OW23347   4.784   2.703   4.660
 7483SOL    HW123348   4.832   2.784   4.694
 7483SOL    HW223349   4.850   2.631   4.638
 7484SOL     OW23350   1.731   0.684   3.728
 7484SOL    HW123351   1.694   0.755   3.668
 7484SOL    HW223352   1.807   0.638   3.681
 7485SOL     OW23353   3.918   0.249   5.015
 7485SOL    HW123354   3.835   0.223   5.063
 7485SOL    HW223355   3.920   0.208   4.924
 7486SOL     OW23356   1.944   6.894   0.631
 7486SOL    HW123357   1.988   6.918   0.545
 7486SOL    HW223358   1.888   6.812   0.617
 7487SOL     OW23359   2.256   6.384   2.603
 7487SOL    HW123360   2.354   6.398   2.593
 7487SOL    HW223361   2.240   6.298   2.652
 7488SOL     OW23362   2.502   6.684   3.717
 7488SOL    HW123363   2.421   6.658   3.664
 7488SOL    HW223364   2.495   6.647   3.809
 7489SOL     OW23365   5.184   2.800   5.248
 7489SOL    HW123366   5.176   2.800   5.148
 7489SOL    HW223367   5.206   2.708   5.279
 7490SOL     OW23368   1.237   0.775   2.020
 7490SOL    HW123369   1.240   0.754   1.923
 7490SOL    HW223370   1.317   0.736   2.065
 7491SOL     OW23371   5.744   2.122   6.057
 7491SOL    HW123372   5.830   2.173   6.054
 7491SOL    HW223373   5.755   2.036   6.008
 7492SOL     OW23374   1.965   0.527   3.018
 7492SOL    HW123375   2.051   0.530   3.068
 7492SOL    HW223376   1.911   0.448   3.049
 7493SOL     OW23377   0.191   3.561   6.701
 7493SOL    HW123378   0.095   3.581   6.716
 7493SOL    HW223379   0.201   3.499   6.623
 7494SOL     OW23380   4.753   1.236   2.737
 7494SOL    HW123381   4.709   1.146   2.723
 7494SOL    HW223382   4.710   1.303   2.677
 7495SOL     OW23383   2.071   1.440   6.953
 7495SOL    HW123384   2.048   1.458   0.029
 7495SOL    HW223385   2.167   1.462   6.937
 7496SOL     OW23386   6.111   3.425   6.042
 7496SOL    HW123387   6.161   3.367   5.977
 7496SOL    HW223388   6.092   3.373   6.125
 7497SOL     OW23389   2.047   4.414   0.078
 7497SOL    HW123390   2.074   4.509   0.060
 7497SOL    HW223391   1.989   4.382   0.004
 7498SOL     OW23392   2.864   0.446   5.672
 7498SOL    HW123393   2.767   0.460   5.694
 7498SOL    HW223394   2.914   0.531   5.686
 7499SOL     OW23395   3.187   1.925   3.155
 7499SOL    HW123396   3.088   1.918   3.167
 7499SOL    HW223397   3.225   1.836   3.132
 7500SOL     OW23398   3.221   5.392   2.924
 7500SOL    HW123399   3.239   5.379   2.827
 7500SOL    HW223400   3.207   5.302   2.968
 7501SOL     OW23401   5.372   4.100   4.785
 7501SOL    HW123402   5.283   4.060   4.766
 7501SOL    HW223403   5.440   4.061   4.723
 7502SOL     OW23404   1.667   0.540   3.940
 7502SOL    HW123405   1.699   0.591   3.860
 7502SOL    HW223406   1.716   0.453   3.946
 7503SOL     OW23407   2.524   0.787   1.023
 7503SOL    HW123408   2.595   0.851   0.993
 7503SOL    HW223409   2.565   0.716   1.080
 7504SOL     OW23410   1.428   7.013   2.944
 7504SOL    HW123411   1.522   6.981   2.952
 7504SOL    HW223412   1.371   6.965   3.011
 7505SOL     OW23413   2.113   1.388   5.295
 7505SOL    HW123414   2.126   1.487   5.296
 7505SOL    HW223415   2.040   1.364   5.359
 7506SOL     OW23416   5.871   0.730   3.295
 7506SOL    HW123417   5.815   0.736   3.213
 7506SOL    HW223418   5.884   0.821   3.334
 7507SOL     OW23419   0.473   0.916   2.538
 7507SOL    HW123420   0.564   0.886   2.565
 7507SOL    HW223421   0.428   0.960   2.615
 7508SOL     OW23422   0.952   0.086   1.443
 7508SOL    HW123423   0.952   0.010   1.507
 7508SOL    HW223424   0.997   0.165   1.485
 7509SOL     OW23425   5.232   4.183   0.316
 7509SOL    HW123426   5.215   4.113   0.386
 7509SOL    HW223427   5.228   4.142   0.225
 7510SOL     OW23428   3.954   4.201   5.535
 7510SOL    HW123429   4.045   4.165   5.515
 7510SOL    HW223430   3.927   4.265   5.464
 7511SOL     OW23431   2.738   6.834   3.708
 7511SOL    HW123432   2.652   6.784   3.706
 7511SOL    HW223433   2.720   6.931   3.722
 7512SOL     OW23434   2.935   6.526   6.474
 7512SOL    HW123435   3.031   6.555   6.468
 7512SOL    HW223436   2.924   6.439   6.426
 7513SOL     OW23437   2.638   0.766   1.485
 7513SOL    HW123438   2.714   0.755   1.421
 7513SOL    HW223439   2.649   0.851   1.537
 7514SOL     OW23440   2.543   5.811   1.820
 7514SOL    HW123441   2.468   5.876   1.826
 7514SOL    HW223442   2.520   5.728   1.871
 7515SOL     OW23443   6.893   4.856   2.813
 7515SOL    HW123444   6.949   4.937   2.828
 7515SOL    HW223445   6.800   4.884   2.790
 7516SOL     OW23446   6.801   6.618   5.222
 7516SOL    HW123447   6.775   6.686   5.154
 7516SOL    HW223448   6.722   6.598   5.280
 7517SOL     OW23449   0.128   2.721   0.868
 7517SOL    HW123450   0.076   2.642   0.898
 7517SOL    HW223451   0.173   2.764   0.947
 7518SOL     OW23452   4.120   4.813   4.031
 7518SOL    HW123453   4.141   4.716   4.023
 7518SOL    HW223454   4.205   4.865   4.043
 7519SOL     OW23455   0.427   6.821   3.569
 7519SOL    HW123456   0.372   6.796   3.489
 7519SOL    HW223457   0.452   6.739   3.619
 7520SOL     OW23458   2.399   0.318   2.335
 7520SOL    HW123459   2.324   0.255   2.355
 7520SOL    HW223460   2.439   0.352   2.420
 7521SOL     OW23461   5.077   4.113   5.919
 7521SOL    HW123462   4.977   4.120   5.915
 7521SOL    HW223463   5.103   4.053   5.994
 7522SOL     OW23464   1.667   0.846   6.348
 7522SOL    HW123465   1.736   0.877   6.413
 7522SOL    HW223466   1.579   0.833   6.395
 7523SOL     OW23467   6.065   0.354   5.419
 7523SOL    HW123468   6.117   0.433   5.387
 7523SOL    HW223469   5.970   0.380   5.433
 7524SOL     OW23470   1.486   1.959   5.424
 7524SOL    HW123471   1.407   1.899   5.436
 7524SOL    HW223472   1.553   1.915   5.364
 7525SOL     OW23473   3.380   0.510   6.372
 7525SOL    HW123474   3.430   0.526   6.457
 7525SOL    HW223475   3.285   0.537   6.383
 7526SOL     OW23476   2.878   3.266   2.078
 7526SOL    HW123477   2.883   3.295   2.173
 7526SOL    HW223478   2.968   3.236   2.046
 7527SOL     OW23479   2.967   5.936   2.993
 7527SOL    HW123480   2.873   5.911   3.012
 7527SOL    HW223481   3.024   5.854   2.988
 7528SOL     OW23482   5.708   1.860   0.222
 7528SOL    HW123483   5.619   1.822   0.244
 7528SOL    HW223484   5.756   1.884   0.307
 7529SOL     OW23485   4.894   0.935   4.588
 7529SOL    HW123486   4.847   1.015   4.551
 7529SOL    HW223487   4.862   0.917   4.681
 7530SOL     OW23488   0.174   2.988   2.890
 7530SOL    HW123489   0.160   2.921   2.818
 7530SOL    HW223490   0.107   3.062   2.882
 7531SOL     OW23491   5.152   3.102   4.761
 7531SOL    HW123492   5.155   3.159   4.679
 7531SOL    HW223493   5.070   3.125   4.815
 7532SOL     OW23494   5.394   5.752   6.954
 7532SOL    HW123495   5.410   5.654   6.967
 7532SOL    HW223496   5.352   5.767   6.864
 7533SOL     OW23497   2.607   1.534   1.715
 7533SOL    HW123498   2.705   1.516   1.703
 7533SOL    HW223499   2.585   1.624   1.679
 7534SOL     OW23500   4.593   5.962   5.370
 7534SOL    HW123501   4.692   5.947   5.368
 7534SOL    HW223502   4.569   6.038   5.310
 7535SOL     OW23503   1.608   0.261   4.717
 7535SOL    HW123504   1.676   0.188   4.723
 7535SOL    HW223505   1.629   0.319   4.638
 7536SOL     OW23506   4.524   4.442   4.822
 7536SOL    HW123507   4.465   4.500   4.878
 7536SOL    HW223508   4.532   4.480   4.730
 7537SOL     OW23509   3.139   5.818   2.303
 7537SOL    HW123510   3.197   5.893   2.271
 7537SOL    HW223511   3.095   5.774   2.224
 7538SOL     OW23512   2.313   3.372   1.296
 7538SOL    HW123513   2.362   3.412   1.219
 7538SOL    HW223514   2.303   3.440   1.369
 7539SOL     OW23515   1.069   4.051   4.525
 7539SOL    HW123516   1.078   4.040   4.426
 7539SOL    HW223517   1.137   3.993   4.570
 7540SOL     OW23518   3.826   0.262   4.558
 7540SOL    HW123519   3.797   0.190   4.495
 7540SOL    HW223520   3.827   0.226   4.651
 7541SOL     OW23521   0.151   4.701   5.194
 7541SOL    HW123522   0.100   4.615   5.197
 7541SOL    HW223523   0.211   4.701   5.114
 7542SOL     OW23524   1.006   5.167   6.666
 7542SOL    HW123525   1.034   5.263   6.672
 7542SOL    HW223526   0.938   5.147   6.736
 7543SOL     OW23527   3.606   2.122   6.725
 7543SOL    HW123528   3.577   2.208   6.682
 7543SOL    HW223529   3.541   2.050   6.702
 7544SOL     OW23530   6.769   2.758   3.211
 7544SOL    HW123531   6.820   2.829   3.257
 7544SOL    HW223532   6.770   2.675   3.266
 7545SOL     OW23533   0.052   5.758   0.854
 7545SOL    HW123534   0.037   5.852   0.822
 7545SOL    HW223535   0.083   5.701   0.778
 7546SOL     OW23536   3.591   1.983   1.767
 7546SOL    HW123537   3.564   2.017   1.857
 7546SOL    HW223538   3.580   2.056   1.700
 7547SOL     OW23539   5.395   1.014   0.764
 7547SOL    HW123540   5.483   1.062   0.770
 7547SOL    HW223541   5.412   0.915   0.765
 7548SOL     OW23542   4.048   1.260   0.137
 7548SOL    HW123543   4.113   1.191   0.104
 7548SOL    HW223544   4.012   1.232   0.225
 7549SOL     OW23545   4.613   2.591   0.578
 7549SOL    HW123546   4.616   2.689   0.595
 7549SOL    HW223547   4.702   2.550   0.599
 7550SOL     OW23548   2.484   4.868   2.436
 7550SOL    HW123549   2.432   4.846   2.354
 7550SOL    HW223550   2.494   4.967   2.444
 7551SOL     OW23551   5.507   3.484   6.641
 7551SOL    HW123552   5.415   3.523   6.647
 7551SOL    HW223553   5.569   3.550   6.598
 7552SOL     OW23554   1.585   6.135   2.519
 7552SOL    HW123555   1.537   6.100   2.438
 7552SOL    HW223556   1.558   6.230   2.535
 7553SOL     OW23557   4.496   6.170   5.703
 7553SOL    HW123558   4.569   6.164   5.771
 7553SOL    HW223559   4.520   6.239   5.635
 7554SOL     OW23560   4.563   1.308   0.416
 7554SOL    HW123561   4.643   1.282   0.470
 7554SOL    HW223562   4.580   1.289   0.319
 7555SOL     OW23563   2.379   4.583   5.989
 7555SOL    HW123564   2.379   4.563   6.087
 7555SOL    HW223565   2.461   4.542   5.947
 7556SOL     OW23566   2.326   3.160   0.371
 7556SOL    HW123567   2.376   3.242   0.345
 7556SOL    HW223568   2.383   3.102   0.428
 7557SOL     OW23569   5.099   0.816   5.046
 7557SOL    HW123570   5.054   0.871   5.115
 7557SOL    HW223571   5.135   0.875   4.974
 7558SOL     OW23572   1.296   2.659   4.127
 7558SOL    HW123573   1.375   2.699   4.082
 7558SOL    HW223574   1.219   2.723   4.122
 7559SOL     OW23575   4.928   3.358   0.036
 7559SOL    HW123576   4.887   3.334   6.968
 7559SOL    HW223577   4.959   3.453   0.034
 7560SOL     OW23578   5.299   0.453   1.063
 7560SOL    HW123579   5.264   0.501   1.144
 7560SOL    HW223580   5.281   0.509   0.982
 7561SOL     OW23581   0.584   3.593   7.004
 7561SOL    HW123582   0.651   3.519   7.012
 7561SOL    HW223583   0.514   3.581   0.055
 7562SOL     OW23584   0.192   6.631   4.098
 7562SOL    HW123585   0.162   6.714   4.050
 7562SOL    HW223586   0.116   6.594   4.152
 7563SOL     OW23587   3.187   0.452   1.145
 7563SOL    HW123588   3.132   0.476   1.065
 7563SOL    HW223589   3.231   0.364   1.130
 7564SOL     OW23590   4.596   0.435   3.315
 7564SOL    HW123591   4.539   0.418   3.395
 7564SOL    HW223592   4.613   0.348   3.268
 7565SOL     OW23593   5.255   3.449   0.490
 7565SOL    HW123594   5.235   3.428   0.585
 7565SOL    HW223595   5.174   3.434   0.434
 7566SOL     OW23596   5.600   4.846   2.766
 7566SOL    HW123597   5.632   4.751   2.769
 7566SOL    HW223598   5.567   4.873   2.856
 7567SOL     OW23599   2.023   2.178   4.558
 7567SOL    HW123600   2.092   2.225   4.613
 7567SOL    HW223601   1.979   2.243   4.497
 7568SOL     OW23602   5.149   5.942   2.737
 7568SOL    HW123603   5.124   5.883   2.814
 7568SOL    HW223604   5.237   5.985   2.755
 7569SOL     OW23605   3.896   5.244   6.296
 7569SOL    HW123606   3.914   5.146   6.302
 7569SOL    HW223607   3.848   5.264   6.211
 7570SOL     OW23608   5.701   3.148   5.527
 7570SOL    HW123609   5.727   3.220   5.462
 7570SOL    HW223610   5.696   3.187   5.619
 7571SOL     OW23611   4.096   5.315   3.366
 7571SOL    HW123612   4.095   5.273   3.275
 7571SOL    HW223613   4.034   5.264   3.427
 7572SOL     OW23614   4.627   0.855   1.196
 7572SOL    HW123615   4.695   0.799   1.243
 7572SOL    HW223616   4.569   0.902   1.264
 7573SOL     OW23617   0.286   0.310   5.184
 7573SOL    HW123618   0.364   0.350   5.231
 7573SOL    HW223619   0.278   0.350   5.093
 7574SOL     OW23620   4.803   0.416   5.451
 7574SOL    HW123621   4.887   0.467   5.436
 7574SOL    HW223622   4.728   0.459   5.400
 7575SOL     OW23623   5.293   0.108   6.182
 7575SOL    HW123624   5.337   0.178   6.126
 7575SOL    HW223625   5.268   0.030   6.125
 7576SOL     OW23626   4.831   4.501   6.945
 7576SOL    HW123627   4.843   4.599   6.963
 7576SOL    HW223628   4.752   4.467   6.996
 7577SOL     OW23629   0.763   6.892   0.063
 7577SOL    HW123630   0.815   6.832   0.124
 7577SOL    HW223631   0.680   6.922   0.108
 7578SOL     OW23632   1.672   5.271   1.529
 7578SOL    HW123633   1.754   5.305   1.484
 7578SOL    HW223634   1.592   5.293   1.474
 7579SOL     OW23635   0.072   1.204   1.874
 7579SOL    HW123636   0.006   1.279   1.869
 7579SOL    HW223637   0.059   1.154   1.960
 7580SOL     OW23638   0.418   3.634   4.347
 7580SOL    HW123639   0.364   3.550   4.359
 7580SOL    HW223640   0.369   3.710   4.390
 7581SOL     OW23641   6.859   1.113   1.256
 7581SOL    HW123642   6.800   1.049   1.304
 7581SOL    HW223643   6.823   1.206   1.267
 7582SOL     OW23644   4.288   1.093   1.796
 7582SOL    HW123645   4.249   1.068   1.707
 7582SOL    HW223646   4.280   1.192   1.809
 7583SOL     OW23647   6.185   3.483   2.066
 7583SOL    HW123648   6.087   3.489   2.046
 7583SOL    HW223649   6.197   3.458   2.163
 7584SOL     OW23650   3.475   6.829   1.296
 7584SOL    HW123651   3.397   6.891   1.306
 7584SOL    HW223652   3.449   6.749   1.242
 7585SOL     OW23653   1.610   2.848   6.605
 7585SOL    HW123654   1.645   2.767   6.559
 7585SOL    HW223655   1.571   2.911   6.538
 7586SOL     OW23656   2.689   0.352   3.529
 7586SOL    HW123657   2.756   0.380   3.598
 7586SOL    HW223658   2.650   0.434   3.486
 7587SOL     OW23659   2.493   2.868   0.146
 7587SOL    HW123660   2.530   2.787   0.100
 7587SOL    HW223661   2.406   2.893   0.103
 7588SOL     OW23662   1.685   2.995   3.365
 7588SOL    HW123663   1.736   3.080   3.351
 7588SOL    HW223664   1.727   2.944   3.441
 7589SOL     OW23665   0.771   0.568   2.506
 7589SOL    HW123666   0.764   0.474   2.539
 7589SOL    HW223667   0.828   0.621   2.568
 7590SOL     OW23668   3.986   1.489   5.874
 7590SOL    HW123669   4.014   1.585   5.874
 7590SOL    HW223670   4.067   1.430   5.864
 7591SOL     OW23671   0.135   3.460   0.864
 7591SOL    HW123672   0.160   3.519   0.787
 7591SOL    HW223673   0.215   3.443   0.921
 7592SOL     OW23674   6.542   4.699   4.702
 7592SOL    HW123675   6.594   4.767   4.753
 7592SOL    HW223676   6.527   4.618   4.759
 7593SOL     OW23677   6.187   3.322   0.895
 7593SOL    HW123678   6.157   3.414   0.870
 7593SOL    HW223679   6.221   3.275   0.813
 7594SOL     OW23680   1.316   5.387   2.251
 7594SOL    HW123681   1.276   5.296   2.264
 7594SOL    HW223682   1.257   5.455   2.293
 7595SOL     OW23683   6.069   3.018   6.164
 7595SOL    HW123684   6.031   3.039   6.074
 7595SOL    HW223685   6.056   3.096   6.225
 7596SOL     OW23686   3.853   5.361   4.163
 7596SOL    HW123687   3.769   5.354   4.109
 7596SOL    HW223688   3.833   5.404   4.251
 7597SOL     OW23689   2.514   6.446   2.561
 7597SOL    HW123690   2.595   6.388   2.565
 7597SOL    HW223691   2.505   6.485   2.469
 7598SOL     OW23692   0.184   1.393   3.362
 7598SOL    HW123693   0.136   1.317   3.407
 7598SOL    HW223694   0.117   1.461   3.333
 7599SOL     OW23695   5.300   2.308   2.271
 7599SOL    HW123696   5.214   2.351   2.244
 7599SOL    HW223697   5.286   2.210   2.281
 7600SOL     OW23698   1.416   1.781   2.950
 7600SOL    HW123699   1.474   1.861   2.961
 7600SOL    HW223700   1.330   1.808   2.906
 7601SOL     OW23701   2.323   5.583   2.452
 7601SOL    HW123702   2.226   5.606   2.447
 7601SOL    HW223703   2.376   5.666   2.468
 7602SOL     OW23704   2.028   4.125   6.535
 7602SOL    HW123705   1.939   4.086   6.556
 7602SOL    HW223706   2.098   4.054   6.546
 7603SOL     OW23707   1.456   6.016   6.321
 7603SOL    HW123708   1.375   6.068   6.294
 7603SOL    HW223709   1.487   6.048   6.410
 7604SOL     OW23710   2.153   3.861   4.660
 7604SOL    HW123711   2.176   3.917   4.581
 7604SOL    HW223712   2.208   3.888   4.738
 7605SOL     OW23713   1.528   0.621   1.141
 7605SOL    HW123714   1.444   0.672   1.157
 7605SOL    HW223715   1.509   0.523   1.140
 7606SOL     OW23716   5.866   4.083   5.134
 7606SOL    HW123717   5.884   4.181   5.123
 7606SOL    HW223718   5.767   4.067   5.129
 7607SOL     OW23719   3.176   5.497   0.282
 7607SOL    HW123720   3.179   5.443   0.198
 7607SOL    HW223721   3.177   5.436   0.361
 7608SOL     OW23722   4.100   3.843   2.079
 7608SOL    HW123723   4.142   3.932   2.093
 7608SOL    HW223724   4.118   3.784   2.158
 7609SOL     OW23725   1.140   3.490   4.501
 7609SOL    HW123726   1.224   3.484   4.554
 7609SOL    HW223727   1.157   3.460   4.407
 7610SOL     OW23728   4.733   4.834   5.922
 7610SOL    HW123729   4.809   4.770   5.916
 7610SOL    HW223730   4.745   4.891   6.003
 7611SOL     OW23731   6.232   3.467   1.769
 7611SOL    HW123732   6.228   3.444   1.866
 7611SOL    HW223733   6.171   3.405   1.718
 7612SOL     OW23734   4.736   2.598   3.221
 7612SOL    HW123735   4.688   2.632   3.140
 7612SOL    HW223736   4.801   2.526   3.194
 7613SOL     OW23737   6.878   2.973   0.975
 7613SOL    HW123738   6.940   2.934   1.043
 7613SOL    HW223739   6.835   2.899   0.924
 7614SOL     OW23740   4.930   3.145   0.457
 7614SOL    HW123741   4.975   3.233   0.444
 7614SOL    HW223742   4.876   3.148   0.541
 7615SOL     OW23743   3.661   5.687   0.808
 7615SOL    HW123744   3.664   5.700   0.709
 7615SOL    HW223745   3.686   5.592   0.830
 7616SOL     OW23746   5.665   6.029   4.562
 7616SOL    HW123747   5.659   6.117   4.609
 7616SOL    HW223748   5.739   6.032   4.495
 7617SOL     OW23749   4.005   5.618   2.437
 7617SOL    HW123750   4.065   5.676   2.491
 7617SOL    HW223751   4.015   5.641   2.340
 7618SOL     OW23752   6.949   1.237   5.444
 7618SOL    HW123753   6.945   1.186   5.530
 7618SOL    HW223754   6.867   1.217   5.390
 7619SOL     OW23755   5.817   2.681   5.305
 7619SOL    HW123756   5.804   2.651   5.211
 7619SOL    HW223757   5.804   2.780   5.311
 7620SOL     OW23758   4.107   6.033   0.906
 7620SOL    HW123759   4.059   5.983   0.834
 7620SOL    HW223760   4.199   5.997   0.916
 7621SOL     OW23761   6.642   1.547   1.342
 7621SOL    HW123762   6.707   1.475   1.365
 7621SOL    HW223763   6.685   1.613   1.279
 7622SOL     OW23764   4.693   5.313   6.979
 7622SOL    HW123765   4.747   5.393   6.952
 7622SOL    HW223766   4.642   5.334   0.042
 7623SOL     OW23767   4.637   4.084   6.975
 7623SOL    HW123768   4.713   4.019   6.967
 7623SOL    HW223769   4.567   4.062   6.908
 7624SOL     OW23770   6.949   3.501   4.673
 7624SOL    HW123771   6.935   3.588   4.721
 7624SOL    HW223772   6.871   3.441   4.689
 7625SOL     OW23773   4.632   0.668   1.591
 7625SOL    HW123774   4.535   0.682   1.570
 7625SOL    HW223775   4.642   0.647   1.688
 7626SOL     OW23776   5.968   0.294   4.336
 7626SOL    HW123777   5.897   0.364   4.322
 7626SOL    HW223778   6.054   0.338   4.362
 7627SOL     OW23779   4.658   3.139   6.917
 7627SOL    HW123780   4.734   3.203   6.903
 7627SOL    HW223781   4.600   3.138   6.836
 7628SOL     OW23782   3.504   2.013   2.028
 7628SOL    HW123783   3.567   2.090   2.038
 7628SOL    HW223784   3.421   2.030   2.081
 7629SOL     OW23785   7.019   6.240   3.224
 7629SOL    HW123786   7.007   6.143   3.200
 7629SOL    HW223787   6.953   6.265   3.295
 7630SOL     OW23788   0.204   6.787   1.222
 7630SOL    HW123789   0.186   6.764   1.127
 7630SOL    HW223790   0.302   6.799   1.237
 7631SOL     OW23791   0.859   1.047   6.305
 7631SOL    HW123792   0.842   0.992   6.387
 7631SOL    HW223793   0.833   0.995   6.224
 7632SOL     OW23794   4.058   3.006   1.466
 7632SOL    HW123795   4.018   2.962   1.546
 7632SOL    HW223796   4.071   3.103   1.484
 7633SOL     OW23797   5.249   0.720   0.995
 7633SOL    HW123798   5.335   0.744   1.040
 7633SOL    HW223799   5.187   0.799   0.997
 7634SOL     OW23800   1.723   1.841   2.514
 7634SOL    HW123801   1.801   1.820   2.455
 7634SOL    HW223802   1.749   1.914   2.578
 7635SOL     OW23803   2.977   5.190   5.111
 7635SOL    HW123804   2.886   5.220   5.083
 7635SOL    HW223805   2.991   5.096   5.081
 7636SOL     OW23806   1.496   2.830   4.006
 7636SOL    HW123807   1.427   2.896   3.975
 7636SOL    HW223808   1.577   2.879   4.038
 7637SOL     OW23809   1.940   5.319   2.292
 7637SOL    HW123810   1.906   5.239   2.341
 7637SOL    HW223811   1.889   5.329   2.206
 7638SOL     OW23812   2.513   6.190   1.372
 7638SOL    HW123813   2.543   6.125   1.302
 7638SOL    HW223814   2.562   6.276   1.359
 7639SOL     OW23815   0.802   2.250   0.637
 7639SOL    HW123816   0.898   2.261   0.662
 7639SOL    HW223817   0.793   2.259   0.538
 7640SOL     OW23818   2.703   1.195   5.867
 7640SOL    HW123819   2.672   1.108   5.829
 7640SOL    HW223820   2.797   1.185   5.900
 7641SOL     OW23821   1.255   3.855   2.641
 7641SOL    HW123822   1.276   3.870   2.544
 7641SOL    HW223823   1.250   3.757   2.659
 7642SOL     OW23824   3.527   1.543   3.102
 7642SOL    HW123825   3.438   1.497   3.102
 7642SOL    HW223826   3.515   1.641   3.087
 7643SOL     OW23827   4.649   2.621   3.486
 7643SOL    HW123828   4.664   2.635   3.388
 7643SOL    HW223829   4.722   2.565   3.524
 7644SOL     OW23830   5.854   1.605   2.134
 7644SOL    HW123831   5.785   1.649   2.076
 7644SOL    HW223832   5.945   1.621   2.095
 7645SOL     OW23833   4.345   3.714   5.579
 7645SOL    HW123834   4.430   3.743   5.622
 7645SOL    HW223835   4.365   3.674   5.489
 7646SOL     OW23836   1.054   3.347   3.279
 7646SOL    HW123837   1.012   3.431   3.315
 7646SOL    HW223838   1.143   3.333   3.322
 7647SOL     OW23839   6.498   2.884   3.421
 7647SOL    HW123840   6.558   2.811   3.453
 7647SOL    HW223841   6.407   2.846   3.401
 7648SOL     OW23842   3.282   1.415   3.086
 7648SOL    HW123843   3.264   1.393   3.182
 7648SOL    HW223844   3.254   1.339   3.028
 7649SOL     OW23845   0.754   0.992   2.965
 7649SOL    HW123846   0.736   1.032   2.875
 7649SOL    HW223847   0.763   1.066   3.032
 7650SOL     OW23848   4.898   1.353   0.343
 7650SOL    HW123849   4.927   1.386   0.433
 7650SOL    HW223850   4.877   1.431   0.284
 7651SOL     OW23851   2.198   0.561   3.593
 7651SOL    HW123852   2.114   0.606   3.560
 7651SOL    HW223853   2.224   0.601   3.681
 7652SOL     OW23854   6.322   3.295   5.890
 7652SOL    HW123855   6.370   3.213   5.858
 7652SOL    HW223856   6.387   3.369   5.903
 7653SOL     OW23857   1.092   1.409   0.132
 7653SOL    HW123858   1.112   1.428   0.228
 7653SOL    HW223859   1.037   1.483   0.093
 7654SOL     OW23860   4.840   3.121   4.424
 7654SOL    HW123861   4.790   3.037   4.445
 7654SOL    HW223862   4.814   3.192   4.488
 7655SOL     OW23863   4.701   6.737   3.073
 7655SOL    HW123864   4.658   6.685   2.999
 7655SOL    HW223865   4.735   6.674   3.143
 7656SOL     OW23866   3.033   3.835   6.372
 7656SOL    HW123867   3.040   3.818   6.273
 7656SOL    HW223868   3.105   3.900   6.399
 7657SOL     OW23869   1.346   2.393   4.159
 7657SOL    HW123870   1.366   2.356   4.068
 7657SOL    HW223871   1.308   2.485   4.149
 7658SOL     OW23872   4.225   6.703   6.397
 7658SOL    HW123873   4.144   6.761   6.383
 7658SOL    HW223874   4.205   6.610   6.365
 7659SOL     OW23875   5.791   4.960   6.122
 7659SOL    HW123876   5.881   4.983   6.085
 7659SOL    HW223877   5.724   5.026   6.088
 7660SOL     OW23878   0.396   5.865   3.844
 7660SOL    HW123879   0.353   5.940   3.893
 7660SOL    HW223880   0.345   5.846   3.760
 7661SOL     OW23881   5.768   2.160   5.015
 7661SOL    HW123882   5.835   2.164   4.942
 7661SOL    HW223883   5.807   2.198   5.099
 7662SOL     OW23884   1.097   2.948   3.212
 7662SOL    HW123885   1.016   3.005   3.224
 7662SOL    HW223886   1.120   2.903   3.298
 7663SOL     OW23887   0.343   4.943   5.255
 7663SOL    HW123888   0.293   4.856   5.252
 7663SOL    HW223889   0.279   5.019   5.242
 7664SOL     OW23890   4.053   6.999   1.608
 7664SOL    HW123891   4.055   0.005   1.705
 7664SOL    HW223892   3.979   6.933   1.594
 7665SOL     OW23893   6.210   0.260   4.733
 7665SOL    HW123894   6.202   0.207   4.818
 7665SOL    HW223895   6.121   0.267   4.689
 7666SOL     OW23896   0.658   5.315   2.127
 7666SOL    HW123897   0.747   5.282   2.097
 7666SOL    HW223898   0.660   5.330   2.226
 7667SOL     OW23899   4.544   6.715   2.407
 7667SOL    HW123900   4.592   6.802   2.401
 7667SOL    HW223901   4.569   6.657   2.329
 7668SOL     OW23902   3.354   4.772   0.331
 7668SOL    HW123903   3.288   4.842   0.356
 7668SOL    HW223904   3.348   4.753   0.233
 7669SOL     OW23905   4.876   1.375   4.487
 7669SOL    HW123906   4.871   1.276   4.479
 7669SOL    HW223907   4.789   1.415   4.458
 7670SOL     OW23908   0.737   4.845   0.003
 7670SOL    HW123909   0.829   4.882   7.019
 7670SOL    HW223910   0.702   4.849   0.097
 7671SOL     OW23911   4.578   1.108   1.840
 7671SOL    HW123912   4.656   1.168   1.857
 7671SOL    HW223913   4.538   1.131   1.752
 7672SOL     OW23914   0.544   6.591   2.246
 7672SOL    HW123915   0.497   6.549   2.168
 7672SOL    HW223916   0.642   6.572   2.241
 7673SOL     OW23917   1.496   6.545   0.824
 7673SOL    HW123918   1.482   6.590   0.913
 7673SOL    HW223919   1.446   6.458   0.823
 7674SOL     OW23920   5.797   0.842   3.010
 7674SOL    HW123921   5.821   0.939   3.004
 7674SOL    HW223922   5.713   0.825   2.957
 7675SOL     OW23923   6.110   6.805   2.270
 7675SOL    HW123924   6.045   6.738   2.233
 7675SOL    HW223925   6.181   6.823   2.203
 7676SOL     OW23926   3.099   2.411   0.800
 7676SOL    HW123927   3.146   2.455   0.723
 7676SOL    HW223928   3.137   2.446   0.886
 7677SOL     OW23929   0.438   4.982   1.495
 7677SOL    HW123930   0.405   5.043   1.567
 7677SOL    HW223931   0.433   5.028   1.406
 7678SOL     OW23932   1.671   3.127   4.997
 7678SOL    HW123933   1.581   3.170   5.004
 7678SOL    HW223934   1.741   3.189   5.032
 7679SOL     OW23935   3.193   5.856   5.552
 7679SOL    HW123936   3.146   5.900   5.629
 7679SOL    HW223937   3.282   5.901   5.538
 7680SOL     OW23938   0.889   1.067   6.923
 7680SOL    HW123939   0.919   1.026   6.837
 7680SOL    HW223940   0.966   1.114   6.966
 7681SOL     OW23941   3.056   1.425   1.172
 7681SOL    HW123942   2.976   1.458   1.221
 7681SOL    HW223943   3.071   1.481   1.091
 7682SOL     OW23944   3.303   0.208   2.182
 7682SOL    HW123945   3.225   0.267   2.204
 7682SOL    HW223946   3.336   0.229   2.090
 7683SOL     OW23947   5.513   1.941   4.512
 7683SOL    HW123948   5.452   2.000   4.565
 7683SOL    HW223949   5.595   1.922   4.566
 7684SOL     OW23950   2.751   1.970   1.751
 7684SOL    HW123951   2.801   2.054   1.773
 7684SOL    HW223952   2.796   1.923   1.675
 7685SOL     OW23953   2.611   2.098   5.908
 7685SOL    HW123954   2.518   2.132   5.915
 7685SOL    HW223955   2.675   2.167   5.941
 7686SOL     OW23956   6.770   6.459   3.142
 7686SOL    HW123957   6.793   6.473   3.045
 7686SOL    HW223958   6.687   6.511   3.164
 7687SOL     OW23959   5.711   4.890   3.479
 7687SOL    HW123960   5.759   4.821   3.424
 7687SOL    HW223961   5.759   4.901   3.566
 7688SOL     OW23962   0.778   6.104   5.222
 7688SOL    HW123963   0.759   6.103   5.320
 7688SOL    HW223964   0.716   6.043   5.175
 7689SOL     OW23965   5.460   6.522   2.708
 7689SOL    HW123966   5.471   6.527   2.808
 7689SOL    HW223967   5.367   6.548   2.683
 7690SOL     OW23968   5.285   5.289   0.358
 7690SOL    HW123969   5.306   5.212   0.418
 7690SOL    HW223970   5.339   5.282   0.274
 7691SOL     OW23971   5.162   3.865   4.352
 7691SOL    HW123972   5.223   3.909   4.286
 7691SOL    HW223973   5.217   3.824   4.425
 7692SOL     OW23974   0.589   6.359   1.843
 7692SOL    HW123975   0.605   6.262   1.822
 7692SOL    HW223976   0.582   6.410   1.758
 7693SOL     OW23977   3.079   6.553   1.497
 7693SOL    HW123978   3.145   6.536   1.570
 7693SOL    HW223979   3.094   6.489   1.422
 7694SOL     OW23980   6.156   3.473   4.789
 7694SOL    HW123981   6.139   3.384   4.746
 7694SOL    HW223982   6.075   3.503   4.838
 7695SOL     OW23983   5.244   0.260   0.638
 7695SOL    HW123984   5.164   0.222   0.684
 7695SOL    HW223985   5.272   0.345   0.684
 7696SOL     OW23986   0.812   0.912   5.451
 7696SOL    HW123987   0.740   0.867   5.399
 7696SOL    HW223988   0.814   0.877   5.544
 7697SOL     OW23989   2.271   6.846   2.589
 7697SOL    HW123990   2.330   6.914   2.547
 7697SOL    HW223991   2.280   6.850   2.689
 7698SOL     OW23992   5.851   1.066   4.118
 7698SOL    HW123993   5.755   1.060   4.088
 7698SOL    HW223994   5.887   0.974   4.132
 7699SOL     OW23995   3.466   5.335   6.620
 7699SOL    HW123996   3.482   5.311   6.716
 7699SOL    HW223997   3.401   5.271   6.580
 7700SOL     OW23998   4.112   5.953   3.001
 7700SOL    HW123999   4.149   6.004   3.078
 7700SOL    HW224000   4.179   5.951   2.927
 7701SOL     OW24001   6.332   2.011   0.717
 7701SOL    HW124002   6.254   1.987   0.776
 7701SOL    HW224003   6.409   2.040   0.774
 7702SOL     OW24004   3.164   6.309   5.015
 7702SOL    HW124005   3.181   6.220   4.972
 7702SOL    HW224006   3.207   6.311   5.105
 7703SOL     OW24007   6.512   6.263   6.753
 7703SOL    HW124008   6.432   6.322   6.760
 7703SOL    HW224009   6.505   6.207   6.670
 7704SOL     OW24010   5.881   6.766   4.767
 7704SOL    HW124011   5.931   6.684   4.741
 7704SOL    HW224012   5.927   6.847   4.730
 7705SOL     OW24013   2.513   5.880   0.538
 7705SOL    HW124014   2.518   5.976   0.565
 7705SOL    HW224015   2.586   5.860   0.473
 7706SOL     OW24016   3.605   3.875   5.158
 7706SOL    HW124017   3.677   3.921   5.106
 7706SOL    HW224018   3.545   3.826   5.095
 7707SOL     OW24019   6.969   4.902   5.545
 7707SOL    HW124020   6.928   4.886   5.455
 7707SOL    HW224021   7.011   4.817   5.578
 7708SOL     OW24022   0.901   6.620   5.964
 7708SOL    HW124023   0.922   6.539   5.909
 7708SOL    HW224024   0.980   6.642   6.021
 7709SOL     OW24025   6.271   4.329   1.988
 7709SOL    HW124026   6.205   4.255   1.972
 7709SOL    HW224027   6.267   4.357   2.084
 7710SOL     OW24028   3.074   2.074   0.237
 7710SOL    HW124029   3.060   2.069   0.335
 7710SOL    HW224030   3.171   2.057   0.216
 7711SOL     OW24031   5.742   6.297   5.956
 7711SOL    HW124032   5.726   6.235   6.033
 7711SOL    HW224033   5.825   6.271   5.908
 7712SOL     OW24034   6.195   5.222   1.706
 7712SOL    HW124035   6.280   5.172   1.689
 7712SOL    HW224036   6.172   5.217   1.803
 7713SOL     OW24037   2.343   4.287   0.984
 7713SOL    HW124038   2.377   4.331   0.900
 7713SOL    HW224039   2.336   4.356   1.056
 7714SOL     OW24040   0.283   3.464   5.849
 7714SOL    HW124041   0.215   3.403   5.889
 7714SOL    HW224042   0.297   3.440   5.753
 7715SOL     OW24043   3.040   2.069   0.522
 7715SOL    HW124044   3.095   2.114   0.593
 7715SOL    HW224045   3.026   1.974   0.547
 7716SOL     OW24046   6.768   4.283   2.182
 7716SOL    HW124047   6.669   4.289   2.182
 7716SOL    HW224048   6.807   4.373   2.159
 7717SOL     OW24049   2.168   0.857   5.098
 7717SOL    HW124050   2.108   0.928   5.135
 7717SOL    HW224051   2.224   0.896   5.025
 7718SOL     OW24052   6.869   3.797   3.627
 7718SOL    HW124053   6.939   3.860   3.660
 7718SOL    HW224054   6.833   3.744   3.704
 7719SOL     OW24055   7.008   4.464   5.224
 7719SOL    HW124056   6.915   4.475   5.188
 7719SOL    HW224057   7.013   4.381   5.279
 7720SOL     OW24058   6.790   1.170   6.669
 7720SOL    HW124059   6.731   1.224   6.729
 7720SOL    HW224060   6.880   1.213   6.662
 7721SOL     OW24061   0.387   5.144   2.700
 7721SOL    HW124062   0.457   5.214   2.687
 7721SOL    HW224063   0.316   5.154   2.630
 7722SOL     OW24064   1.332   4.184   3.642
 7722SOL    HW124065   1.312   4.131   3.725
 7722SOL    HW224066   1.331   4.123   3.563
 7723SOL     OW24067   4.323   3.579   5.979
 7723SOL    HW124068   4.334   3.483   5.955
 7723SOL    HW224069   4.394   3.633   5.933
 7724SOL     OW24070   3.194   4.051   1.182
 7724SOL    HW124071   3.168   3.960   1.150
 7724SOL    HW224072   3.162   4.065   1.275
 7725SOL     OW24073   6.776   1.614   2.904
 7725SOL    HW124074   6.708   1.648   2.839
 7725SOL    HW224075   6.737   1.613   2.996
 7726SOL     OW24076   1.503   4.858   5.223
 7726SOL    HW124077   1.487   4.762   5.246
 7726SOL    HW224078   1.415   4.904   5.206
 7727SOL     OW24079   0.191   2.416   2.857
 7727SOL    HW124080   0.260   2.485   2.882
 7727SOL    HW224081   0.227   2.325   2.875
 7728SOL     OW24082   1.864   3.296   5.074
 7728SOL    HW124083   1.881   3.392   5.050
 7728SOL    HW224084   1.894   3.280   5.168
 7729SOL     OW24085   5.519   2.177   1.558
 7729SOL    HW124086   5.429   2.202   1.521
 7729SOL    HW224087   5.537   2.081   1.538
 7730SOL     OW24088   6.230   5.871   0.600
 7730SOL    HW124089   6.261   5.933   0.529
 7730SOL    HW224090   6.285   5.787   0.597
 7731SOL     OW24091   0.012   1.370   6.983
 7731SOL    HW124092   6.940   1.355   7.018
 7731SOL    HW224093   0.050   1.454   0.003
 7732SOL     OW24094   5.017   0.060   0.323
 7732SOL    HW124095   5.064   0.131   0.270
 7732SOL    HW224096   4.982   0.100   0.407
 7733SOL     OW24097   5.015   6.159   2.794
 7733SOL    HW124098   5.064   6.087   2.744
 7733SOL    HW224099   4.955   6.117   2.863
 7734SOL     OW24100   1.476   5.020   3.834
 7734SOL    HW124101   1.447   5.003   3.928
 7734SOL    HW224102   1.549   5.089   3.833
 7735SOL     OW24103   4.513   6.586   6.862
 7735SOL    HW124104   4.567   6.537   6.931
 7735SOL    HW224105   4.486   6.522   6.790
 7736SOL     OW24106   3.381   3.074   0.014
 7736SOL    HW124107   3.448   3.108   6.968
 7736SOL    HW224108   3.394   2.975   0.027
 7737SOL     OW24109   3.267   6.750   2.534
 7737SOL    HW124110   3.183   6.731   2.584
 7737SOL    HW224111   3.245   6.778   2.441
 7738SOL     OW24112   2.644   5.753   0.092
 7738SOL    HW124113   2.598   5.677   0.047
 7738SOL    HW224114   2.737   5.726   0.115
 7739SOL     OW24115   0.373   2.177   1.095
 7739SOL    HW124116   0.313   2.250   1.064
 7739SOL    HW224117   0.387   2.184   1.194
 7740SOL     OW24118   2.689   1.476   3.014
 7740SOL    HW124119   2.607   1.420   3.015
 7740SOL    HW224120   2.738   1.463   2.928
 7741SOL     OW24121   0.326   4.679   5.732
 7741SOL    HW124122   0.319   4.716   5.824
 7741SOL    HW224123   0.303   4.750   5.665
 7742SOL     OW24124   4.125   1.597   3.589
 7742SOL    HW124125   4.043   1.652   3.606
 7742SOL    HW224126   4.105   1.530   3.517
 7743SOL     OW24127   5.584   1.678   6.942
 7743SOL    HW124128   5.534   1.594   6.920
 7743SOL    HW224129   5.676   1.653   6.973
 7744SOL     OW24130   0.461   0.353   4.042
 7744SOL    HW124131   0.453   0.265   4.089
 7744SOL    HW224132   0.541   0.402   4.077
 7745SOL     OW24133   3.650   1.193   0.188
 7745SOL    HW124134   3.740   1.213   0.226
 7745SOL    HW224135   3.616   1.106   0.225
 7746SOL     OW24136   1.819   0.473   0.404
 7746SOL    HW124137   1.735   0.447   0.450
 7746SOL    HW224138   1.856   0.556   0.445
 7747SOL     OW24139   5.050   5.962   1.551
 7747SOL    HW124140   5.091   6.000   1.634
 7747SOL    HW224141   5.017   6.037   1.493
 7748SOL     OW24142   2.974   3.484   4.450
 7748SOL    HW124143   2.961   3.413   4.520
 7748SOL    HW224144   3.053   3.461   4.394
 7749SOL     OW24145   2.984   3.402   5.604
 7749SOL    HW124146   2.944   3.424   5.694
 7749SOL    HW224147   3.074   3.444   5.597
 7750SOL     OW24148   0.131   6.355   1.450
 7750SOL    HW124149   0.126   6.387   1.544
 7750SOL    HW224150   0.081   6.418   1.390
 7751SOL     OW24151   1.756   2.758   2.332
 7751SOL    HW124152   1.831   2.695   2.355
 7751SOL    HW224153   1.790   2.852   2.335
 7752SOL     OW24154   5.604   5.867   5.933
 7752SOL    HW124155   5.522   5.877   5.988
 7752SOL    HW224156   5.684   5.857   5.993
 7753SOL     OW24157   2.033   0.763   3.964
 7753SOL    HW124158   1.990   0.689   3.911
 7753SOL    HW224159   2.040   0.735   4.060
 7754SOL     OW24160   3.572   6.804   2.283
 7754SOL    HW124161   3.551   6.873   2.353
 7754SOL    HW224162   3.533   6.717   2.310
 7755SOL     OW24163   1.126   2.167   5.898
 7755SOL    HW124164   1.173   2.081   5.877
 7755SOL    HW224165   1.194   2.238   5.914
 7756SOL     OW24166   2.489   6.044   2.509
 7756SOL    HW124167   2.482   6.089   2.420
 7756SOL    HW224168   2.510   5.947   2.497
 7757SOL     OW24169   6.348   4.809   6.261
 7757SOL    HW124170   6.309   4.757   6.336
 7757SOL    HW224171   6.424   4.866   6.295
 7758SOL     OW24172   1.488   0.903   5.828
 7758SOL    HW124173   1.395   0.940   5.826
 7758SOL    HW224174   1.519   0.887   5.734
 7759SOL     OW24175   1.119   1.476   5.590
 7759SOL    HW124176   1.208   1.473   5.544
 7759SOL    HW224177   1.065   1.553   5.556
 7760SOL     OW24178   5.271   3.567   2.951
 7760SOL    HW124179   5.261   3.497   3.022
 7760SOL    HW224180   5.228   3.536   2.867
 7761SOL     OW24181   0.294   0.409   4.917
 7761SOL    HW124182   0.377   0.430   4.867
 7761SOL    HW224183   0.238   0.492   4.925
 7762SOL     OW24184   3.275   6.879   3.951
 7762SOL    HW124185   3.303   6.967   3.913
 7762SOL    HW224186   3.208   6.836   3.890
 7763SOL     OW24187   1.635   1.170   6.698
 7763SOL    HW124188   1.702   1.240   6.723
 7763SOL    HW224189   1.608   1.182   6.602
 7764SOL     OW24190   3.763   2.947   3.626
 7764SOL    HW124191   3.730   2.959   3.719
 7764SOL    HW224192   3.850   2.995   3.615
 7765SOL     OW24193   6.482   3.280   5.385
 7765SOL    HW124194   6.567   3.266   5.436
 7765SOL    HW224195   6.483   3.370   5.342
 7766SOL     OW24196   6.868   3.546   0.331
 7766SOL    HW124197   6.889   3.505   0.242
 7766SOL    HW224198   6.895   3.643   0.329
 7767SOL     OW24199   4.972   6.305   2.557
 7767SOL    HW124200   4.965   6.223   2.500
 7767SOL    HW224201   4.963   6.279   2.653
 7768SOL     OW24202   4.344   4.785   2.685
 7768SOL    HW124203   4.275   4.809   2.616
 7768SOL    HW224204   4.323   4.834   2.770
 7769SOL     OW24205   4.189   1.914   3.525
 7769SOL    HW124206   4.118   1.875   3.584
 7769SOL    HW224207   4.275   1.921   3.576
 7770SOL     OW24208   1.742   4.302   3.025
 7770SOL    HW124209   1.738   4.285   3.123
 7770SOL    HW224210   1.708   4.393   3.005
 7771SOL     OW24211   3.530   2.185   5.139
 7771SOL    HW124212   3.482   2.162   5.055
 7771SOL    HW224213   3.620   2.141   5.140
 7772SOL     OW24214   4.688   0.175   2.313
 7772SOL    HW124215   4.701   0.125   2.399
 7772SOL    HW224216   4.596   0.214   2.310
 7773SOL     OW24217   2.871   6.091   4.792
 7773SOL    HW124218   2.851   5.993   4.797
 7773SOL    HW224219   2.842   6.126   4.703
 7774SOL     OW24220   5.015   2.024   5.286
 7774SOL    HW124221   5.055   1.949   5.338
 7774SOL    HW224222   4.931   1.992   5.242
 7775SOL     OW24223   4.796   5.328   0.873
 7775SOL    HW124224   4.801   5.311   0.775
 7775SOL    HW224225   4.701   5.318   0.904
 7776SOL     OW24226   1.047   5.446   6.112
 7776SOL    HW124227   1.058   5.467   6.209
 7776SOL    HW224228   0.965   5.490   6.076
 7777SOL     OW24229   6.286   6.365   4.645
 7777SOL    HW124230   6.243   6.402   4.727
 7777SOL    HW224231   6.316   6.271   4.662
 7778SOL     OW24232   5.429   4.145   0.979
 7778SOL    HW124233   5.469   4.221   1.030
 7778SOL    HW224234   5.401   4.074   1.042
 7779SOL     OW24235   2.764   2.639   1.734
 7779SOL    HW124236   2.690   2.667   1.795
 7779SOL    HW224237   2.820   2.570   1.780
 7780SOL     OW24238   1.078   4.898   4.955
 7780SOL    HW124239   1.036   4.989   4.948
 7780SOL    HW224240   1.105   4.867   4.863
 7781SOL     OW24241   1.455   5.180   1.091
 7781SOL    HW124242   1.450   5.203   0.994
 7781SOL    HW224243   1.551   5.173   1.118
 7782SOL     OW24244   5.606   5.223   4.357
 7782SOL    HW124245   5.573   5.175   4.438
 7782SOL    HW224246   5.529   5.255   4.303
 7783SOL     OW24247   1.265   5.633   5.281
 7783SOL    HW124248   1.270   5.641   5.381
 7783SOL    HW224249   1.285   5.722   5.240
 7784SOL     OW24250   3.676   2.206   1.604
 7784SOL    HW124251   3.690   2.237   1.698
 7784SOL    HW224252   3.695   2.281   1.541
 7785SOL     OW24253   1.951   5.960   4.575
 7785SOL    HW124254   1.937   5.927   4.481
 7785SOL    HW224255   1.910   5.895   4.639
 7786SOL     OW24256   2.773   6.584   0.020
 7786SOL    HW124257   2.684   6.577   6.995
 7786SOL    HW224258   2.835   6.514   7.003
 7787SOL     OW24259   2.055   2.630   6.025
 7787SOL    HW124260   2.056   2.719   5.979
 7787SOL    HW224261   2.115   2.567   5.977
 7788SOL     OW24262   2.362   4.811   1.125
 7788SOL    HW124263   2.313   4.825   1.039
 7788SOL    HW224264   2.442   4.871   1.128
 7789SOL     OW24265   1.755   6.375   6.261
 7789SOL    HW124266   1.717   6.371   6.353
 7789SOL    HW224267   1.691   6.334   6.196
 7790SOL     OW24268   5.546   5.723   3.388
 7790SOL    HW124269   5.488   5.668   3.448
 7790SOL    HW224270   5.569   5.809   3.433
 7791SOL     OW24271   2.714   5.033   2.892
 7791SOL    HW124272   2.810   5.021   2.867
 7791SOL    HW224273   2.663   4.950   2.869
 7792SOL     OW24274   1.997   5.215   4.939
 7792SOL    HW124275   2.057   5.233   4.861
 7792SOL    HW224276   1.904   5.246   4.917
 7793SOL     OW24277   3.590   0.998   0.966
 7793SOL    HW124278   3.641   0.942   1.032
 7793SOL    HW224279   3.529   0.940   0.913
 7794SOL     OW24280   6.184   3.942   2.978
 7794SOL    HW124281   6.121   3.998   3.031
 7794SOL    HW224282   6.205   3.858   3.028
 7795SOL     OW24283   1.897   3.620   6.020
 7795SOL    HW124284   1.877   3.608   6.117
 7795SOL    HW224285   1.985   3.576   5.999
 7796SOL     OW24286   4.009   3.071   3.609
 7796SOL    HW124287   4.033   3.166   3.628
 7796SOL    HW224288   4.032   3.049   3.514
 7797SOL     OW24289   1.644   0.347   1.628
 7797SOL    HW124290   1.666   0.328   1.532
 7797SOL    HW224291   1.657   0.445   1.646
 7798SOL     OW24292   2.116   3.570   4.658
 7798SOL    HW124293   2.130   3.558   4.756
 7798SOL    HW224294   2.124   3.667   4.634
 7799SOL     OW24295   1.883   5.928   2.171
 7799SOL    HW124296   1.787   5.904   2.164
 7799SOL    HW224297   1.939   5.845   2.172
 7800SOL     OW24298   0.746   5.629   1.466
 7800SOL    HW124299   0.758   5.670   1.556
 7800SOL    HW224300   0.738   5.530   1.475
 7801SOL     OW24301   2.573   2.118   2.121
 7801SOL    HW124302   2.597   2.037   2.068
 7801SOL    HW224303   2.598   2.200   2.070
 7802SOL     OW24304   5.531   3.074   1.006
 7802SOL    HW124305   5.516   3.089   1.104
 7802SOL    HW224306   5.624   3.104   0.982
 7803SOL     OW24307   4.201   1.998   5.898
 7803SOL    HW124308   4.144   2.047   5.831
 7803SOL    HW224309   4.170   1.903   5.903
 7804SOL     OW24310   4.432   2.136   5.038
 7804SOL    HW124311   4.405   2.217   4.987
 7804SOL    HW224312   4.351   2.089   5.072
 7805SOL     OW24313   5.566   2.469   1.524
 7805SOL    HW124314   5.528   2.381   1.552
 7805SOL    HW224315   5.512   2.506   1.448
 7806SOL     OW24316   6.532   1.918   0.148
 7806SOL    HW124317   6.472   1.914   0.068
 7806SOL    HW224318   6.514   1.840   0.208
 7807SOL     OW24319   1.024   4.766   5.867
 7807SOL    HW124320   1.058   4.685   5.820
 7807SOL    HW224321   1.072   4.847   5.834
 7808SOL     OW24322   6.421   3.407   4.720
 7808SOL    HW124323   6.370   3.428   4.803
 7808SOL    HW224324   6.414   3.309   4.700
 7809SOL     OW24325   3.409   4.862   4.727
 7809SOL    HW124326   3.324   4.908   4.750
 7809SOL    HW224327   3.418   4.778   4.780
 7810SOL     OW24328   3.141   0.081   4.531
 7810SOL    HW124329   3.104   0.106   4.442
 7810SOL    HW224330   3.073   0.101   4.602
 7811SOL     OW24331   1.514   5.929   1.768
 7811SOL    HW124332   1.518   5.941   1.668
 7811SOL    HW224333   1.419   5.932   1.798
 7812SOL     OW24334   0.073   2.414   4.320
 7812SOL    HW124335   0.065   2.476   4.242
 7812SOL    HW224336   0.024   2.329   4.301
 7813SOL     OW24337   4.290   2.165   0.306
 7813SOL    HW124338   4.230   2.118   0.241
 7813SOL    HW224339   4.237   2.196   0.385
 7814SOL     OW24340   0.299   3.800   3.791
 7814SOL    HW124341   0.202   3.794   3.814
 7814SOL    HW224342   0.353   3.742   3.852
 7815SOL     OW24343   5.991   1.247   5.075
 7815SOL    HW124344   5.940   1.326   5.106
 7815SOL    HW224345   6.089   1.265   5.081
 7816SOL     OW24346   1.514   2.539   6.113
 7816SOL    HW124347   1.532   2.637   6.117
 7816SOL    HW224348   1.421   2.521   6.144
 7817SOL     OW24349   4.611   4.372   3.937
 7817SOL    HW124350   4.546   4.440   3.904
 7817SOL    HW224351   4.587   4.346   4.031
 7818SOL     OW24352   4.455   0.255   2.077
 7818SOL    HW124353   4.424   0.222   2.166
 7818SOL    HW224354   4.375   0.278   2.021
 7819SOL     OW24355   0.048   4.220   3.087
 7819SOL    HW124356   0.039   4.312   3.050
 7819SOL    HW224357   0.020   4.220   3.183
 7820SOL     OW24358   1.488   1.350   5.740
 7820SOL    HW124359   1.456   1.255   5.733
 7820SOL    HW224360   1.443   1.395   5.817
 7821SOL     OW24361   6.092   5.502   6.887
 7821SOL    HW124362   6.042   5.582   6.853
 7821SOL    HW224363   6.123   5.447   6.809
 7822SOL     OW24364   1.035   1.411   6.707
 7822SOL    HW124365   1.116   1.396   6.764
 7822SOL    HW224366   0.966   1.342   6.729
 7823SOL     OW24367   2.866   3.447   5.107
 7823SOL    HW124368   2.787   3.478   5.161
 7823SOL    HW224369   2.834   3.405   5.023
 7824SOL     OW24370   6.006   1.157   3.899
 7824SOL    HW124371   5.985   1.127   3.992
 7824SOL    HW224372   5.941   1.227   3.870
 7825SOL     OW24373   1.353   3.202   1.023
 7825SOL    HW124374   1.338   3.157   0.935
 7825SOL    HW224375   1.321   3.143   1.097
 7826SOL     OW24376   6.001   1.234   0.143
 7826SOL    HW124377   6.001   1.279   0.054
 7826SOL    HW224378   5.972   1.299   0.213
 7827SOL     OW24379   3.198   4.908   1.375
 7827SOL    HW124380   3.132   4.843   1.336
 7827SOL    HW224381   3.156   4.998   1.383
 7828SOL     OW24382   0.429   4.969   0.027
 7828SOL    HW124383   0.356   4.943   0.091
 7828SOL    HW224384   0.409   4.930   6.957
 7829SOL     OW24385   1.628   2.967   0.326
 7829SOL    HW124386   1.703   3.033   0.319
 7829SOL    HW224387   1.652   2.895   0.391
 7830SOL     OW24388   2.850   4.095   5.968
 7830SOL    HW124389   2.760   4.115   5.929
 7830SOL    HW224390   2.899   4.033   5.906
 7831SOL     OW24391   1.487   5.891   0.939
 7831SOL    HW124392   1.562   5.829   0.962
 7831SOL    HW224393   1.468   5.951   1.017
 7832SOL     OW24394   4.674   1.189   3.707
 7832SOL    HW124395   4.710   1.132   3.780
 7832SOL    HW224396   4.707   1.155   3.619
 7833SOL     OW24397   0.562   0.692   6.458
 7833SOL    HW124398   0.473   0.648   6.444
 7833SOL    HW224399   0.552   0.766   6.525
 7834SOL     OW24400   6.299   1.359   3.521
 7834SOL    HW124401   6.286   1.290   3.593
 7834SOL    HW224402   6.222   1.357   3.458
 7835SOL     OW24403   2.759   1.785   5.469
 7835SOL    HW124404   2.743   1.863   5.409
 7835SOL    HW224405   2.722   1.805   5.560
 7836SOL     OW24406   3.102   2.898   5.209
 7836SOL    HW124407   3.030   2.944   5.260
 7836SOL    HW224408   3.101   2.800   5.230
 7837SOL     OW24409   5.962   5.895   0.935
 7837SOL    HW124410   6.038   5.830   0.938
 7837SOL    HW224411   5.918   5.899   1.024
 7838SOL     OW24412   4.519   6.964   6.879
 7838SOL    HW124413   4.501   6.988   6.974
 7838SOL    HW224414   4.513   6.865   6.868
 7839SOL     OW24415   6.090   3.970   5.191
 7839SOL    HW124416   6.129   3.978   5.099
 7839SOL    HW224417   6.001   4.017   5.194
 7840SOL     OW24418   6.117   2.636   3.856
 7840SOL    HW124419   6.081   2.686   3.935
 7840SOL    HW224420   6.082   2.542   3.857
 7841SOL     OW24421   4.018   1.920   6.549
 7841SOL    HW124422   4.039   1.965   6.462
 7841SOL    HW224423   3.964   1.982   6.605
 7842SOL     OW24424   1.485   2.216   2.705
 7842SOL    HW124425   1.542   2.135   2.720
 7842SOL    HW224426   1.501   2.253   2.614
 7843SOL     OW24427   5.552   5.312   2.599
 7843SOL    HW124428   5.605   5.357   2.672
 7843SOL    HW224429   5.605   5.314   2.514
 7844SOL     OW24430   3.912   6.721   2.446
 7844SOL    HW124431   3.990   6.757   2.497
 7844SOL    HW224432   3.844   6.793   2.435
 7845SOL     OW24433   5.110   1.904   3.920
 7845SOL    HW124434   5.203   1.888   3.954
 7845SOL    HW224435   5.107   1.989   3.867
 7846SOL     OW24436   1.055   1.221   3.012
 7846SOL    HW124437   1.091   1.129   3.029
 7846SOL    HW224438   1.030   1.264   3.099
 7847SOL     OW24439   7.006   1.564   3.252
 7847SOL    HW124440   6.968   1.493   3.192
 7847SOL    HW224441   6.943   1.642   3.255
 7848SOL     OW24442   3.343   3.307   0.597
 7848SOL    HW124443   3.330   3.271   0.689
 7848SOL    HW224444   3.405   3.247   0.546
 7849SOL     OW24445   5.609   4.092   3.353
 7849SOL    HW124446   5.662   4.091   3.437
 7849SOL    HW224447   5.516   4.123   3.372
 7850SOL     OW24448   0.512   1.910   5.257
 7850SOL    HW124449   0.503   1.811   5.265
 7850SOL    HW224450   0.582   1.931   5.190
 7851SOL     OW24451   6.631   1.317   1.774
 7851SOL    HW124452   6.678   1.302   1.687
 7851SOL    HW224453   6.613   1.228   1.817
 7852SOL     OW24454   2.475   1.500   5.716
 7852SOL    HW124455   2.574   1.498   5.719
 7852SOL    HW224456   2.438   1.412   5.747
 7853SOL     OW24457   4.615   2.011   1.672
 7853SOL    HW124458   4.635   2.053   1.583
 7853SOL    HW224459   4.680   1.937   1.689
 7854SOL     OW24460   3.426   3.889   0.190
 7854SOL    HW124461   3.508   3.936   0.157
 7854SOL    HW224462   3.448   3.794   0.211
 7855SOL     OW24463   4.006   5.443   5.280
 7855SOL    HW124464   4.015   5.528   5.228
 7855SOL    HW224465   4.096   5.400   5.288
 7856SOL     OW24466   6.345   4.168   5.348
 7856SOL    HW124467   6.396   4.242   5.392
 7856SOL    HW224468   6.254   4.162   5.389
 7857SOL     OW24469   5.931   2.047   5.414
 7857SOL    HW124470   5.893   2.136   5.438
 7857SOL    HW224471   6.023   2.039   5.452
 7858SOL     OW24472   5.291   5.435   3.504
 7858SOL    HW124473   5.357   5.497   3.546
 7858SOL    HW224474   5.215   5.418   3.567
 7859SOL     OW24475   5.277   2.576   6.483
 7859SOL    HW124476   5.271   2.643   6.409
 7859SOL    HW224477   5.367   2.581   6.526
 7860SOL     OW24478   4.723   0.259   2.703
 7860SOL    HW124479   4.721   0.329   2.632
 7860SOL    HW224480   4.673   0.179   2.672
 7861SOL     OW24481   3.563   5.423   1.813
 7861SOL    HW124482   3.622   5.367   1.755
 7861SOL    HW224483   3.539   5.372   1.896
 7862SOL     OW24484   2.990   3.796   1.588
 7862SOL    HW124485   2.901   3.840   1.597
 7862SOL    HW224486   3.037   3.796   1.676
 7863SOL     OW24487   0.661   5.885   3.795
 7863SOL    HW124488   0.698   5.792   3.802
 7863SOL    HW224489   0.562   5.881   3.802
 7864SOL     OW24490   0.640   5.439   5.415
 7864SOL    HW124491   0.668   5.526   5.373
 7864SOL    HW224492   0.594   5.383   5.347
 7865SOL     OW24493   5.540   6.750   4.326
 7865SOL    HW124494   5.634   6.725   4.352
 7865SOL    HW224495   5.482   6.748   4.407
 7866SOL     OW24496   1.460   1.921   6.746
 7866SOL    HW124497   1.522   1.846   6.724
 7866SOL    HW224498   1.371   1.885   6.774
 7867SOL     OW24499   5.160   6.636   3.033
 7867SOL    HW124500   5.165   6.709   3.102
 7867SOL    HW224501   5.153   6.677   2.942
 7868SOL     OW24502   5.487   6.961   1.710
 7868SOL    HW124503   5.555   6.971   1.783
 7868SOL    HW224504   5.445   6.870   1.716
 7869SOL     OW24505   6.009   3.921   0.068
 7869SOL    HW124506   5.931   3.869   0.034
 7869SOL    HW224507   6.063   3.865   0.130
 7870SOL     OW24508   3.822   4.965   4.543
 7870SOL    HW124509   3.866   5.042   4.497
 7870SOL    HW224510   3.830   4.883   4.487
 7871SOL     OW24511   5.050   3.010   2.239
 7871SOL    HW124512   4.983   2.964   2.181
 7871SOL    HW224513   5.063   3.104   2.207
 7872SOL     OW24514   2.398   4.364   3.392
 7872SOL    HW124515   2.446   4.341   3.477
 7872SOL    HW224516   2.413   4.460   3.370
 7873SOL     OW24517   5.702   0.157   6.099
 7873SOL    HW124518   5.745   0.076   6.058
 7873SOL    HW224519   5.749   0.240   6.067
 7874SOL     OW24520   5.737   1.446   0.886
 7874SOL    HW124521   5.665   1.495   0.936
 7874SOL    HW224522   5.772   1.504   0.812
 7875SOL     OW24523   5.634   2.099   6.651
 7875SOL    HW124524   5.536   2.082   6.637
 7875SOL    HW224525   5.682   2.012   6.663
 7876SOL     OW24526   6.783   6.496   4.504
 7876SOL    HW124527   6.751   6.518   4.412
 7876SOL    HW224528   6.733   6.552   4.570
 7877SOL     OW24529   0.822   2.473   2.819
 7877SOL    HW124530   0.895   2.489   2.753
 7877SOL    HW224531   0.844   2.521   2.904
 7878SOL     OW24532   5.832   5.457   4.057
 7878SOL    HW124533   5.769   5.380   4.061
 7878SOL    HW224534   5.808   5.524   4.127
 7879SOL     OW24535   4.493   5.612   4.364
 7879SOL    HW124536   4.493   5.632   4.266
 7879SOL    HW224537   4.564   5.545   4.384
 7880SOL     OW24538   1.975   5.005   1.118
 7880SOL    HW124539   1.878   4.980   1.128
 7880SOL    HW224540   2.025   4.976   1.200
 7881SOL     OW24541   5.546   4.750   4.912
 7881SOL    HW124542   5.541   4.764   5.011
 7881SOL    HW224543   5.593   4.664   4.893
 7882SOL     OW24544   0.708   3.286   3.244
 7882SOL    HW124545   0.677   3.285   3.149
 7882SOL    HW224546   0.781   3.219   3.255
 7883SOL     OW24547   1.346   0.281   0.803
 7883SOL    HW124548   1.349   0.381   0.815
 7883SOL    HW224549   1.394   0.257   0.719
 7884SOL     OW24550   1.943   4.114   3.902
 7884SOL    HW124551   1.975   4.198   3.946
 7884SOL    HW224552   2.015   4.077   3.844
 7885SOL     OW24553   6.137   5.644   1.484
 7885SOL    HW124554   6.147   5.549   1.452
 7885SOL    HW224555   6.206   5.701   1.441
 7886SOL     OW24556   3.100   5.914   0.658
 7886SOL    HW124557   3.192   5.880   0.640
 7886SOL    HW224558   3.106   6.001   0.708
 7887SOL     OW24559   3.105   2.626   5.315
 7887SOL    HW124560   3.146   2.539   5.289
 7887SOL    HW224561   3.006   2.613   5.328
 7888SOL     OW24562   6.403   6.371   5.285
 7888SOL    HW124563   6.381   6.296   5.222
 7888SOL    HW224564   6.432   6.334   5.373
 7889SOL     OW24565   0.681   4.500   0.687
 7889SOL    HW124566   0.682   4.596   0.658
 7889SOL    HW224567   0.700   4.495   0.785
 7890SOL     OW24568   0.289   3.351   3.780
 7890SOL    HW124569   0.306   3.412   3.702
 7890SOL    HW224570   0.292   3.256   3.749
 7891SOL     OW24571   2.216   4.292   4.362
 7891SOL    HW124572   2.250   4.250   4.446
 7891SOL    HW224573   2.196   4.220   4.295
 7892SOL     OW24574   2.015   1.915   3.647
 7892SOL    HW124575   2.103   1.915   3.694
 7892SOL    HW224576   1.986   1.820   3.632
 7893SOL     OW24577   6.699   6.315   2.055
 7893SOL    HW124578   6.638   6.375   2.003
 7893SOL    HW224579   6.697   6.341   2.151
 7894SOL     OW24580   4.141   6.393   0.579
 7894SOL    HW124581   4.086   6.354   0.653
 7894SOL    HW224582   4.125   6.340   0.495
 7895SOL     OW24583   5.661   0.429   5.044
 7895SOL    HW124584   5.665   0.346   4.988
 7895SOL    HW224585   5.592   0.419   5.115
 7896SOL     OW24586   3.868   3.445   1.125
 7896SOL    HW124587   3.793   3.431   1.061
 7896SOL    HW224588   3.841   3.411   1.216
 7897SOL     OW24589   3.305   2.772   0.484
 7897SOL    HW124590   3.233   2.820   0.534
 7897SOL    HW224591   3.282   2.768   0.387
 7898SOL     OW24592   3.883   1.578   3.785
 7898SOL    HW124593   3.794   1.595   3.742
 7898SOL    HW224594   3.927   1.500   3.740
 7899SOL     OW24595   5.848   0.108   0.932
 7899SOL    HW124596   5.880   0.087   1.024
 7899SOL    HW224597   5.763   0.060   0.914
 7900SOL     OW24598   1.194   5.476   1.815
 7900SOL    HW124599   1.268   5.476   1.749
 7900SOL    HW224600   1.160   5.383   1.828
 7901SOL     OW24601   4.328   1.062   6.321
 7901SOL    HW124602   4.355   1.003   6.244
 7901SOL    HW224603   4.230   1.082   6.314
 7902SOL     OW24604   6.260   6.807   1.053
 7902SOL    HW124605   6.303   6.896   1.065
 7902SOL    HW224606   6.212   6.781   1.138
 7903SOL     OW24607   4.711   1.572   1.805
 7903SOL    HW124608   4.662   1.657   1.823
 7903SOL    HW224609   4.793   1.591   1.750
 7904SOL     OW24610   6.098   7.004   3.099
 7904SOL    HW124611   6.123   6.923   3.153
 7904SOL    HW224612   6.181   0.035   3.075
 7905SOL     OW24613   5.758   1.914   0.482
 7905SOL    HW124614   5.679   1.855   0.496
 7905SOL    HW224615   5.733   2.009   0.501
 7906SOL     OW24616   0.331   5.337   1.132
 7906SOL    HW124617   0.366   5.277   1.060
 7906SOL    HW224618   0.298   5.423   1.092
 7907SOL     OW24619   5.248   1.570   2.693
 7907SOL    HW124620   5.340   1.572   2.733
 7907SOL    HW224621   5.187   1.520   2.755
 7908SOL     OW24622   1.610   0.864   5.595
 7908SOL    HW124623   1.681   0.874   5.525
 7908SOL    HW224624   1.533   0.814   5.556
 7909SOL     OW24625   5.130   4.742   4.508
 7909SOL    HW124626   5.214   4.703   4.545
 7909SOL    HW224627   5.080   4.673   4.457
 7910SOL     OW24628   3.081   3.866   6.075
 7910SOL    HW124629   3.009   3.846   6.009
 7910SOL    HW224630   3.103   3.963   6.072
 7911SOL     OW24631   1.522   4.069   0.529
 7911SOL    HW124632   1.532   4.160   0.488
 7911SOL    HW224633   1.469   4.010   0.469
 7912SOL     OW24634   6.468   4.702   0.687
 7912SOL    HW124635   6.474   4.667   0.780
 7912SOL    HW224636   6.436   4.797   0.690
 7913SOL     OW24637   1.323   4.535   1.892
 7913SOL    HW124638   1.284   4.584   1.970
 7913SOL    HW224639   1.356   4.600   1.824
 7914SOL     OW24640   0.507   4.644   0.055
 7914SOL    HW124641   0.429   4.588   0.085
 7914SOL    HW224642   0.497   4.737   0.090
 7915SOL     OW24643   4.981   2.637   2.172
 7915SOL    HW124644   4.903   2.617   2.112
 7915SOL    HW224645   4.948   2.684   2.254
 7916SOL     OW24646   0.541   4.811   5.100
 7916SOL    HW124647   0.492   4.888   5.141
 7916SOL    HW224648   0.616   4.846   5.043
 7917SOL     OW24649   3.368   3.289   4.537
 7917SOL    HW124650   3.426   3.256   4.612
 7917SOL    HW224651   3.330   3.211   4.488
 7918SOL     OW24652   0.504   1.041   4.985
 7918SOL    HW124653   0.603   1.054   5.000
 7918SOL    HW224654   0.483   0.943   4.989
 7919SOL     OW24655   1.919   4.662   2.924
 7919SOL    HW124656   1.974   4.603   2.983
 7919SOL    HW224657   1.823   4.636   2.932
 7920SOL     OW24658   0.392   6.911   0.605
 7920SOL    HW124659   0.433   6.857   0.679
 7920SOL    HW224660   0.292   6.909   0.613
 7921SOL     OW24661   5.376   6.173   1.864
 7921SOL    HW124662   5.376   6.252   1.927
 7921SOL    HW224663   5.468   6.137   1.856
 7922SOL     OW24664   0.041   6.586   0.724
 7922SOL    HW124665   0.021   6.514   0.791
 7922SOL    HW224666   0.132   6.571   0.686
 7923SOL     OW24667   3.641   0.367   0.818
 7923SOL    HW124668   3.573   0.311   0.771
 7923SOL    HW224669   3.652   0.335   0.912
 7924SOL     OW24670   4.864   6.817   1.677
 7924SOL    HW124671   4.904   6.788   1.764
 7924SOL    HW224672   4.857   6.739   1.615
 7925SOL     OW24673   1.223   1.341   6.388
 7925SOL    HW124674   1.299   1.331   6.453
 7925SOL    HW224675   1.183   1.432   6.398
 7926SOL     OW24676   4.754   1.491   5.512
 7926SOL    HW124677   4.712   1.423   5.571
 7926SOL    HW224678   4.689   1.566   5.496
 7927SOL     OW24679   4.328   5.506   2.781
 7927SOL    HW124680   4.301   5.588   2.830
 7927SOL    HW224681   4.412   5.469   2.822
 7928SOL     OW24682   1.452   1.511   5.181
 7928SOL    HW124683   1.460   1.498   5.083
 7928SOL    HW224684   1.393   1.440   5.220
 7929SOL     OW24685   4.709   4.221   5.688
 7929SOL    HW124686   4.686   4.154   5.617
 7929SOL    HW224687   4.636   4.289   5.694
 7930SOL     OW24688   4.013   5.597   4.805
 7930SOL    HW124689   3.954   5.550   4.870
 7930SOL    HW224690   4.101   5.616   4.847
 7931SOL     OW24691   2.976   2.862   0.026
 7931SOL    HW124692   2.929   2.934   6.996
 7931SOL    HW224693   2.977   2.778   6.990
 7932SOL     OW24694   1.154   6.418   6.866
 7932SOL    HW124695   1.077   6.481   6.863
 7932SOL    HW224696   1.238   6.467   6.844
 7933SOL     OW24697   0.524   5.784   6.079
 7933SOL    HW124698   0.600   5.738   6.033
 7933SOL    HW224699   0.479   5.846   6.015
 7934SOL     OW24700   1.813   4.873   6.921
 7934SOL    HW124701   1.899   4.908   6.959
 7934SOL    HW224702   1.774   4.807   6.985
 7935SOL     OW24703   5.688   6.380   0.919
 7935SOL    HW124704   5.732   6.400   1.007
 7935SOL    HW224705   5.727   6.439   0.848
 7936SOL     OW24706   3.695   6.085   2.621
 7936SOL    HW124707   3.714   6.180   2.598
 7936SOL    HW224708   3.779   6.031   2.616
 7937SOL     OW24709   6.640   6.557   3.719
 7937SOL    HW124710   6.551   6.551   3.673
 7937SOL    HW224711   6.679   6.465   3.729
 7938SOL     OW24712   6.915   5.375   3.608
 7938SOL    HW124713   6.869   5.353   3.522
 7938SOL    HW224714   6.997   5.319   3.619
 7939SOL     OW24715   1.305   2.663   4.729
 7939SOL    HW124716   1.358   2.594   4.778
 7939SOL    HW224717   1.264   2.622   4.647
 7940SOL     OW24718   1.658   3.547   1.699
 7940SOL    HW124719   1.697   3.477   1.759
 7940SOL    HW224720   1.601   3.503   1.629
 7941SOL     OW24721   5.676   0.906   1.416
 7941SOL    HW124722   5.729   0.990   1.423
 7941SOL    HW224723   5.730   0.836   1.369
 7942SOL     OW24724   6.771   5.827   2.480
 7942SOL    HW124725   6.856   5.850   2.433
 7942SOL    HW224726   6.760   5.727   2.482
 7943SOL     OW24727   5.841   3.611   6.956
 7943SOL    HW124728   5.786   3.545   6.906
 7943SOL    HW224729   5.930   3.572   6.977
 7944SOL     OW24730   0.747   2.454   1.388
 7944SOL    HW124731   0.838   2.474   1.424
 7944SOL    HW224732   0.755   2.387   1.315
 7945SOL     OW24733   5.826   5.140   1.271
 7945SOL    HW124734   5.735   5.100   1.278
 7945SOL    HW224735   5.818   5.237   1.247
 7946SOL     OW24736   2.965   0.706   5.450
 7946SOL    HW124737   3.017   0.755   5.380
 7946SOL    HW224738   2.945   0.613   5.418
 7947SOL     OW24739   3.717   2.158   6.167
 7947SOL    HW124740   3.688   2.235   6.225
 7947SOL    HW224741   3.637   2.121   6.119
 7948SOL     OW24742   1.092   0.195   1.123
 7948SOL    HW124743   1.015   0.191   1.186
 7948SOL    HW224744   1.099   0.288   1.085
 7949SOL     OW24745   4.332   4.773   4.880
 7949SOL    HW124746   4.237   4.791   4.852
 7949SOL    HW224747   4.337   4.682   4.922
 7950SOL     OW24748   5.023   5.093   4.312
 7950SOL    HW124749   4.938   5.140   4.288
 7950SOL    HW224750   5.046   5.112   4.407
 7951SOL     OW24751   2.179   4.105   2.174
 7951SOL    HW124752   2.230   4.024   2.143
 7951SOL    HW224753   2.088   4.104   2.133
 7952SOL     OW24754   0.302   3.806   0.330
 7952SOL    HW124755   0.221   3.865   0.331
 7952SOL    HW224756   0.280   3.721   0.280
 7953SOL     OW24757   2.834   2.270   4.007
 7953SOL    HW124758   2.771   2.256   3.931
 7953SOL    HW224759   2.788   2.248   4.093
 7954SOL     OW24760   3.466   4.347   6.694
 7954SOL    HW124761   3.558   4.383   6.681
 7954SOL    HW224762   3.420   4.337   6.606
 7955SOL     OW24763   1.640   0.149   6.376
 7955SOL    HW124764   1.626   0.219   6.305
 7955SOL    HW224765   1.580   0.169   6.454
 7956SOL     OW24766   3.586   6.370   2.156
 7956SOL    HW124767   3.567   6.367   2.254
 7956SOL    HW224768   3.677   6.409   2.141
 7957SOL     OW24769   0.947   1.074   1.513
 7957SOL    HW124770   0.852   1.048   1.499
 7957SOL    HW224771   1.005   1.018   1.454
 7958SOL     OW24772   3.483   5.229   5.007
 7958SOL    HW124773   3.393   5.224   4.965
 7958SOL    HW224774   3.526   5.316   4.984
 7959SOL     OW24775   4.651   5.975   0.499
 7959SOL    HW124776   4.655   5.875   0.506
 7959SOL    HW224777   4.676   6.016   0.586
 7960SOL     OW24778   2.613   1.231   6.324
 7960SOL    HW124779   2.531   1.247   6.380
 7960SOL    HW224780   2.676   1.173   6.376
 7961SOL     OW24781   6.804   1.369   0.699
 7961SOL    HW124782   6.774   1.315   0.778
 7961SOL    HW224783   6.853   1.450   0.731
 7962SOL     OW24784   0.958   0.704   6.178
 7962SOL    HW124785   0.994   0.708   6.272
 7962SOL    HW224786   0.902   0.622   6.168
 7963SOL     OW24787   6.356   6.088   4.350
 7963SOL    HW124788   6.324   6.067   4.257
 7963SOL    HW224789   6.443   6.041   4.366
 7964SOL     OW24790   0.307   4.724   2.372
 7964SOL    HW124791   0.226   4.665   2.372
 7964SOL    HW224792   0.334   4.743   2.466
 7965SOL     OW24793   4.037   2.388   6.024
 7965SOL    HW124794   3.960   2.442   6.059
 7965SOL    HW224795   4.110   2.387   6.093
 7966SOL     OW24796   1.578   2.590   5.823
 7966SOL    HW124797   1.595   2.569   5.919
 7966SOL    HW224798   1.520   2.520   5.782
 7967SOL     OW24799   2.988   6.705   3.082
 7967SOL    HW124800   2.931   6.652   3.019
 7967SOL    HW224801   3.070   6.654   3.104
 7968SOL     OW24802   1.752   2.866   3.580
 7968SOL    HW124803   1.831   2.805   3.588
 7968SOL    HW224804   1.679   2.833   3.639
 7969SOL     OW24805   3.913   6.194   6.995
 7969SOL    HW124806   3.995   6.238   6.958
 7969SOL    HW224807   3.832   6.245   6.967
 7970SOL     OW24808   6.040   3.074   2.893
 7970SOL    HW124809   6.087   2.987   2.881
 7970SOL    HW224810   6.055   3.132   2.814
 7971SOL     OW24811   3.575   2.094   0.313
 7971SOL    HW124812   3.631   2.025   0.359
 7971SOL    HW224813   3.543   2.162   0.379
 7972SOL     OW24814   2.097   3.171   0.218
 7972SOL    HW124815   2.164   3.153   0.290
 7972SOL    HW224816   2.004   3.164   0.256
 7973SOL     OW24817   4.513   4.874   4.302
 7973SOL    HW124818   4.420   4.892   4.335
 7973SOL    HW224819   4.579   4.908   4.368
 7974SOL     OW24820   6.005   1.034   5.418
 7974SOL    HW124821   5.952   1.019   5.334
 7974SOL    HW224822   6.101   1.012   5.402
 7975SOL     OW24823   6.397   1.435   2.252
 7975SOL    HW124824   6.405   1.499   2.329
 7975SOL    HW224825   6.467   1.457   2.184
 7976SOL     OW24826   0.608   0.122   6.146
 7976SOL    HW124827   0.567   0.031   6.147
 7976SOL    HW224828   0.559   0.180   6.082
 7977SOL     OW24829   4.494   6.237   2.524
 7977SOL    HW124830   4.561   6.279   2.463
 7977SOL    HW224831   4.538   6.165   2.578
 7978SOL     OW24832   5.681   3.696   6.549
 7978SOL    HW124833   5.692   3.736   6.640
 7978SOL    HW224834   5.639   3.763   6.487
 7979SOL     OW24835   4.340   6.134   5.133
 7979SOL    HW124836   4.256   6.114   5.185
 7979SOL    HW224837   4.315   6.178   5.046
 7980SOL     OW24838   2.654   5.325   6.989
 7980SOL    HW124839   2.565   5.334   0.014
 7980SOL    HW224840   2.722   5.376   0.022
 7981SOL     OW24841   0.374   5.607   1.462
 7981SOL    HW124842   0.426   5.655   1.392
 7981SOL    HW224843   0.279   5.637   1.459
 7982SOL     OW24844   1.107   1.161   0.041
 7982SOL    HW124845   1.142   1.250   0.072
 7982SOL    HW224846   1.164   1.127   6.986
 7983SOL     OW24847   6.171   2.369   1.728
 7983SOL    HW124848   6.097   2.323   1.777
 7983SOL    HW224849   6.138   2.455   1.689
 7984SOL     OW24850   1.706   1.356   0.865
 7984SOL    HW124851   1.699   1.371   0.963
 7984SOL    HW224852   1.792   1.309   0.843
 7985SOL     OW24853   2.679   1.056   4.080
 7985SOL    HW124854   2.748   1.016   4.141
 7985SOL    HW224855   2.634   1.132   4.126
 7986SOL     OW24856   2.748   1.056   6.505
 7986SOL    HW124857   2.782   0.963   6.519
 7986SOL    HW224858   2.825   1.120   6.501
 7987SOL     OW24859   1.619   2.788   6.163
 7987SOL    HW124860   1.706   2.740   6.177
 7987SOL    HW224861   1.629   2.884   6.189
 7988SOL     OW24862   0.784   2.293   4.269
 7988SOL    HW124863   0.798   2.238   4.351
 7988SOL    HW224864   0.873   2.316   4.229
 7989SOL     OW24865   3.651   2.803   5.754
 7989SOL    HW124866   3.673   2.870   5.824
 7989SOL    HW224867   3.728   2.794   5.691
 7990SOL     OW24868   0.341   3.891   4.446
 7990SOL    HW124869   0.431   3.895   4.489
 7990SOL    HW224870   0.275   3.943   4.500
 7991SOL     OW24871   6.153   6.685   3.543
 7991SOL    HW124872   6.073   6.635   3.509
 7991SOL    HW224873   6.157   6.676   3.642
 7992SOL     OW24874   1.388   0.583   1.448
 7992SOL    HW124875   1.371   0.484   1.452
 7992SOL    HW224876   1.469   0.605   1.501
 7993SOL     OW24877   0.909   0.117   0.260
 7993SOL    HW124878   0.923   0.033   0.208
 7993SOL    HW224879   0.817   0.153   0.243
 7994SOL     OW24880   4.402   6.510   3.558
 7994SOL    HW124881   4.317   6.458   3.557
 7994SOL    HW224882   4.477   6.452   3.526
 7995SOL     OW24883   4.873   5.695   3.899
 7995SOL    HW124884   4.884   5.610   3.950
 7995SOL    HW224885   4.776   5.712   3.881
 7996SOL     OW24886   3.288   6.882   4.576
 7996SOL    HW124887   3.363   6.862   4.512
 7996SOL    HW224888   3.230   6.955   4.538
 7997SOL     OW24889   0.296   1.287   1.160
 7997SOL    HW124890   0.348   1.256   1.240
 7997SOL    HW224891   0.215   1.230   1.148
 7998SOL     OW24892   3.122   6.402   1.020
 7998SOL    HW124893   3.116   6.401   1.120
 7998SOL    HW224894   3.140   6.496   0.990
 7999SOL     OW24895   0.603   0.118   6.404
 7999SOL    HW124896   0.639   0.210   6.422
 7999SOL    HW224897   0.585   0.109   6.306
 8000SOL     OW24898   5.037   0.267   6.485
 8000SOL    HW124899   4.955   0.256   6.541
 8000SOL    HW224900   5.106   0.318   6.537
 8001SOL     OW24901   4.273   6.484   1.217
 8001SOL    HW124902   4.235   6.576   1.223
 8001SOL    HW224903   4.229   6.425   1.285
 8002SOL     OW24904   0.772   1.896   5.926
 8002SOL    HW124905   0.838   1.950   5.978
 8002SOL    HW224906   0.728   1.830   5.988
 8003SOL     OW24907   2.988   5.291   2.277
 8003SOL    HW124908   2.936   5.206   2.280
 8003SOL    HW224909   2.927   5.368   2.294
 8004SOL     OW24910   2.107   3.540   2.976
 8004SOL    HW124911   2.008   3.534   2.990
 8004SOL    HW224912   2.126   3.543   2.878
 8005SOL     OW24913   3.137   0.921   1.518
 8005SOL    HW124914   3.124   0.833   1.472
 8005SOL    HW224915   3.231   0.929   1.549
 8006SOL     OW24916   1.867   0.720   6.211
 8006SOL    HW124917   1.824   0.649   6.153
 8006SOL    HW224918   1.796   0.765   6.265
 8007SOL     OW24919   6.889   0.179   4.386
 8007SOL    HW124920   6.870   0.277   4.378
 8007SOL    HW224921   6.931   0.146   4.302
 8008SOL     OW24922   4.124   5.584   6.712
 8008SOL    HW124923   4.112   5.549   6.619
 8008SOL    HW224924   4.166   5.514   6.769
 8009SOL     OW24925   5.549   0.993   2.377
 8009SOL    HW124926   5.631   1.048   2.364
 8009SOL    HW224927   5.538   0.973   2.475
 8010SOL     OW24928   0.964   1.305   6.262
 8010SOL    HW124929   1.047   1.330   6.312
 8010SOL    HW224930   0.935   1.214   6.289
 8011SOL     OW24931   3.476   2.690   0.882
 8011SOL    HW124932   3.549   2.682   0.950
 8011SOL    HW224933   3.441   2.783   0.880
 8012SOL     OW24934   1.513   4.339   1.971
 8012SOL    HW124935   1.439   4.391   1.928
 8012SOL    HW224936   1.582   4.316   1.903
 8013SOL     OW24937   1.188   5.460   3.643
 8013SOL    HW124938   1.185   5.514   3.559
 8013SOL    HW224939   1.271   5.404   3.644
 8014SOL     OW24940   1.057   6.588   5.346
 8014SOL    HW124941   0.963   6.621   5.332
 8014SOL    HW224942   1.075   6.512   5.283
 8015SOL     OW24943   2.853   0.753   6.831
 8015SOL    HW124944   2.795   0.701   6.769
 8015SOL    HW224945   2.850   0.713   6.923
 8016SOL     OW24946   5.462   6.874   5.987
 8016SOL    HW124947   5.550   6.887   5.941
 8016SOL    HW224948   5.396   6.940   5.952
 8017SOL     OW24949   5.418   0.303   0.148
 8017SOL    HW124950   5.506   0.310   0.193
 8017SOL    HW224951   5.349   0.270   0.213
 8018SOL     OW24952   3.294   1.772   5.852
 8018SOL    HW124953   3.241   1.687   5.847
 8018SOL    HW224954   3.250   1.842   5.795
 8019SOL     OW24955   2.206   4.718   6.831
 8019SOL    HW124956   2.267   4.654   6.878
 8019SOL    HW224957   2.172   4.675   6.747
 8020SOL     OW24958   5.498   0.755   0.736
 8020SOL    HW124959   5.559   0.695   0.788
 8020SOL    HW224960   5.498   0.727   0.640
 8021SOL     OW24961   1.092   2.794   1.248
 8021SOL    HW124962   1.025   2.843   1.193
 8021SOL    HW224963   1.103   2.701   1.211
 8022SOL     OW24964   5.439   6.584   2.988
 8022SOL    HW124965   5.475   6.498   3.026
 8022SOL    HW224966   5.345   6.597   3.017
 8023SOL     OW24967   5.882   5.666   2.817
 8023SOL    HW124968   5.840   5.746   2.774
 8023SOL    HW224969   5.838   5.651   2.906
 8024SOL     OW24970   2.110   4.991   6.825
 8024SOL    HW124971   2.069   4.909   6.784
 8024SOL    HW224972   2.124   5.060   6.755
 8025SOL     OW24973   1.953   6.541   6.592
 8025SOL    HW124974   1.972   6.614   6.658
 8025SOL    HW224975   1.857   6.547   6.563
 8026SOL     OW24976   0.750   4.116   0.024
 8026SOL    HW124977   0.682   4.051   7.011
 8026SOL    HW224978   0.841   4.075   0.018
 8027SOL     OW24979   4.798   0.722   5.436
 8027SOL    HW124980   4.766   0.808   5.475
 8027SOL    HW224981   4.721   0.672   5.396
 8028SOL     OW24982   3.102   5.281   4.680
 8028SOL    HW124983   3.129   5.376   4.696
 8028SOL    HW224984   3.023   5.280   4.619
 8029SOL     OW24985   5.058   2.835   1.545
 8029SOL    HW124986   5.024   2.918   1.501
 8029SOL    HW224987   4.985   2.792   1.598
 8030SOL     OW24988   4.348   4.335   0.954
 8030SOL    HW124989   4.406   4.279   1.013
 8030SOL    HW224990   4.278   4.278   0.912
 8031SOL     OW24991   6.103   6.580   2.033
 8031SOL    HW124992   6.049   6.624   1.961
 8031SOL    HW224993   6.145   6.497   1.997
 8032SOL     OW24994   6.881   5.042   1.647
 8032SOL    HW124995   6.939   4.981   1.592
 8032SOL    HW224996   6.928   5.065   1.732
 8033SOL     OW24997   5.262   1.430   5.436
 8033SOL    HW124998   5.184   1.440   5.498
 8033SOL    HW224999   5.313   1.347   5.461
 8034SOL     OW25000   5.353   6.728   4.521
 8034SOL    HW125001   5.261   6.766   4.521
 8034SOL    HW225002   5.364   6.667   4.600
 8035SOL     OW25003   5.172   1.631   4.259
 8035SOL    HW125004   5.179   1.728   4.235
 8035SOL    HW225005   5.256   1.603   4.306
 8036SOL     OW25006   6.674   3.881   3.464
 8036SOL    HW125007   6.653   3.979   3.457
 8036SOL    HW225008   6.758   3.869   3.516
 8037SOL     OW25009   1.693   3.327   0.151
 8037SOL    HW125010   1.739   3.372   0.074
 8037SOL    HW225011   1.615   3.274   0.116
 8038SOL     OW25012   4.210   6.629   2.650
 8038SOL    HW125013   4.201   6.547   2.594
 8038SOL    HW225014   4.194   6.710   2.594
 8039SOL     OW25015   0.499   2.121   4.537
 8039SOL    HW125016   0.557   2.040   4.548
 8039SOL    HW225017   0.492   2.145   4.440
 8040SOL     OW25018   1.359   5.590   0.031
 8040SOL    HW125019   1.441   5.624   7.005
 8040SOL    HW225020   1.338   5.498   7.017
 8041SOL     OW25021   2.429   1.806   2.727
 8041SOL    HW125022   2.486   1.762   2.795
 8041SOL    HW225023   2.463   1.899   2.709
 8042SOL     OW25024   2.874   3.706   3.659
 8042SOL    HW125025   2.873   3.646   3.579
 8042SOL    HW225026   2.801   3.773   3.652
 8043SOL     OW25027   3.296   0.035   1.754
 8043SOL    HW125028   3.232   0.100   1.794
 8043SOL    HW225029   3.337   0.074   1.672
 8044SOL     OW25030   4.026   2.391   1.439
 8044SOL    HW125031   3.997   2.295   1.438
 8044SOL    HW225032   4.123   2.397   1.414
 8045SOL     OW25033   5.336   1.795   2.518
 8045SOL    HW125034   5.375   1.760   2.603
 8045SOL    HW225035   5.256   1.740   2.493
 8046SOL     OW25036   0.152   5.764   1.426
 8046SOL    HW125037   0.089   5.705   1.476
 8046SOL    HW225038   0.133   5.757   1.328
 8047SOL     OW25039   4.087   5.723   4.567
 8047SOL    HW125040   4.185   5.708   4.555
 8047SOL    HW225041   4.061   5.699   4.661
 8048SOL     OW25042   5.054   0.625   5.519
 8048SOL    HW125043   4.972   0.677   5.500
 8048SOL    HW225044   5.132   0.687   5.531
 8049SOL     OW25045   1.072   0.448   0.248
 8049SOL    HW125046   1.122   0.513   0.191
 8049SOL    HW225047   0.993   0.413   0.197
 8050SOL     OW25048   1.657   4.302   3.295
 8050SOL    HW125049   1.610   4.214   3.290
 8050SOL    HW225050   1.732   4.296   3.361
 8051SOL     OW25051   4.670   5.752   3.679
 8051SOL    HW125052   4.573   5.753   3.653
 8051SOL    HW225053   4.705   5.659   3.675
 8052SOL     OW25054   4.551   1.398   1.933
 8052SOL    HW125055   4.473   1.460   1.926
 8052SOL    HW225056   4.630   1.439   1.886
 8053SOL     OW25057   2.917   3.701   3.334
 8053SOL    HW125058   2.842   3.655   3.288
 8053SOL    HW225059   2.959   3.767   3.272
 8054SOL     OW25060   5.389   6.418   4.736
 8054SOL    HW125061   5.489   6.413   4.730
 8054SOL    HW225062   5.353   6.327   4.759
 8055SOL     OW25063   0.320   0.277   5.566
 8055SOL    HW125064   0.264   0.358   5.550
 8055SOL    HW225065   0.293   0.232   5.651
 8056SOL     OW25066   2.845   1.516   4.420
 8056SOL    HW125067   2.848   1.472   4.330
 8056SOL    HW225068   2.926   1.573   4.432
 8057SOL     OW25069   2.921   1.901   3.192
 8057SOL    HW125070   2.868   1.816   3.195
 8057SOL    HW225071   2.868   1.972   3.147
 8058SOL     OW25072   3.778   0.280   2.402
 8058SOL    HW125073   3.689   0.278   2.357
 8058SOL    HW225074   3.766   0.313   2.496
 8059SOL     OW25075   3.346   2.058   4.961
 8059SOL    HW125076   3.279   2.133   4.964
 8059SOL    HW225077   3.312   1.981   5.015
 8060SOL     OW25078   6.215   2.297   4.701
 8060SOL    HW125079   6.192   2.350   4.783
 8060SOL    HW225080   6.293   2.340   4.655
 8061SOL     OW25081   0.432   1.015   2.994
 8061SOL    HW125082   0.503   1.083   2.978
 8061SOL    HW225083   0.426   0.995   3.092
 8062SOL     OW25084   3.973   4.937   3.825
 8062SOL    HW125085   4.012   4.893   3.906
 8062SOL    HW225086   3.874   4.925   3.824
 8063SOL     OW25087   0.965   2.545   1.498
 8063SOL    HW125088   0.994   2.569   1.591
 8063SOL    HW225089   1.028   2.477   1.461
 8064SOL     OW25090   0.384   4.011   1.951
 8064SOL    HW125091   0.285   4.000   1.960
 8064SOL    HW225092   0.425   4.011   2.042
 8065SOL     OW25093   1.985   5.705   3.521
 8065SOL    HW125094   2.059   5.770   3.536
 8065SOL    HW225095   1.965   5.698   3.424
 8066SOL     OW25096   0.207   1.868   5.166
 8066SOL    HW125097   0.188   1.930   5.090
 8066SOL    HW225098   0.298   1.886   5.203
 8067SOL     OW25099   4.591   2.761   1.796
 8067SOL    HW125100   4.570   2.855   1.821
 8067SOL    HW225101   4.660   2.761   1.723
 8068SOL     OW25102   0.189   3.750   1.185
 8068SOL    HW125103   0.122   3.804   1.235
 8068SOL    HW225104   0.143   3.674   1.139
 8069SOL     OW25105   2.423   6.482   1.488
 8069SOL    HW125106   2.520   6.463   1.474
 8069SOL    HW225107   2.403   6.575   1.458
 8070SOL     OW25108   3.949   3.329   0.332
 8070SOL    HW125109   3.905   3.264   0.270
 8070SOL    HW225110   3.963   3.416   0.284
 8071SOL     OW25111   2.913   6.309   4.943
 8071SOL    HW125112   2.890   6.231   4.885
 8071SOL    HW225113   3.011   6.308   4.963
 8072SOL     OW25114   3.533   1.052   0.689
 8072SOL    HW125115   3.543   1.103   0.775
 8072SOL    HW225116   3.622   1.019   0.659
 8073SOL     OW25117   2.852   5.277   4.557
 8073SOL    HW125118   2.799   5.210   4.608
 8073SOL    HW225119   2.833   5.268   4.459
 8074SOL     OW25120   3.945   2.407   0.628
 8074SOL    HW125121   3.983   2.399   0.720
 8074SOL    HW225122   3.846   2.396   0.632
 8075SOL     OW25123   6.963   0.610   0.937
 8075SOL    HW125124   6.955   0.558   0.851
 8075SOL    HW225125   6.908   0.693   0.930
 8076SOL     OW25126   6.714   1.458   5.184
 8076SOL    HW125127   6.813   1.471   5.180
 8076SOL    HW225128   6.694   1.368   5.223
 8077SOL     OW25129   2.781   5.731   2.184
 8077SOL    HW125130   2.835   5.815   2.182
 8077SOL    HW225131   2.701   5.744   2.241
 8078SOL     OW25132   0.315   1.335   0.109
 8078SOL    HW125133   0.257   1.255   0.118
 8078SOL    HW225134   0.405   1.316   0.148
 8079SOL     OW25135   4.733   1.426   3.564
 8079SOL    HW125136   4.726   1.339   3.612
 8079SOL    HW225137   4.651   1.441   3.509
 8080SOL     OW25138   0.541   2.486   0.405
 8080SOL    HW125139   0.602   2.408   0.408
 8080SOL    HW225140   0.546   2.536   0.491
 8081SOL     OW25141   5.756   5.818   5.436
 8081SOL    HW125142   5.769   5.757   5.358
 8081SOL    HW225143   5.764   5.766   5.520
 8082SOL     OW25144   4.519   6.597   1.989
 8082SOL    HW125145   4.465   6.540   2.052
 8082SOL    HW225146   4.603   6.626   2.034
 8083SOL     OW25147   4.946   3.224   2.726
 8083SOL    HW125148   5.000   3.157   2.676
 8083SOL    HW225149   4.921   3.299   2.665
 8084SOL     OW25150   4.823   0.185   0.517
 8084SOL    HW125151   4.776   0.271   0.535
 8084SOL    HW225152   4.757   0.116   0.487
 8085SOL     OW25153   6.455   6.680   1.819
 8085SOL    HW125154   6.509   6.763   1.803
 8085SOL    HW225155   6.379   6.677   1.754
 8086SOL     OW25156   5.433   0.971   3.048
 8086SOL    HW125157   5.435   0.900   2.978
 8086SOL    HW225158   5.340   1.007   3.056
 8087SOL     OW25159   3.182   1.528   0.623
 8087SOL    HW125160   3.120   1.456   0.655
 8087SOL    HW225161   3.240   1.492   0.550
 8088SOL     OW25162   5.355   2.041   1.308
 8088SOL    HW125163   5.363   2.137   1.284
 8088SOL    HW225164   5.291   2.030   1.384
 8089SOL     OW25165   5.472   2.266   0.371
 8089SOL    HW125166   5.446   2.362   0.386
 8089SOL    HW225167   5.543   2.262   0.300
 8090SOL     OW25168   4.816   1.439   0.051
 8090SOL    HW125169   4.757   1.491   7.009
 8090SOL    HW225170   4.759   1.381   0.110
 8091SOL     OW25171   2.456   3.465   5.496
 8091SOL    HW125172   2.453   3.564   5.501
 8091SOL    HW225173   2.548   3.433   5.518
 8092SOL     OW25174   6.251   2.044   4.956
 8092SOL    HW125175   6.155   2.024   4.974
 8092SOL    HW225176   6.297   1.963   4.920
 8093SOL     OW25177   3.995   5.468   2.751
 8093SOL    HW125178   4.033   5.497   2.663
 8093SOL    HW225179   3.988   5.547   2.812
 8094SOL     OW25180   1.731   3.602   4.889
 8094SOL    HW125181   1.651   3.658   4.909
 8094SOL    HW225182   1.786   3.591   4.973
 8095SOL     OW25183   6.900   4.327   4.720
 8095SOL    HW125184   6.861   4.338   4.628
 8095SOL    HW225185   6.894   4.231   4.748
 8096SOL     OW25186   2.474   6.639   3.303
 8096SOL    HW125187   2.425   6.627   3.217
 8096SOL    HW225188   2.572   6.638   3.286
 8097SOL     OW25189   4.766   0.096   4.010
 8097SOL    HW125190   4.832   0.150   3.957
 8097SOL    HW225191   4.721   0.030   3.951
 8098SOL     OW25192   1.631   0.470   3.227
 8098SOL    HW125193   1.637   0.427   3.316
 8098SOL    HW225194   1.592   0.406   3.161
 8099SOL     OW25195   3.657   0.067   4.361
 8099SOL    HW125196   3.612   0.155   4.380
 8099SOL    HW225197   3.714   0.076   4.279
 8100SOL     OW25198   6.031   1.160   0.515
 8100SOL    HW125199   6.128   1.160   0.540
 8100SOL    HW225200   6.020   1.207   0.427
 8101SOL     OW25201   1.972   0.113   3.034
 8101SOL    HW125202   1.879   0.149   3.024
 8101SOL    HW225203   2.016   0.106   2.945
 8102SOL     OW25204   0.525   4.414   3.834
 8102SOL    HW125205   0.528   4.419   3.934
 8102SOL    HW225206   0.440   4.370   3.806
 8103SOL     OW25207   4.245   7.013   1.076
 8103SOL    HW125208   4.233   0.091   1.058
 8103SOL    HW225209   4.240   6.997   1.174
 8104SOL     OW25210   3.416   0.129   6.323
 8104SOL    HW125211   3.471   0.176   6.255
 8104SOL    HW225212   3.356   0.194   6.368
 8105SOL     OW25213   0.500   2.622   3.225
 8105SOL    HW125214   0.509   2.554   3.297
 8105SOL    HW225215   0.475   2.576   3.139
 8106SOL     OW25216   2.144   5.767   2.777
 8106SOL    HW125217   2.152   5.821   2.693
 8106SOL    HW225218   2.050   5.767   2.809
 8107SOL     OW25219   0.813   4.960   4.348
 8107SOL    HW125220   0.874   4.919   4.416
 8107SOL    HW225221   0.866   5.013   4.283
 8108SOL     OW25222   6.107   3.098   5.242
 8108SOL    HW125223   6.130   3.182   5.290
 8108SOL    HW225224   6.122   3.020   5.303
 8109SOL     OW25225   1.298   3.865   4.555
 8109SOL    HW125226   1.289   3.794   4.624
 8109SOL    HW225227   1.375   3.925   4.579
 8110SOL     OW25228   3.504   6.334   0.616
 8110SOL    HW125229   3.488   6.367   0.709
 8110SOL    HW225230   3.572   6.393   0.572
 8111SOL     OW25231   4.550   0.340   5.147
 8111SOL    HW125232   4.533   0.242   5.137
 8111SOL    HW225233   4.632   0.365   5.095
 8112SOL     OW25234   2.362   2.543   4.889
 8112SOL    HW125235   2.321   2.614   4.832
 8112SOL    HW225236   2.429   2.492   4.835
 8113SOL     OW25237   2.936   3.357   0.780
 8113SOL    HW125238   2.886   3.424   0.725
 8113SOL    HW225239   2.955   3.395   0.870
 8114SOL     OW25240   1.839   3.727   1.987
 8114SOL    HW125241   1.928   3.725   1.942
 8114SOL    HW225242   1.846   3.778   2.073
 8115SOL     OW25243   3.529   0.479   0.254
 8115SOL    HW125244   3.483   0.417   0.318
 8115SOL    HW225245   3.625   0.451   0.244
 8116SOL     OW25246   4.544   5.463   5.634
 8116SOL    HW125247   4.506   5.406   5.707
 8116SOL    HW225248   4.556   5.407   5.551
 8117SOL     OW25249   1.707   0.928   3.545
 8117SOL    HW125250   1.749   1.010   3.506
 8117SOL    HW225251   1.607   0.938   3.545
 8118SOL     OW25252   5.538   4.090   5.816
 8118SOL    HW125253   5.519   4.169   5.759
 8118SOL    HW225254   5.629   4.055   5.795
 8119SOL     OW25255   6.024   5.887   5.690
 8119SOL    HW125256   6.075   5.837   5.619
 8119SOL    HW225257   5.958   5.948   5.646
 8120SOL     OW25258   2.213   5.124   0.519
 8120SOL    HW125259   2.263   5.196   0.472
 8120SOL    HW225260   2.262   5.037   0.508
 8121SOL     OW25261   0.927   4.403   1.840
 8121SOL    HW125262   0.844   4.358   1.872
 8121SOL    HW225263   0.950   4.479   1.901
 8122SOL     OW25264   0.855   6.104   2.132
 8122SOL    HW125265   0.834   6.042   2.207
 8122SOL    HW225266   0.790   6.180   2.133
 8123SOL     OW25267   6.607   0.705   6.117
 8123SOL    HW125268   6.699   0.669   6.132
 8123SOL    HW225269   6.540   0.630   6.123
 8124SOL     OW25270   6.119   6.714   0.817
 8124SOL    HW125271   6.146   6.748   0.908
 8124SOL    HW225272   6.072   6.787   0.767
 8125SOL     OW25273   1.313   1.191   3.795
 8125SOL    HW125274   1.254   1.191   3.875
 8125SOL    HW225275   1.402   1.229   3.818
 8126SOL     OW25276   5.238   5.002   2.943
 8126SOL    HW125277   5.206   4.908   2.961
 8126SOL    HW225278   5.264   5.010   2.847
 8127SOL     OW25279   3.055   5.860   6.396
 8127SOL    HW125280   3.154   5.850   6.392
 8127SOL    HW225281   3.014   5.782   6.443
 8128SOL     OW25282   2.892   1.812   1.566
 8128SOL    HW125283   2.960   1.756   1.613
 8128SOL    HW225284   2.933   1.854   1.485
 8129SOL     OW25285   4.364   0.547   5.905
 8129SOL    HW125286   4.377   0.597   5.990
 8129SOL    HW225287   4.447   0.555   5.849
 8130SOL     OW25288   0.444   3.290   6.025
 8130SOL    HW125289   0.508   3.309   5.951
 8130SOL    HW225290   0.351   3.286   5.988
 8131SOL     OW25291   3.648   2.073   0.700
 8131SOL    HW125292   3.723   2.067   0.766
 8131SOL    HW225293   3.674   2.025   0.616
 8132SOL     OW25294   6.181   6.551   5.911
 8132SOL    HW125295   6.129   6.527   5.993
 8132SOL    HW225296   6.150   6.495   5.835
 8133SOL     OW25297   2.879   4.623   1.416
 8133SOL    HW125298   2.973   4.630   1.384
 8133SOL    HW225299   2.872   4.548   1.483
 8134SOL     OW25300   0.394   2.851   5.403
 8134SOL    HW125301   0.486   2.847   5.366
 8134SOL    HW225302   0.335   2.786   5.353
 8135SOL     OW25303   2.256   5.829   1.492
 8135SOL    HW125304   2.280   5.734   1.473
 8135SOL    HW225305   2.164   5.833   1.532
 8136SOL     OW25306   4.246   4.947   3.123
 8136SOL    HW125307   4.309   4.977   3.195
 8136SOL    HW225308   4.240   4.847   3.123
 8137SOL     OW25309   3.463   1.284   5.246
 8137SOL    HW125310   3.412   1.202   5.220
 8137SOL    HW225311   3.557   1.277   5.212
 8138SOL     OW25312   5.855   1.419   0.332
 8138SOL    HW125313   5.921   1.484   0.370
 8138SOL    HW225314   5.769   1.425   0.382
 8139SOL     OW25315   0.700   1.493   3.433
 8139SOL    HW125316   0.741   1.408   3.467
 8139SOL    HW225317   0.772   1.555   3.402
 8140SOL     OW25318   5.016   0.650   0.748
 8140SOL    HW125319   5.010   0.685   0.842
 8140SOL    HW225320   4.953   0.573   0.737
 8141SOL     OW25321   4.592   6.328   5.506
 8141SOL    HW125322   4.574   6.282   5.420
 8141SOL    HW225323   4.537   6.412   5.511
 8142SOL     OW25324   1.428   4.606   0.037
 8142SOL    HW125325   1.352   4.595   6.993
 8142SOL    HW225326   1.486   4.525   0.034
 8143SOL     OW25327   0.038   4.519   0.746
 8143SOL    HW125328   7.011   4.461   0.680
 8143SOL    HW225329   7.017   4.507   0.836
 8144SOL     OW25330   6.992   6.514   6.061
 8144SOL    HW125331   0.032   6.439   6.087
 8144SOL    HW225332   6.909   6.511   6.116
 8145SOL     OW25333   5.708   5.793   1.511
 8145SOL    HW125334   5.705   5.885   1.472
 8145SOL    HW225335   5.614   5.762   1.530
 8146SOL     OW25336   4.746   0.858   5.089
 8146SOL    HW125337   4.680   0.901   5.150
 8146SOL    HW225338   4.839   0.888   5.113
 8147SOL     OW25339   6.938   1.521   2.140
 8147SOL    HW125340   6.940   1.427   2.175
 8147SOL    HW225341   6.946   1.584   2.217
 8148SOL     OW25342   5.116   4.197   0.873
 8148SOL    HW125343   5.028   4.165   0.906
 8148SOL    HW225344   5.190   4.148   0.918
 8149SOL     OW25345   1.926   6.044   2.526
 8149SOL    HW125346   1.841   6.011   2.485
 8149SOL    HW225347   1.923   6.030   2.625
 8150SOL     OW25348   2.055   3.656   1.331
 8150SOL    HW125349   2.036   3.559   1.318
 8150SOL    HW225350   2.074   3.698   1.242
 8151SOL     OW25351   5.404   4.591   2.658
 8151SOL    HW125352   5.366   4.579   2.566
 8151SOL    HW225353   5.356   4.666   2.705
 8152SOL     OW25354   6.019   2.077   2.942
 8152SOL    HW125355   6.043   2.138   2.866
 8152SOL    HW225356   6.095   2.015   2.960
 8153SOL     OW25357   1.242   1.410   4.103
 8153SOL    HW125358   1.259   1.454   4.015
 8153SOL    HW225359   1.147   1.425   4.130
 8154SOL     OW25360   3.918   5.282   2.375
 8154SOL    HW125361   3.983   5.353   2.349
 8154SOL    HW225362   3.954   5.192   2.349
 8155SOL     OW25363   1.671   3.088   1.936
 8155SOL    HW125364   1.678   3.177   1.891
 8155SOL    HW225365   1.613   3.028   1.882
 8156SOL     OW25366   5.024   6.411   0.636
 8156SOL    HW125367   5.063   6.450   0.720
 8156SOL    HW225368   4.963   6.336   0.659
 8157SOL     OW25369   6.107   4.934   6.133
 8157SOL    HW125370   6.100   4.911   6.036
 8157SOL    HW225371   6.143   4.856   6.184
 8158SOL     OW25372   4.949   4.314   6.797
 8158SOL    HW125373   4.899   4.391   6.838
 8158SOL    HW225374   5.039   4.306   6.841
 8159SOL     OW25375   2.586   5.813   2.723
 8159SOL    HW125376   2.489   5.805   2.748
 8159SOL    HW225377   2.643   5.792   2.802
 8160SOL     OW25378   5.492   0.683   3.255
 8160SOL    HW125379   5.441   0.682   3.169
 8160SOL    HW225380   5.557   0.607   3.257
 8161SOL     OW25381   6.087   2.589   6.624
 8161SOL    HW125382   5.992   2.615   6.606
 8161SOL    HW225383   6.089   2.514   6.690
 8162SOL     OW25384   6.275   6.489   6.605
 8162SOL    HW125385   6.352   6.493   6.542
 8162SOL    HW225386   6.279   6.568   6.667
 8163SOL     OW25387   2.737   4.130   5.429
 8163SOL    HW125388   2.837   4.120   5.429
 8163SOL    HW225389   2.713   4.224   5.406
 8164SOL     OW25390   5.120   2.176   0.153
 8164SOL    HW125391   5.095   2.266   0.118
 8164SOL    HW225392   5.212   2.152   0.121
 8165SOL     OW25393   1.030   3.929   6.059
 8165SOL    HW125394   0.939   3.908   6.095
 8165SOL    HW225395   1.026   3.942   5.960
 8166SOL     OW25396   1.327   0.761   3.280
 8166SOL    HW125397   1.228   0.748   3.272
 8166SOL    HW225398   1.359   0.718   3.364
 8167SOL     OW25399   0.225   0.180   3.760
 8167SOL    HW125400   0.283   0.116   3.811
 8167SOL    HW225401   0.151   0.129   3.716
 8168SOL     OW25402   1.980   1.546   2.631
 8168SOL    HW125403   1.913   1.610   2.669
 8168SOL    HW225404   2.004   1.478   2.700
 8169SOL     OW25405   4.956   1.940   0.628
 8169SOL    HW125406   4.940   1.855   0.578
 8169SOL    HW225407   4.885   2.007   0.605
 8170SOL     OW25408   1.183   5.093   2.117
 8170SOL    HW125409   1.141   5.003   2.124
 8170SOL    HW225410   1.282   5.084   2.127
 8171SOL     OW25411   1.641   1.698   6.202
 8171SOL    HW125412   1.727   1.667   6.161
 8171SOL    HW225413   1.657   1.787   6.247
 8172SOL     OW25414   0.602   2.436   2.469
 8172SOL    HW125415   0.654   2.352   2.453
 8172SOL    HW225416   0.632   2.506   2.404
 8173SOL     OW25417   5.485   1.683   2.310
 8173SOL    HW125418   5.441   1.743   2.377
 8173SOL    HW225419   5.419   1.616   2.276
 8174SOL     OW25420   6.487   1.518   1.833
 8174SOL    HW125421   6.539   1.434   1.820
 8174SOL    HW225422   6.394   1.507   1.797
 8175SOL     OW25423   0.625   3.173   5.382
 8175SOL    HW125424   0.565   3.108   5.428
 8175SOL    HW225425   0.589   3.195   5.292
 8176SOL     OW25426   2.156   4.991   1.481
 8176SOL    HW125427   2.152   4.979   1.580
 8176SOL    HW225428   2.070   5.029   1.448
 8177SOL     OW25429   3.575   6.760   3.656
 8177SOL    HW125430   3.651   6.801   3.706
 8177SOL    HW225431   3.542   6.680   3.705
 8178SOL     OW25432   2.700   6.222   0.185
 8178SOL    HW125433   2.693   6.244   0.088
 8178SOL    HW225434   2.774   6.276   0.226
 8179SOL     OW25435   4.823   1.725   4.983
 8179SOL    HW125436   4.760   1.652   5.011
 8179SOL    HW225437   4.846   1.713   4.887
 8180SOL     OW25438   6.374   0.284   5.185
 8180SOL    HW125439   6.455   0.320   5.138
 8180SOL    HW225440   6.403   0.225   5.260
 8181SOL     OW25441   2.072   1.484   0.923
 8181SOL    HW125442   2.107   1.574   0.949
 8181SOL    HW225443   2.144   1.435   0.874
 8182SOL     OW25444   3.165   3.737   5.803
 8182SOL    HW125445   3.195   3.813   5.746
 8182SOL    HW225446   3.211   3.653   5.773
 8183SOL     OW25447   6.649   1.981   5.139
 8183SOL    HW125448   6.596   2.028   5.210
 8183SOL    HW225449   6.650   2.036   5.056
 8184SOL     OW25450   6.565   0.976   0.309
 8184SOL    HW125451   6.594   0.918   0.386
 8184SOL    HW225452   6.465   0.978   0.306
 8185SOL     OW25453   2.590   0.345   0.251
 8185SOL    HW125454   2.531   0.383   0.179
 8185SOL    HW225455   2.572   0.247   0.260
 8186SOL     OW25456   3.784   4.932   5.433
 8186SOL    HW125457   3.804   5.027   5.410
 8186SOL    HW225458   3.687   4.923   5.457
 8187SOL     OW25459   1.565   1.966   4.638
 8187SOL    HW125460   1.505   2.028   4.587
 8187SOL    HW225461   1.515   1.931   4.717
 8188SOL     OW25462   5.824   2.904   2.980
 8188SOL    HW125463   5.903   2.965   2.972
 8188SOL    HW225464   5.753   2.932   2.916
 8189SOL     OW25465   4.788   4.458   2.974
 8189SOL    HW125466   4.810   4.417   3.062
 8189SOL    HW225467   4.724   4.534   2.987
 8190SOL     OW25468   4.704   5.237   4.454
 8190SOL    HW125469   4.687   5.335   4.457
 8190SOL    HW225470   4.707   5.206   4.359
 8191SOL     OW25471   3.527   6.394   1.566
 8191SOL    HW125472   3.522   6.307   1.615
 8191SOL    HW225473   3.483   6.385   1.477
 8192SOL     OW25474   3.765   4.905   0.661
 8192SOL    HW125475   3.844   4.844   0.672
 8192SOL    HW225476   3.704   4.868   0.591
 8193SOL     OW25477   0.056   5.774   4.549
 8193SOL    HW125478   0.043   5.847   4.482
 8193SOL    HW225479   0.028   5.807   4.639
 8194SOL     OW25480   5.555   2.456   0.864
 8194SOL    HW125481   5.574   2.359   0.881
 8194SOL    HW225482   5.474   2.463   0.805
 8195SOL     OW25483   1.343   0.619   1.758
 8195SOL    HW125484   1.349   0.632   1.659
 8195SOL    HW225485   1.285   0.540   1.777
 8196SOL     OW25486   3.771   5.944   5.860
 8196SOL    HW125487   3.865   5.918   5.838
 8196SOL    HW225488   3.733   5.879   5.926
 8197SOL     OW25489   4.826   2.010   0.305
 8197SOL    HW125490   4.890   2.066   0.358
 8197SOL    HW225491   4.871   1.975   0.223
 8198SOL     OW25492   3.582   6.877   2.951
 8198SOL    HW125493   3.630   6.964   2.966
 8198SOL    HW225494   3.547   6.874   2.858
 8199SOL     OW25495   5.909   2.929   6.482
 8199SOL    HW125496   5.888   2.983   6.563
 8199SOL    HW225497   5.874   2.976   6.400
 8200SOL     OW25498   5.354   4.536   1.975
 8200SOL    HW125499   5.380   4.486   2.058
 8200SOL    HW225500   5.258   4.562   1.981
 8201SOL     OW25501   5.807   0.349   3.589
 8201SOL    HW125502   5.776   0.403   3.511
 8201SOL    HW225503   5.727   0.310   3.636
 8202SOL     OW25504   0.695   5.513   4.111
 8202SOL    HW125505   0.661   5.456   4.185
 8202SOL    HW225506   0.635   5.593   4.100
 8203SOL     OW25507   4.306   2.687   0.068
 8203SOL    HW125508   4.351   2.599   0.085
 8203SOL    HW225509   4.375   2.759   0.060
 8204SOL     OW25510   2.446   5.122   6.922
 8204SOL    HW125511   2.422   5.203   6.870
 8204SOL    HW225512   2.452   5.146   7.019
 8205SOL     OW25513   0.256   4.600   0.888
 8205SOL    HW125514   0.321   4.644   0.826
 8205SOL    HW225515   0.174   4.574   0.838
 8206SOL     OW25516   4.888   2.962   6.356
 8206SOL    HW125517   4.938   2.895   6.412
 8206SOL    HW225518   4.858   2.918   6.271
 8207SOL     OW25519   3.031   3.906   4.724
 8207SOL    HW125520   3.055   3.833   4.789
 8207SOL    HW225521   2.946   3.883   4.678
 8208SOL     OW25522   2.257   7.020   1.341
 8208SOL    HW125523   2.338   0.056   1.324
 8208SOL    HW225524   2.175   0.053   1.321
 8209SOL     OW25525   0.732   1.289   5.958
 8209SOL    HW125526   0.680   1.273   5.874
 8209SOL    HW225527   0.668   1.303   6.033
 8210SOL     OW25528   2.594   1.354   1.252
 8210SOL    HW125529   2.570   1.319   1.161
 8210SOL    HW225530   2.521   1.333   1.317
 8211SOL     OW25531   3.560   3.997   2.141
 8211SOL    HW125532   3.647   3.969   2.099
 8211SOL    HW225533   3.565   3.985   2.240
 8212SOL     OW25534   1.845   1.693   1.728
 8212SOL    HW125535   1.862   1.596   1.747
 8212SOL    HW225536   1.779   1.728   1.794
 8213SOL     OW25537   6.442   4.711   2.376
 8213SOL    HW125538   6.378   4.780   2.343
 8213SOL    HW225539   6.491   4.671   2.299
 8214SOL     OW25540   7.017   5.495   4.808
 8214SOL    HW125541   0.070   5.556   4.839
 8214SOL    HW225542   6.930   5.524   4.849
 8215SOL     OW25543   2.624   5.601   6.386
 8215SOL    HW125544   2.583   5.653   6.461
 8215SOL    HW225545   2.720   5.583   6.405
 8216SOL     OW25546   4.749   5.493   3.656
 8216SOL    HW125547   4.709   5.404   3.635
 8216SOL    HW225548   4.816   5.484   3.729
 8217SOL     OW25549   2.039   4.093   1.612
 8217SOL    HW125550   2.120   4.135   1.571
 8217SOL    HW225551   2.038   3.995   1.590
 8218SOL     OW25552   0.819   6.281   4.474
 8218SOL    HW125553   0.869   6.360   4.441
 8218SOL    HW225554   0.883   6.216   4.514
 8219SOL     OW25555   4.134   3.175   0.792
 8219SOL    HW125556   4.047   3.175   0.741
 8219SOL    HW225557   4.193   3.103   0.756
 8220SOL     OW25558   3.008   3.892   4.170
 8220SOL    HW125559   2.955   3.807   4.171
 8220SOL    HW225560   3.002   3.936   4.260
 8221SOL     OW25561   6.205   6.089   3.219
 8221SOL    HW125562   6.266   6.059   3.293
 8221SOL    HW225563   6.210   6.023   3.144
 8222SOL     OW25564   5.095   1.233   1.467
 8222SOL    HW125565   5.041   1.286   1.401
 8222SOL    HW225566   5.191   1.256   1.456
 8223SOL     OW25567   1.434   4.508   5.283
 8223SOL    HW125568   1.463   4.504   5.378
 8223SOL    HW225569   1.341   4.471   5.275
 8224SOL     OW25570   5.750   2.562   2.312
 8224SOL    HW125571   5.684   2.499   2.271
 8224SOL    HW225572   5.821   2.510   2.359
 8225SOL     OW25573   4.004   1.625   1.205
 8225SOL    HW125574   3.984   1.603   1.300
 8225SOL    HW225575   4.103   1.619   1.189
 8226SOL     OW25576   3.549   6.009   0.600
 8226SOL    HW125577   3.528   6.106   0.615
 8226SOL    HW225578   3.533   5.986   0.504
 8227SOL     OW25579   7.005   1.540   2.629
 8227SOL    HW125580   6.981   1.599   2.707
 8227SOL    HW225581   0.070   1.491   2.650
 8228SOL     OW25582   0.120   1.669   6.111
 8228SOL    HW125583   0.044   1.724   6.076
 8228SOL    HW225584   0.175   1.635   6.035
 8229SOL     OW25585   4.192   3.548   1.358
 8229SOL    HW125586   4.217   3.632   1.311
 8229SOL    HW225587   4.092   3.542   1.366
 8230SOL     OW25588   3.391   6.611   5.379
 8230SOL    HW125589   3.450   6.665   5.318
 8230SOL    HW225590   3.298   6.647   5.376
 8231SOL     OW25591   3.112   3.000   1.693
 8231SOL    HW125592   3.019   2.985   1.661
 8231SOL    HW225593   3.146   2.917   1.739
 8232SOL     OW25594   5.651   2.009   2.486
 8232SOL    HW125595   5.665   1.918   2.447
 8232SOL    HW225596   5.739   2.052   2.503
 8233SOL     OW25597   1.563   0.001   6.012
 8233SOL    HW125598   1.550   6.965   5.930
 8233SOL    HW225599   1.513   0.087   6.001
 8234SOL     OW25600   2.617   3.990   0.144
 8234SOL    HW125601   2.691   3.925   0.158
 8234SOL    HW225602   2.646   4.061   0.080
 8235SOL     OW25603   0.105   3.830   6.956
 8235SOL    HW125604   0.193   3.783   6.948
 8235SOL    HW225605   0.120   3.928   6.963
 8236SOL     OW25606   0.033   4.833   0.572
 8236SOL    HW125607   7.017   4.750   0.613
 8236SOL    HW225608   0.090   4.809   0.493
 8237SOL     OW25609   4.594   5.912   6.244
 8237SOL    HW125610   4.635   5.922   6.153
 8237SOL    HW225611   4.570   5.816   6.259
 8238SOL     OW25612   0.078   5.535   0.062
 8238SOL    HW125613   0.032   5.540   6.994
 8238SOL    HW225614   0.177   5.524   0.047
 8239SOL     OW25615   0.393   0.911   5.366
 8239SOL    HW125616   0.381   0.987   5.302
 8239SOL    HW225617   0.387   0.945   5.460
 8240SOL     OW25618   3.503   4.066   2.550
 8240SOL    HW125619   3.522   4.099   2.643
 8240SOL    HW225620   3.426   4.116   2.512
 8241SOL     OW25621   2.868   5.506   6.479
 8241SOL    HW125622   2.871   5.590   6.533
 8241SOL    HW225623   2.947   5.449   6.502
 8242SOL     OW25624   0.847   3.920   6.268
 8242SOL    HW125625   0.830   3.833   6.315
 8242SOL    HW225626   0.764   3.975   6.270
 8243SOL     OW25627   6.536   3.566   0.828
 8243SOL    HW125628   6.517   3.491   0.891
 8243SOL    HW225629   6.635   3.583   0.826
 8244SOL     OW25630   0.102   0.873   3.147
 8244SOL    HW125631   0.096   0.967   3.182
 8244SOL    HW225632   0.194   0.837   3.162
 8245SOL     OW25633   3.663   2.002   2.705
 8245SOL    HW125634   3.667   2.029   2.608
 8245SOL    HW225635   3.732   2.053   2.756
 8246SOL     OW25636   0.651   3.753   6.590
 8246SOL    HW125637   0.720   3.701   6.540
 8246SOL    HW225638   0.587   3.690   6.635
 8247SOL     OW25639   2.157   0.816   3.320
 8247SOL    HW125640   2.202   0.855   3.400
 8247SOL    HW225641   2.093   0.882   3.281
 8248SOL     OW25642   0.420   4.665   4.235
 8248SOL    HW125643   0.403   4.740   4.171
 8248SOL    HW225644   0.501   4.687   4.291
 8249SOL     OW25645   1.977   1.272   5.520
 8249SOL    HW125646   1.983   1.371   5.528
 8249SOL    HW225647   2.041   1.229   5.584
 8250SOL     OW25648   2.250   2.456   1.803
 8250SOL    HW125649   2.341   2.497   1.799
 8250SOL    HW225650   2.188   2.508   1.744
 8251SOL     OW25651   5.018   2.975   4.271
 8251SOL    HW125652   4.971   3.021   4.346
 8251SOL    HW225653   5.085   3.038   4.230
 8252SOL     OW25654   3.740   1.823   6.312
 8252SOL    HW125655   3.640   1.823   6.319
 8252SOL    HW225656   3.778   1.759   6.379
 8253SOL     OW25657   3.833   5.610   5.827
 8253SOL    HW125658   3.818   5.646   5.919
 8253SOL    HW225659   3.790   5.520   5.819
 8254SOL     OW25660   4.580   4.438   5.377
 8254SOL    HW125661   4.550   4.343   5.387
 8254SOL    HW225662   4.674   4.447   5.410
 8255SOL     OW25663   1.793   6.251   5.217
 8255SOL    HW125664   1.746   6.295   5.293
 8255SOL    HW225665   1.742   6.269   5.132
 8256SOL     OW25666   6.782   6.518   2.552
 8256SOL    HW125667   6.857   6.500   2.616
 8256SOL    HW225668   6.707   6.455   2.570
 8257SOL     OW25669   5.233   3.817   2.553
 8257SOL    HW125670   5.230   3.896   2.615
 8257SOL    HW225671   5.269   3.738   2.601
 8258SOL     OW25672   5.125   2.572   1.795
 8258SOL    HW125673   5.199   2.509   1.817
 8258SOL    HW225674   5.129   2.651   1.855
 8259SOL     OW25675   3.864   1.726   4.956
 8259SOL    HW125676   3.844   1.811   4.907
 8259SOL    HW225677   3.931   1.673   4.903
 8260SOL     OW25678   2.787   6.952   1.321
 8260SOL    HW125679   2.787   6.965   1.420
 8260SOL    HW225680   2.764   6.857   1.300
 8261SOL     OW25681   5.485   6.442   3.308
 8261SOL    HW125682   5.494   6.427   3.210
 8261SOL    HW225683   5.458   6.357   3.352
 8262SOL     OW25684   1.090   3.904   0.479
 8262SOL    HW125685   1.069   3.990   0.526
 8262SOL    HW225686   1.164   3.857   0.526
 8263SOL     OW25687   0.125   2.648   6.438
 8263SOL    HW125688   0.054   2.628   6.370
 8263SOL    HW225689   0.176   2.729   6.409
 8264SOL     OW25690   1.882   6.668   1.033
 8264SOL    HW125691   1.889   6.635   1.127
 8264SOL    HW225692   1.932   6.754   1.025
 8265SOL     OW25693   6.094   0.243   1.355
 8265SOL    HW125694   6.163   0.307   1.321
 8265SOL    HW225695   6.003   0.279   1.338
 8266SOL     OW25696   2.290   1.097   4.513
 8266SOL    HW125697   2.301   1.177   4.455
 8266SOL    HW225698   2.380   1.059   4.536
 8267SOL     OW25699   1.596   3.756   1.854
 8267SOL    HW125700   1.630   3.681   1.798
 8267SOL    HW225701   1.672   3.800   1.901
 8268SOL     OW25702   2.673   6.610   6.365
 8268SOL    HW125703   2.679   6.707   6.338
 8268SOL    HW225704   2.763   6.578   6.395
 8269SOL     OW25705   4.615   2.186   2.525
 8269SOL    HW125706   4.535   2.126   2.526
 8269SOL    HW225707   4.625   2.227   2.434
 8270SOL     OW25708   2.972   6.621   4.760
 8270SOL    HW125709   2.931   6.577   4.680
 8270SOL    HW225710   2.944   6.717   4.763
 8271SOL     OW25711   0.177   0.052   2.868
 8271SOL    HW125712   0.102   0.028   2.807
 8271SOL    HW225713   0.186   7.002   2.940
 8272SOL     OW25714   6.241   1.878   2.882
 8272SOL    HW125715   6.261   1.836   2.970
 8272SOL    HW225716   6.292   1.964   2.873
 8273SOL     OW25717   2.926   1.768   0.854
 8273SOL    HW125718   2.899   1.845   0.911
 8273SOL    HW225719   2.962   1.695   0.912
 8274SOL     OW25720   4.020   5.399   4.620
 8274SOL    HW125721   4.039   5.450   4.536
 8274SOL    HW225722   4.010   5.463   4.697
 8275SOL     OW25723   5.259   6.934   4.889
 8275SOL    HW125724   5.236   6.851   4.838
 8275SOL    HW225725   5.355   6.957   4.874
 8276SOL     OW25726   0.897   1.621   5.274
 8276SOL    HW125727   0.809   1.610   5.227
 8276SOL    HW225728   0.962   1.554   5.237
 8277SOL     OW25729   1.228   6.045   5.915
 8277SOL    HW125730   1.233   6.003   5.825
 8277SOL    HW225731   1.147   6.012   5.963
 8278SOL     OW25732   3.388   1.980   6.955
 8278SOL    HW125733   3.420   1.958   6.863
 8278SOL    HW225734   3.443   2.056   6.992
 8279SOL     OW25735   0.594   6.470   4.988
 8279SOL    HW125736   0.620   6.553   5.037
 8279SOL    HW225737   0.544   6.494   4.905
 8280SOL     OW25738   3.020   2.986   0.276
 8280SOL    HW125739   3.018   2.957   0.181
 8280SOL    HW225740   2.935   2.959   0.321
 8281SOL     OW25741   2.604   4.827   1.701
 8281SOL    HW125742   2.510   4.822   1.734
 8281SOL    HW225743   2.613   4.907   1.641
 8282SOL     OW25744   4.000   4.362   6.718
 8282SOL    HW125745   3.968   4.329   6.629
 8282SOL    HW225746   4.085   4.414   6.706
 8283SOL     OW25747   1.808   4.571   4.682
 8283SOL    HW125748   1.788   4.493   4.741
 8283SOL    HW225749   1.907   4.585   4.678
 8284SOL     OW25750   1.263   3.835   1.846
 8284SOL    HW125751   1.298   3.744   1.825
 8284SOL    HW225752   1.181   3.852   1.791
 8285SOL     OW25753   3.195   4.113   4.656
 8285SOL    HW125754   3.151   4.034   4.699
 8285SOL    HW225755   3.195   4.190   4.720
 8286SOL     OW25756   5.477   1.967   4.890
 8286SOL    HW125757   5.422   1.945   4.809
 8286SOL    HW225758   5.567   1.925   4.882
 8287SOL     OW25759   1.032   4.968   4.019
 8287SOL    HW125760   1.092   4.889   4.011
 8287SOL    HW225761   1.059   5.024   4.097
 8288SOL     OW25762   2.657   2.385   2.457
 8288SOL    HW125763   2.713   2.378   2.539
 8288SOL    HW225764   2.715   2.375   2.376
 8289SOL     OW25765   0.093   6.282   6.152
 8289SOL    HW125766   0.191   6.280   6.133
 8289SOL    HW225767   0.046   6.214   6.095
 8290SOL     OW25768   5.216   1.797   0.814
 8290SOL    HW125769   5.174   1.738   0.744
 8290SOL    HW225770   5.201   1.892   0.790
 8291SOL     OW25771   5.262   4.986   5.897
 8291SOL    HW125772   5.171   4.993   5.856
 8291SOL    HW225773   5.311   4.910   5.856
 8292SOL     OW25774   3.252   6.350   6.675
 8292SOL    HW125775   3.196   6.315   6.600
 8292SOL    HW225776   3.326   6.406   6.638
 8293SOL     OW25777   1.892   5.225   0.958
 8293SOL    HW125778   1.987   5.258   0.958
 8293SOL    HW225779   1.893   5.125   0.952
 8294SOL     OW25780   5.503   3.801   4.815
 8294SOL    HW125781   5.596   3.811   4.779
 8294SOL    HW225782   5.503   3.737   4.891
 8295SOL     OW25783   5.134   3.501   2.215
 8295SOL    HW125784   5.066   3.521   2.145
 8295SOL    HW225785   5.214   3.560   2.202
 8296SOL     OW25786   2.275   5.369   0.369
 8296SOL    HW125787   2.225   5.455   0.367
 8296SOL    HW225788   2.354   5.377   0.429
 8297SOL     OW25789   6.900   3.447   2.771
 8297SOL    HW125790   6.814   3.430   2.722
 8297SOL    HW225791   6.946   3.526   2.730
 8298SOL     OW25792   6.897   1.624   0.764
 8298SOL    HW125793   6.981   1.616   0.711
 8298SOL    HW225794   6.843   1.701   0.730
 8299SOL     OW25795   0.588   3.009   2.835
 8299SOL    HW125796   0.560   3.089   2.782
 8299SOL    HW225797   0.678   2.978   2.804
 8300SOL     OW25798   0.298   6.257   4.115
 8300SOL    HW125799   0.387   6.277   4.074
 8300SOL    HW225800   0.294   6.297   4.206
 8301SOL     OW25801   4.432   0.996   0.509
 8301SOL    HW125802   4.441   1.095   0.518
 8301SOL    HW225803   4.506   0.961   0.453
 8302SOL     OW25804   5.547   6.469   6.161
 8302SOL    HW125805   5.600   6.465   6.077
 8302SOL    HW225806   5.481   6.544   6.155
 8303SOL     OW25807   5.878   0.535   3.768
 8303SOL    HW125808   5.865   0.476   3.688
 8303SOL    HW225809   5.842   0.490   3.849
 8304SOL     OW25810   5.422   4.183   1.432
 8304SOL    HW125811   5.384   4.163   1.342
 8304SOL    HW225812   5.347   4.201   1.496
 8305SOL     OW25813   4.826   4.564   4.261
 8305SOL    HW125814   4.792   4.629   4.328
 8305SOL    HW225815   4.808   4.597   4.169
 8306SOL     OW25816   5.938   1.488   3.540
 8306SOL    HW125817   5.958   1.445   3.452
 8306SOL    HW225818   5.851   1.536   3.535
 8307SOL     OW25819   4.130   5.409   1.579
 8307SOL    HW125820   4.202   5.478   1.578
 8307SOL    HW225821   4.062   5.433   1.648
 8308SOL     OW25822   2.183   6.117   0.401
 8308SOL    HW125823   2.200   6.030   0.447
 8308SOL    HW225824   2.262   6.141   0.344
 8309SOL     OW25825   6.425   5.941   2.159
 8309SOL    HW125826   6.417   5.928   2.258
 8309SOL    HW225827   6.520   5.966   2.137
 8310SOL     OW25828   0.739   5.352   1.476
 8310SOL    HW125829   0.722   5.332   1.573
 8310SOL    HW225830   0.664   5.315   1.421
 8311SOL     OW25831   6.540   1.835   5.571
 8311SOL    HW125832   6.455   1.794   5.603
 8311SOL    HW225833   6.617   1.782   5.606
 8312SOL     OW25834   5.021   1.163   6.408
 8312SOL    HW125835   5.112   1.138   6.375
 8312SOL    HW225836   5.017   1.262   6.421
 8313SOL     OW25837   5.828   0.197   5.816
 8313SOL    HW125838   5.838   0.293   5.788
 8313SOL    HW225839   5.918   0.160   5.838
 8314SOL     OW25840   6.055   6.368   6.491
 8314SOL    HW125841   6.146   6.401   6.518
 8314SOL    HW225842   5.986   6.435   6.519
 8315SOL     OW25843   4.051   3.123   2.551
 8315SOL    HW125844   3.966   3.075   2.572
 8315SOL    HW225845   4.128   3.074   2.590
 8316SOL     OW25846   1.189   2.791   1.939
 8316SOL    HW125847   1.091   2.771   1.946
 8316SOL    HW225848   1.218   2.841   2.021
 8317SOL     OW25849   1.179   2.494   3.061
 8317SOL    HW125850   1.141   2.542   2.982
 8317SOL    HW225851   1.265   2.450   3.035
 8318SOL     OW25852   4.284   1.382   6.056
 8318SOL    HW125853   4.354   1.342   6.116
 8318SOL    HW225854   4.220   1.311   6.029
 8319SOL     OW25855   1.301   1.354   1.299
 8319SOL    HW125856   1.242   1.431   1.277
 8319SOL    HW225857   1.356   1.330   1.219
 8320SOL     OW25858   2.887   3.640   2.336
 8320SOL    HW125859   2.965   3.671   2.281
 8320SOL    HW225860   2.829   3.718   2.358
 8321SOL     OW25861   6.396   6.984   0.026
 8321SOL    HW125862   6.358   0.008   0.107
 8321SOL    HW225863   6.367   6.889   0.023
 8322SOL     OW25864   6.524   1.021   0.647
 8322SOL    HW125865   6.557   0.937   0.604
 8322SOL    HW225866   6.556   1.100   0.595
 8323SOL     OW25867   4.439   4.679   1.534
 8323SOL    HW125868   4.536   4.684   1.556
 8323SOL    HW225869   4.421   4.595   1.483
 8324SOL     OW25870   5.826   0.282   1.279
 8324SOL    HW125871   5.761   0.349   1.244
 8324SOL    HW225872   5.776   0.203   1.316
 8325SOL     OW25873   1.637   3.395   5.330
 8325SOL    HW125874   1.720   3.382   5.276
 8325SOL    HW225875   1.591   3.479   5.300
 8326SOL     OW25876   4.442   4.323   5.686
 8326SOL    HW125877   4.410   4.410   5.648
 8326SOL    HW225878   4.405   4.248   5.633
 8327SOL     OW25879   6.792   0.165   5.958
 8327SOL    HW125880   6.836   0.087   6.004
 8327SOL    HW225881   6.776   0.142   5.863
 8328SOL     OW25882   2.366   5.848   6.778
 8328SOL    HW125883   2.375   5.863   6.876
 8328SOL    HW225884   2.288   5.899   6.743
 8329SOL     OW25885   0.972   2.896   5.051
 8329SOL    HW125886   0.912   2.817   5.062
 8329SOL    HW225887   1.061   2.876   5.092
 8330SOL     OW25888   3.053   0.946   6.381
 8330SOL    HW125889   3.089   0.935   6.288
 8330SOL    HW225890   3.021   1.040   6.393
 8331SOL     OW25891   3.440   0.587   1.117
 8331SOL    HW125892   3.409   0.639   1.038
 8331SOL    HW225893   3.363   0.535   1.156
 8332SOL     OW25894   5.915   5.456   2.378
 8332SOL    HW125895   5.932   5.489   2.285
 8332SOL    HW225896   5.988   5.394   2.405
 8333SOL     OW25897   0.768   5.028   6.816
 8333SOL    HW125898   0.715   5.009   6.899
 8333SOL    HW225899   0.718   5.092   6.757
 8334SOL     OW25900   3.427   1.849   4.812
 8334SOL    HW125901   3.504   1.844   4.749
 8334SOL    HW225902   3.446   1.919   4.882
 8335SOL     OW25903   4.654   1.256   0.152
 8335SOL    HW125904   4.708   1.173   0.140
 8335SOL    HW225905   4.587   1.263   0.078
 8336SOL     OW25906   0.572   4.675   2.653
 8336SOL    HW125907   0.544   4.604   2.718
 8336SOL    HW225908   0.553   4.765   2.691
 8337SOL     OW25909   0.781   6.447   4.147
 8337SOL    HW125910   0.875   6.413   4.139
 8337SOL    HW225911   0.781   6.547   4.145
 8338SOL     OW25912   3.908   5.250   1.456
 8338SOL    HW125913   3.836   5.302   1.502
 8338SOL    HW225914   3.997   5.290   1.477
 8339SOL     OW25915   6.751   0.506   2.031
 8339SOL    HW125916   6.756   0.592   2.082
 8339SOL    HW225917   6.664   0.501   1.982
 8340SOL     OW25918   5.017   3.699   1.278
 8340SOL    HW125919   4.922   3.669   1.278
 8340SOL    HW225920   5.066   3.652   1.351
 8341SOL     OW25921   2.117   0.335   6.582
 8341SOL    HW125922   2.204   0.345   6.533
 8341SOL    HW225923   2.045   0.313   6.517
 8342SOL     OW25924   4.733   0.076   0.265
 8342SOL    HW125925   4.673   0.031   0.331
 8342SOL    HW225926   4.829   0.062   0.293
 8343SOL     OW25927   0.413   6.178   3.741
 8343SOL    HW125928   0.415   6.158   3.643
 8343SOL    HW225929   0.506   6.193   3.774
 8344SOL     OW25930   6.241   5.912   4.648
 8344SOL    HW125931   6.181   5.886   4.573
 8344SOL    HW225932   6.292   5.832   4.679
 8345SOL     OW25933   4.210   2.185   2.733
 8345SOL    HW125934   4.129   2.165   2.677
 8345SOL    HW225935   4.192   2.159   2.827
 8346SOL     OW25936   3.572   4.620   0.764
 8346SOL    HW125937   3.531   4.550   0.706
 8346SOL    HW225938   3.643   4.668   0.713
 8347SOL     OW25939   3.142   6.839   4.945
 8347SOL    HW125940   3.125   6.750   4.988
 8347SOL    HW225941   3.084   6.849   4.864
 8348SOL     OW25942   2.086   1.369   1.170
 8348SOL    HW125943   2.179   1.332   1.178
 8348SOL    HW225944   2.082   1.434   1.095
 8349SOL     OW25945   0.901   6.968   2.487
 8349SOL    HW125946   0.842   6.888   2.491
 8349SOL    HW225947   0.912   7.006   2.579
 8350SOL     OW25948   2.785   6.327   6.317
 8350SOL    HW125949   2.753   6.242   6.359
 8350SOL    HW225950   2.714   6.363   6.258
 8351SOL     OW25951   4.989   5.635   4.622
 8351SOL    HW125952   4.914   5.656   4.684
 8351SOL    HW225953   4.981   5.691   4.540
 8352SOL     OW25954   0.508   0.063   3.359
 8352SOL    HW125955   0.474   6.995   3.393
 8352SOL    HW225956   0.525   0.056   3.260
 8353SOL     OW25957   0.237   3.936   1.611
 8353SOL    HW125958   0.245   3.925   1.512
 8353SOL    HW225959   0.263   4.029   1.637
 8354SOL     OW25960   3.347   0.252   4.619
 8354SOL    HW125961   3.398   0.219   4.697
 8354SOL    HW225962   3.274   0.187   4.596
 8355SOL     OW25963   2.568   1.272   5.359
 8355SOL    HW125964   2.527   1.344   5.304
 8355SOL    HW225965   2.657   1.303   5.393
 8356SOL     OW25966   1.108   0.479   1.783
 8356SOL    HW125967   1.083   0.574   1.768
 8356SOL    HW225968   1.062   0.421   1.715
 8357SOL     OW25969   3.354   6.938   5.523
 8357SOL    HW125970   3.347   6.886   5.608
 8357SOL    HW225971   3.294   6.898   5.453
 8358SOL     OW25972   1.918   3.972   5.101
 8358SOL    HW125973   1.943   4.056   5.148
 8358SOL    HW225974   1.827   3.982   5.060
 8359SOL     OW25975   3.295   0.840   5.285
 8359SOL    HW125976   3.315   0.888   5.370
 8359SOL    HW225977   3.331   0.747   5.290
 8360SOL     OW25978   4.301   6.804   0.401
 8360SOL    HW125979   4.309   6.747   0.483
 8360SOL    HW225980   4.232   6.874   0.415
 8361SOL     OW25981   3.223   0.605   1.623
 8361SOL    HW125982   3.269   0.693   1.637
 8361SOL    HW225983   3.273   0.533   1.671
 8362SOL     OW25984   5.025   1.266   0.800
 8362SOL    HW125985   5.118   1.282   0.832
 8362SOL    HW225986   4.996   1.174   0.827
 8363SOL     OW25987   4.477   2.656   6.675
 8363SOL    HW125988   4.493   2.589   6.748
 8363SOL    HW225989   4.556   2.718   6.669
 8364SOL     OW25990   0.342   2.117   4.210
 8364SOL    HW125991   0.415   2.185   4.214
 8364SOL    HW225992   0.307   2.111   4.117
 8365SOL     OW25993   1.579   2.840   2.654
 8365SOL    HW125994   1.657   2.896   2.682
 8365SOL    HW225995   1.512   2.838   2.728
 8366SOL     OW25996   2.358   5.287   1.091
 8366SOL    HW125997   2.363   5.335   1.003
 8366SOL    HW225998   2.319   5.195   1.077
 8367SOL     OW25999   3.761   5.945   4.829
 8367SOL    HW126000   3.782   6.033   4.871
 8367SOL    HW226001   3.775   5.872   4.895
 8368SOL     OW26002   0.646   6.848   6.855
 8368SOL    HW126003   0.713   6.858   6.781
 8368SOL    HW226004   0.692   6.855   6.943
 8369SOL     OW26005   0.504   0.220   5.861
 8369SOL    HW126006   0.535   0.139   5.812
 8369SOL    HW226007   0.414   0.203   5.901
 8370SOL     OW26008   2.809   1.582   6.095
 8370SOL    HW126009   2.856   1.669   6.080
 8370SOL    HW226010   2.715   1.601   6.127
 8371SOL     OW26011   1.893   4.651   0.879
 8371SOL    HW126012   1.829   4.584   0.918
 8371SOL    HW226013   1.897   4.639   0.780
 8372SOL     OW26014   1.382   5.482   1.606
 8372SOL    HW126015   1.388   5.385   1.581
 8372SOL    HW226016   1.472   5.524   1.596
 8373SOL     OW26017   2.071   6.522   3.921
 8373SOL    HW126018   2.165   6.511   3.889
 8373SOL    HW226019   2.014   6.450   3.881
 8374SOL     OW26020   6.863   0.282   4.899
 8374SOL    HW126021   6.950   0.239   4.874
 8374SOL    HW226022   6.839   0.351   4.831
 8375SOL     OW26023   4.002   6.307   5.098
 8375SOL    HW126024   3.970   6.378   5.035
 8375SOL    HW226025   4.063   6.348   5.166
 8376SOL     OW26026   0.507   1.432   4.531
 8376SOL    HW126027   0.601   1.448   4.562
 8376SOL    HW226028   0.445   1.491   4.583
 8377SOL     OW26029   5.461   6.318   0.789
 8377SOL    HW126030   5.488   6.287   0.698
 8377SOL    HW226031   5.543   6.347   0.839
 8378SOL     OW26032   3.780   4.941   2.892
 8378SOL    HW126033   3.855   4.933   2.826
 8378SOL    HW226034   3.693   4.946   2.843
 8379SOL     OW26035   5.346   2.720   1.052
 8379SOL    HW126036   5.440   2.726   1.019
 8379SOL    HW226037   5.346   2.705   1.151
 8380SOL     OW26038   1.030   0.767   1.668
 8380SOL    HW126039   0.988   0.820   1.742
 8380SOL    HW226040   1.116   0.810   1.640
 8381SOL     OW26041   0.499   2.845   4.326
 8381SOL    HW126042   0.482   2.873   4.421
 8381SOL    HW226043   0.413   2.847   4.275
 8382SOL     OW26044   1.935   6.955   2.387
 8382SOL    HW126045   1.976   6.871   2.350
 8382SOL    HW226046   1.932   6.949   2.487
 8383SOL     OW26047   3.257   6.957   6.041
 8383SOL    HW126048   3.202   0.021   6.046
 8383SOL    HW226049   3.230   6.896   6.115
 8384SOL     OW26050   6.328   1.721   1.653
 8384SOL    HW126051   6.242   1.741   1.605
 8384SOL    HW226052   6.309   1.660   1.730
 8385SOL     OW26053   4.900   2.605   6.979
 8385SOL    HW126054   4.909   2.551   6.896
 8385SOL    HW226055   4.851   2.690   6.958
 8386SOL     OW26056   1.721   6.381   1.997
 8386SOL    HW126057   1.705   6.402   2.094
 8386SOL    HW226058   1.663   6.305   1.969
 8387SOL     OW26059   1.298   1.552   1.601
 8387SOL    HW126060   1.239   1.566   1.521
 8387SOL    HW226061   1.243   1.517   1.677
 8388SOL     OW26062   2.509   0.080   0.619
 8388SOL    HW126063   2.547   0.009   0.678
 8388SOL    HW226064   2.499   0.165   0.670
 8389SOL     OW26065   6.679   3.910   4.005
 8389SOL    HW126066   6.597   3.865   3.969
 8389SOL    HW226067   6.749   3.912   3.934
 8390SOL     OW26068   4.705   6.475   0.021
 8390SOL    HW126069   4.735   6.423   6.962
 8390SOL    HW226070   4.754   6.444   0.103
 8391SOL     OW26071   5.779   4.614   0.757
 8391SOL    HW126072   5.792   4.631   0.660
 8391SOL    HW226073   5.860   4.569   0.795
 8392SOL     OW26074   6.954   4.857   5.284
 8392SOL    HW126075   0.009   4.800   5.251
 8392SOL    HW226076   6.908   4.899   5.206
 8393SOL     OW26077   0.285   0.410   2.382
 8393SOL    HW126078   0.257   0.491   2.434
 8393SOL    HW226079   0.239   0.409   2.293
 8394SOL     OW26080   0.289   2.962   2.018
 8394SOL    HW126081   0.211   2.998   1.965
 8394SOL    HW226082   0.365   2.942   1.956
 8395SOL     OW26083   2.107   6.088   4.799
 8395SOL    HW126084   2.154   6.160   4.748
 8395SOL    HW226085   2.059   6.028   4.735
 8396SOL     OW26086   4.117   5.201   3.098
 8396SOL    HW126087   4.166   5.116   3.117
 8396SOL    HW226088   4.057   5.188   3.019
 8397SOL     OW26089   2.278   0.783   2.721
 8397SOL    HW126090   2.225   0.867   2.729
 8397SOL    HW226091   2.370   0.805   2.688
 8398SOL     OW26092   4.276   2.431   6.736
 8398SOL    HW126093   4.239   2.434   6.829
 8398SOL    HW226094   4.225   2.493   6.677
 8399SOL     OW26095   6.075   6.236   0.463
 8399SOL    HW126096   6.016   6.311   0.492
 8399SOL    HW226097   6.044   6.151   0.506
 8400SOL     OW26098   1.584   1.023   4.185
 8400SOL    HW126099   1.596   0.947   4.122
 8400SOL    HW226100   1.663   1.031   4.245
 8401SOL     OW26101   3.106   1.634   6.201
 8401SOL    HW126102   3.184   1.592   6.155
 8401SOL    HW226103   3.086   1.723   6.160
 8402SOL     OW26104   3.622   2.065   5.634
 8402SOL    HW126105   3.629   2.005   5.714
 8402SOL    HW226106   3.549   2.031   5.574
 8403SOL     OW26107   1.242   2.646   4.432
 8403SOL    HW126108   1.154   2.685   4.459
 8403SOL    HW226109   1.255   2.658   4.334
 8404SOL     OW26110   4.270   6.693   5.885
 8404SOL    HW126111   4.271   6.722   5.980
 8404SOL    HW226112   4.181   6.715   5.844
 8405SOL     OW26113   2.473   7.008   5.623
 8405SOL    HW126114   2.475   0.011   5.526
 8405SOL    HW226115   2.437   6.916   5.635
 8406SOL     OW26116   5.744   6.832   0.402
 8406SOL    HW126117   5.712   6.744   0.367
 8406SOL    HW226118   5.679   6.868   0.468
 8407SOL     OW26119   3.675   6.247   4.036
 8407SOL    HW126120   3.615   6.327   4.043
 8407SOL    HW226121   3.666   6.191   4.119
 8408SOL     OW26122   5.518   3.731   2.400
 8408SOL    HW126123   5.423   3.738   2.429
 8408SOL    HW226124   5.556   3.644   2.431
 8409SOL     OW26125   5.651   2.977   4.153
 8409SOL    HW126126   5.618   2.933   4.069
 8409SOL    HW226127   5.580   2.971   4.223
 8410SOL     OW26128   5.250   0.792   1.558
 8410SOL    HW126129   5.176   0.753   1.503
 8410SOL    HW226130   5.291   0.721   1.614
 8411SOL     OW26131   0.374   4.864   6.796
 8411SOL    HW126132   0.368   4.772   6.758
 8411SOL    HW226133   0.408   4.927   6.726
 8412SOL     OW26134   3.271   2.122   1.397
 8412SOL    HW126135   3.315   2.200   1.353
 8412SOL    HW226136   3.272   2.043   1.335
 8413SOL     OW26137   4.068   5.543   0.374
 8413SOL    HW126138   4.111   5.580   0.292
 8413SOL    HW226139   4.136   5.494   0.429
 8414SOL     OW26140   3.205   5.261   3.485
 8414SOL    HW126141   3.233   5.245   3.580
 8414SOL    HW226142   3.281   5.301   3.433
 8415SOL     OW26143   6.779   5.986   3.755
 8415SOL    HW126144   6.818   5.990   3.663
 8415SOL    HW226145   6.853   5.985   3.822
 8416SOL     OW26146   5.348   3.590   2.618
 8416SOL    HW126147   5.437   3.546   2.623
 8416SOL    HW226148   5.277   3.525   2.648
 8417SOL     OW26149   1.717   4.452   5.802
 8417SOL    HW126150   1.721   4.546   5.768
 8417SOL    HW226151   1.671   4.394   5.735
 8418SOL     OW26152   5.561   4.900   1.086
 8418SOL    HW126153   5.541   4.848   1.003
 8418SOL    HW226154   5.617   4.844   1.147
 8419SOL     OW26155   5.448   0.554   2.080
 8419SOL    HW126156   5.456   0.459   2.049
 8419SOL    HW226157   5.414   0.555   2.174
 8420SOL     OW26158   4.597   6.565   0.292
 8420SOL    HW126159   4.652   6.482   0.285
 8420SOL    HW226160   4.503   6.541   0.318
 8421SOL     OW26161   2.069   5.516   6.608
 8421SOL    HW126162   2.128   5.521   6.528
 8421SOL    HW226163   2.021   5.603   6.619
 8422SOL     OW26164   3.917   1.047   1.240
 8422SOL    HW126165   3.924   1.081   1.147
 8422SOL    HW226166   3.957   1.114   1.303
 8423SOL     OW26167   3.360   4.762   5.952
 8423SOL    HW126168   3.451   4.721   5.965
 8423SOL    HW226169   3.315   4.772   6.040
 8424SOL     OW26170   1.981   2.687   2.956
 8424SOL    HW126171   2.059   2.709   2.897
 8424SOL    HW226172   1.924   2.619   2.911
 8425SOL     OW26173   5.004   5.707   0.031
 8425SOL    HW126174   5.090   5.748   0.002
 8425SOL    HW226175   5.010   5.683   0.128
 8426SOL     OW26176   3.312   3.504   3.993
 8426SOL    HW126177   3.289   3.552   4.078
 8426SOL    HW226178   3.326   3.407   4.014
 8427SOL     OW26179   3.816   3.228   4.651
 8427SOL    HW126180   3.760   3.145   4.647
 8427SOL    HW226181   3.906   3.206   4.689
 8428SOL     OW26182   0.374   4.512   1.669
 8428SOL    HW126183   0.332   4.586   1.617
 8428SOL    HW226184   0.468   4.538   1.694
 8429SOL     OW26185   1.418   5.635   3.682
 8429SOL    HW126186   1.514   5.608   3.679
 8429SOL    HW226187   1.408   5.718   3.737
 8430SOL     OW26188   3.264   4.878   3.573
 8430SOL    HW126189   3.213   4.963   3.590
 8430SOL    HW226190   3.252   4.850   3.478
 8431SOL     OW26191   3.200   5.132   0.704
 8431SOL    HW126192   3.162   5.040   0.704
 8431SOL    HW226193   3.299   5.127   0.717
 8432SOL     OW26194   6.043   6.726   6.427
 8432SOL    HW126195   6.061   6.632   6.455
 8432SOL    HW226196   6.062   6.788   6.504
 8433SOL     OW26197   5.137   2.470   0.367
 8433SOL    HW126198   5.127   2.439   0.462
 8433SOL    HW226199   5.227   2.512   0.355
 8434SOL     OW26200   2.750   6.537   4.604
 8434SOL    HW126201   2.682   6.465   4.599
 8434SOL    HW226202   2.715   6.613   4.659
 8435SOL     OW26203   6.006   1.011   1.501
 8435SOL    HW126204   5.938   1.080   1.528
 8435SOL    HW226205   6.010   1.005   1.402
 8436SOL     OW26206   4.108   0.193   3.572
 8436SOL    HW126207   4.027   0.210   3.628
 8436SOL    HW226208   4.090   0.223   3.478
 8437SOL     OW26209   2.171   0.113   3.640
 8437SOL    HW126210   2.175   0.131   3.541
 8437SOL    HW226211   2.245   0.052   3.666
 8438SOL     OW26212   2.379   4.700   2.630
 8438SOL    HW126213   2.452   4.745   2.579
 8438SOL    HW226214   2.342   4.763   2.697
 8439SOL     OW26215   6.028   5.005   2.481
 8439SOL    HW126216   6.039   5.088   2.535
 8439SOL    HW226217   5.933   4.974   2.488
 8440SOL     OW26218   0.799   2.711   3.974
 8440SOL    HW126219   0.745   2.635   4.012
 8440SOL    HW226220   0.749   2.753   3.898
 8441SOL     OW26221   5.934   6.726   6.799
 8441SOL    HW126222   5.906   6.774   6.882
 8441SOL    HW226223   5.943   6.792   6.724
 8442SOL     OW26224   2.947   1.613   5.368
 8442SOL    HW126225   2.991   1.670   5.299
 8442SOL    HW226226   2.880   1.668   5.419
 8443SOL     OW26227   1.981   5.721   3.242
 8443SOL    HW126228   2.068   5.729   3.194
 8443SOL    HW226229   1.911   5.688   3.178
 8444SOL     OW26230   2.451   5.723   3.462
 8444SOL    HW126231   2.453   5.703   3.364
 8444SOL    HW226232   2.512   5.660   3.510
 8445SOL     OW26233   4.345   6.450   0.370
 8445SOL    HW126234   4.255   6.491   0.351
 8445SOL    HW226235   4.332   6.362   0.414
 8446SOL     OW26236   4.455   5.109   6.540
 8446SOL    HW126237   4.491   5.183   6.596
 8446SOL    HW226238   4.474   5.021   6.584
 8447SOL     OW26239   4.645   2.253   2.251
 8447SOL    HW126240   4.662   2.201   2.167
 8447SOL    HW226241   4.585   2.330   2.231
 8448SOL     OW26242   4.568   6.112   4.303
 8448SOL    HW126243   4.481   6.092   4.258
 8448SOL    HW226244   4.571   6.207   4.332
 8449SOL     OW26245   6.753   2.424   4.164
 8449SOL    HW126246   6.791   2.391   4.078
 8449SOL    HW226247   6.781   2.362   4.238
 8450SOL     OW26248   0.649   6.340   1.295
 8450SOL    HW126249   0.688   6.365   1.206
 8450SOL    HW226250   0.550   6.354   1.293
 8451SOL     OW26251   4.130   2.481   6.988
 8451SOL    HW126252   4.056   2.442   0.024
 8451SOL    HW226253   4.167   2.561   0.015
 8452SOL     OW26254   6.547   1.400   2.902
 8452SOL    HW126255   6.632   1.349   2.889
 8452SOL    HW226256   6.568   1.491   2.939
 8453SOL     OW26257   0.130   4.088   6.305
 8453SOL    HW126258   0.173   4.002   6.332
 8453SOL    HW226259   0.152   4.158   6.373
 8454SOL     OW26260   7.004   0.130   1.209
 8454SOL    HW126261   6.943   0.135   1.288
 8454SOL    HW226262   6.951   0.144   1.126
 8455SOL     OW26263   5.795   2.897   1.808
 8455SOL    HW126264   5.776   2.825   1.741
 8455SOL    HW226265   5.888   2.887   1.842
 8456SOL     OW26266   4.605   6.330   2.836
 8456SOL    HW126267   4.616   6.317   2.935
 8456SOL    HW226268   4.642   6.251   2.788
 8457SOL     OW26269   6.428   6.214   4.937
 8457SOL    HW126270   6.345   6.196   4.990
 8457SOL    HW226271   6.508   6.184   4.989
 8458SOL     OW26272   3.301   1.582   6.608
 8458SOL    HW126273   3.233   1.642   6.650
 8458SOL    HW226274   3.388   1.591   6.656
 8459SOL     OW26275   3.176   6.803   2.269
 8459SOL    HW126276   3.081   6.828   2.248
 8459SOL    HW226277   3.238   6.873   2.233
 8460SOL     OW26278   4.415   3.625   5.341
 8460SOL    HW126279   4.356   3.583   5.272
 8460SOL    HW226280   4.505   3.644   5.301
 8461SOL     OW26281   6.964   4.594   3.736
 8461SOL    HW126282   0.035   4.561   3.761
 8461SOL    HW226283   6.964   4.694   3.734
 8462SOL     OW26284   3.300   2.505   6.448
 8462SOL    HW126285   3.321   2.409   6.426
 8462SOL    HW226286   3.382   2.561   6.434
 8463SOL     OW26287   6.729   6.964   0.814
 8463SOL    HW126288   6.801   6.911   0.768
 8463SOL    HW226289   6.683   0.003   0.747
 8464SOL     OW26290   5.455   3.642   5.027
 8464SOL    HW126291   5.516   3.571   5.059
 8464SOL    HW226292   5.453   3.717   5.093
 8465SOL     OW26293   1.300   2.668   0.978
 8465SOL    HW126294   1.335   2.623   1.060
 8465SOL    HW226295   1.229   2.611   0.936
 8466SOL     OW26296   0.563   6.726   5.122
 8466SOL    HW126297   0.469   6.756   5.103
 8466SOL    HW226298   0.627   6.799   5.098
 8467SOL     OW26299   4.521   6.966   1.117
 8467SOL    HW126300   4.578   6.900   1.068
 8467SOL    HW226301   4.436   6.981   1.065
 8468SOL     OW26302   3.972   2.143   6.317
 8468SOL    HW126303   4.065   2.146   6.283
 8468SOL    HW226304   3.912   2.101   6.249
 8469SOL     OW26305   3.309   1.142   6.021
 8469SOL    HW126306   3.214   1.175   6.014
 8469SOL    HW226307   3.371   1.219   6.007
 8470SOL     OW26308   2.000   4.001   0.325
 8470SOL    HW126309   1.972   3.979   0.232
 8470SOL    HW226310   1.999   3.918   0.380
 8471SOL     OW26311   4.098   0.789   3.625
 8471SOL    HW126312   4.135   0.787   3.717
 8471SOL    HW226313   4.157   0.845   3.566
 8472SOL     OW26314   6.675   0.752   5.265
 8472SOL    HW126315   6.636   0.796   5.345
 8472SOL    HW226316   6.615   0.766   5.186
 8473SOL     OW26317   6.576   6.393   0.400
 8473SOL    HW126318   6.674   6.399   0.378
 8473SOL    HW226319   6.547   6.478   0.444
 8474SOL     OW26320   3.441   3.141   1.856
 8474SOL    HW126321   3.408   3.048   1.874
 8474SOL    HW226322   3.366   3.206   1.868
 8475SOL     OW26323   6.518   2.424   3.926
 8475SOL    HW126324   6.491   2.463   4.014
 8475SOL    HW226325   6.463   2.465   3.853
 8476SOL     OW26326   6.664   2.153   1.170
 8476SOL    HW126327   6.755   2.111   1.176
 8476SOL    HW226328   6.614   2.138   1.255
 8477SOL     OW26329   5.141   0.043   0.953
 8477SOL    HW126330   5.187   0.077   1.034
 8477SOL    HW226331   5.054   0.090   0.941
 8478SOL     OW26332   1.842   0.052   6.089
 8478SOL    HW126333   1.845   0.003   6.176
 8478SOL    HW226334   1.748   0.058   6.058
 8479SOL     OW26335   0.968   3.082   1.148
 8479SOL    HW126336   0.914   2.999   1.131
 8479SOL    HW226337   0.912   3.149   1.196
 8480SOL     OW26338   4.474   1.784   6.947
 8480SOL    HW126339   4.424   1.863   6.982
 8480SOL    HW226340   4.413   1.725   6.895
 8481SOL     OW26341   4.436   2.530   4.709
 8481SOL    HW126342   4.359   2.594   4.710
 8481SOL    HW226343   4.480   2.532   4.619
 8482SOL     OW26344   4.290   6.067   1.609
 8482SOL    HW126345   4.198   6.065   1.571
 8482SOL    HW226346   4.355   6.094   1.537
 8483SOL     OW26347   4.457   6.267   2.157
 8483SOL    HW126348   4.405   6.342   2.200
 8483SOL    HW226349   4.414   6.243   2.070
 8484SOL     OW26350   0.271   6.453   3.554
 8484SOL    HW126351   0.204   6.387   3.588
 8484SOL    HW226352   0.309   6.420   3.468
 8485SOL     OW26353   3.779   2.727   0.127
 8485SOL    HW126354   3.860   2.756   0.076
 8485SOL    HW226355   3.774   2.777   0.213
 8486SOL     OW26356   2.979   1.576   2.902
 8486SOL    HW126357   3.067   1.550   2.863
 8486SOL    HW226358   2.981   1.672   2.929
 8487SOL     OW26359   5.491   1.070   5.968
 8487SOL    HW126360   5.537   1.157   5.989
 8487SOL    HW226361   5.507   1.047   5.872
 8488SOL     OW26362   4.995   5.925   0.292
 8488SOL    HW126363   5.071   5.943   0.230
 8488SOL    HW226364   4.964   5.831   0.282
 8489SOL     OW26365   6.376   2.086   1.058
 8489SOL    HW126366   6.301   2.022   1.041
 8489SOL    HW226367   6.410   2.073   1.152
 8490SOL     OW26368   4.733   6.524   3.727
 8490SOL    HW126369   4.700   6.449   3.669
 8490SOL    HW226370   4.817   6.496   3.773
 8491SOL     OW26371   2.821   6.338   1.035
 8491SOL    HW126372   2.915   6.348   1.003
 8491SOL    HW226373   2.809   6.246   1.074
 8492SOL     OW26374   4.652   3.763   5.587
 8492SOL    HW126375   4.639   3.792   5.493
 8492SOL    HW226376   4.712   3.684   5.590
 8493SOL     OW26377   2.374   2.734   6.865
 8493SOL    HW126378   2.308   2.764   6.796
 8493SOL    HW226379   2.327   2.683   6.937
 8494SOL     OW26380   3.351   5.469   1.635
 8494SOL    HW126381   3.443   5.480   1.675
 8494SOL    HW226382   3.322   5.374   1.647
 8495SOL     OW26383   6.015   5.262   2.571
 8495SOL    HW126384   5.919   5.280   2.593
 8495SOL    HW226385   6.072   5.285   2.650
 8496SOL     OW26386   1.183   2.812   1.502
 8496SOL    HW126387   1.234   2.898   1.512
 8496SOL    HW226388   1.156   2.800   1.406
 8497SOL     OW26389   6.429   1.017   3.576
 8497SOL    HW126390   6.486   1.049   3.500
 8497SOL    HW226391   6.376   0.937   3.546
 8498SOL     OW26392   6.957   6.723   3.093
 8498SOL    HW126393   6.925   6.724   3.188
 8498SOL    HW226394   6.888   6.677   3.036
 8499SOL     OW26395   1.937   4.852   6.655
 8499SOL    HW126396   1.887   4.890   6.578
 8499SOL    HW226397   1.880   4.857   6.738
 8500SOL     OW26398   1.685   5.981   5.273
 8500SOL    HW126399   1.589   6.010   5.282
 8500SOL    HW226400   1.729   5.982   5.362
 8501SOL     OW26401   0.580   2.265   6.887
 8501SOL    HW126402   0.595   2.298   6.794
 8501SOL    HW226403   0.485   2.281   6.913
 8502SOL     OW26404   1.387   3.748   1.478
 8502SOL    HW126405   1.324   3.787   1.410
 8502SOL    HW226406   1.432   3.821   1.528
 8503SOL     OW26407   1.314   6.198   4.014
 8503SOL    HW126408   1.224   6.164   4.039
 8503SOL    HW226409   1.326   6.193   3.915
 8504SOL     OW26410   2.388   4.780   2.187
 8504SOL    HW126411   2.338   4.706   2.142
 8504SOL    HW226412   2.481   4.784   2.151
 8505SOL     OW26413   5.192   3.436   3.827
 8505SOL    HW126414   5.260   3.506   3.806
 8505SOL    HW226415   5.239   3.349   3.847
 8506SOL     OW26416   6.958   0.896   6.359
 8506SOL    HW126417   6.875   0.944   6.331
 8506SOL    HW226418   6.962   0.890   6.458
 8507SOL     OW26419   3.593   1.017   5.485
 8507SOL    HW126420   3.641   0.992   5.401
 8507SOL    HW226421   3.607   1.115   5.504
 8508SOL     OW26422   6.031   1.687   5.172
 8508SOL    HW126423   5.971   1.738   5.233
 8508SOL    HW226424   6.126   1.711   5.192
 8509SOL     OW26425   4.911   1.636   4.142
 8509SOL    HW126426   5.001   1.658   4.181
 8509SOL    HW226427   4.922   1.598   4.050
 8510SOL     OW26428   6.127   4.270   2.494
 8510SOL    HW126429   6.038   4.316   2.499
 8510SOL    HW226430   6.121   4.182   2.541
 8511SOL     OW26431   5.850   3.572   2.249
 8511SOL    HW126432   5.822   3.651   2.195
 8511SOL    HW226433   5.893   3.504   2.189
 8512SOL     OW26434   3.163   1.933   1.838
 8512SOL    HW126435   3.097   1.998   1.876
 8512SOL    HW226436   3.223   1.900   1.911
 8513SOL     OW26437   5.845   4.408   1.037
 8513SOL    HW126438   5.852   4.355   0.953
 8513SOL    HW226439   5.928   4.396   1.091
 8514SOL     OW26440   2.583   2.340   3.887
 8514SOL    HW126441   2.549   2.380   3.972
 8514SOL    HW226442   2.527   2.374   3.810
 8515SOL     OW26443   5.517   1.796   0.597
 8515SOL    HW126444   5.465   1.864   0.546
 8515SOL    HW226445   5.454   1.738   0.649
 8516SOL     OW26446   5.786   2.344   2.003
 8516SOL    HW126447   5.822   2.375   2.091
 8516SOL    HW226448   5.744   2.420   1.955
 8517SOL     OW26449   1.172   2.655   6.075
 8517SOL    HW126450   1.229   2.731   6.044
 8517SOL    HW226451   1.092   2.690   6.124
 8518SOL     OW26452   4.379   4.061   6.871
 8518SOL    HW126453   4.303   4.049   6.808
 8518SOL    HW226454   4.390   4.159   6.891
 8519SOL     OW26455   1.326   3.998   2.098
 8519SOL    HW126456   1.289   3.957   2.015
 8519SOL    HW226457   1.403   3.943   2.131
 8520SOL     OW26458   3.262   2.393   0.273
 8520SOL    HW126459   3.349   2.441   0.272
 8520SOL    HW226460   3.217   2.408   0.362
 8521SOL     OW26461   2.276   5.512   6.086
 8521SOL    HW126462   2.267   5.421   6.127
 8521SOL    HW226463   2.318   5.504   5.996
 8522SOL     OW26464   1.335   6.249   1.733
 8522SOL    HW126465   1.328   6.163   1.682
 8522SOL    HW226466   1.400   6.310   1.687
 8523SOL     OW26467   2.133   6.831   6.500
 8523SOL    HW126468   2.224   6.866   6.475
 8523SOL    HW226469   2.130   6.733   6.486
 8524SOL     OW26470   0.521   2.748   4.855
 8524SOL    HW126471   0.424   2.749   4.880
 8524SOL    HW226472   0.531   2.711   4.763
 8525SOL     OW26473   6.140   3.890   3.333
 8525SOL    HW126474   6.141   3.927   3.426
 8525SOL    HW226475   6.122   3.792   3.336
 8526SOL     OW26476   3.718   5.748   0.057
 8526SOL    HW126477   3.748   5.832   0.011
 8526SOL    HW226478   3.732   5.757   0.155
 8527SOL     OW26479   2.725   0.324   6.083
 8527SOL    HW126480   2.780   0.407   6.091
 8527SOL    HW226481   2.763   0.266   6.011
 8528SOL     OW26482   3.793   2.536   6.100
 8528SOL    HW126483   3.731   2.504   6.172
 8528SOL    HW226484   3.739   2.559   6.019
 8529SOL     OW26485   0.164   0.195   1.504
 8529SOL    HW126486   0.238   0.222   1.565
 8529SOL    HW226487   0.200   0.137   1.432
 8530SOL     OW26488   3.264   3.268   5.004
 8530SOL    HW126489   3.345   3.253   5.060
 8530SOL    HW226490   3.290   3.316   4.920
 8531SOL     OW26491   6.631   4.936   2.749
 8531SOL    HW126492   6.588   4.847   2.736
 8531SOL    HW226493   6.600   5.000   2.678
 8532SOL     OW26494   3.720   5.414   4.404
 8532SOL    HW126495   3.638   5.360   4.386
 8532SOL    HW226496   3.761   5.383   4.490
 8533SOL     OW26497   1.967   6.915   5.344
 8533SOL    HW126498   2.047   6.885   5.396
 8533SOL    HW226499   1.979   7.011   5.317
 8534SOL     OW26500   6.369   2.884   4.160
 8534SOL    HW126501   6.354   2.810   4.227
 8534SOL    HW226502   6.424   2.848   4.084
 8535SOL     OW26503   6.855   1.221   4.796
 8535SOL    HW126504   6.893   1.129   4.786
 8535SOL    HW226505   6.792   1.240   4.720
 8536SOL     OW26506   5.902   2.065   4.559
 8536SOL    HW126507   5.864   2.145   4.513
 8536SOL    HW226508   5.988   2.038   4.516
 8537SOL     OW26509   5.601   1.700   2.016
 8537SOL    HW126510   5.574   1.719   1.922
 8537SOL    HW226511   5.548   1.758   2.078
 8538SOL     OW26512   0.727   1.498   6.252
 8538SOL    HW126513   0.796   1.429   6.232
 8538SOL    HW226514   0.649   1.486   6.190
 8539SOL     OW26515   5.935   0.942   1.979
 8539SOL    HW126516   6.004   0.883   2.020
 8539SOL    HW226517   5.844   0.901   1.991
 8540SOL     OW26518   5.000   1.388   6.887
 8540SOL    HW126519   4.939   1.390   6.966
 8540SOL    HW226520   5.071   1.319   6.901
 8541SOL     OW26521   2.758   2.293   4.497
 8541SOL    HW126522   2.745   2.310   4.594
 8541SOL    HW226523   2.672   2.308   4.448
 8542SOL     OW26524   2.952   4.932   6.884
 8542SOL    HW126525   2.916   4.864   6.820
 8542SOL    HW226526   3.039   4.967   6.849
 8543SOL     OW26527   3.379   0.998   0.039
 8543SOL    HW126528   3.335   1.005   6.969
 8543SOL    HW226529   3.368   1.085   0.088
 8544SOL     OW26530   5.640   3.017   4.543
 8544SOL    HW126531   5.688   2.930   4.553
 8544SOL    HW226532   5.706   3.088   4.518
 8545SOL     OW26533   4.652   6.568   4.135
 8545SOL    HW126534   4.562   6.604   4.113
 8545SOL    HW226535   4.696   6.535   4.052
 8546SOL     OW26536   0.535   0.316   3.475
 8546SOL    HW126537   0.497   0.227   3.451
 8546SOL    HW226538   0.627   0.325   3.437
 8547SOL     OW26539   1.490   6.850   6.216
 8547SOL    HW126540   1.528   6.907   6.143
 8547SOL    HW226541   1.403   6.889   6.246
 8548SOL     OW26542   6.485   3.513   5.928
 8548SOL    HW126543   6.526   3.582   5.867
 8548SOL    HW226544   6.407   3.553   5.975
 8549SOL     OW26545   1.415   3.254   5.006
 8549SOL    HW126546   1.346   3.225   4.939
 8549SOL    HW226547   1.372   3.264   5.096
 8550SOL     OW26548   1.929   5.103   6.408
 8550SOL    HW126549   1.958   5.056   6.324
 8550SOL    HW226550   1.871   5.181   6.383
 8551SOL     OW26551   2.515   3.581   6.777
 8551SOL    HW126552   2.487   3.575   6.681
 8551SOL    HW226553   2.448   3.636   6.828
 8552SOL     OW26554   2.518   0.210   3.013
 8552SOL    HW126555   2.479   0.212   3.105
 8552SOL    HW226556   2.549   0.301   2.987
 8553SOL     OW26557   4.228   4.507   6.721
 8553SOL    HW126558   4.243   4.592   6.670
 8553SOL    HW226559   4.315   4.461   6.736
 8554SOL     OW26560   0.550   4.704   0.977
 8554SOL    HW126561   0.634   4.757   0.963
 8554SOL    HW226562   0.495   4.707   0.894
 8555SOL     OW26563   2.262   1.228   3.889
 8555SOL    HW126564   2.264   1.211   3.790
 8555SOL    HW226565   2.314   1.156   3.936
 8556SOL     OW26566   1.520   5.789   5.086
 8556SOL    HW126567   1.554   5.779   5.180
 8556SOL    HW226568   1.425   5.818   5.088
 8557SOL     OW26569   6.720   0.017   2.574
 8557SOL    HW126570   6.660   0.015   2.494
 8557SOL    HW226571   6.677   6.988   2.649
 8558SOL     OW26572   1.962   4.676   3.230
 8558SOL    HW126573   2.031   4.603   3.225
 8558SOL    HW226574   1.997   4.757   3.183
 8559SOL     OW26575   1.639   0.639   2.594
 8559SOL    HW126576   1.681   0.700   2.526
 8559SOL    HW226577   1.669   0.545   2.576
 8560SOL     OW26578   0.002   6.574   1.895
 8560SOL    HW126579   6.992   6.584   1.990
 8560SOL    HW226580   6.975   6.641   1.838
 8561SOL     OW26581   3.624   0.548   2.881
 8561SOL    HW126582   3.654   0.543   2.976
 8561SOL    HW226583   3.610   0.644   2.855
 8562SOL     OW26584   4.077   6.050   6.115
 8562SOL    HW126585   4.031   6.136   6.093
 8562SOL    HW226586   4.172   6.054   6.086
 8563SOL     OW26587   1.155   4.630   1.000
 8563SOL    HW126588   1.181   4.714   0.953
 8563SOL    HW226589   1.196   4.551   0.952
 8564SOL     OW26590   3.112   0.613   5.181
 8564SOL    HW126591   3.028   0.643   5.136
 8564SOL    HW226592   3.089   0.553   5.258
 8565SOL     OW26593   3.715   5.494   1.218
 8565SOL    HW126594   3.773   5.417   1.189
 8565SOL    HW226595   3.688   5.481   1.314
 8566SOL     OW26596   1.223   0.113   1.492
 8566SOL    HW126597   1.220   0.079   1.586
 8566SOL    HW226598   1.208   0.037   1.429
 8567SOL     OW26599   0.492   2.461   3.735
 8567SOL    HW126600   0.507   2.366   3.760
 8567SOL    HW226601   0.419   2.467   3.667
 8568SOL     OW26602   5.924   1.134   6.753
 8568SOL    HW126603   5.862   1.143   6.675
 8568SOL    HW226604   5.876   1.089   6.828
 8569SOL     OW26605   4.393   1.011   5.866
 8569SOL    HW126606   4.420   0.981   5.958
 8569SOL    HW226607   4.322   0.951   5.831
 8570SOL     OW26608   1.787   1.473   4.756
 8570SOL    HW126609   1.726   1.467   4.677
 8570SOL    HW226610   1.828   1.565   4.759
 8571SOL     OW26611   0.969   5.801   5.051
 8571SOL    HW126612   0.990   5.810   4.954
 8571SOL    HW226613   0.886   5.853   5.073
 8572SOL     OW26614   3.363   5.164   6.443
 8572SOL    HW126615   3.356   5.139   6.347
 8572SOL    HW226616   3.370   5.081   6.499
 8573SOL     OW26617   3.528   6.423   6.372
 8573SOL    HW126618   3.491   6.481   6.300
 8573SOL    HW226619   3.590   6.355   6.331
 8574SOL     OW26620   0.264   6.156   6.429
 8574SOL    HW126621   0.200   6.230   6.408
 8574SOL    HW226622   0.318   6.181   6.510
 8575SOL     OW26623   2.410   2.743   4.155
 8575SOL    HW126624   2.357   2.754   4.238
 8575SOL    HW226625   2.409   2.828   4.102
 8576SOL     OW26626   1.514   4.177   5.885
 8576SOL    HW126627   1.576   4.119   5.938
 8576SOL    HW226628   1.442   4.211   5.945
 8577SOL     OW26629   1.159   6.540   4.664
 8577SOL    HW126630   1.212   6.476   4.608
 8577SOL    HW226631   1.150   6.504   4.756
 8578SOL     OW26632   6.032   6.358   4.149
 8578SOL    HW126633   5.982   6.273   4.163
 8578SOL    HW226634   6.127   6.348   4.180
 8579SOL     OW26635   2.171   0.566   1.780
 8579SOL    HW126636   2.157   0.654   1.825
 8579SOL    HW226637   2.128   0.494   1.833
 8580SOL     OW26638   2.357   6.056   1.594
 8580SOL    HW126639   2.315   5.987   1.536
 8580SOL    HW226640   2.430   6.103   1.544
 8581SOL     OW26641   3.399   3.897   1.369
 8581SOL    HW126642   3.330   3.969   1.364
 8581SOL    HW226643   3.387   3.834   1.292
 8582SOL     OW26644   4.752   4.226   4.476
 8582SOL    HW126645   4.698   4.258   4.398
 8582SOL    HW226646   4.814   4.299   4.506
 8583SOL     OW26647   5.166   0.348   4.364
 8583SOL    HW126648   5.234   0.320   4.297
 8583SOL    HW226649   5.077   0.308   4.340
 8584SOL     OW26650   0.642   4.904   5.923
 8584SOL    HW126651   0.626   4.950   6.010
 8584SOL    HW226652   0.629   4.968   5.848
 8585SOL     OW26653   0.294   6.487   6.096
 8585SOL    HW126654   0.330   6.544   6.169
 8585SOL    HW226655   0.234   6.542   6.037
 8586SOL     OW26656   2.965   6.738   1.904
 8586SOL    HW126657   2.895   6.710   1.838
 8586SOL    HW226658   3.040   6.672   1.903
 8587SOL     OW26659   1.331   0.257   3.922
 8587SOL    HW126660   1.271   0.184   3.954
 8587SOL    HW226661   1.392   0.285   3.997
 8588SOL     OW26662   2.913   0.718   0.129
 8588SOL    HW126663   2.898   0.660   0.210
 8588SOL    HW226664   2.852   0.797   0.133
 8589SOL     OW26665   5.207   2.760   5.841
 8589SOL    HW126666   5.279   2.797   5.782
 8589SOL    HW226667   5.119   2.799   5.814
 8590SOL     OW26668   6.839   6.309   3.438
 8590SOL    HW126669   6.816   6.402   3.410
 8590SOL    HW226670   6.776   6.279   3.509
 8591SOL     OW26671   0.275   4.141   0.497
 8591SOL    HW126672   0.350   4.140   0.431
 8591SOL    HW226673   0.292   4.073   0.569
 8592SOL     OW26674   6.511   2.828   6.562
 8592SOL    HW126675   6.453   2.858   6.637
 8592SOL    HW226676   6.568   2.751   6.591
 8593SOL     OW26677   1.657   1.775   0.292
 8593SOL    HW126678   1.744   1.735   0.264
 8593SOL    HW226679   1.633   1.849   0.230
 8594SOL     OW26680   4.389   2.667   5.428
 8594SOL    HW126681   4.393   2.767   5.422
 8594SOL    HW226682   4.331   2.641   5.506
 8595SOL     OW26683   0.494   2.188   3.831
 8595SOL    HW126684   0.535   2.164   3.919
 8595SOL    HW226685   0.460   2.106   3.786
 8596SOL     OW26686   0.979   5.190   2.918
 8596SOL    HW126687   0.998   5.165   2.823
 8596SOL    HW226688   0.881   5.183   2.935
 8597SOL     OW26689   4.652   1.801   1.005
 8597SOL    HW126690   4.605   1.725   1.049
 8597SOL    HW226691   4.586   1.856   0.954
 8598SOL     OW26692   5.738   0.056   0.271
 8598SOL    HW126693   5.825   0.076   0.226
 8598SOL    HW226694   5.746   6.992   0.325
 8599SOL     OW26695   1.458   2.499   5.098
 8599SOL    HW126696   1.503   2.442   5.167
 8599SOL    HW226697   1.373   2.535   5.135
 8600SOL     OW26698   5.199   4.594   5.074
 8600SOL    HW126699   5.229   4.689   5.069
 8600SOL    HW226700   5.102   4.592   5.101
 8601SOL     OW26701   1.232   1.618   4.636
 8601SOL    HW126702   1.229   1.688   4.565
 8601SOL    HW226703   1.238   1.527   4.594
 8602SOL     OW26704   3.229   5.847   1.929
 8602SOL    HW126705   3.250   5.749   1.929
 8602SOL    HW226706   3.278   5.891   2.004
 8603SOL     OW26707   4.706   5.897   0.893
 8603SOL    HW126708   4.717   5.907   0.992
 8603SOL    HW226709   4.796   5.898   0.850
 8604SOL     OW26710   0.148   3.277   5.152
 8604SOL    HW126711   0.194   3.321   5.075
 8604SOL    HW226712   0.051   3.266   5.131
 8605SOL     OW26713   2.374   5.708   4.157
 8605SOL    HW126714   2.284   5.689   4.196
 8605SOL    HW226715   2.376   5.801   4.121
 8606SOL     OW26716   2.000   3.032   6.399
 8606SOL    HW126717   2.087   3.043   6.447
 8606SOL    HW226718   1.948   2.957   6.439
 8607SOL     OW26719   3.491   5.600   0.463
 8607SOL    HW126720   3.591   5.606   0.471
 8607SOL    HW226721   3.461   5.508   0.486
 8608SOL     OW26722   3.548   4.962   2.757
 8608SOL    HW126723   3.520   4.888   2.695
 8608SOL    HW226724   3.531   5.050   2.713
 8609SOL     OW26725   5.263   0.960   2.686
 8609SOL    HW126726   5.173   0.972   2.645
 8609SOL    HW226727   5.285   1.038   2.745
 8610SOL     OW26728   1.190   2.034   2.776
 8610SOL    HW126729   1.266   1.974   2.750
 8610SOL    HW226730   1.225   2.124   2.801
 8611SOL     OW26731   3.049   1.720   4.418
 8611SOL    HW126732   3.139   1.762   4.409
 8611SOL    HW226733   2.981   1.777   4.373
 8612SOL     OW26734   2.563   3.556   0.685
 8612SOL    HW126735   2.517   3.468   0.683
 8612SOL    HW226736   2.495   3.629   0.693
 8613SOL     OW26737   3.088   2.030   1.096
 8613SOL    HW126738   3.133   1.964   1.035
 8613SOL    HW226739   3.139   2.117   1.094
 8614SOL     OW26740   0.992   2.941   2.952
 8614SOL    HW126741   1.051   2.906   3.025
 8614SOL    HW226742   1.033   3.023   2.912
 8615SOL     OW26743   4.372   1.228   4.660
 8615SOL    HW126744   4.446   1.165   4.682
 8615SOL    HW226745   4.299   1.178   4.614
 8616SOL     OW26746   3.106   4.575   1.724
 8616SOL    HW126747   3.022   4.572   1.778
 8616SOL    HW226748   3.122   4.669   1.692
 8617SOL     OW26749   6.397   1.924   6.214
 8617SOL    HW126750   6.355   1.869   6.141
 8617SOL    HW226751   6.485   1.884   6.238
 8618SOL     OW26752   6.128   4.695   0.950
 8618SOL    HW126753   6.101   4.676   0.855
 8618SOL    HW226754   6.046   4.708   1.005
 8619SOL     OW26755   3.723   4.910   2.198
 8619SOL    HW126756   3.671   4.848   2.140
 8619SOL    HW226757   3.668   4.937   2.277
 8620SOL     OW26758   1.418   0.183   3.310
 8620SOL    HW126759   1.395   0.260   3.251
 8620SOL    HW226760   1.469   0.216   3.389
 8621SOL     OW26761   5.563   1.884   3.341
 8621SOL    HW126762   5.633   1.956   3.335
 8621SOL    HW226763   5.509   1.898   3.424
 8622SOL     OW26764   5.731   3.188   0.895
 8622SOL    HW126765   5.727   3.152   0.802
 8622SOL    HW226766   5.826   3.203   0.921
 8623SOL     OW26767   0.678   3.947   4.261
 8623SOL    HW126768   0.685   3.874   4.193
 8623SOL    HW226769   0.700   4.035   4.218
 8624SOL     OW26770   1.676   4.085   5.036
 8624SOL    HW126771   1.583   4.049   5.041
 8624SOL    HW226772   1.705   4.117   5.126
 8625SOL     OW26773   4.360   0.650   6.180
 8625SOL    HW126774   4.290   0.592   6.139
 8625SOL    HW226775   4.410   0.598   6.249
 8626SOL     OW26776   3.272   3.046   5.947
 8626SOL    HW126777   3.224   3.028   5.861
 8626SOL    HW226778   3.208   3.036   6.023
 8627SOL     OW26779   1.141   1.889   3.210
 8627SOL    HW126780   1.059   1.912   3.263
 8627SOL    HW226781   1.114   1.839   3.128
 8628SOL     OW26782   6.325   6.383   1.314
 8628SOL    HW126783   6.288   6.358   1.225
 8628SOL    HW226784   6.383   6.464   1.305
 8629SOL     OW26785   1.329   5.581   4.871
 8629SOL    HW126786   1.235   5.612   4.857
 8629SOL    HW226787   1.345   5.565   4.968
 8630SOL     OW26788   5.616   4.397   4.302
 8630SOL    HW126789   5.628   4.491   4.270
 8630SOL    HW226790   5.546   4.351   4.247
 8631SOL     OW26791   0.333   4.914   6.212
 8631SOL    HW126792   0.422   4.904   6.256
 8631SOL    HW226793   0.329   5.003   6.166
 8632SOL     OW26794   3.765   5.283   4.685
 8632SOL    HW126795   3.754   5.212   4.754
 8632SOL    HW226796   3.862   5.307   4.678
 8633SOL     OW26797   5.321   1.650   5.937
 8633SOL    HW126798   5.232   1.617   5.906
 8633SOL    HW226799   5.309   1.714   6.013
 8634SOL     OW26800   4.495   2.927   0.017
 8634SOL    HW126801   4.506   3.006   6.978
 8634SOL    HW226802   4.454   2.956   0.104
 8635SOL     OW26803   5.340   3.395   6.354
 8635SOL    HW126804   5.349   3.322   6.422
 8635SOL    HW226805   5.430   3.414   6.315
 8636SOL     OW26806   5.755   5.582   0.868
 8636SOL    HW126807   5.714   5.671   0.891
 8636SOL    HW226808   5.805   5.590   0.782
 8637SOL     OW26809   2.361   1.471   6.919
 8637SOL    HW126810   2.401   1.474   7.011
 8637SOL    HW226811   2.424   1.426   6.857
 8638SOL     OW26812   3.420   2.370   5.313
 8638SOL    HW126813   3.472   2.302   5.261
 8638SOL    HW226814   3.334   2.390   5.265
 8639SOL     OW26815   5.359   2.773   0.189
 8639SOL    HW126816   5.340   2.856   0.240
 8639SOL    HW226817   5.332   2.693   0.243
 8640SOL     OW26818   4.265   3.681   6.613
 8640SOL    HW126819   4.311   3.721   6.692
 8640SOL    HW226820   4.178   3.641   6.641
 8641SOL     OW26821   4.694   4.658   3.688
 8641SOL    HW126822   4.735   4.737   3.644
 8641SOL    HW226823   4.763   4.587   3.701
 8642SOL     OW26824   1.381   5.989   3.007
 8642SOL    HW126825   1.365   6.038   2.922
 8642SOL    HW226826   1.430   6.047   3.072
 8643SOL     OW26827   2.481   0.128   6.747
 8643SOL    HW126828   2.521   0.041   6.778
 8643SOL    HW226829   2.537   0.166   6.673
 8644SOL     OW26830   5.373   2.479   5.569
 8644SOL    HW126831   5.365   2.380   5.579
 8644SOL    HW226832   5.342   2.523   5.653
 8645SOL     OW26833   4.312   3.969   1.018
 8645SOL    HW126834   4.307   3.946   0.921
 8645SOL    HW226835   4.406   3.991   1.043
 8646SOL     OW26836   6.608   1.955   0.958
 8646SOL    HW126837   6.700   1.980   0.928
 8646SOL    HW226838   6.575   2.022   1.025
 8647SOL     OW26839   2.855   5.594   6.868
 8647SOL    HW126840   2.787   5.522   6.862
 8647SOL    HW226841   2.810   5.683   6.861
 8648SOL     OW26842   6.562   0.720   2.726
 8648SOL    HW126843   6.641   0.681   2.773
 8648SOL    HW226844   6.536   0.806   2.769
 8649SOL     OW26845   5.408   5.486   5.923
 8649SOL    HW126846   5.433   5.424   5.997
 8649SOL    HW226847   5.381   5.575   5.961
 8650SOL     OW26848   2.174   5.316   3.987
 8650SOL    HW126849   2.154   5.266   3.903
 8650SOL    HW226850   2.093   5.366   4.017
 8651SOL     OW26851   4.434   0.373   6.822
 8651SOL    HW126852   4.497   0.298   6.841
 8651SOL    HW226853   4.349   0.358   6.871
 8652SOL     OW26854   1.783   4.965   3.406
 8652SOL    HW126855   1.800   4.916   3.491
 8652SOL    HW226856   1.869   4.988   3.362
 8653SOL     OW26857   6.042   0.387   5.997
 8653SOL    HW126858   6.081   0.453   5.932
 8653SOL    HW226859   5.963   0.429   6.042
 8654SOL     OW26860   1.308   4.765   2.051
 8654SOL    HW126861   1.231   4.794   1.993
 8654SOL    HW226862   1.393   4.780   2.002
 8655SOL     OW26863   6.827   1.073   4.280
 8655SOL    HW126864   6.850   1.007   4.351
 8655SOL    HW226865   6.760   1.138   4.316
 8656SOL     OW26866   6.863   0.149   0.948
 8656SOL    HW126867   6.790   0.110   0.892
 8656SOL    HW226868   6.850   0.248   0.954
 8657SOL     OW26869   5.383   4.490   6.670
 8657SOL    HW126870   5.358   4.398   6.702
 8657SOL    HW226871   5.302   4.548   6.670
 8658SOL     OW26872   5.994   5.978   0.520
 8658SOL    HW126873   5.910   5.989   0.573
 8658SOL    HW226874   6.058   5.920   0.571
 8659SOL     OW26875   4.359   2.052   2.555
 8659SOL    HW126876   4.359   1.953   2.565
 8659SOL    HW226877   4.293   2.093   2.618
 8660SOL     OW26878   6.743   4.011   1.770
 8660SOL    HW126879   6.654   4.023   1.726
 8660SOL    HW226880   6.786   3.927   1.736
 8661SOL     OW26881   6.231   4.195   1.395
 8661SOL    HW126882   6.232   4.107   1.443
 8661SOL    HW226883   6.184   4.183   1.307
 8662SOL     OW26884   4.444   5.844   1.322
 8662SOL    HW126885   4.517   5.881   1.265
 8662SOL    HW226886   4.356   5.884   1.295
 8663SOL     OW26887   2.772   6.007   1.478
 8663SOL    HW126888   2.707   5.932   1.464
 8663SOL    HW226889   2.758   6.046   1.569
 8664SOL     OW26890   1.612   6.247   1.183
 8664SOL    HW126891   1.546   6.318   1.209
 8664SOL    HW226892   1.694   6.289   1.146
 8665SOL     OW26893   5.642   5.839   5.102
 8665SOL    HW126894   5.739   5.846   5.125
 8665SOL    HW226895   5.619   5.744   5.083
 8666SOL     OW26896   5.883   1.400   4.025
 8666SOL    HW126897   5.790   1.376   4.052
 8666SOL    HW226898   5.888   1.407   3.925
 8667SOL     OW26899   4.075   2.225   3.428
 8667SOL    HW126900   4.007   2.248   3.358
 8667SOL    HW226901   4.034   2.164   3.496
 8668SOL     OW26902   4.900   3.370   3.434
 8668SOL    HW126903   4.882   3.444   3.498
 8668SOL    HW226904   4.850   3.288   3.462
 8669SOL     OW26905   1.391   6.525   5.987
 8669SOL    HW126906   1.383   6.432   5.949
 8669SOL    HW226907   1.337   6.588   5.930
 8670SOL     OW26908   3.790   4.678   5.317
 8670SOL    HW126909   3.805   4.733   5.400
 8670SOL    HW226910   3.706   4.708   5.273
 8671SOL     OW26911   5.527   1.594   2.736
 8671SOL    HW126912   5.556   1.503   2.768
 8671SOL    HW226913   5.596   1.630   2.673
 8672SOL     OW26914   1.044   5.485   3.956
 8672SOL    HW126915   0.970   5.437   3.910
 8672SOL    HW226916   1.054   5.577   3.916
 8673SOL     OW26917   5.608   2.718   6.940
 8673SOL    HW126918   5.658   2.742   0.004
 8673SOL    HW226919   5.520   2.764   6.940
 8674SOL     OW26920   5.011   5.825   2.940
 8674SOL    HW126921   5.019   5.909   2.993
 8674SOL    HW226922   5.001   5.747   3.001
 8675SOL     OW26923   3.770   2.187   4.552
 8675SOL    HW126924   3.816   2.226   4.632
 8675SOL    HW226925   3.671   2.184   4.568
 8676SOL     OW26926   5.243   0.176   2.738
 8676SOL    HW126927   5.250   0.188   2.639
 8676SOL    HW226928   5.148   0.163   2.764
 8677SOL     OW26929   1.979   5.342   6.060
 8677SOL    HW126930   1.978   5.442   6.061
 8677SOL    HW226931   2.074   5.310   6.051
 8678SOL     OW26932   0.236   0.151   2.243
 8678SOL    HW126933   0.330   0.163   2.210
 8678SOL    HW226934   0.205   0.235   2.287
 8679SOL     OW26935   0.265   2.097   3.243
 8679SOL    HW126936   0.299   2.187   3.218
 8679SOL    HW226937   0.192   2.107   3.311
 8680SOL     OW26938   0.197   3.572   0.212
 8680SOL    HW126939   0.142   3.548   0.132
 8680SOL    HW226940   0.267   3.502   0.226
 8681SOL     OW26941   4.772   5.103   1.127
 8681SOL    HW126942   4.761   5.196   1.162
 8681SOL    HW226943   4.699   5.082   1.063
 8682SOL     OW26944   5.413   6.319   2.318
 8682SOL    HW126945   5.368   6.294   2.403
 8682SOL    HW226946   5.512   6.302   2.326
 8683SOL     OW26947   1.897   1.867   4.210
 8683SOL    HW126948   1.894   1.896   4.114
 8683SOL    HW226949   1.956   1.929   4.261
 8684SOL     OW26950   6.048   2.876   5.425
 8684SOL    HW126951   5.952   2.874   5.397
 8684SOL    HW226952   6.054   2.855   5.523
 8685SOL     OW26953   0.318   2.078   6.523
 8685SOL    HW126954   0.388   2.015   6.489
 8685SOL    HW226955   0.228   2.045   6.496
 8686SOL     OW26956   0.482   1.072   3.272
 8686SOL    HW126957   0.463   1.104   3.365
 8686SOL    HW226958   0.552   1.131   3.231
 8687SOL     OW26959   5.203   4.912   1.454
 8687SOL    HW126960   5.143   4.936   1.377
 8687SOL    HW226961   5.289   4.962   1.446
 8688SOL     OW26962   1.130   5.262   6.417
 8688SOL    HW126963   1.061   5.215   6.473
 8688SOL    HW226964   1.120   5.234   6.321
 8689SOL     OW26965   3.567   3.755   0.999
 8689SOL    HW126966   3.588   3.669   0.950
 8689SOL    HW226967   3.488   3.741   1.058
 8690SOL     OW26968   1.621   3.838   3.766
 8690SOL    HW126969   1.717   3.864   3.754
 8690SOL    HW226970   1.609   3.742   3.741
 8691SOL     OW26971   3.697   1.984   5.901
 8691SOL    HW126972   3.765   2.046   5.940
 8691SOL    HW226973   3.706   1.894   5.944
 8692SOL     OW26974   3.045   1.384   4.715
 8692SOL    HW126975   3.055   1.481   4.692
 8692SOL    HW226976   2.969   1.374   4.779
 8693SOL     OW26977   5.541   0.607   0.100
 8693SOL    HW126978   5.453   0.652   0.086
 8693SOL    HW226979   5.561   0.545   0.024
 8694SOL     OW26980   4.557   0.813   4.889
 8694SOL    HW126981   4.629   0.840   4.952
 8694SOL    HW226982   4.596   0.799   4.797
 8695SOL     OW26983   4.347   3.041   6.159
 8695SOL    HW126984   4.433   3.091   6.152
 8695SOL    HW226985   4.322   3.032   6.256
 8696SOL     OW26986   1.867   4.936   5.725
 8696SOL    HW126987   1.865   4.978   5.634
 8696SOL    HW226988   1.959   4.943   5.763
 8697SOL     OW26989   0.083   2.989   6.258
 8697SOL    HW126990   0.084   2.978   6.158
 8697SOL    HW226991   7.010   3.011   6.288
 8698SOL     OW26992   4.737   5.789   5.047
 8698SOL    HW126993   4.725   5.830   4.956
 8698SOL    HW226994   4.649   5.788   5.094
 8699SOL     OW26995   1.614   2.277   5.157
 8699SOL    HW126996   1.627   2.243   5.064
 8699SOL    HW226997   1.666   2.221   5.221
 8700SOL     OW26998   1.191   1.136   4.058
 8700SOL    HW126999   1.100   1.096   4.071
 8700SOL    HW227000   1.189   1.231   4.089
 8701SOL     OW27001   1.391   0.818   6.710
 8701SOL    HW127002   1.365   0.888   6.643
 8701SOL    HW227003   1.471   0.768   6.677
 8702SOL     OW27004   5.367   5.225   1.630
 8702SOL    HW127005   5.348   5.169   1.712
 8702SOL    HW227006   5.455   5.199   1.592
 8703SOL     OW27007   2.298   4.914   7.010
 8703SOL    HW127008   2.372   4.971   6.973
 8703SOL    HW227009   2.223   4.909   6.945
 8704SOL     OW27010   0.288   4.201   3.410
 8704SOL    HW127011   0.322   4.225   3.319
 8704SOL    HW227012   0.189   4.212   3.413
 8705SOL     OW27013   5.454   0.832   6.373
 8705SOL    HW127014   5.449   0.737   6.343
 8705SOL    HW227015   5.391   0.847   6.449
 8706SOL     OW27016   5.459   1.914   6.943
 8706SOL    HW127017   5.506   1.827   6.959
 8706SOL    HW227018   5.474   1.943   6.848
 8707SOL     OW27019   6.803   1.402   6.261
 8707SOL    HW127020   6.825   1.455   6.179
 8707SOL    HW227021   6.887   1.378   6.308
 8708SOL     OW27022   4.419   1.561   2.398
 8708SOL    HW127023   4.335   1.515   2.368
 8708SOL    HW227024   4.482   1.568   2.322
 8709SOL     OW27025   0.386   6.523   0.378
 8709SOL    HW127026   0.389   6.596   0.310
 8709SOL    HW227027   0.323   6.452   0.349
 8710SOL     OW27028   2.259   3.018   3.793
 8710SOL    HW127029   2.256   2.939   3.731
 8710SOL    HW227030   2.354   3.036   3.819
 8711SOL     OW27031   1.925   6.667   3.021
 8711SOL    HW127032   1.854   6.611   3.063
 8711SOL    HW227033   1.902   6.763   3.031
 8712SOL     OW27034   3.967   2.168   4.761
 8712SOL    HW127035   4.058   2.180   4.721
 8712SOL    HW227036   3.969   2.195   4.858
 8713SOL     OW27037   6.117   3.057   4.020
 8713SOL    HW127038   6.206   3.013   4.033
 8713SOL    HW227039   6.104   3.079   3.924
 8714SOL     OW27040   0.736   0.489   5.335
 8714SOL    HW127041   0.761   0.583   5.362
 8714SOL    HW227042   0.795   0.424   5.384
 8715SOL     OW27043   4.239   6.994   1.380
 8715SOL    HW127044   4.163   0.000   1.439
 8715SOL    HW227045   4.322   6.982   1.434
 8716SOL     OW27046   0.138   0.111   0.871
 8716SOL    HW127047   0.190   0.064   0.942
 8716SOL    HW227048   0.046   0.132   0.905
 8717SOL     OW27049   2.968   3.234   4.592
 8717SOL    HW127050   2.952   3.207   4.497
 8717SOL    HW227051   3.012   3.159   4.641
 8718SOL     OW27052   1.976   3.506   5.392
 8718SOL    HW127053   2.039   3.526   5.467
 8718SOL    HW227054   1.961   3.407   5.386
 8719SOL     OW27055   4.211   0.067   6.721
 8719SOL    HW127056   4.168   0.071   6.632
 8719SOL    HW227057   4.298   0.018   6.714
 8720SOL     OW27058   6.696   5.355   5.922
 8720SOL    HW127059   6.662   5.447   5.903
 8720SOL    HW227060   6.796   5.356   5.922
 8721SOL     OW27061   6.894   2.721   1.726
 8721SOL    HW127062   6.879   2.623   1.710
 8721SOL    HW227063   6.966   2.733   1.794
 8722SOL     OW27064   3.659   0.971   0.367
 8722SOL    HW127065   3.714   0.978   0.449
 8722SOL    HW227066   3.705   0.911   0.301
 8723SOL     OW27067   4.622   6.432   1.774
 8723SOL    HW127068   4.566   6.492   1.832
 8723SOL    HW227069   4.682   6.488   1.717
 8724SOL     OW27070   5.228   6.678   4.792
 8724SOL    HW127071   5.207   6.585   4.821
 8724SOL    HW227072   5.150   6.715   4.741
 8725SOL     OW27073   1.399   6.263   5.910
 8725SOL    HW127074   1.475   6.243   5.848
 8725SOL    HW227075   1.321   6.206   5.887
 8726SOL     OW27076   0.026   1.682   3.619
 8726SOL    HW127077   7.008   1.591   3.600
 8726SOL    HW227078   7.001   1.749   3.559
 8727SOL     OW27079   5.449   6.997   2.176
 8727SOL    HW127080   5.409   6.922   2.226
 8727SOL    HW227081   5.491   0.042   2.240
 8728SOL     OW27082   6.479   0.812   2.110
 8728SOL    HW127083   6.448   0.791   2.018
 8728SOL    HW227084   6.436   0.749   2.175
 8729SOL     OW27085   3.646   5.176   5.253
 8729SOL    HW127086   3.558   5.153   5.294
 8729SOL    HW227087   3.631   5.204   5.158
 8730SOL     OW27088   5.844   4.404   2.708
 8730SOL    HW127089   5.809   4.314   2.683
 8730SOL    HW227090   5.893   4.397   2.795
 8731SOL     OW27091   1.595   2.734   3.288
 8731SOL    HW127092   1.501   2.703   3.300
 8731SOL    HW227093   1.598   2.834   3.292
 8732SOL     OW27094   5.719   4.758   1.287
 8732SOL    HW127095   5.662   4.703   1.348
 8732SOL    HW227096   5.725   4.851   1.321
 8733SOL     OW27097   2.163   5.375   1.308
 8733SOL    HW127098   2.185   5.427   1.391
 8733SOL    HW227099   2.247   5.355   1.258
 8734SOL     OW27100   0.985   4.045   2.107
 8734SOL    HW127101   0.988   4.085   2.015
 8734SOL    HW227102   1.058   4.084   2.162
 8735SOL     OW27103   0.971   2.777   0.470
 8735SOL    HW127104   0.983   2.738   0.378
 8735SOL    HW227105   0.965   2.702   0.536
 8736SOL     OW27106   0.024   5.353   0.616
 8736SOL    HW127107   6.988   5.272   0.598
 8736SOL    HW227108   0.114   5.342   0.575
 8737SOL     OW27109   1.952   6.613   0.001
 8737SOL    HW127110   1.995   6.654   6.941
 8737SOL    HW227111   1.890   6.541   6.992
 8738SOL     OW27112   2.784   5.194   4.290
 8738SOL    HW127113   2.804   5.100   4.264
 8738SOL    HW227114   2.694   5.220   4.254
 8739SOL     OW27115   6.668   5.724   6.889
 8739SOL    HW127116   6.655   5.630   6.922
 8739SOL    HW227117   6.582   5.774   6.897
 8740SOL     OW27118   4.751   1.092   4.405
 8740SOL    HW127119   4.769   1.030   4.328
 8740SOL    HW227120   4.666   1.143   4.387
 8741SOL     OW27121   2.389   1.155   2.319
 8741SOL    HW127122   2.318   1.085   2.328
 8741SOL    HW227123   2.401   1.201   2.407
 8742SOL     OW27124   4.882   6.431   1.883
 8742SOL    HW127125   4.787   6.414   1.858
 8742SOL    HW227126   4.933   6.345   1.880
 8743SOL     OW27127   1.777   0.253   1.863
 8743SOL    HW127128   1.691   0.267   1.913
 8743SOL    HW227129   1.758   0.251   1.765
 8744SOL     OW27130   3.980   2.990   6.658
 8744SOL    HW127131   3.989   2.926   6.582
 8744SOL    HW227132   4.037   3.070   6.641
 8745SOL     OW27133   6.657   2.332   6.455
 8745SOL    HW127134   6.702   2.283   6.530
 8745SOL    HW227135   6.649   2.272   6.375
 8746SOL     OW27136   4.387   5.480   4.772
 8746SOL    HW127137   4.414   5.438   4.858
 8746SOL    HW227138   4.351   5.410   4.710
 8747SOL     OW27139   0.146   2.346   3.214
 8747SOL    HW127140   0.235   2.378   3.183
 8747SOL    HW227141   0.124   2.389   3.302
 8748SOL     OW27142   0.018   1.168   4.586
 8748SOL    HW127143   0.116   1.173   4.604
 8748SOL    HW227144   7.010   1.248   4.532
 8749SOL     OW27145   2.218   0.204   4.999
 8749SOL    HW127146   2.203   0.145   4.920
 8749SOL    HW227147   2.314   0.231   5.002
 8750SOL     OW27148   3.112   3.654   4.845
 8750SOL    HW127149   3.158   3.652   4.934
 8750SOL    HW227150   3.114   3.562   4.806
 8751SOL     OW27151   6.143   1.587   2.119
 8751SOL    HW127152   6.213   1.658   2.125
 8751SOL    HW227153   6.126   1.550   2.210
 8752SOL     OW27154   3.227   3.263   6.722
 8752SOL    HW127155   3.325   3.246   6.708
 8752SOL    HW227156   3.194   3.209   6.799
 8753SOL     OW27157   3.451   1.479   6.372
 8753SOL    HW127158   3.400   1.556   6.410
 8753SOL    HW227159   3.417   1.394   6.411
 8754SOL     OW27160   2.104   3.467   5.943
 8754SOL    HW127161   2.147   3.536   5.885
 8754SOL    HW227162   2.173   3.403   5.975
 8755SOL     OW27163   2.515   1.267   1.001
 8755SOL    HW127164   2.438   1.290   0.941
 8755SOL    HW227165   2.600   1.270   0.949
 8756SOL     OW27166   1.229   3.369   4.259
 8756SOL    HW127167   1.219   3.270   4.257
 8756SOL    HW227168   1.320   3.393   4.292
 8757SOL     OW27169   3.711   6.028   6.386
 8757SOL    HW127170   3.735   5.953   6.325
 8757SOL    HW227171   3.625   6.006   6.433
 8758SOL     OW27172   4.780   5.741   2.808
 8758SOL    HW127173   4.762   5.643   2.805
 8758SOL    HW227174   4.867   5.758   2.853
 8759SOL     OW27175   4.660   2.861   6.677
 8759SOL    HW127176   4.607   2.915   6.611
 8759SOL    HW227177   4.754   2.851   6.644
 8760SOL     OW27178   2.248   0.565   5.127
 8760SOL    HW127179   2.314   0.498   5.159
 8760SOL    HW227180   2.278   0.657   5.153
 8761SOL     OW27181   6.235   2.087   1.949
 8761SOL    HW127182   6.249   2.181   1.980
 8761SOL    HW227183   6.234   2.085   1.849
 8762SOL     OW27184   1.263   4.073   3.361
 8762SOL    HW127185   1.260   4.156   3.306
 8762SOL    HW227186   1.266   3.993   3.301
 8763SOL     OW27187   6.684   6.523   6.230
 8763SOL    HW127188   6.764   6.562   6.276
 8763SOL    HW227189   6.602   6.545   6.283
 8764SOL     OW27190   5.498   6.719   5.022
 8764SOL    HW127191   5.405   6.689   5.041
 8764SOL    HW227192   5.519   6.702   4.925
 8765SOL     OW27193   5.591   6.902   3.517
 8765SOL    HW127194   5.584   6.844   3.437
 8765SOL    HW227195   5.505   6.952   3.530
 8766SOL     OW27196   4.660   4.976   4.564
 8766SOL    HW127197   4.644   4.972   4.663
 8766SOL    HW227198   4.648   5.070   4.532
 8767SOL     OW27199   4.880   5.413   3.275
 8767SOL    HW127200   4.906   5.331   3.326
 8767SOL    HW227201   4.785   5.436   3.294
 8768SOL     OW27202   1.175   2.654   0.027
 8768SOL    HW127203   1.269   2.678   0.049
 8768SOL    HW227204   1.173   2.586   6.974
 8769SOL     OW27205   0.321   0.828   3.455
 8769SOL    HW127206   0.309   0.747   3.397
 8769SOL    HW227207   0.358   0.903   3.399
 8770SOL     OW27208   4.528   4.447   2.240
 8770SOL    HW127209   4.499   4.388   2.165
 8770SOL    HW227210   4.463   4.523   2.249
 8771SOL     OW27211   1.180   1.861   6.441
 8771SOL    HW127212   1.152   1.808   6.361
 8771SOL    HW227213   1.198   1.798   6.517
 8772SOL     OW27214   4.719   0.579   6.188
 8772SOL    HW127215   4.805   0.548   6.229
 8772SOL    HW227216   4.654   0.603   6.260
 8773SOL     OW27217   5.259   2.469   3.669
 8773SOL    HW127218   5.204   2.518   3.738
 8773SOL    HW227219   5.303   2.536   3.609
 8774SOL     OW27220   1.687   0.762   6.937
 8774SOL    HW127221   1.675   0.861   6.937
 8774SOL    HW227222   1.636   0.722   6.861
 8775SOL     OW27223   5.554   0.020   5.636
 8775SOL    HW127224   5.577   6.992   5.721
 8775SOL    HW227225   5.468   7.005   5.600
 8776SOL     OW27226   4.219   3.005   0.095
 8776SOL    HW127227   4.290   2.971   0.157
 8776SOL    HW227228   4.156   2.931   0.072
 8777SOL     OW27229   6.591   4.283   3.214
 8777SOL    HW127230   6.617   4.327   3.128
 8777SOL    HW227231   6.545   4.196   3.193
 8778SOL     OW27232   5.901   3.338   5.792
 8778SOL    HW127233   5.807   3.310   5.771
 8778SOL    HW227234   5.901   3.401   5.869
 8779SOL     OW27235   2.811   4.912   2.243
 8779SOL    HW127236   2.775   5.004   2.258
 8779SOL    HW227237   2.762   4.869   2.168
 8780SOL     OW27238   0.373   6.451   3.083
 8780SOL    HW127239   0.412   6.448   2.991
 8780SOL    HW227240   0.273   6.459   3.076
 8781SOL     OW27241   4.998   0.881   3.372
 8781SOL    HW127242   5.007   0.819   3.449
 8781SOL    HW227243   4.910   0.867   3.327
 8782SOL     OW27244   6.482   6.620   1.327
 8782SOL    HW127245   6.519   6.571   1.406
 8782SOL    HW227246   6.548   6.618   1.252
 8783SOL     OW27247   6.695   4.677   4.141
 8783SOL    HW127248   6.672   4.725   4.225
 8783SOL    HW227249   6.794   4.666   4.134
 8784SOL     OW27250   6.118   4.571   5.891
 8784SOL    HW127251   6.149   4.558   5.986
 8784SOL    HW227252   6.048   4.503   5.870
 8785SOL     OW27253   5.453   3.965   0.033
 8785SOL    HW127254   5.355   3.962   0.055
 8785SOL    HW227255   5.498   3.885   0.072
 8786SOL     OW27256   2.662   0.864   0.403
 8786SOL    HW127257   2.671   0.787   0.466
 8786SOL    HW227258   2.592   0.927   0.437
 8787SOL     OW27259   3.323   1.326   1.682
 8787SOL    HW127260   3.283   1.360   1.597
 8787SOL    HW227261   3.389   1.393   1.716
 8788SOL     OW27262   6.324   0.567   5.257
 8788SOL    HW127263   6.280   0.485   5.221
 8788SOL    HW227264   6.312   0.642   5.192
 8789SOL     OW27265   6.085   6.191   4.446
 8789SOL    HW127266   6.139   6.273   4.463
 8789SOL    HW227267   6.139   6.127   4.391
 8790SOL     OW27268   0.316   0.335   6.239
 8790SOL    HW127269   0.247   0.266   6.263
 8790SOL    HW227270   0.347   0.382   6.322
 8791SOL     OW27271   5.099   6.136   5.336
 8791SOL    HW127272   5.168   6.185   5.283
 8791SOL    HW227273   5.128   6.042   5.351
 8792SOL     OW27274   2.708   5.889   3.052
 8792SOL    HW127275   2.695   5.790   3.039
 8792SOL    HW227276   2.629   5.927   3.100
 8793SOL     OW27277   1.318   4.694   2.724
 8793SOL    HW127278   1.291   4.621   2.787
 8793SOL    HW227279   1.344   4.654   2.636
 8794SOL     OW27280   4.642   6.968   2.496
 8794SOL    HW127281   4.735   6.931   2.502
 8794SOL    HW227282   4.606   6.985   2.587
 8795SOL     OW27283   1.471   4.566   5.568
 8795SOL    HW127284   1.474   4.497   5.640
 8795SOL    HW227285   1.544   4.633   5.585
 8796SOL     OW27286   4.229   2.171   4.699
 8796SOL    HW127287   4.270   2.080   4.711
 8796SOL    HW227288   4.270   2.234   4.765
 8797SOL     OW27289   0.380   0.301   6.846
 8797SOL    HW127290   0.338   0.273   6.932
 8797SOL    HW227291   0.470   0.258   6.837
 8798SOL     OW27292   5.419   5.309   6.478
 8798SOL    HW127293   5.367   5.241   6.427
 8798SOL    HW227294   5.517   5.299   6.457
 8799SOL     OW27295   2.530   4.687   3.701
 8799SOL    HW127296   2.569   4.691   3.794
 8799SOL    HW227297   2.440   4.643   3.705
 8800SOL     OW27298   6.622   4.339   5.451
 8800SOL    HW127299   6.706   4.284   5.445
 8800SOL    HW227300   6.642   4.432   5.420
 8801SOL     OW27301   7.018   1.201   5.082
 8801SOL    HW127302   6.999   1.281   5.139
 8801SOL    HW227303   0.055   1.227   5.005
 8802SOL     OW27304   2.214   0.167   6.841
 8802SOL    HW127305   2.297   0.129   6.799
 8802SOL    HW227306   2.197   0.258   6.805
 8803SOL     OW27307   0.247   6.217   6.924
 8803SOL    HW127308   0.270   6.311   6.949
 8803SOL    HW227309   0.148   6.207   6.916
 8804SOL     OW27310   2.495   6.903   2.099
 8804SOL    HW127311   2.437   6.880   2.177
 8804SOL    HW227312   2.498   7.003   2.089
 8805SOL     OW27313   3.165   6.176   3.759
 8805SOL    HW127314   3.265   6.176   3.765
 8805SOL    HW227315   3.127   6.144   3.846
 8806SOL     OW27316   3.347   4.873   1.927
 8806SOL    HW127317   3.324   4.853   1.832
 8806SOL    HW227318   3.423   4.815   1.956
 8807SOL     OW27319   4.770   0.561   6.743
 8807SOL    HW127320   4.778   0.562   6.843
 8807SOL    HW227321   4.675   0.576   6.718
 8808SOL     OW27322   5.957   2.794   6.860
 8808SOL    HW127323   5.874   2.739   6.858
 8808SOL    HW227324   6.037   2.735   6.858
 8809SOL     OW27325   4.462   5.025   3.276
 8809SOL    HW127326   4.505   4.936   3.259
 8809SOL    HW227327   4.390   5.015   3.344
 8810SOL     OW27328   5.911   0.539   5.002
 8810SOL    HW127329   5.934   0.620   5.056
 8810SOL    HW227330   5.830   0.495   5.040
 8811SOL     OW27331   3.672   1.082   2.848
 8811SOL    HW127332   3.641   1.167   2.891
 8811SOL    HW227333   3.663   1.090   2.749
 8812SOL     OW27334   2.037   0.863   0.389
 8812SOL    HW127335   1.993   0.808   0.459
 8812SOL    HW227336   1.968   0.907   0.332
 8813SOL     OW27337   2.162   5.114   1.988
 8813SOL    HW127338   2.262   5.119   1.991
 8813SOL    HW227339   2.124   5.207   1.980
 8814SOL     OW27340   6.143   0.114   0.470
 8814SOL    HW127341   6.165   0.067   0.555
 8814SOL    HW227342   6.045   0.134   0.468
 8815SOL     OW27343   5.637   6.733   0.716
 8815SOL    HW127344   5.545   6.722   0.754
 8815SOL    HW227345   5.640   6.817   0.662
 8816SOL     OW27346   1.356   6.715   0.679
 8816SOL    HW127347   1.369   6.711   0.580
 8816SOL    HW227348   1.421   6.653   0.724
 8817SOL     OW27349   0.357   5.022   3.753
 8817SOL    HW127350   0.326   4.958   3.682
 8817SOL    HW227351   0.442   5.066   3.723
 8818SOL     OW27352   0.828   4.547   4.453
 8818SOL    HW127353   0.919   4.549   4.411
 8818SOL    HW227354   0.806   4.454   4.480
 8819SOL     OW27355   5.847   5.231   5.510
 8819SOL    HW127356   5.890   5.179   5.436
 8819SOL    HW227357   5.749   5.212   5.510
 8820SOL     OW27358   2.874   0.799   4.829
 8820SOL    HW127359   2.777   0.823   4.831
 8820SOL    HW227360   2.889   0.728   4.760
 8821SOL     OW27361   1.810   6.087   0.688
 8821SOL    HW127362   1.715   6.092   0.719
 8821SOL    HW227363   1.856   6.175   0.706
 8822SOL     OW27364   0.466   0.638   3.757
 8822SOL    HW127365   0.405   0.604   3.686
 8822SOL    HW227366   0.416   0.701   3.817
 8823SOL     OW27367   2.243   1.069   2.743
 8823SOL    HW127368   2.257   1.110   2.833
 8823SOL    HW227369   2.306   1.110   2.677
 8824SOL     OW27370   1.398   1.808   0.107
 8824SOL    HW127371   1.484   1.850   0.080
 8824SOL    HW227372   1.327   1.878   0.114
 8825SOL     OW27373   1.876   0.982   2.160
 8825SOL    HW127374   1.811   1.055   2.136
 8825SOL    HW227375   1.934   1.013   2.235
 8826SOL     OW27376   0.422   3.878   0.587
 8826SOL    HW127377   0.375   3.836   0.509
 8826SOL    HW227378   0.492   3.815   0.621
 8827SOL     OW27379   4.314   1.585   1.935
 8827SOL    HW127380   4.330   1.626   2.025
 8827SOL    HW227381   4.305   1.658   1.867
 8828SOL     OW27382   4.174   5.699   5.947
 8828SOL    HW127383   4.232   5.755   6.006
 8828SOL    HW227384   4.088   5.747   5.930
 8829SOL     OW27385   5.096   2.818   0.951
 8829SOL    HW127386   5.184   2.784   0.983
 8829SOL    HW227387   5.090   2.808   0.852
 8830SOL     OW27388   1.580   2.203   2.247
 8830SOL    HW127389   1.669   2.160   2.258
 8830SOL    HW227390   1.518   2.140   2.199
 8831SOL     OW27391   4.618   2.702   4.268
 8831SOL    HW127392   4.601   2.674   4.363
 8831SOL    HW227393   4.624   2.621   4.210
 8832SOL     OW27394   0.165   6.858   3.037
 8832SOL    HW127395   0.076   6.812   3.045
 8832SOL    HW227396   0.234   6.806   3.089
 8833SOL     OW27397   2.622   4.484   5.929
 8833SOL    HW127398   2.711   4.469   5.972
 8833SOL    HW227399   2.631   4.554   5.858
 8834SOL     OW27400   5.645   4.511   4.906
 8834SOL    HW127401   5.693   4.437   4.954
 8834SOL    HW227402   5.550   4.515   4.937
 8835SOL     OW27403   4.658   0.911   5.581
 8835SOL    HW127404   4.575   0.961   5.558
 8835SOL    HW227405   4.639   0.847   5.656
 8836SOL     OW27406   4.988   1.624   0.201
 8836SOL    HW127407   4.943   1.563   0.136
 8836SOL    HW227408   4.925   1.698   0.227
 8837SOL     OW27409   0.286   6.509   2.418
 8837SOL    HW127410   0.203   6.460   2.445
 8837SOL    HW227411   0.321   6.470   2.333
 8838SOL     OW27412   1.910   5.361   3.219
 8838SOL    HW127413   1.885   5.282   3.163
 8838SOL    HW227414   1.836   5.429   3.217
 8839SOL     OW27415   5.286   5.677   1.834
 8839SOL    HW127416   5.337   5.596   1.862
 8839SOL    HW227417   5.284   5.743   1.909
 8840SOL     OW27418   0.110   1.855   3.116
 8840SOL    HW127419   0.171   1.795   3.167
 8840SOL    HW227420   0.126   1.950   3.143
 8841SOL     OW27421   0.718   1.081   4.575
 8841SOL    HW127422   0.649   1.019   4.538
 8841SOL    HW227423   0.672   1.154   4.626
 8842SOL     OW27424   3.418   2.868   2.393
 8842SOL    HW127425   3.468   2.897   2.312
 8842SOL    HW227426   3.401   2.769   2.389
 8843SOL     OW27427   2.275   3.271   6.060
 8843SOL    HW127428   2.287   3.276   5.961
 8843SOL    HW227429   2.362   3.246   6.103
 8844SOL     OW27430   0.437   1.355   5.771
 8844SOL    HW127431   0.414   1.258   5.763
 8844SOL    HW227432   0.430   1.398   5.681
 8845SOL     OW27433   3.345   3.705   1.169
 8845SOL    HW127434   3.262   3.731   1.120
 8845SOL    HW227435   3.336   3.612   1.203
 8846SOL     OW27436   3.401   5.073   3.905
 8846SOL    HW127437   3.359   5.000   3.960
 8846SOL    HW227438   3.459   5.032   3.834
 8847SOL     OW27439   2.450   1.345   3.064
 8847SOL    HW127440   2.376   1.400   3.026
 8847SOL    HW227441   2.454   1.258   3.017
 8848SOL     OW27442   2.717   1.918   2.481
 8848SOL    HW127443   2.632   1.963   2.508
 8848SOL    HW227444   2.770   1.895   2.562
 8849SOL     OW27445   2.843   6.291   3.072
 8849SOL    HW127446   2.791   6.221   3.024
 8849SOL    HW227447   2.806   6.381   3.050
 8850SOL     OW27448   1.571   2.148   6.875
 8850SOL    HW127449   1.527   2.083   6.813
 8850SOL    HW227450   1.514   2.160   6.956
 8851SOL     OW27451   1.344   5.874   2.070
 8851SOL    HW127452   1.291   5.907   1.993
 8851SOL    HW227453   1.313   5.782   2.094
 8852SOL     OW27454   5.117   3.504   5.750
 8852SOL    HW127455   5.123   3.489   5.849
 8852SOL    HW227456   5.114   3.602   5.731
 8853SOL     OW27457   3.190   1.469   0.253
 8853SOL    HW127458   3.154   1.549   0.204
 8853SOL    HW227459   3.261   1.499   0.317
 8854SOL     OW27460   3.044   1.276   5.745
 8854SOL    HW127461   3.019   1.211   5.673
 8854SOL    HW227462   3.037   1.232   5.834
 8855SOL     OW27463   0.236   6.204   1.242
 8855SOL    HW127464   0.255   6.109   1.269
 8855SOL    HW227465   0.197   6.253   1.319
 8856SOL     OW27466   0.350   6.375   6.669
 8856SOL    HW127467   0.413   6.297   6.670
 8856SOL    HW227468   0.259   6.345   6.699
 8857SOL     OW27469   6.755   1.734   3.849
 8857SOL    HW127470   6.746   1.764   3.944
 8857SOL    HW227471   6.843   1.764   3.812
 8858SOL     OW27472   0.634   2.453   5.338
 8858SOL    HW127473   0.560   2.460   5.270
 8858SOL    HW227474   0.604   2.396   5.414
 8859SOL     OW27475   0.216   0.785   3.711
 8859SOL    HW127476   0.154   0.707   3.713
 8859SOL    HW227477   0.242   0.805   3.617
 8860SOL     OW27478   0.117   3.016   3.213
 8860SOL    HW127479   0.101   3.114   3.224
 8860SOL    HW227480   0.151   2.998   3.120
 8861SOL     OW27481   4.399   1.644   5.982
 8861SOL    HW127482   4.345   1.562   6.001
 8861SOL    HW227483   4.416   1.693   6.067
 8862SOL     OW27484   5.445   0.802   4.150
 8862SOL    HW127485   5.458   0.772   4.244
 8862SOL    HW227486   5.447   0.723   4.088
 8863SOL     OW27487   1.517   5.023   4.137
 8863SOL    HW127488   1.594   4.968   4.105
 8863SOL    HW227489   1.480   4.983   4.221
 8864SOL     OW27490   3.420   4.904   6.567
 8864SOL    HW127491   3.344   4.841   6.581
 8864SOL    HW227492   3.469   4.880   6.483
 8865SOL     OW27493   3.010   0.582   6.024
 8865SOL    HW127494   3.049   0.668   5.991
 8865SOL    HW227495   2.961   0.598   6.110
 8866SOL     OW27496   5.524   6.851   2.883
 8866SOL    HW127497   5.521   6.759   2.924
 8866SOL    HW227498   5.432   6.889   2.881
 8867SOL     OW27499   5.838   3.549   2.520
 8867SOL    HW127500   5.830   3.560   2.421
 8867SOL    HW227501   5.934   3.532   2.543
 8868SOL     OW27502   6.587   2.612   0.939
 8868SOL    HW127503   6.614   2.695   0.890
 8868SOL    HW227504   6.492   2.620   0.968
 8869SOL     OW27505   4.156   6.038   4.506
 8869SOL    HW127506   4.083   6.102   4.533
 8869SOL    HW227507   4.117   5.947   4.491
 8870SOL     OW27508   3.425   0.280   0.680
 8870SOL    HW127509   3.463   0.325   0.600
 8870SOL    HW227510   3.331   0.252   0.662
 8871SOL     OW27511   1.924   1.217   3.882
 8871SOL    HW127512   1.917   1.233   3.981
 8871SOL    HW227513   1.865   1.140   3.857
 8872SOL     OW27514   1.744   4.104   5.314
 8872SOL    HW127515   1.708   4.019   5.351
 8872SOL    HW227516   1.771   4.165   5.388
 8873SOL     OW27517   0.998   6.840   1.599
 8873SOL    HW127518   1.080   6.791   1.628
 8873SOL    HW227519   0.933   6.776   1.557
 8874SOL     OW27520   1.677   5.892   2.458
 8874SOL    HW127521   1.645   5.976   2.504
 8874SOL    HW227522   1.668   5.903   2.359
 8875SOL     OW27523   0.039   3.737   5.277
 8875SOL    HW127524   0.028   3.830   5.313
 8875SOL    HW227525   6.986   3.679   5.311
 8876SOL     OW27526   2.378   6.603   4.722
 8876SOL    HW127527   2.300   6.550   4.754
 8876SOL    HW227528   2.449   6.603   4.792
 8877SOL     OW27529   3.315   1.536   3.884
 8877SOL    HW127530   3.252   1.574   3.952
 8877SOL    HW227531   3.402   1.583   3.888
 8878SOL     OW27532   6.819   4.583   0.225
 8878SOL    HW127533   6.784   4.565   0.133
 8878SOL    HW227534   6.910   4.623   0.219
 8879SOL     OW27535   5.019   4.564   2.816
 8879SOL    HW127536   4.952   4.503   2.858
 8879SOL    HW227537   5.068   4.516   2.743
 8880SOL     OW27538   5.207   5.937   5.096
 8880SOL    HW127539   5.259   5.920   5.012
 8880SOL    HW227540   5.239   5.876   5.169
 8881SOL     OW27541   6.169   6.661   3.848
 8881SOL    HW127542   6.166   6.561   3.841
 8881SOL    HW227543   6.257   6.689   3.887
 8882SOL     OW27544   5.625   1.135   1.106
 8882SOL    HW127545   5.684   1.188   1.168
 8882SOL    HW227546   5.610   1.045   1.145
 8883SOL     OW27547   1.131   6.374   6.466
 8883SOL    HW127548   1.056   6.405   6.407
 8883SOL    HW227549   1.138   6.275   6.462
 8884SOL     OW27550   6.571   4.013   6.037
 8884SOL    HW127551   6.583   3.915   6.049
 8884SOL    HW227552   6.661   4.057   6.034
 8885SOL     OW27553   6.768   3.635   1.448
 8885SOL    HW127554   6.740   3.606   1.356
 8885SOL    HW227555   6.696   3.610   1.513
 8886SOL     OW27556   2.918   0.156   4.685
 8886SOL    HW127557   2.916   0.225   4.758
 8886SOL    HW227558   2.829   0.154   4.640
 8887SOL     OW27559   3.791   0.991   0.624
 8887SOL    HW127560   3.799   0.914   0.687
 8887SOL    HW227561   3.841   1.069   0.661
 8888SOL     OW27562   1.869   1.614   6.046
 8888SOL    HW127563   1.951   1.556   6.048
 8888SOL    HW227564   1.828   1.612   5.955
 8889SOL     OW27565   6.553   0.221   6.063
 8889SOL    HW127566   6.646   0.194   6.038
 8889SOL    HW227567   6.526   0.301   6.008
 8890SOL     OW27568   6.385   5.675   3.768
 8890SOL    HW127569   6.311   5.651   3.705
 8890SOL    HW227570   6.434   5.592   3.794
 8891SOL     OW27571   4.624   3.399   6.776
 8891SOL    HW127572   4.582   3.469   6.720
 8891SOL    HW227573   4.636   3.316   6.722
 8892SOL     OW27574   3.315   5.532   3.130
 8892SOL    HW127575   3.330   5.456   3.194
 8892SOL    HW227576   3.280   5.496   3.044
 8893SOL     OW27577   0.673   6.383   3.283
 8893SOL    HW127578   0.674   6.367   3.185
 8893SOL    HW227579   0.747   6.330   3.325
 8894SOL     OW27580   3.926   2.360   6.508
 8894SOL    HW127581   3.950   2.282   6.451
 8894SOL    HW227582   3.833   2.390   6.486
 8895SOL     OW27583   6.356   2.560   2.222
 8895SOL    HW127584   6.455   2.573   2.213
 8895SOL    HW227585   6.310   2.596   2.142
 8896SOL     OW27586   2.663   3.151   5.395
 8896SOL    HW127587   2.615   3.123   5.312
 8896SOL    HW227588   2.642   3.087   5.469
 8897SOL     OW27589   2.029   2.697   3.226
 8897SOL    HW127590   1.961   2.654   3.285
 8897SOL    HW227591   2.006   2.681   3.130
 8898SOL     OW27592   5.364   2.699   2.473
 8898SOL    HW127593   5.370   2.602   2.495
 8898SOL    HW227594   5.269   2.723   2.453
 8899SOL     OW27595   1.532   5.525   1.208
 8899SOL    HW127596   1.517   5.609   1.258
 8899SOL    HW227597   1.565   5.454   1.270
 8900SOL     OW27598   5.648   3.052   3.185
 8900SOL    HW127599   5.616   3.083   3.096
 8900SOL    HW227600   5.734   3.002   3.174
 8901SOL     OW27601   2.069   0.719   4.866
 8901SOL    HW127602   2.093   0.778   4.942
 8901SOL    HW227603   2.079   0.769   4.780
 8902SOL     OW27604   2.260   0.175   0.868
 8902SOL    HW127605   2.286   0.270   0.854
 8902SOL    HW227606   2.338   0.116   0.848
 8903SOL     OW27607   0.538   1.674   4.947
 8903SOL    HW127608   0.610   1.743   4.960
 8903SOL    HW227609   0.542   1.608   5.022
 8904SOL     OW27610   6.273   0.029   3.943
 8904SOL    HW127611   6.208   0.096   3.908
 8904SOL    HW227612   6.285   6.976   3.875
 8905SOL     OW27613   1.538   3.831   4.024
 8905SOL    HW127614   1.568   3.795   3.935
 8905SOL    HW227615   1.614   3.824   4.089
 8906SOL     OW27616   0.471   6.143   6.672
 8906SOL    HW127617   0.453   6.069   6.607
 8906SOL    HW227618   0.504   6.104   6.758
 8907SOL     OW27619   2.660   2.366   5.009
 8907SOL    HW127620   2.562   2.348   5.009
 8907SOL    HW227621   2.707   2.296   5.063
 8908SOL     OW27622   1.188   4.989   6.799
 8908SOL    HW127623   1.158   5.030   6.713
 8908SOL    HW227624   1.194   4.890   6.790
 8909SOL     OW27625   2.717   0.737   6.028
 8909SOL    HW127626   2.686   0.773   5.939
 8909SOL    HW227627   2.637   0.714   6.084
 8910SOL     OW27628   6.934   2.509   5.929
 8910SOL    HW127629   6.839   2.498   5.956
 8910SOL    HW227630   6.966   2.600   5.955
 8911SOL     OW27631   4.321   2.335   4.882
 8911SOL    HW127632   4.365   2.397   4.816
 8911SOL    HW227633   4.280   2.389   4.956
 8912SOL     OW27634   3.467   3.790   6.822
 8912SOL    HW127635   3.407   3.836   6.887
 8912SOL    HW227636   3.414   3.759   6.744
 8913SOL     OW27637   4.983   5.084   5.833
 8913SOL    HW127638   4.945   4.996   5.805
 8913SOL    HW227639   4.920   5.158   5.808
 8914SOL     OW27640   4.509   0.192   4.794
 8914SOL    HW127641   4.590   0.251   4.785
 8914SOL    HW227642   4.447   0.230   4.862
 8915SOL     OW27643   0.559   3.130   4.040
 8915SOL    HW127644   0.633   3.122   4.107
 8915SOL    HW227645   0.515   3.220   4.048
 8916SOL     OW27646   6.667   3.133   0.701
 8916SOL    HW127647   6.743   3.079   0.737
 8916SOL    HW227648   6.685   3.230   0.715
 8917SOL     OW27649   6.608   3.251   0.178
 8917SOL    HW127650   6.510   3.261   0.195
 8917SOL    HW227651   6.655   3.227   0.263
 8918SOL     OW27652   6.559   4.055   1.149
 8918SOL    HW127653   6.476   4.110   1.157
 8918SOL    HW227654   6.571   4.027   1.054
 8919SOL     OW27655   3.752   3.994   0.977
 8919SOL    HW127656   3.698   3.915   1.006
 8919SOL    HW227657   3.720   4.025   0.887
 8920SOL     OW27658   0.316   0.665   6.945
 8920SOL    HW127659   0.284   0.591   7.004
 8920SOL    HW227660   0.272   0.658   6.855
 8921SOL     OW27661   2.439   2.229   2.361
 8921SOL    HW127662   2.461   2.192   2.271
 8921SOL    HW227663   2.498   2.308   2.380
 8922SOL     OW27664   4.305   4.560   1.331
 8922SOL    HW127665   4.232   4.496   1.352
 8922SOL    HW227666   4.268   4.653   1.328
 8923SOL     OW27667   1.892   2.400   6.213
 8923SOL    HW127668   1.870   2.395   6.116
 8923SOL    HW227669   1.988   2.428   6.224
 8924SOL     OW27670   3.440   5.140   5.404
 8924SOL    HW127671   3.343   5.160   5.391
 8924SOL    HW227672   3.450   5.067   5.471
 8925SOL     OW27673   0.762   1.900   2.865
 8925SOL    HW127674   0.816   1.830   2.818
 8925SOL    HW227675   0.742   1.974   2.802
 8926SOL     OW27676   6.432   3.061   5.816
 8926SOL    HW127677   6.354   3.013   5.777
 8926SOL    HW227678   6.494   2.995   5.858
 8927SOL     OW27679   0.031   1.391   4.853
 8927SOL    HW127680   0.118   1.349   4.827
 8927SOL    HW227681   6.976   1.326   4.835
 8928SOL     OW27682   0.575   6.992   6.624
 8928SOL    HW127683   0.580   0.015   6.533
 8928SOL    HW227684   0.479   6.972   6.645
 8929SOL     OW27685   5.724   2.380   4.179
 8929SOL    HW127686   5.772   2.322   4.114
 8929SOL    HW227687   5.750   2.354   4.272
 8930SOL     OW27688   1.748   3.448   4.057
 8930SOL    HW127689   1.820   3.485   3.998
 8930SOL    HW227690   1.689   3.387   4.005
 8931SOL     OW27691   2.050   2.942   0.694
 8931SOL    HW127692   2.012   3.029   0.663
 8931SOL    HW227693   2.121   2.959   0.763
 8932SOL     OW27694   6.523   1.380   1.109
 8932SOL    HW127695   6.568   1.431   1.182
 8932SOL    HW227696   6.424   1.391   1.117
 8933SOL     OW27697   2.173   3.016   6.110
 8933SOL    HW127698   2.132   3.003   6.200
 8933SOL    HW227699   2.168   3.113   6.085
 8934SOL     OW27700   3.679   4.917   4.759
 8934SOL    HW127701   3.731   4.942   4.677
 8934SOL    HW227702   3.583   4.939   4.745
 8935SOL     OW27703   6.694   4.309   0.567
 8935SOL    HW127704   6.691   4.327   0.665
 8935SOL    HW227705   6.755   4.374   0.522
 8936SOL     OW27706   1.360   3.167   2.924
 8936SOL    HW127707   1.278   3.153   2.869
 8936SOL    HW227708   1.335   3.208   3.012
 8937SOL     OW27709   6.601   6.909   4.195
 8937SOL    HW127710   6.550   6.885   4.278
 8937SOL    HW227711   6.552   6.981   4.146
 8938SOL     OW27712   0.202   0.532   0.628
 8938SOL    HW127713   0.224   0.444   0.668
 8938SOL    HW227714   0.286   0.587   0.619
 8939SOL     OW27715   5.988   4.568   4.373
 8939SOL    HW127716   6.075   4.588   4.418
 8939SOL    HW227717   5.930   4.649   4.375
 8940SOL     OW27718   6.208   1.446   1.881
 8940SOL    HW127719   6.213   1.350   1.910
 8940SOL    HW227720   6.182   1.502   1.960
 8941SOL     OW27721   5.793   2.452   4.788
 8941SOL    HW127722   5.845   2.530   4.753
 8941SOL    HW227723   5.854   2.373   4.796
 8942SOL     OW27724   6.484   5.171   5.989
 8942SOL    HW127725   6.458   5.168   6.085
 8942SOL    HW227726   6.548   5.246   5.974
 8943SOL     OW27727   3.947   5.409   0.785
 8943SOL    HW127728   3.926   5.317   0.749
 8943SOL    HW227729   3.965   5.471   0.708
 8944SOL     OW27730   5.373   5.491   5.169
 8944SOL    HW127731   5.359   5.581   5.210
 8944SOL    HW227732   5.426   5.501   5.084
 8945SOL     OW27733   1.000   0.993   3.622
 8945SOL    HW127734   0.946   0.962   3.544
 8945SOL    HW227735   1.094   0.960   3.613
 8946SOL     OW27736   2.610   1.479   4.095
 8946SOL    HW127737   2.705   1.456   4.115
 8946SOL    HW227738   2.586   1.564   4.142
 8947SOL     OW27739   2.480   3.639   5.850
 8947SOL    HW127740   2.510   3.544   5.846
 8947SOL    HW227741   2.557   3.697   5.879
 8948SOL     OW27742   6.262   6.026   4.109
 8948SOL    HW127743   6.257   6.088   4.031
 8948SOL    HW227744   6.289   5.935   4.078
 8949SOL     OW27745   3.865   6.025   0.654
 8949SOL    HW127746   3.768   6.006   0.639
 8949SOL    HW227747   3.883   6.123   0.641
 8950SOL     OW27748   4.492   4.881   6.674
 8950SOL    HW127749   4.460   4.910   6.764
 8950SOL    HW227750   4.584   4.843   6.682
 8951SOL     OW27751   2.157   0.888   4.376
 8951SOL    HW127752   2.228   0.869   4.308
 8951SOL    HW227753   2.182   0.970   4.429
 8952SOL     OW27754   0.430   5.558   2.664
 8952SOL    HW127755   0.421   5.656   2.682
 8952SOL    HW227756   0.461   5.545   2.570
 8953SOL     OW27757   1.060   4.112   0.649
 8953SOL    HW127758   0.984   4.053   0.678
 8953SOL    HW227759   1.039   4.207   0.673
 8954SOL     OW27760   6.668   6.565   4.269
 8954SOL    HW127761   6.694   6.565   4.172
 8954SOL    HW227762   6.592   6.629   4.283
 8955SOL     OW27763   6.884   5.769   2.816
 8955SOL    HW127764   6.965   5.807   2.771
 8955SOL    HW227765   6.805   5.776   2.756
 8956SOL     OW27766   1.690   1.589   6.471
 8956SOL    HW127767   1.679   1.647   6.390
 8956SOL    HW227768   1.665   1.495   6.448
 8957SOL     OW27769   1.748   4.745   1.551
 8957SOL    HW127770   1.694   4.826   1.529
 8957SOL    HW227771   1.823   4.737   1.486
 8958SOL     OW27772   0.067   2.090   4.660
 8958SOL    HW127773   0.107   2.166   4.610
 8958SOL    HW227774   0.122   2.007   4.645
 8959SOL     OW27775   1.523   4.392   2.250
 8959SOL    HW127776   1.504   4.364   2.156
 8959SOL    HW227777   1.521   4.312   2.310
 8960SOL     OW27778   4.138   5.585   3.354
 8960SOL    HW127779   4.126   5.486   3.352
 8960SOL    HW227780   4.092   5.622   3.435
 8961SOL     OW27781   3.068   0.842   3.686
 8961SOL    HW127782   3.139   0.912   3.699
 8961SOL    HW227783   3.030   0.851   3.594
 8962SOL     OW27784   6.583   5.922   2.741
 8962SOL    HW127785   6.604   5.975   2.659
 8962SOL    HW227786   6.570   5.826   2.716
 8963SOL     OW27787   4.291   0.223   4.957
 8963SOL    HW127788   4.312   0.132   4.924
 8963SOL    HW227789   4.242   0.216   5.044
 8964SOL     OW27790   5.337   3.049   3.007
 8964SOL    HW127791   5.262   3.068   3.071
 8964SOL    HW227792   5.396   2.979   3.045
 8965SOL     OW27793   2.291   5.588   0.657
 8965SOL    HW127794   2.245   5.656   0.714
 8965SOL    HW227795   2.338   5.634   0.581
 8966SOL     OW27796   6.506   4.354   0.360
 8966SOL    HW127797   6.529   4.316   0.270
 8966SOL    HW227798   6.587   4.358   0.417
 8967SOL     OW27799   3.884   0.614   1.579
 8967SOL    HW127800   3.852   0.560   1.501
 8967SOL    HW227801   3.976   0.648   1.560
 8968SOL     OW27802   4.395   5.632   3.312
 8968SOL    HW127803   4.304   5.595   3.330
 8968SOL    HW227804   4.435   5.585   3.233
 8969SOL     OW27805   6.438   0.369   4.203
 8969SOL    HW127806   6.370   0.398   4.135
 8969SOL    HW227807   6.429   0.271   4.219
 8970SOL     OW27808   2.518   3.306   6.832
 8970SOL    HW127809   2.499   3.306   6.930
 8970SOL    HW227810   2.539   3.399   6.802
 8971SOL     OW27811   5.885   4.964   1.600
 8971SOL    HW127812   5.891   5.056   1.638
 8971SOL    HW227813   5.798   4.954   1.552
 8972SOL     OW27814   4.908   3.255   6.803
 8972SOL    HW127815   4.920   3.241   6.705
 8972SOL    HW227816   4.936   3.173   6.852
 8973SOL     OW27817   0.493   3.684   3.595
 8973SOL    HW127818   0.509   3.744   3.516
 8973SOL    HW227819   0.397   3.659   3.599
 8974SOL     OW27820   1.324   4.306   4.692
 8974SOL    HW127821   1.320   4.242   4.769
 8974SOL    HW227822   1.415   4.303   4.651
 8975SOL     OW27823   1.411   6.221   6.605
 8975SOL    HW127824   1.361   6.192   6.687
 8975SOL    HW227825   1.354   6.285   6.552
 8976SOL     OW27826   0.630   5.398   6.952
 8976SOL    HW127827   0.569   5.453   7.008
 8976SOL    HW227828   0.653   5.313   7.000
 8977SOL     OW27829   6.865   2.940   6.739
 8977SOL    HW127830   6.922   2.958   6.659
 8977SOL    HW227831   6.771   2.967   6.720
 8978SOL     OW27832   5.130   6.548   4.304
 8978SOL    HW127833   5.147   6.505   4.393
 8978SOL    HW227834   5.218   6.574   4.263
 8979SOL     OW27835   1.312   4.156   4.901
 8979SOL    HW127836   1.258   4.073   4.892
 8979SOL    HW227837   1.279   4.210   4.979
 8980SOL     OW27838   4.095   3.032   5.347
 8980SOL    HW127839   4.054   2.942   5.360
 8980SOL    HW227840   4.047   3.081   5.275
 8981SOL     OW27841   4.606   1.167   5.376
 8981SOL    HW127842   4.568   1.160   5.468
 8981SOL    HW227843   4.696   1.210   5.380
 8982SOL     OW27844   1.564   1.983   1.802
 8982SOL    HW127845   1.593   2.066   1.848
 8982SOL    HW227846   1.631   1.910   1.818
 8983SOL     OW27847   0.925   5.767   0.116
 8983SOL    HW127848   0.967   5.682   0.147
 8983SOL    HW227849   0.994   5.822   0.069
 8984SOL     OW27850   6.636   0.267   3.699
 8984SOL    HW127851   6.550   0.242   3.745
 8984SOL    HW227852   6.711   0.214   3.739
 8985SOL     OW27853   2.376   1.545   0.604
 8985SOL    HW127854   2.394   1.596   0.688
 8985SOL    HW227855   2.463   1.525   0.558
 8986SOL     OW27856   4.059   5.204   1.834
 8986SOL    HW127857   4.144   5.230   1.878
 8986SOL    HW227858   4.015   5.286   1.797
 8987SOL     OW27859   5.022   6.765   0.307
 8987SOL    HW127860   4.939   6.730   0.263
 8987SOL    HW227861   5.014   6.863   0.320
 8988SOL     OW27862   1.354   3.741   0.259
 8988SOL    HW127863   1.431   3.686   0.291
 8988SOL    HW227864   1.373   3.838   0.275
 8989SOL     OW27865   5.032   4.349   2.163
 8989SOL    HW127866   5.000   4.442   2.148
 8989SOL    HW227867   4.954   4.289   2.182
 8990SOL     OW27868   2.312   5.685   2.131
 8990SOL    HW127869   2.319   5.585   2.141
 8990SOL    HW227870   2.278   5.706   2.040
 8991SOL     OW27871   1.835   2.119   6.825
 8991SOL    HW127872   1.871   2.063   6.899
 8991SOL    HW227873   1.736   2.130   6.836
 8992SOL     OW27874   6.469   2.190   6.793
 8992SOL    HW127875   6.485   2.101   6.748
 8992SOL    HW227876   6.547   2.212   6.851
 8993SOL     OW27877   4.507   2.492   2.561
 8993SOL    HW127878   4.604   2.478   2.543
 8993SOL    HW227879   4.487   2.470   2.657
 8994SOL     OW27880   0.545   4.964   4.753
 8994SOL    HW127881   0.488   4.904   4.698
 8994SOL    HW227882   0.617   4.911   4.797
 8995SOL     OW27883   1.095   2.498   6.601
 8995SOL    HW127884   1.180   2.445   6.610
 8995SOL    HW227885   1.030   2.470   6.671
 8996SOL     OW27886   6.645   5.290   1.854
 8996SOL    HW127887   6.700   5.208   1.868
 8996SOL    HW227888   6.634   5.307   1.757
 8997SOL     OW27889   4.201   1.693   6.557
 8997SOL    HW127890   4.109   1.731   6.547
 8997SOL    HW227891   4.214   1.621   6.490
 8998SOL     OW27892   6.579   3.609   4.924
 8998SOL    HW127893   6.605   3.574   4.834
 8998SOL    HW227894   6.480   3.623   4.926
 8999SOL     OW27895   5.059   6.827   6.958
 8999SOL    HW127896   4.969   6.865   6.979
 8999SOL    HW227897   5.105   6.886   6.892
 9000SOL     OW27898   2.843   4.654   0.453
 9000SOL    HW127899   2.860   4.750   0.430
 9000SOL    HW227900   2.760   4.647   0.508
 9001SOL     OW27901   1.059   5.791   2.465
 9001SOL    HW127902   1.065   5.851   2.385
 9001SOL    HW227903   1.009   5.837   2.538
 9002SOL     OW27904   6.432   5.284   5.069
 9002SOL    HW127905   6.519   5.302   5.115
 9002SOL    HW227906   6.450   5.234   4.984
 9003SOL     OW27907   5.599   2.494   1.211
 9003SOL    HW127908   5.684   2.486   1.262
 9003SOL    HW227909   5.559   2.584   1.226
 9004SOL     OW27910   5.097   6.807   1.050
 9004SOL    HW127911   5.123   6.894   1.009
 9004SOL    HW227912   5.125   6.805   1.145
 9005SOL     OW27913   5.071   2.493   5.057
 9005SOL    HW127914   5.089   2.544   4.972
 9005SOL    HW227915   5.073   2.395   5.037
 9006SOL     OW27916   2.690   6.594   0.882
 9006SOL    HW127917   2.718   6.536   0.958
 9006SOL    HW227918   2.738   6.566   0.799
 9007SOL     OW27919   4.461   0.523   4.042
 9007SOL    HW127920   4.493   0.518   3.947
 9007SOL    HW227921   4.501   0.448   4.095
 9008SOL     OW27922   0.381   5.899   3.255
 9008SOL    HW127923   0.287   5.874   3.281
 9008SOL    HW227924   0.414   5.835   3.186
 9009SOL     OW27925   2.644   1.193   0.438
 9009SOL    HW127926   2.661   1.281   0.482
 9009SOL    HW227927   2.588   1.136   0.498
 9010SOL     OW27928   0.940   0.312   4.164
 9010SOL    HW127929   0.942   0.350   4.256
 9010SOL    HW227930   0.884   0.229   4.163
 9011SOL     OW27931   4.443   2.520   1.817
 9011SOL    HW127932   4.484   2.605   1.848
 9011SOL    HW227933   4.512   2.447   1.820
 9012SOL     OW27934   3.466   4.820   1.196
 9012SOL    HW127935   3.421   4.731   1.207
 9012SOL    HW227936   3.422   4.886   1.257
 9013SOL     OW27937   0.417   6.135   4.399
 9013SOL    HW127938   0.512   6.139   4.369
 9013SOL    HW227939   0.396   6.042   4.432
 9014SOL     OW27940   0.562   1.317   6.947
 9014SOL    HW127941   0.564   1.309   0.026
 9014SOL    HW227942   0.623   1.391   6.918
 9015SOL     OW27943   5.950   1.978   1.276
 9015SOL    HW127944   5.944   1.882   1.249
 9015SOL    HW227945   5.947   2.037   1.195
 9016SOL     OW27946   0.802   6.099   6.434
 9016SOL    HW127947   0.793   6.150   6.519
 9016SOL    HW227948   0.745   6.141   6.363
 9017SOL     OW27949   4.545   2.265   1.848
 9017SOL    HW127950   4.463   2.263   1.905
 9017SOL    HW227951   4.529   2.211   1.765
 9018SOL     OW27952   4.466   1.308   6.210
 9018SOL    HW127953   4.561   1.313   6.239
 9018SOL    HW227954   4.413   1.255   6.277
 9019SOL     OW27955   0.822   0.600   1.574
 9019SOL    HW127956   0.741   0.655   1.553
 9019SOL    HW227957   0.899   0.660   1.593
 9020SOL     OW27958   1.425   3.475   1.571
 9020SOL    HW127959   1.423   3.556   1.513
 9020SOL    HW227960   1.369   3.403   1.529
 9021SOL     OW27961   6.946   0.299   4.007
 9021SOL    HW127962   6.850   0.322   4.024
 9021SOL    HW227963   7.000   0.383   3.999
 9022SOL     OW27964   2.710   1.768   0.576
 9022SOL    HW127965   2.702   1.827   0.657
 9022SOL    HW227966   2.805   1.767   0.545
 9023SOL     OW27967   3.337   3.631   2.178
 9023SOL    HW127968   3.425   3.584   2.189
 9023SOL    HW227969   3.265   3.580   2.225
 9024SOL     OW27970   0.577   5.120   4.341
 9024SOL    HW127971   0.486   5.078   4.336
 9024SOL    HW227972   0.647   5.049   4.342
 9025SOL     OW27973   0.643   5.127   0.115
 9025SOL    HW127974   0.591   5.046   0.089
 9025SOL    HW227975   0.585   5.189   0.169
 9026SOL     OW27976   4.090   3.312   1.533
 9026SOL    HW127977   4.026   3.378   1.571
 9026SOL    HW227978   4.162   3.360   1.483
 9027SOL     OW27979   1.142   1.887   4.470
 9027SOL    HW127980   1.216   1.891   4.403
 9027SOL    HW227981   1.163   1.946   4.548
 9028SOL     OW27982   2.588   3.950   5.630
 9028SOL    HW127983   2.669   4.003   5.603
 9028SOL    HW227984   2.509   4.011   5.630
 9029SOL     OW27985   3.058   5.538   4.604
 9029SOL    HW127986   2.995   5.616   4.604
 9029SOL    HW227987   3.117   5.544   4.524
 9030SOL     OW27988   1.921   2.211   3.739
 9030SOL    HW127989   1.874   2.150   3.675
 9030SOL    HW227990   1.983   2.158   3.797
 9031SOL     OW27991   4.385   6.167   4.593
 9031SOL    HW127992   4.396   6.254   4.545
 9031SOL    HW227993   4.313   6.113   4.549
 9032SOL     OW27994   3.374   3.459   1.023
 9032SOL    HW127995   3.396   3.400   0.945
 9032SOL    HW227996   3.326   3.540   0.990
 9033SOL     OW27997   1.688   5.207   3.762
 9033SOL    HW127998   1.764   5.173   3.819
 9033SOL    HW227999   1.663   5.299   3.792
 9034SOL     OW28000   3.009   7.006   5.372
 9034SOL    HW128001   2.941   6.940   5.404
 9034SOL    HW228002   2.990   0.076   5.412
 9035SOL     OW28003   1.731   4.297   6.026
 9035SOL    HW128004   1.734   4.356   5.945
 9035SOL    HW228005   1.725   4.201   5.996
 9036SOL     OW28006   2.292   0.779   5.356
 9036SOL    HW128007   2.255   0.849   5.295
 9036SOL    HW228008   2.227   0.763   5.431
 9037SOL     OW28009   1.469   3.821   5.602
 9037SOL    HW128010   1.421   3.850   5.685
 9037SOL    HW228011   1.509   3.731   5.618
 9038SOL     OW28012   4.963   6.280   6.065
 9038SOL    HW128013   5.017   6.364   6.059
 9038SOL    HW228014   4.916   6.278   6.153
 9039SOL     OW28015   2.766   4.717   4.555
 9039SOL    HW128016   2.689   4.781   4.548
 9039SOL    HW228017   2.733   4.624   4.540
 9040SOL     OW28018   2.827   2.330   2.676
 9040SOL    HW128019   2.742   2.323   2.728
 9040SOL    HW228020   2.905   2.308   2.735
 9041SOL     OW28021   1.685   2.192   1.915
 9041SOL    HW128022   1.769   2.194   1.860
 9041SOL    HW228023   1.684   2.271   1.976
 9042SOL     OW28024   2.710   0.090   3.752
 9042SOL    HW128025   2.769   0.172   3.747
 9042SOL    HW228026   2.651   0.097   3.833
 9043SOL     OW28027   2.526   1.752   6.895
 9043SOL    HW128028   2.460   1.827   6.898
 9043SOL    HW228029   2.507   1.694   6.816
 9044SOL     OW28030   5.731   1.332   2.159
 9044SOL    HW128031   5.822   1.293   2.174
 9044SOL    HW228032   5.740   1.430   2.139
 9045SOL     OW28033   2.863   1.188   2.464
 9045SOL    HW128034   2.949   1.145   2.437
 9045SOL    HW228035   2.791   1.163   2.399
 9046SOL     OW28036   3.446   4.083   4.536
 9046SOL    HW128037   3.442   4.070   4.437
 9046SOL    HW228038   3.359   4.121   4.568
 9047SOL     OW28039   1.415   3.259   6.019
 9047SOL    HW128040   1.418   3.351   6.058
 9047SOL    HW228041   1.450   3.261   5.926
 9048SOL     OW28042   6.113   1.650   5.910
 9048SOL    HW128043   6.033   1.613   5.862
 9048SOL    HW228044   6.095   1.649   6.009
 9049SOL     OW28045   3.580   0.111   6.708
 9049SOL    HW128046   3.665   0.058   6.698
 9049SOL    HW228047   3.602   0.208   6.706
 9050SOL     OW28048   6.944   3.624   6.767
 9050SOL    HW128049   6.922   3.722   6.767
 9050SOL    HW228050   6.860   3.571   6.762
 9051SOL     OW28051   4.654   6.745   1.005
 9051SOL    HW128052   4.611   6.674   0.949
 9051SOL    HW228053   4.745   6.766   0.969
 9052SOL     OW28054   1.699   2.345   3.822
 9052SOL    HW128055   1.700   2.442   3.798
 9052SOL    HW228056   1.770   2.297   3.771
 9053SOL     OW28057   1.582   1.863   3.189
 9053SOL    HW128058   1.602   1.842   3.285
 9053SOL    HW228059   1.530   1.948   3.183
 9054SOL     OW28060   1.912   6.863   1.774
 9054SOL    HW128061   1.837   6.927   1.792
 9054SOL    HW228062   1.926   6.856   1.675
 9055SOL     OW28063   5.886   3.111   3.664
 9055SOL    HW128064   5.825   3.034   3.643
 9055SOL    HW228065   5.971   3.076   3.703
 9056SOL     OW28066   0.298   1.192   1.745
 9056SOL    HW128067   0.341   1.102   1.755
 9056SOL    HW228068   0.210   1.193   1.792
 9057SOL     OW28069   5.499   4.724   5.600
 9057SOL    HW128070   5.432   4.753   5.669
 9057SOL    HW228071   5.543   4.640   5.631
 9058SOL     OW28072   2.206   1.726   3.200
 9058SOL    HW128073   2.214   1.666   3.280
 9058SOL    HW228074   2.147   1.804   3.223
 9059SOL     OW28075   1.252   1.760   5.224
 9059SOL    HW128076   1.328   1.695   5.220
 9059SOL    HW228077   1.247   1.799   5.316
 9060SOL     OW28078   6.372   2.981   2.490
 9060SOL    HW128079   6.441   3.008   2.423
 9060SOL    HW228080   6.342   2.887   2.471
 9061SOL     OW28081   2.992   5.621   2.053
 9061SOL    HW128082   2.999   5.681   1.973
 9061SOL    HW228083   2.918   5.653   2.112
 9062SOL     OW28084   1.916   5.965   1.880
 9062SOL    HW128085   1.900   5.956   1.979
 9062SOL    HW228086   1.989   6.031   1.864
 9063SOL     OW28087   2.321   0.173   2.654
 9063SOL    HW128088   2.348   0.128   2.739
 9063SOL    HW228089   2.248   0.239   2.672
 9064SOL     OW28090   6.230   2.377   5.824
 9064SOL    HW128091   6.266   2.408   5.912
 9064SOL    HW228092   6.212   2.278   5.827
 9065SOL     OW28093   3.213   6.303   6.248
 9065SOL    HW128094   3.291   6.366   6.245
 9065SOL    HW228095   3.143   6.332   6.183
 9066SOL     OW28096   5.780   6.297   0.271
 9066SOL    HW128097   5.687   6.315   0.239
 9066SOL    HW228098   5.787   6.203   0.302
 9067SOL     OW28099   6.084   0.534   4.782
 9067SOL    HW128100   6.107   0.447   4.740
 9067SOL    HW228101   6.039   0.518   4.870
 9068SOL     OW28102   2.937   6.603   5.515
 9068SOL    HW128103   2.892   6.692   5.523
 9068SOL    HW228104   2.929   6.554   5.601
 9069SOL     OW28105   2.514   2.506   2.106
 9069SOL    HW128106   2.415   2.519   2.121
 9069SOL    HW228107   2.558   2.483   2.193
 9070SOL     OW28108   1.578   3.587   5.633
 9070SOL    HW128109   1.489   3.542   5.627
 9070SOL    HW228110   1.606   3.592   5.729
 9071SOL     OW28111   5.701   0.538   0.805
 9071SOL    HW128112   5.769   0.584   0.748
 9071SOL    HW228113   5.634   0.491   0.747
 9072SOL     OW28114   6.831   1.069   1.922
 9072SOL    HW128115   6.901   1.026   1.980
 9072SOL    HW228116   6.769   1.122   1.979
 9073SOL     OW28117   3.239   6.774   0.759
 9073SOL    HW128118   3.196   6.737   0.841
 9073SOL    HW228119   3.268   6.699   0.700
 9074SOL     OW28120   2.080   1.810   1.631
 9074SOL    HW128121   2.079   1.908   1.609
 9074SOL    HW228122   1.998   1.787   1.683
 9075SOL     OW28123   1.081   1.520   2.861
 9075SOL    HW128124   1.116   1.540   2.769
 9075SOL    HW228125   1.143   1.457   2.907
 9076SOL     OW28126   5.553   1.870   5.161
 9076SOL    HW128127   5.516   1.912   5.078
 9076SOL    HW228128   5.505   1.905   5.241
 9077SOL     OW28129   5.604   6.764   6.692
 9077SOL    HW128130   5.581   6.849   6.645
 9077SOL    HW228131   5.570   6.767   6.786
 9078SOL     OW28132   4.317   3.822   6.387
 9078SOL    HW128133   4.291   3.784   6.476
 9078SOL    HW228134   4.271   3.771   6.314
 9079SOL     OW28135   2.899   6.833   3.978
 9079SOL    HW128136   2.846   6.820   3.894
 9079SOL    HW228137   2.990   6.794   3.966
 9080SOL     OW28138   5.058   2.447   0.109
 9080SOL    HW128139   5.001   2.514   0.062
 9080SOL    HW228140   5.047   2.457   0.208
 9081SOL     OW28141   3.983   5.698   2.936
 9081SOL    HW128142   4.018   5.792   2.935
 9081SOL    HW228143   4.036   5.644   3.001
 9082SOL     OW28144   2.447   6.642   5.347
 9082SOL    HW128145   2.376   6.631   5.277
 9082SOL    HW228146   2.513   6.711   5.316
 9083SOL     OW28147   2.814   5.301   5.991
 9083SOL    HW128148   2.739   5.367   5.997
 9083SOL    HW228149   2.885   5.325   6.057
 9084SOL     OW28150   3.200   3.544   5.549
 9084SOL    HW128151   3.191   3.629   5.498
 9084SOL    HW228152   3.264   3.483   5.501
 9085SOL     OW28153   2.271   4.643   1.333
 9085SOL    HW128154   2.347   4.592   1.371
 9085SOL    HW228155   2.305   4.705   1.262
 9086SOL     OW28156   0.940   4.776   0.499
 9086SOL    HW128157   1.002   4.698   0.492
 9086SOL    HW228158   0.940   4.827   0.413
 9087SOL     OW28159   4.732   2.606   2.026
 9087SOL    HW128160   4.691   2.650   1.947
 9087SOL    HW228161   4.768   2.517   1.999
 9088SOL     OW28162   5.419   5.983   0.531
 9088SOL    HW128163   5.443   6.078   0.513
 9088SOL    HW228164   5.320   5.972   0.534
 9089SOL     OW28165   5.030   6.017   6.104
 9089SOL    HW128166   4.989   6.108   6.101
 9089SOL    HW228167   4.980   5.956   6.043
 9090SOL     OW28168   0.235   0.404   3.111
 9090SOL    HW128169   0.283   0.457   3.041
 9090SOL    HW228170   0.256   0.441   3.202
 9091SOL     OW28171   3.066   4.881   0.667
 9091SOL    HW128172   2.976   4.879   0.710
 9091SOL    HW228173   3.092   4.788   0.640
 9092SOL     OW28174   0.920   1.146   1.082
 9092SOL    HW128175   0.882   1.238   1.094
 9092SOL    HW228176   0.974   1.144   0.997
 9093SOL     OW28177   1.149   6.737   6.085
 9093SOL    HW128178   1.193   6.684   6.157
 9093SOL    HW228179   1.193   6.827   6.078
 9094SOL     OW28180   6.366   5.150   2.702
 9094SOL    HW128181   6.306   5.070   2.699
 9094SOL    HW228182   6.317   5.227   2.744
 9095SOL     OW28183   5.136   4.145   5.652
 9095SOL    HW128184   5.126   4.106   5.743
 9095SOL    HW228185   5.077   4.095   5.588
 9096SOL     OW28186   5.658   3.980   2.234
 9096SOL    HW128187   5.737   3.919   2.224
 9096SOL    HW228188   5.687   4.075   2.216
 9097SOL     OW28189   1.367   1.965   0.760
 9097SOL    HW128190   1.317   1.887   0.797
 9097SOL    HW228191   1.460   1.935   0.735
 9098SOL     OW28192   3.800   1.410   5.594
 9098SOL    HW128193   3.716   1.388   5.544
 9098SOL    HW228194   3.802   1.358   5.680
 9099SOL     OW28195   3.082   2.423   5.638
 9099SOL    HW128196   3.073   2.402   5.735
 9099SOL    HW228197   3.005   2.479   5.608
 9100SOL     OW28198   6.963   3.943   3.898
 9100SOL    HW128199   7.003   3.902   3.980
 9100SOL    HW228200   0.014   3.950   3.827
 9101SOL     OW28201   2.018   2.292   2.955
 9101SOL    HW128202   2.061   2.309   2.866
 9101SOL    HW228203   1.930   2.338   2.959
 9102SOL     OW28204   2.643   0.205   1.928
 9102SOL    HW128205   2.683   0.174   1.842
 9102SOL    HW228206   2.579   0.280   1.910
 9103SOL     OW28207   6.339   2.982   6.713
 9103SOL    HW128208   6.281   2.947   6.639
 9103SOL    HW228209   6.281   3.025   6.783
 9104SOL     OW28210   0.573   6.480   2.550
 9104SOL    HW128211   0.663   6.461   2.510
 9104SOL    HW228212   0.507   6.495   2.477
 9105SOL     OW28213   1.103   1.686   6.681
 9105SOL    HW128214   1.032   1.703   6.612
 9105SOL    HW228215   1.104   1.589   6.705
 9106SOL     OW28216   0.207   2.914   1.086
 9106SOL    HW128217   0.280   2.899   1.153
 9106SOL    HW228218   0.120   2.884   1.124
 9107SOL     OW28219   3.569   0.655   6.229
 9107SOL    HW128220   3.517   0.601   6.295
 9107SOL    HW228221   3.630   0.718   6.277
 9108SOL     OW28222   5.258   4.390   5.585
 9108SOL    HW128223   5.356   4.373   5.570
 9108SOL    HW228224   5.212   4.303   5.603
 9109SOL     OW28225   6.453   2.846   3.854
 9109SOL    HW128226   6.445   2.922   3.788
 9109SOL    HW228227   6.545   2.846   3.893
 9110SOL     OW28228   1.695   4.886   4.429
 9110SOL    HW128229   1.695   4.809   4.492
 9110SOL    HW228230   1.754   4.866   4.350
 9111SOL     OW28231   5.199   1.598   0.602
 9111SOL    HW128232   5.186   1.683   0.552
 9111SOL    HW228233   5.271   1.544   0.558
 9112SOL     OW28234   1.111   5.523   2.415
 9112SOL    HW128235   1.125   5.621   2.429
 9112SOL    HW228236   1.103   5.477   2.504
 9113SOL     OW28237   4.740   2.229   3.317
 9113SOL    HW128238   4.776   2.146   3.275
 9113SOL    HW228239   4.814   2.294   3.332
 9114SOL     OW28240   1.052   4.863   2.681
 9114SOL    HW128241   1.028   4.959   2.697
 9114SOL    HW228242   1.150   4.851   2.693
 9115SOL     OW28243   6.741   5.660   4.315
 9115SOL    HW128244   6.753   5.649   4.217
 9115SOL    HW228245   6.758   5.755   4.341
 9116SOL     OW28246   6.896   0.454   2.545
 9116SOL    HW128247   6.887   0.375   2.484
 9116SOL    HW228248   6.933   0.425   2.633
 9117SOL     OW28249   4.489   2.503   0.211
 9117SOL    HW128250   4.561   2.479   0.145
 9117SOL    HW228251   4.477   2.428   0.276
 9118SOL     OW28252   7.007   3.065   0.637
 9118SOL    HW128253   0.010   3.131   0.709
 9118SOL    HW228254   6.984   3.113   0.553
 9119SOL     OW28255   3.946   0.770   2.729
 9119SOL    HW128256   3.984   0.827   2.802
 9119SOL    HW228257   3.977   0.806   2.640
 9120SOL     OW28258   6.386   1.125   5.858
 9120SOL    HW128259   6.414   1.041   5.905
 9120SOL    HW228260   6.464   1.165   5.810
 9121SOL     OW28261   3.922   0.273   5.429
 9121SOL    HW128262   3.982   0.341   5.389
 9121SOL    HW228263   3.974   0.190   5.449
 9122SOL     OW28264   2.572   4.551   2.243
 9122SOL    HW128265   2.608   4.545   2.149
 9122SOL    HW228266   2.638   4.598   2.301
 9123SOL     OW28267   2.360   0.820   4.194
 9123SOL    HW128268   2.373   0.721   4.186
 9123SOL    HW228269   2.397   0.865   4.113
 9124SOL     OW28270   4.771   5.268   0.368
 9124SOL    HW128271   4.784   5.278   0.467
 9124SOL    HW228272   4.849   5.308   0.320
 9125SOL     OW28273   4.058   4.090   0.593
 9125SOL    HW128274   4.058   3.996   0.559
 9125SOL    HW228275   4.110   4.148   0.531
 9126SOL     OW28276   5.957   3.228   1.030
 9126SOL    HW128277   6.042   3.258   0.988
 9126SOL    HW228278   5.940   3.280   1.113
 9127SOL     OW28279   6.372   1.303   6.070
 9127SOL    HW128280   6.388   1.229   6.136
 9127SOL    HW228281   6.328   1.266   5.988
 9128SOL     OW28282   5.799   2.303   5.432
 9128SOL    HW128283   5.710   2.276   5.469
 9128SOL    HW228284   5.823   2.394   5.466
 9129SOL     OW28285   0.175   2.670   6.945
 9129SOL    HW128286   0.261   2.660   6.894
 9129SOL    HW228287   0.101   2.623   6.896
 9130SOL     OW28288   0.941   3.343   6.129
 9130SOL    HW128289   0.858   3.399   6.118
 9130SOL    HW228290   1.008   3.370   6.060
 9131SOL     OW28291   5.095   2.332   6.047
 9131SOL    HW128292   5.137   2.415   6.084
 9131SOL    HW228293   5.149   2.300   5.970
 9132SOL     OW28294   0.495   5.689   4.055
 9132SOL    HW128295   0.505   5.785   4.081
 9132SOL    HW228296   0.434   5.682   3.975
 9133SOL     OW28297   3.850   6.402   1.366
 9133SOL    HW128298   3.873   6.329   1.431
 9133SOL    HW228299   3.793   6.471   1.412
 9134SOL     OW28300   3.657   5.686   1.798
 9134SOL    HW128301   3.709   5.745   1.859
 9134SOL    HW228302   3.648   5.595   1.838
 9135SOL     OW28303   0.339   0.692   1.526
 9135SOL    HW128304   0.313   0.600   1.496
 9135SOL    HW228305   0.258   0.742   1.555
 9136SOL     OW28306   4.865   5.917   6.835
 9136SOL    HW128307   4.959   5.893   6.809
 9136SOL    HW228308   4.811   5.834   6.847
 9137SOL     OW28309   4.591   1.137   6.856
 9137SOL    HW128310   4.674   1.190   6.839
 9137SOL    HW228311   4.518   1.167   6.794
 9138SOL     OW28312   0.215   5.277   6.736
 9138SOL    HW128313   0.149   5.342   6.698
 9138SOL    HW228314   0.259   5.227   6.661
 9139SOL     OW28315   1.748   2.033   2.685
 9139SOL    HW128316   1.847   2.037   2.689
 9139SOL    HW228317   1.712   1.994   2.770
 9140SOL     OW28318   6.907   3.861   2.703
 9140SOL    HW128319   6.953   3.894   2.621
 9140SOL    HW228320   6.809   3.852   2.685
 9141SOL     OW28321   5.795   6.827   1.411
 9141SOL    HW128322   5.837   6.849   1.499
 9141SOL    HW228323   5.704   6.789   1.426
 9142SOL     OW28324   0.870   3.576   1.809
 9142SOL    HW128325   0.913   3.635   1.741
 9142SOL    HW228326   0.820   3.502   1.762
 9143SOL     OW28327   6.246   2.286   0.161
 9143SOL    HW128328   6.330   2.247   0.199
 9143SOL    HW228329   6.223   2.240   0.075
 9144SOL     OW28330   2.478   5.204   4.316
 9144SOL    HW128331   2.433   5.264   4.250
 9144SOL    HW228332   2.515   5.260   4.391
 9145SOL     OW28333   0.387   5.679   6.847
 9145SOL    HW128334   0.340   5.755   6.892
 9145SOL    HW228335   0.341   5.657   6.762
 9146SOL     OW28336   5.160   3.131   3.871
 9146SOL    HW128337   5.106   3.049   3.854
 9146SOL    HW228338   5.222   3.147   3.794
 9147SOL     OW28339   5.889   6.559   5.184
 9147SOL    HW128340   5.879   6.491   5.111
 9147SOL    HW228341   5.985   6.586   5.191
 9148SOL     OW28342   5.269   5.934   2.484
 9148SOL    HW128343   5.186   5.915   2.536
 9148SOL    HW228344   5.263   5.891   2.394
 9149SOL     OW28345   5.085   3.244   2.070
 9149SOL    HW128346   5.110   3.320   2.130
 9149SOL    HW228347   5.162   3.222   2.010
 9150SOL     OW28348   2.995   4.970   1.157
 9150SOL    HW128349   3.050   5.053   1.167
 9150SOL    HW228350   3.015   4.927   1.069
 9151SOL     OW28351   1.779   4.461   3.770
 9151SOL    HW128352   1.738   4.546   3.735
 9151SOL    HW228353   1.706   4.399   3.799
 9152SOL     OW28354   2.191   4.013   4.415
 9152SOL    HW128355   2.102   4.055   4.427
 9152SOL    HW228356   2.213   4.008   4.317
 9153SOL     OW28357   0.349   2.482   0.242
 9153SOL    HW128358   0.429   2.497   0.301
 9153SOL    HW228359   0.305   2.570   0.222
 9154SOL     OW28360   5.729   4.406   5.159
 9154SOL    HW128361   5.670   4.470   5.209
 9154SOL    HW228362   5.821   4.409   5.197
 9155SOL     OW28363   1.753   4.221   2.759
 9155SOL    HW128364   1.689   4.241   2.685
 9155SOL    HW228365   1.728   4.273   2.840
 9156SOL     OW28366   6.950   1.780   0.445
 9156SOL    HW128367   0.014   1.729   0.467
 9156SOL    HW228368   6.963   1.876   0.467
 9157SOL     OW28369   2.620   4.330   0.299
 9157SOL    HW128370   2.554   4.356   0.229
 9157SOL    HW228371   2.621   4.398   0.372
 9158SOL     OW28372   6.481   4.039   4.657
 9158SOL    HW128373   6.573   4.042   4.617
 9158SOL    HW228374   6.413   4.050   4.585
 9159SOL     OW28375   1.802   0.645   3.333
 9159SOL    HW128376   1.835   0.722   3.278
 9159SOL    HW228377   1.725   0.602   3.286
 9160SOL     OW28378   0.647   6.212   6.236
 9160SOL    HW128379   0.639   6.283   6.306
 9160SOL    HW228380   0.600   6.242   6.153
 9161SOL     OW28381   5.559   5.046   3.293
 9161SOL    HW128382   5.610   5.096   3.223
 9161SOL    HW228383   5.623   4.995   3.351
 9162SOL     OW28384   3.998   0.342   2.828
 9162SOL    HW128385   3.972   0.423   2.775
 9162SOL    HW228386   4.091   0.354   2.863
 9163SOL     OW28387   0.043   3.399   3.888
 9163SOL    HW128388   7.000   3.334   3.845
 9163SOL    HW228389   0.129   3.400   3.837
 9164SOL     OW28390   2.339   0.909   6.707
 9164SOL    HW128391   2.293   0.846   6.768
 9164SOL    HW228392   2.300   1.001   6.718
 9165SOL     OW28393   5.026   1.601   5.807
 9165SOL    HW128394   4.960   1.600   5.882
 9165SOL    HW228395   5.048   1.696   5.783
 9166SOL     OW28396   4.268   5.202   0.721
 9166SOL    HW128397   4.364   5.209   0.695
 9166SOL    HW228398   4.238   5.107   0.714
 9167SOL     OW28399   2.151   1.785   5.673
 9167SOL    HW128400   2.102   1.839   5.605
 9167SOL    HW228401   2.111   1.801   5.763
 9168SOL     OW28402   0.048   6.330   6.717
 9168SOL    HW128403   0.036   6.308   6.620
 9168SOL    HW228404   7.007   6.272   6.772
 9169SOL     OW28405   0.206   6.544   6.468
 9169SOL    HW128406   0.131   6.478   6.456
 9169SOL    HW228407   0.274   6.506   6.531
 9170SOL     OW28408   1.932   0.312   6.119
 9170SOL    HW128409   1.872   0.388   6.095
 9170SOL    HW228410   1.895   0.227   6.079
 9171SOL     OW28411   3.623   5.952   0.857
 9171SOL    HW128412   3.571   5.997   0.784
 9171SOL    HW228413   3.613   5.853   0.847
 9172SOL     OW28414   4.709   0.946   3.837
 9172SOL    HW128415   4.762   0.956   3.921
 9172SOL    HW228416   4.755   0.882   3.776
 9173SOL     OW28417   6.300   3.859   5.345
 9173SOL    HW128418   6.215   3.902   5.316
 9173SOL    HW228419   6.377   3.902   5.297
 9174SOL     OW28420   0.500   5.718   0.759
 9174SOL    HW128421   0.434   5.718   0.684
 9174SOL    HW228422   0.562   5.640   0.750
 9175SOL     OW28423   1.232   6.965   6.254
 9175SOL    HW128424   1.150   0.000   6.238
 9175SOL    HW228425   1.286   7.006   6.328
 9176SOL     OW28426   3.193   0.686   2.386
 9176SOL    HW128427   3.096   0.663   2.376
 9176SOL    HW228428   3.214   0.767   2.331
 9177SOL     OW28429   0.935   3.073   4.065
 9177SOL    HW128430   0.854   3.060   4.123
 9177SOL    HW228431   1.013   3.098   4.121
 9178SOL     OW28432   2.094   5.362   6.832
 9178SOL    HW128433   2.089   5.423   6.753
 9178SOL    HW228434   2.007   5.314   6.843
 9179SOL     OW28435   1.491   5.396   4.766
 9179SOL    HW128436   1.580   5.387   4.810
 9179SOL    HW228437   1.443   5.475   4.802
 9180SOL     OW28438   5.882   2.639   3.580
 9180SOL    HW128439   5.980   2.630   3.597
 9180SOL    HW228440   5.850   2.562   3.525
 9181SOL     OW28441   5.058   2.422   3.889
 9181SOL    HW128442   4.984   2.442   3.954
 9181SOL    HW228443   5.134   2.485   3.906
 9182SOL     OW28444   3.248   0.039   3.073
 9182SOL    HW128445   3.252   6.980   3.012
 9182SOL    HW228446   3.164   0.035   3.128
 9183SOL     OW28447   4.751   4.801   6.639
 9183SOL    HW128448   4.789   4.708   6.632
 9183SOL    HW228449   4.786   4.856   6.563
 9184SOL     OW28450   4.225   2.211   1.163
 9184SOL    HW128451   4.162   2.137   1.184
 9184SOL    HW228452   4.278   2.188   1.082
 9185SOL     OW28453   6.799   6.816   4.787
 9185SOL    HW128454   6.766   6.904   4.821
 9185SOL    HW228455   6.860   6.832   4.709
 9186SOL     OW28456   5.173   0.564   5.107
 9186SOL    HW128457   5.146   0.656   5.079
 9186SOL    HW228458   5.221   0.518   5.032
 9187SOL     OW28459   4.108   1.935   6.920
 9187SOL    HW128460   4.023   1.955   6.871
 9187SOL    HW228461   4.126   1.837   6.918
 9188SOL     OW28462   2.053   0.757   1.330
 9188SOL    HW128463   2.068   0.834   1.391
 9188SOL    HW228464   1.995   0.786   1.253
 9189SOL     OW28465   3.583   6.297   2.457
 9189SOL    HW128466   3.486   6.312   2.475
 9189SOL    HW228467   3.637   6.363   2.510
 9190SOL     OW28468   0.709   3.727   5.318
 9190SOL    HW128469   0.672   3.796   5.256
 9190SOL    HW228470   0.695   3.757   5.413
 9191SOL     OW28471   5.703   1.131   6.539
 9191SOL    HW128472   5.661   1.047   6.572
 9191SOL    HW228473   5.687   1.140   6.440
 9192SOL     OW28474   6.459   2.503   6.529
 9192SOL    HW128475   6.392   2.494   6.455
 9192SOL    HW228476   6.544   2.458   6.503
 9193SOL     OW28477   4.107   3.639   4.664
 9193SOL    HW128478   4.085   3.693   4.582
 9193SOL    HW228479   4.201   3.658   4.691
 9194SOL     OW28480   2.912   6.850   2.177
 9194SOL    HW128481   2.973   6.873   2.102
 9194SOL    HW228482   2.859   6.931   2.203
 9195SOL     OW28483   1.800   3.372   2.941
 9195SOL    HW128484   1.788   3.432   2.862
 9195SOL    HW228485   1.727   3.304   2.942
 9196SOL     OW28486   5.521   6.743   3.313
 9196SOL    HW128487   5.504   6.646   3.326
 9196SOL    HW228488   5.586   6.757   3.239
 9197SOL     OW28489   2.918   5.305   1.046
 9197SOL    HW128490   2.852   5.360   0.995
 9197SOL    HW228491   2.935   5.347   1.135
 9198SOL     OW28492   6.357   4.342   6.772
 9198SOL    HW128493   6.301   4.374   6.849
 9198SOL    HW228494   6.444   4.390   6.772
 9199SOL     OW28495   0.692   2.972   6.063
 9199SOL    HW128496   0.714   2.876   6.082
 9199SOL    HW228497   0.627   3.006   6.131
 9200SOL     OW28498   2.054   6.052   5.623
 9200SOL    HW128499   2.104   6.133   5.593
 9200SOL    HW228500   2.095   6.018   5.709
 9201SOL     OW28501   0.841   2.848   1.092
 9201SOL    HW128502   0.769   2.811   1.150
 9201SOL    HW228503   0.840   2.802   1.003
 9202SOL     OW28504   0.664   6.152   3.818
 9202SOL    HW128505   0.672   6.053   3.809
 9202SOL    HW228506   0.753   6.194   3.798
 9203SOL     OW28507   5.742   2.914   5.812
 9203SOL    HW128508   5.719   2.895   5.716
 9203SOL    HW228509   5.660   2.904   5.868
 9204SOL     OW28510   4.932   3.569   4.159
 9204SOL    HW128511   4.958   3.620   4.241
 9204SOL    HW228512   4.913   3.474   4.183
 9205SOL     OW28513   4.602   5.722   3.069
 9205SOL    HW128514   4.658   5.763   3.141
 9205SOL    HW228515   4.632   5.754   2.980
 9206SOL     OW28516   3.322   6.596   3.744
 9206SOL    HW128517   3.248   6.564   3.802
 9206SOL    HW228518   3.370   6.518   3.705
 9207SOL     OW28519   3.609   5.235   0.176
 9207SOL    HW128520   3.675   5.174   0.133
 9207SOL    HW228521   3.616   5.326   0.136
 9208SOL     OW28522   5.396   3.925   2.086
 9208SOL    HW128523   5.477   3.936   2.143
 9208SOL    HW228524   5.321   3.979   2.124
 9209SOL     OW28525   4.420   0.260   1.376
 9209SOL    HW128526   4.420   0.162   1.357
 9209SOL    HW228527   4.496   0.304   1.328
 9210SOL     OW28528   0.584   0.441   1.521
 9210SOL    HW128529   0.636   0.361   1.489
 9210SOL    HW228530   0.617   0.523   1.475
 9211SOL     OW28531   5.720   3.142   6.942
 9211SOL    HW128532   5.631   3.099   6.931
 9211SOL    HW228533   5.776   3.088   7.004
 9212SOL     OW28534   5.117   3.995   4.680
 9212SOL    HW128535   5.141   3.908   4.722
 9212SOL    HW228536   5.074   3.978   4.591
 9213SOL     OW28537   4.767   6.091   4.537
 9213SOL    HW128538   4.865   6.082   4.524
 9213SOL    HW228539   4.719   6.027   4.476
 9214SOL     OW28540   6.903   2.836   5.033
 9214SOL    HW128541   6.996   2.867   5.050
 9214SOL    HW228542   6.900   2.785   4.947
 9215SOL     OW28543   1.435   5.054   2.449
 9215SOL    HW128544   1.484   5.003   2.378
 9215SOL    HW228545   1.495   5.125   2.486
 9216SOL     OW28546   2.543   6.472   3.923
 9216SOL    HW128547   2.614   6.432   3.866
 9216SOL    HW228548   2.462   6.414   3.920
 9217SOL     OW28549   5.923   2.497   0.458
 9217SOL    HW128550   5.980   2.435   0.403
 9217SOL    HW228551   5.904   2.455   0.546
 9218SOL     OW28552   4.157   0.343   0.008
 9218SOL    HW128553   4.108   0.411   0.063
 9218SOL    HW228554   4.108   0.327   6.942
 9219SOL     OW28555   4.039   3.604   5.764
 9219SOL    HW128556   4.082   3.679   5.714
 9219SOL    HW228557   4.016   3.634   5.857
 9220SOL     OW28558   1.712   6.446   2.256
 9220SOL    HW128559   1.757   6.434   2.345
 9220SOL    HW228560   1.688   6.542   2.244
 9221SOL     OW28561   2.687   0.225   4.268
 9221SOL    HW128562   2.739   0.186   4.192
 9221SOL    HW228563   2.703   0.324   4.272
 9222SOL     OW28564   2.566   5.427   4.470
 9222SOL    HW128565   2.598   5.373   4.548
 9222SOL    HW228566   2.533   5.516   4.502
 9223SOL     OW28567   1.042   2.794   4.019
 9223SOL    HW128568   0.951   2.757   4.001
 9223SOL    HW228569   1.041   2.893   4.009
 9224SOL     OW28570   1.303   4.605   3.313
 9224SOL    HW128571   1.368   4.611   3.237
 9224SOL    HW228572   1.255   4.692   3.322
 9225SOL     OW28573   3.482   5.809   5.807
 9225SOL    HW128574   3.476   5.771   5.715
 9225SOL    HW228575   3.542   5.752   5.863
 9226SOL     OW28576   0.466   6.889   1.326
 9226SOL    HW128577   0.485   6.973   1.275
 9226SOL    HW228578   0.503   6.896   1.418
 9227SOL     OW28579   1.730   6.127   1.391
 9227SOL    HW128580   1.820   6.158   1.422
 9227SOL    HW228581   1.706   6.174   1.306
 9228SOL     OW28582   2.199   2.233   0.375
 9228SOL    HW128583   2.109   2.266   0.347
 9228SOL    HW228584   2.188   2.157   0.440
 9229SOL     OW28585   1.338   4.704   5.832
 9229SOL    HW128586   1.350   4.792   5.786
 9229SOL    HW228587   1.416   4.688   5.893
 9230SOL     OW28588   4.970   3.345   3.011
 9230SOL    HW128589   4.954   3.337   2.912
 9230SOL    HW228590   4.931   3.265   3.057
 9231SOL     OW28591   1.319   2.933   5.496
 9231SOL    HW128592   1.341   2.849   5.447
 9231SOL    HW228593   1.356   3.011   5.446
 9232SOL     OW28594   2.848   5.350   0.464
 9232SOL    HW128595   2.789   5.342   0.384
 9232SOL    HW228596   2.795   5.383   0.542
 9233SOL     OW28597   0.288   6.519   0.639
 9233SOL    HW128598   0.347   6.455   0.688
 9233SOL    HW228599   0.327   6.539   0.550
 9234SOL     OW28600   2.458   5.930   0.942
 9234SOL    HW128601   2.507   5.987   1.009
 9234SOL    HW228602   2.506   5.842   0.932
 9235SOL     OW28603   2.007   3.171   3.025
 9235SOL    HW128604   1.975   3.076   3.030
 9235SOL    HW228605   1.942   3.224   2.971
 9236SOL     OW28606   1.947   3.925   0.079
 9236SOL    HW128607   1.903   3.895   7.014
 9236SOL    HW228608   2.046   3.922   0.067
 9237SOL     OW28609   0.497   5.738   3.511
 9237SOL    HW128610   0.465   5.720   3.418
 9237SOL    HW228611   0.535   5.830   3.516
 9238SOL     OW28612   2.912   2.488   6.103
 9238SOL    HW128613   2.904   2.579   6.062
 9238SOL    HW228614   2.926   2.497   6.202
 9239SOL     OW28615   6.996   4.233   6.626
 9239SOL    HW128616   6.926   4.250   6.695
 9239SOL    HW228617   0.007   4.138   6.631
 9240SOL     OW28618   5.015   2.967   1.853
 9240SOL    HW128619   4.927   2.987   1.896
 9240SOL    HW228620   5.009   2.984   1.755
 9241SOL     OW28621   0.230   5.569   0.992
 9241SOL    HW128622   0.223   5.585   0.894
 9241SOL    HW228623   0.138   5.568   1.032
 9242SOL     OW28624   1.484   3.953   1.689
 9242SOL    HW128625   1.387   3.963   1.713
 9242SOL    HW228626   1.518   3.866   1.722
 9243SOL     OW28627   6.840   0.810   1.500
 9243SOL    HW128628   6.786   0.838   1.420
 9243SOL    HW228629   6.820   0.715   1.522
 9244SOL     OW28630   2.704   5.710   6.151
 9244SOL    HW128631   2.657   5.681   6.235
 9244SOL    HW228632   2.674   5.653   6.075
 9245SOL     OW28633   0.803   4.990   3.473
 9245SOL    HW128634   0.738   5.006   3.399
 9245SOL    HW228635   0.875   5.058   3.470
 9246SOL     OW28636   5.826   0.186   3.001
 9246SOL    HW128637   5.912   0.145   2.969
 9246SOL    HW228638   5.750   0.152   2.945
 9247SOL     OW28639   2.464   6.111   2.799
 9247SOL    HW128640   2.552   6.152   2.824
 9247SOL    HW228641   2.462   6.094   2.701
 9248SOL     OW28642   2.884   2.008   4.541
 9248SOL    HW128643   2.973   1.969   4.562
 9248SOL    HW228644   2.890   2.107   4.537
 9249SOL     OW28645   4.484   4.995   1.399
 9249SOL    HW128646   4.469   4.943   1.483
 9249SOL    HW228647   4.510   5.089   1.422
 9250SOL     OW28648   6.403   2.825   4.701
 9250SOL    HW128649   6.468   2.889   4.661
 9250SOL    HW228650   6.452   2.749   4.745
 9251SOL     OW28651   4.039   1.497   2.542
 9251SOL    HW128652   4.081   1.460   2.458
 9251SOL    HW228653   4.053   1.596   2.545
 9252SOL     OW28654   4.966   0.385   4.810
 9252SOL    HW128655   4.903   0.320   4.767
 9252SOL    HW228656   4.983   0.461   4.749
 9253SOL     OW28657   5.310   4.672   5.386
 9253SOL    HW128658   5.343   4.705   5.475
 9253SOL    HW228659   5.213   4.695   5.376
 9254SOL     OW28660   4.637   4.728   3.097
 9254SOL    HW128661   4.546   4.690   3.114
 9254SOL    HW228662   4.683   4.746   3.184
 9255SOL     OW28663   4.899   3.861   0.320
 9255SOL    HW128664   4.842   3.932   0.279
 9255SOL    HW228665   4.842   3.781   0.340
 9256SOL     OW28666   2.691   0.861   2.398
 9256SOL    HW128667   2.605   0.828   2.358
 9256SOL    HW228668   2.748   0.784   2.423
 9257SOL     OW28669   5.989   5.072   3.610
 9257SOL    HW128670   6.050   5.003   3.571
 9257SOL    HW228671   5.912   5.028   3.654
 9258SOL     OW28672   3.969   2.890   1.689
 9258SOL    HW128673   3.960   2.920   1.783
 9258SOL    HW228674   3.957   2.790   1.685
 9259SOL     OW28675   1.255   1.703   0.783
 9259SOL    HW128676   1.317   1.663   0.716
 9259SOL    HW228677   1.222   1.632   0.845
 9260SOL     OW28678   6.149   1.844   5.732
 9260SOL    HW128679   6.124   1.795   5.816
 9260SOL    HW228680   6.187   1.779   5.666
 9261SOL     OW28681   3.860   1.697   0.138
 9261SOL    HW128682   3.839   1.600   0.148
 9261SOL    HW228683   3.776   1.748   0.119
 9262SOL     OW28684   0.558   5.725   5.261
 9262SOL    HW128685   0.615   5.728   5.344
 9262SOL    HW228686   0.469   5.765   5.281
 9263SOL     OW28687   3.022   6.389   2.788
 9263SOL    HW128688   2.981   6.312   2.738
 9263SOL    HW228689   3.088   6.354   2.854
 9264SOL     OW28690   4.803   4.567   0.241
 9264SOL    HW128691   4.741   4.488   0.230
 9264SOL    HW228692   4.751   4.651   0.229
 9265SOL     OW28693   3.101   2.526   0.071
 9265SOL    HW128694   3.184   2.551   0.022
 9265SOL    HW228695   3.125   2.490   0.161
 9266SOL     OW28696   1.529   6.079   0.708
 9266SOL    HW128697   1.489   6.055   0.796
 9266SOL    HW228698   1.475   6.040   0.634
 9267SOL     OW28699   6.835   2.000   4.609
 9267SOL    HW128700   6.835   1.900   4.618
 9267SOL    HW228701   6.922   2.037   4.642
 9268SOL     OW28702   1.699   0.091   2.367
 9268SOL    HW128703   1.623   0.047   2.414
 9268SOL    HW228704   1.774   0.026   2.356
 9269SOL     OW28705   3.883   0.986   6.243
 9269SOL    HW128706   3.829   1.006   6.161
 9269SOL    HW228707   3.961   1.047   6.248
 9270SOL     OW28708   4.419   6.763   5.667
 9270SOL    HW128709   4.350   6.759   5.739
 9270SOL    HW228710   4.503   6.717   5.697
 9271SOL     OW28711   6.118   6.672   0.098
 9271SOL    HW128712   6.041   6.624   0.055
 9271SOL    HW228713   6.093   6.698   0.192
 9272SOL     OW28714   0.945   5.150   5.929
 9272SOL    HW128715   0.893   5.092   5.865
 9272SOL    HW228716   0.995   5.220   5.877
 9273SOL     OW28717   6.390   6.331   3.151
 9273SOL    HW128718   6.318   6.297   3.211
 9273SOL    HW228719   6.357   6.328   3.056
 9274SOL     OW28720   0.369   1.580   6.868
 9274SOL    HW128721   0.305   1.512   6.905
 9274SOL    HW228722   0.404   1.636   6.943
 9275SOL     OW28723   6.779   0.892   0.147
 9275SOL    HW128724   6.714   0.938   0.207
 9275SOL    HW228725   6.730   0.837   0.079
 9276SOL     OW28726   1.438   4.534   0.643
 9276SOL    HW128727   1.358   4.479   0.664
 9276SOL    HW228728   1.412   4.631   0.641
 9277SOL     OW28729   4.645   4.556   1.949
 9277SOL    HW128730   4.598   4.643   1.964
 9277SOL    HW228731   4.578   4.481   1.950
 9278SOL     OW28732   1.716   0.405   5.306
 9278SOL    HW128733   1.717   0.307   5.327
 9278SOL    HW228734   1.685   0.419   5.212
 9279SOL     OW28735   2.723   0.283   1.678
 9279SOL    HW128736   2.707   0.381   1.690
 9279SOL    HW228737   2.674   0.251   1.597
 9280SOL     OW28738   2.722   1.543   2.721
 9280SOL    HW128739   2.738   1.637   2.752
 9280SOL    HW228740   2.632   1.538   2.676
 9281SOL     OW28741   3.362   4.226   6.919
 9281SOL    HW128742   3.351   4.126   6.923
 9281SOL    HW228743   3.383   4.253   6.825
 9282SOL     OW28744   5.308   1.294   3.668
 9282SOL    HW128745   5.394   1.286   3.719
 9282SOL    HW228746   5.249   1.216   3.690
 9283SOL     OW28747   4.756   0.421   4.255
 9283SOL    HW128748   4.833   0.366   4.290
 9283SOL    HW228749   4.683   0.360   4.224
 9284SOL     OW28750   2.846   2.590   5.362
 9284SOL    HW128751   2.774   2.658   5.344
 9284SOL    HW228752   2.812   2.499   5.337
 9285SOL     OW28753   5.178   3.605   1.470
 9285SOL    HW128754   5.186   3.652   1.558
 9285SOL    HW228755   5.111   3.531   1.477
 9286SOL     OW28756   5.651   5.768   1.191
 9286SOL    HW128757   5.611   5.820   1.116
 9286SOL    HW228758   5.596   5.687   1.210
 9287SOL     OW28759   3.830   5.107   6.718
 9287SOL    HW128760   3.895   5.037   6.688
 9287SOL    HW228761   3.739   5.067   6.729
 9288SOL     OW28762   4.615   1.867   2.774
 9288SOL    HW128763   4.679   1.941   2.751
 9288SOL    HW228764   4.638   1.786   2.721
 9289SOL     OW28765   5.111   0.042   1.297
 9289SOL    HW128766   5.193   0.082   1.257
 9289SOL    HW228767   5.126   0.026   1.395
 9290SOL     OW28768   5.548   0.966   3.796
 9290SOL    HW128769   5.624   0.923   3.746
 9290SOL    HW228770   5.469   0.905   3.795
 9291SOL     OW28771   1.106   4.947   5.535
 9291SOL    HW128772   1.179   4.919   5.473
 9291SOL    HW228773   1.118   4.901   5.623
 9292SOL     OW28774   2.693   2.417   6.832
 9292SOL    HW128775   2.684   2.359   6.751
 9292SOL    HW228776   2.666   2.365   6.913
 9293SOL     OW28777   6.371   3.651   6.832
 9293SOL    HW128778   6.412   3.733   6.791
 9293SOL    HW228779   6.428   3.620   6.908
 9294SOL     OW28780   5.600   0.952   6.200
 9294SOL    HW128781   5.566   0.993   6.116
 9294SOL    HW228782   5.524   0.908   6.248
 9295SOL     OW28783   5.391   0.341   5.436
 9295SOL    HW128784   5.485   0.347   5.471
 9295SOL    HW228785   5.375   0.248   5.401
 9296SOL     OW28786   1.912   5.420   0.239
 9296SOL    HW128787   1.858   5.423   0.155
 9296SOL    HW228788   2.004   5.386   0.218
 9297SOL     OW28789   0.976   7.018   2.760
 9297SOL    HW128790   0.900   6.954   2.761
 9297SOL    HW228791   0.948   0.085   2.801
 9298SOL     OW28792   0.885   6.709   6.385
 9298SOL    HW128793   0.896   6.620   6.341
 9298SOL    HW228794   0.960   6.769   6.357
 9299SOL     OW28795   0.995   2.072   4.304
 9299SOL    HW128796   1.018   1.981   4.269
 9299SOL    HW228797   0.975   2.066   4.401
 9300SOL     OW28798   0.554   4.515   5.758
 9300SOL    HW128799   0.472   4.573   5.760
 9300SOL    HW228800   0.632   4.568   5.791
 9301SOL     OW28801   5.518   5.551   4.938
 9301SOL    HW128802   5.457   5.580   4.864
 9301SOL    HW228803   5.560   5.464   4.913
 9302SOL     OW28804   1.958   3.142   4.106
 9302SOL    HW128805   1.908   3.212   4.156
 9302SOL    HW228806   2.042   3.119   4.155
 9303SOL     OW28807   3.063   3.614   0.631
 9303SOL    HW128808   3.029   3.673   0.557
 9303SOL    HW228809   3.074   3.521   0.597
 9304SOL     OW28810   4.359   4.805   0.626
 9304SOL    HW128811   4.377   4.745   0.704
 9304SOL    HW228812   4.300   4.757   0.561
 9305SOL     OW28813   3.824   0.786   0.793
 9305SOL    HW128814   3.807   0.798   0.891
 9305SOL    HW228815   3.761   0.717   0.756
 9306SOL     OW28816   1.308   3.475   5.611
 9306SOL    HW128817   1.265   3.420   5.539
 9306SOL    HW228818   1.259   3.561   5.620
 9307SOL     OW28819   1.370   3.840   1.077
 9307SOL    HW128820   1.453   3.894   1.067
 9307SOL    HW228821   1.344   3.802   0.989
 9308SOL     OW28822   1.438   3.361   1.835
 9308SOL    HW128823   1.404   3.405   1.752
 9308SOL    HW228824   1.420   3.262   1.829
 9309SOL     OW28825   2.575   5.287   5.473
 9309SOL    HW128826   2.485   5.296   5.515
 9309SOL    HW228827   2.645   5.315   5.540
 9310SOL     OW28828   5.490   5.835   5.699
 9310SOL    HW128829   5.452   5.927   5.686
 9310SOL    HW228830   5.545   5.834   5.782
 9311SOL     OW28831   4.945   4.451   1.159
 9311SOL    HW128832   4.980   4.401   1.238
 9311SOL    HW228833   5.020   4.503   1.117
 9312SOL     OW28834   2.009   2.799   1.100
 9312SOL    HW128835   2.005   2.781   1.198
 9312SOL    HW228836   1.917   2.801   1.062
 9313SOL     OW28837   0.203   0.470   1.485
 9313SOL    HW128838   0.183   0.372   1.479
 9313SOL    HW228839   0.118   0.521   1.473
 9314SOL     OW28840   6.772   3.358   6.815
 9314SOL    HW128841   6.814   3.304   6.888
 9314SOL    HW228842   6.701   3.304   6.770
 9315SOL     OW28843   6.765   6.662   5.700
 9315SOL    HW128844   6.809   6.638   5.786
 9315SOL    HW228845   6.834   6.669   5.628
 9316SOL     OW28846   6.392   6.091   5.436
 9316SOL    HW128847   6.423   6.163   5.499
 9316SOL    HW228848   6.456   6.083   5.360
 9317SOL     OW28849   4.359   5.694   4.579
 9317SOL    HW128850   4.359   5.639   4.663
 9317SOL    HW228851   4.404   5.643   4.506
 9318SOL     OW28852   6.395   0.378   7.009
 9318SOL    HW128853   6.447   0.462   6.990
 9318SOL    HW228854   6.439   0.300   6.965
 9319SOL     OW28855   2.311   3.092   1.252
 9319SOL    HW128856   2.319   3.188   1.279
 9319SOL    HW228857   2.389   3.066   1.195
 9320SOL     OW28858   4.114   0.452   5.281
 9320SOL    HW128859   4.053   0.468   5.203
 9320SOL    HW228860   4.209   0.454   5.249
 9321SOL     OW28861   0.981   0.910   4.953
 9321SOL    HW128862   0.945   0.880   4.864
 9321SOL    HW228863   0.992   0.830   5.012
 9322SOL     OW28864   0.181   4.337   6.827
 9322SOL    HW128865   0.128   4.298   6.751
 9322SOL    HW228866   0.132   4.415   6.865
 9323SOL     OW28867   0.983   0.995   4.655
 9323SOL    HW128868   0.883   0.996   4.646
 9323SOL    HW228869   1.008   1.024   4.748
 9324SOL     OW28870   1.825   3.914   2.504
 9324SOL    HW128871   1.735   3.893   2.467
 9324SOL    HW228872   1.888   3.934   2.429
 9325SOL     OW28873   6.974   0.180   0.200
 9325SOL    HW128874   6.875   0.176   0.186
 9325SOL    HW228875   7.001   0.274   0.217
 9326SOL     OW28876   2.609   5.164   0.285
 9326SOL    HW128877   2.632   5.163   0.188
 9326SOL    HW228878   2.583   5.257   0.312
 9327SOL     OW28879   4.385   6.950   2.524
 9327SOL    HW128880   4.377   0.024   2.556
 9327SOL    HW228881   4.472   6.939   2.476
 9328SOL     OW28882   2.087   0.870   4.648
 9328SOL    HW128883   2.103   0.847   4.552
 9328SOL    HW228884   2.060   0.966   4.655
 9329SOL     OW28885   6.283   4.318   0.716
 9329SOL    HW128886   6.358   4.333   0.780
 9329SOL    HW228887   6.244   4.406   0.689
 9330SOL     OW28888   6.720   0.030   5.739
 9330SOL    HW128889   6.644   0.058   5.680
 9330SOL    HW228890   6.726   6.950   5.741
 9331SOL     OW28891   2.237   1.074   6.337
 9331SOL    HW128892   2.270   1.047   6.246
 9331SOL    HW228893   2.222   0.992   6.392
 9332SOL     OW28894   3.398   5.338   0.562
 9332SOL    HW128895   3.300   5.328   0.547
 9332SOL    HW228896   3.417   5.327   0.660
 9333SOL     OW28897   3.790   5.637   6.626
 9333SOL    HW128898   3.724   5.670   6.693
 9333SOL    HW228899   3.873   5.691   6.632
 9334SOL     OW28900   4.708   6.157   4.996
 9334SOL    HW128901   4.778   6.085   4.994
 9334SOL    HW228902   4.678   6.176   4.903
 9335SOL     OW28903   1.828   1.344   6.842
 9335SOL    HW128904   1.928   1.343   6.846
 9335SOL    HW228905   1.792   1.418   6.899
 9336SOL     OW28906   4.706   6.891   4.227
 9336SOL    HW128907   4.782   6.846   4.181
 9336SOL    HW228908   4.741   6.963   4.287
 9337SOL     OW28909   4.869   1.042   5.484
 9337SOL    HW128910   4.798   0.987   5.528
 9337SOL    HW228911   4.912   1.101   5.552
 9338SOL     OW28912   6.066   0.065   1.109
 9338SOL    HW128913   6.079   0.126   1.187
 9338SOL    HW228914   6.064   6.990   1.142
 9339SOL     OW28915   6.291   5.966   0.350
 9339SOL    HW128916   6.310   5.874   0.317
 9339SOL    HW228917   6.193   5.983   0.347
 9340SOL     OW28918   3.893   4.884   3.132
 9340SOL    HW128919   3.988   4.868   3.106
 9340SOL    HW228920   3.842   4.919   3.054
 9341SOL     OW28921   5.582   4.361   0.721
 9341SOL    HW128922   5.649   4.433   0.742
 9341SOL    HW228923   5.616   4.304   0.647
 9342SOL     OW28924   2.216   0.078   4.650
 9342SOL    HW128925   2.123   0.071   4.615
 9342SOL    HW228926   2.242   7.013   4.695
 9343SOL     OW28927   4.835   3.936   1.984
 9343SOL    HW128928   4.831   3.882   2.069
 9343SOL    HW228929   4.791   4.025   1.999
 9344SOL     OW28930   5.115   6.096   1.135
 9344SOL    HW128931   5.141   6.009   1.092
 9344SOL    HW228932   5.193   6.158   1.133
 9345SOL     OW28933   6.566   4.796   1.333
 9345SOL    HW128934   6.480   4.841   1.356
 9345SOL    HW228935   6.627   4.861   1.289
 9346SOL     OW28936   4.259   0.505   1.713
 9346SOL    HW128937   4.328   0.566   1.674
 9346SOL    HW228938   4.229   0.439   1.643
 9347SOL     OW28939   2.977   5.946   0.401
 9347SOL    HW128940   2.993   5.905   0.491
 9347SOL    HW228941   2.944   6.040   0.413
 9348SOL     OW28942   2.793   5.482   2.394
 9348SOL    HW128943   2.737   5.513   2.471
 9348SOL    HW228944   2.877   5.535   2.391
 9349SOL     OW28945   6.518   5.313   2.076
 9349SOL    HW128946   6.549   5.306   1.982
 9349SOL    HW228947   6.594   5.344   2.134
 9350SOL     OW28948   6.399   1.463   4.557
 9350SOL    HW128949   6.345   1.547   4.562
 9350SOL    HW228950   6.443   1.459   4.467
 9351SOL     OW28951   3.718   0.078   6.342
 9351SOL    HW128952   3.639   0.058   6.400
 9351SOL    HW228953   3.718   0.176   6.319
 9352SOL     OW28954   3.433   2.221   6.379
 9352SOL    HW128955   3.526   2.192   6.356
 9352SOL    HW228956   3.371   2.142   6.373
 9353SOL     OW28957   0.677   4.781   1.382
 9353SOL    HW128958   0.703   4.792   1.478
 9353SOL    HW228959   0.662   4.871   1.341
 9354SOL     OW28960   0.013   2.046   6.283
 9354SOL    HW128961   6.944   2.083   6.312
 9354SOL    HW228962   0.024   1.953   6.318
 9355SOL     OW28963   7.002   1.741   4.574
 9355SOL    HW128964   0.022   1.709   4.661
 9355SOL    HW228965   0.055   1.751   4.507
 9356SOL     OW28966   5.045   5.736   2.089
 9356SOL    HW128967   5.119   5.673   2.116
 9356SOL    HW228968   4.957   5.689   2.097
 9357SOL     OW28969   3.115   3.091   6.197
 9357SOL    HW128970   3.030   3.085   6.249
 9357SOL    HW228971   3.177   3.156   6.242
 9358SOL     OW28972   6.109   3.032   2.398
 9358SOL    HW128973   6.068   3.050   2.487
 9358SOL    HW228974   6.208   3.040   2.404
 9359SOL     OW28975   1.116   3.667   5.860
 9359SOL    HW128976   1.121   3.671   5.760
 9359SOL    HW228977   1.033   3.715   5.890
 9360SOL     OW28978   1.709   6.011   6.560
 9360SOL    HW128979   1.711   6.111   6.563
 9360SOL    HW228980   1.751   5.980   6.474
 9361SOL     OW28981   1.321   6.332   3.032
 9361SOL    HW128982   1.408   6.293   3.060
 9361SOL    HW228983   1.301   6.412   3.087
 9362SOL     OW28984   2.041   2.653   2.640
 9362SOL    HW128985   2.026   2.751   2.652
 9362SOL    HW228986   2.108   2.638   2.567
 9363SOL     OW28987   3.603   6.565   1.862
 9363SOL    HW128988   3.633   6.514   1.942
 9363SOL    HW228989   3.594   6.662   1.885
 9364SOL     OW28990   3.785   3.094   5.998
 9364SOL    HW128991   3.848   3.090   5.921
 9364SOL    HW228992   3.836   3.092   6.084
 9365SOL     OW28993   2.423   2.066   4.961
 9365SOL    HW128994   2.426   2.157   5.002
 9365SOL    HW228995   2.443   2.073   4.863
 9366SOL     OW28996   3.242   6.763   0.121
 9366SOL    HW128997   3.171   6.725   0.181
 9366SOL    HW228998   3.202   6.787   0.033
 9367SOL     OW28999   6.760   6.210   2.794
 9367SOL    HW129000   6.839   6.201   2.734
 9367SOL    HW229001   6.762   6.139   2.864
 9368SOL     OW29002   2.555   1.302   3.642
 9368SOL    HW129003   2.507   1.354   3.713
 9368SOL    HW229004   2.649   1.286   3.670
 9369SOL     OW29005   6.611   6.639   4.655
 9369SOL    HW129006   6.688   6.691   4.692
 9369SOL    HW229007   6.574   6.579   4.726
 9370SOL     OW29008   4.839   0.602   2.245
 9370SOL    HW129009   4.762   0.650   2.203
 9370SOL    HW229010   4.848   0.511   2.203
 9371SOL     OW29011   1.456   4.843   0.923
 9371SOL    HW129012   1.484   4.750   0.899
 9371SOL    HW229013   1.356   4.846   0.935
 9372SOL     OW29014   5.550   6.018   2.561
 9372SOL    HW129015   5.547   6.116   2.583
 9372SOL    HW229016   5.458   5.986   2.540
 9373SOL     OW29017   4.604   1.720   2.165
 9373SOL    HW129018   4.652   1.786   2.107
 9373SOL    HW229019   4.505   1.739   2.162
 9374SOL     OW29020   0.788   3.343   0.579
 9374SOL    HW129021   0.789   3.390   0.668
 9374SOL    HW229022   0.882   3.321   0.553
 9375SOL     OW29023   6.886   1.366   3.060
 9375SOL    HW129024   6.966   1.315   3.028
 9375SOL    HW229025   6.857   1.430   2.989
 9376SOL     OW29026   3.095   4.663   1.220
 9376SOL    HW129027   3.122   4.698   1.130
 9376SOL    HW229028   3.097   4.563   1.218
 9377SOL     OW29029   1.892   5.443   3.996
 9377SOL    HW129030   1.868   5.497   3.916
 9377SOL    HW229031   1.829   5.365   4.004
 9378SOL     OW29032   1.719   1.442   5.321
 9378SOL    HW129033   1.698   1.402   5.410
 9378SOL    HW229034   1.635   1.447   5.267
 9379SOL     OW29035   3.477   5.677   5.547
 9379SOL    HW129036   3.471   5.727   5.461
 9379SOL    HW229037   3.525   5.590   5.532
 9380SOL     OW29038   5.480   5.002   4.840
 9380SOL    HW129039   5.425   5.051   4.907
 9380SOL    HW229040   5.492   4.907   4.868
 9381SOL     OW29041   3.604   2.562   5.894
 9381SOL    HW129042   3.634   2.639   5.837
 9381SOL    HW229043   3.576   2.486   5.835
 9382SOL     OW29044   3.554   0.686   3.702
 9382SOL    HW129045   3.620   0.641   3.642
 9382SOL    HW229046   3.462   0.651   3.684
 9383SOL     OW29047   1.356   5.934   4.666
 9383SOL    HW129048   1.258   5.930   4.685
 9383SOL    HW229049   1.384   5.850   4.620
 9384SOL     OW29050   3.867   7.005   2.446
 9384SOL    HW129051   3.834   0.075   2.419
 9384SOL    HW229052   3.853   6.993   2.545
 9385SOL     OW29053   4.374   0.664   3.393
 9385SOL    HW129054   4.314   0.727   3.443
 9385SOL    HW229055   4.372   0.574   3.437
 9386SOL     OW29056   2.149   5.926   5.015
 9386SOL    HW129057   2.136   5.993   4.942
 9386SOL    HW229058   2.142   5.972   5.104
 9387SOL     OW29059   2.821   1.748   6.924
 9387SOL    HW129060   2.721   1.745   6.925
 9387SOL    HW229061   2.853   1.835   6.962
 9388SOL     OW29062   2.602   5.553   2.575
 9388SOL    HW129063   2.612   5.647   2.608
 9388SOL    HW229064   2.508   5.538   2.544
 9389SOL     OW29065   1.769   6.946   3.829
 9389SOL    HW129066   1.765   6.943   3.729
 9389SOL    HW229067   1.682   6.914   3.867
 9390SOL     OW29068   4.654   4.734   5.110
 9390SOL    HW129069   4.628   4.814   5.164
 9390SOL    HW229070   4.634   4.751   5.013
 9391SOL     OW29071   2.605   1.509   4.797
 9391SOL    HW129072   2.676   1.493   4.867
 9391SOL    HW229073   2.589   1.424   4.747
 9392SOL     OW29074   6.457   6.775   5.479
 9392SOL    HW129075   6.509   6.846   5.431
 9392SOL    HW229076   6.364   6.772   5.442
 9393SOL     OW29077   3.627   6.740   6.573
 9393SOL    HW129078   3.697   6.693   6.518
 9393SOL    HW229079   3.595   6.821   6.524
 9394SOL     OW29080   0.228   1.412   2.106
 9394SOL    HW129081   0.137   1.448   2.126
 9394SOL    HW229082   0.250   1.429   2.010
 9395SOL     OW29083   3.109   1.725   1.174
 9395SOL    HW129084   3.176   1.726   1.248
 9395SOL    HW229085   3.149   1.766   1.092
 9396SOL     OW29086   2.015   4.934   3.695
 9396SOL    HW129087   2.011   5.027   3.658
 9396SOL    HW229088   1.925   4.909   3.730
 9397SOL     OW29089   4.554   0.335   6.181
 9397SOL    HW129090   4.596   0.425   6.181
 9397SOL    HW229091   4.576   0.287   6.266
 9398SOL     OW29092   6.582   0.708   4.988
 9398SOL    HW129093   6.625   0.624   4.955
 9398SOL    HW229094   6.488   0.689   5.015
 9399SOL     OW29095   0.513   1.863   5.536
 9399SOL    HW129096   0.564   1.891   5.455
 9399SOL    HW229097   0.415   1.871   5.519
 9400SOL     OW29098   4.108   0.908   1.875
 9400SOL    HW129099   4.152   0.822   1.898
 9400SOL    HW229100   4.177   0.974   1.845
 9401SOL     OW29101   6.127   0.603   3.378
 9401SOL    HW129102   6.098   0.528   3.438
 9401SOL    HW229103   6.047   0.643   3.333
 9402SOL     OW29104   1.365   5.249   3.434
 9402SOL    HW129105   1.347   5.236   3.336
 9402SOL    HW229106   1.455   5.213   3.457
 9403SOL     OW29107   6.201   1.627   3.325
 9403SOL    HW129108   6.148   1.707   3.353
 9403SOL    HW229109   6.143   1.546   3.329
 9404SOL     OW29110   1.358   3.680   6.981
 9404SOL    HW129111   1.380   3.704   0.056
 9404SOL    HW229112   1.259   3.665   6.972
 9405SOL     OW29113   1.803   5.165   3.082
 9405SOL    HW129114   1.798   5.155   2.982
 9405SOL    HW229115   1.719   5.131   3.123
 9406SOL     OW29116   6.740   3.402   5.855
 9406SOL    HW129117   6.756   3.322   5.797
 9406SOL    HW229118   6.643   3.408   5.876
 9407SOL     OW29119   2.496   5.182   2.900
 9407SOL    HW129120   2.427   5.148   2.964
 9407SOL    HW229121   2.580   5.128   2.909
 9408SOL     OW29122   5.891   2.318   6.322
 9408SOL    HW129123   5.931   2.306   6.231
 9408SOL    HW229124   5.830   2.398   6.321
 9409SOL     OW29125   6.162   5.908   6.971
 9409SOL    HW129126   6.162   5.823   0.004
 9409SOL    HW229127   6.111   5.978   0.002
 9410SOL     OW29128   2.693   0.546   1.751
 9410SOL    HW129129   2.779   0.590   1.727
 9410SOL    HW229130   2.618   0.612   1.744
 9411SOL     OW29131   3.071   2.972   2.163
 9411SOL    HW129132   2.979   3.001   2.138
 9411SOL    HW229133   3.111   2.920   2.087
 9412SOL     OW29134   6.953   2.388   2.804
 9412SOL    HW129135   0.028   2.396   2.836
 9412SOL    HW229136   6.924   2.293   2.811
 9413SOL     OW29137   3.244   6.135   3.371
 9413SOL    HW129138   3.190   6.068   3.423
 9413SOL    HW229139   3.197   6.223   3.371
 9414SOL     OW29140   2.954   0.717   3.235
 9414SOL    HW129141   2.867   0.744   3.193
 9414SOL    HW229142   2.975   0.622   3.211
 9415SOL     OW29143   2.836   7.018   1.575
 9415SOL    HW129144   2.865   0.087   1.610
 9415SOL    HW229145   2.905   6.949   1.600
 9416SOL     OW29146   0.174   2.467   0.614
 9416SOL    HW129147   0.261   2.508   0.643
 9416SOL    HW229148   0.108   2.540   0.598
 9417SOL     OW29149   4.630   0.847   6.909
 9417SOL    HW129150   4.590   0.762   6.876
 9417SOL    HW229151   4.621   0.918   6.839
 9418SOL     OW29152   4.216   6.753   1.247
 9418SOL    HW129153   4.219   6.844   1.287
 9418SOL    HW229154   4.257   6.755   1.156
 9419SOL     OW29155   3.181   5.216   5.760
 9419SOL    HW129156   3.124   5.154   5.706
 9419SOL    HW229157   3.224   5.166   5.835
 9420SOL     OW29158   0.148   3.689   5.859
 9420SOL    HW129159   0.200   3.604   5.857
 9420SOL    HW229160   0.068   3.681   5.798
 9421SOL     OW29161   2.067   6.654   4.182
 9421SOL    HW129162   2.081   6.588   4.256
 9421SOL    HW229163   2.080   6.609   4.094
 9422SOL     OW29164   3.422   5.323   3.271
 9422SOL    HW129165   3.420   5.223   3.275
 9422SOL    HW229166   3.504   5.353   3.223
 9423SOL     OW29167   3.031   0.052   3.664
 9423SOL    HW129168   3.079   6.986   3.650
 9423SOL    HW229169   2.933   0.034   3.676
 9424SOL     OW29170   5.024   1.021   4.180
 9424SOL    HW129171   4.978   1.014   4.268
 9424SOL    HW229172   5.123   1.015   4.194
 9425SOL     OW29173   6.490   2.916   0.316
 9425SOL    HW129174   6.429   2.861   0.260
 9425SOL    HW229175   6.570   2.944   0.262
 9426SOL     OW29176   3.579   1.554   5.937
 9426SOL    HW129177   3.575   1.625   5.867
 9426SOL    HW229178   3.552   1.466   5.897
 9427SOL     OW29179   2.469   4.621   3.429
 9427SOL    HW129180   2.400   4.694   3.428
 9427SOL    HW229181   2.502   4.607   3.522
 9428SOL     OW29182   6.596   1.036   0.923
 9428SOL    HW129183   6.518   1.010   0.980
 9428SOL    HW229184   6.564   1.052   0.830
 9429SOL     OW29185   2.158   3.818   2.734
 9429SOL    HW129186   2.110   3.813   2.822
 9429SOL    HW229187   2.131   3.740   2.677
 9430SOL     OW29188   0.680   4.057   3.379
 9430SOL    HW129189   0.743   4.130   3.409
 9430SOL    HW229190   0.659   4.069   3.282
 9431SOL     OW29191   6.186   3.661   1.146
 9431SOL    HW129192   6.265   3.667   1.085
 9431SOL    HW229193   6.116   3.726   1.116
 9432SOL     OW29194   5.112   0.401   3.341
 9432SOL    HW129195   5.209   0.378   3.332
 9432SOL    HW229196   5.078   0.366   3.428
 9433SOL     OW29197   2.811   6.005   2.413
 9433SOL    HW129198   2.744   6.071   2.450
 9433SOL    HW229199   2.762   5.930   2.369
 9434SOL     OW29200   5.114   5.165   3.145
 9434SOL    HW129201   5.111   5.264   3.132
 9434SOL    HW229202   5.155   5.122   3.065
 9435SOL     OW29203   0.202   2.457   4.983
 9435SOL    HW129204   0.122   2.408   5.017
 9435SOL    HW229205   0.237   2.411   4.901
 9436SOL     OW29206   1.753   2.767   0.967
 9436SOL    HW129207   1.749   2.683   1.020
 9436SOL    HW229208   1.660   2.799   0.948
 9437SOL     OW29209   1.078   5.820   2.833
 9437SOL    HW129210   1.081   5.882   2.911
 9437SOL    HW229211   1.112   5.866   2.751
 9438SOL     OW29212   6.898   0.204   1.525
 9438SOL    HW129213   6.855   0.247   1.446
 9438SOL    HW229214   6.996   0.226   1.525
 9439SOL     OW29215   1.056   3.669   1.142
 9439SOL    HW129216   1.026   3.761   1.119
 9439SOL    HW229217   1.095   3.668   1.234
 9440SOL     OW29218   4.182   4.720   3.346
 9440SOL    HW129219   4.150   4.708   3.253
 9440SOL    HW229220   4.104   4.734   3.407
 9441SOL     OW29221   0.125   3.460   5.442
 9441SOL    HW129222   0.204   3.512   5.411
 9441SOL    HW229223   0.041   3.502   5.407
 9442SOL     OW29224   4.757   2.945   0.828
 9442SOL    HW129225   4.850   2.916   0.848
 9442SOL    HW229226   4.759   3.036   0.787
 9443SOL     OW29227   2.148   5.225   0.765
 9443SOL    HW129228   2.152   5.186   0.672
 9443SOL    HW229229   2.170   5.153   0.831
 9444SOL     OW29230   1.569   3.576   0.303
 9444SOL    HW129231   1.517   3.497   0.336
 9444SOL    HW229232   1.626   3.549   0.226
 9445SOL     OW29233   5.935   3.356   3.549
 9445SOL    HW129234   5.898   3.302   3.625
 9445SOL    HW229235   5.999   3.424   3.585
 9446SOL     OW29236   6.171   5.799   3.534
 9446SOL    HW129237   6.133   5.707   3.547
 9446SOL    HW229238   6.206   5.808   3.441
 9447SOL     OW29239   5.960   3.755   3.653
 9447SOL    HW129240   5.893   3.819   3.690
 9447SOL    HW229241   5.937   3.732   3.559
 9448SOL     OW29242   0.873   0.092   6.953
 9448SOL    HW129243   0.867   0.002   6.997
 9448SOL    HW229244   0.897   0.161   0.001
 9449SOL     OW29245   6.217   6.460   0.611
 9449SOL    HW129246   6.242   6.535   0.549
 9449SOL    HW229247   6.207   6.375   0.558
 9450SOL     OW29248   2.094   5.556   4.847
 9450SOL    HW129249   2.082   5.584   4.942
 9450SOL    HW229250   2.145   5.471   4.843
 9451SOL     OW29251   4.069   0.105   5.830
 9451SOL    HW129252   4.066   0.025   5.770
 9451SOL    HW229253   4.109   0.182   5.782
 9452SOL     OW29254   1.747   4.048   0.668
 9452SOL    HW129255   1.745   3.958   0.711
 9452SOL    HW229256   1.679   4.051   0.595
 9453SOL     OW29257   2.039   5.045   3.324
 9453SOL    HW129258   2.088   5.000   3.399
 9453SOL    HW229259   2.075   5.137   3.311
 9454SOL     OW29260   3.742   3.187   6.428
 9454SOL    HW129261   3.650   3.155   6.406
 9454SOL    HW229262   3.808   3.136   6.373
 9455SOL     OW29263   2.937   1.852   3.456
 9455SOL    HW129264   2.940   1.905   3.371
 9455SOL    HW229265   3.001   1.776   3.450
 9456SOL     OW29266   0.397   3.335   0.918
 9456SOL    HW129267   0.342   3.269   0.968
 9456SOL    HW229268   0.444   3.396   0.982
 9457SOL     OW29269   2.164   3.490   5.630
 9457SOL    HW129270   2.249   3.459   5.672
 9457SOL    HW229271   2.171   3.588   5.609
 9458SOL     OW29272   1.144   3.263   0.096
 9458SOL    HW129273   1.209   3.188   0.110
 9458SOL    HW229274   1.131   3.278   7.018
 9459SOL     OW29275   5.083   4.373   3.880
 9459SOL    HW129276   5.114   4.301   3.818
 9459SOL    HW229277   5.071   4.336   3.972
 9460SOL     OW29278   1.065   3.500   4.006
 9460SOL    HW129279   1.106   3.506   4.097
 9460SOL    HW229280   1.099   3.576   3.950
 9461SOL     OW29281   0.563   1.743   1.613
 9461SOL    HW129282   0.576   1.737   1.514
 9461SOL    HW229283   0.480   1.796   1.632
 9462SOL     OW29284   2.123   3.911   3.294
 9462SOL    HW129285   2.067   3.990   3.271
 9462SOL    HW229286   2.167   3.876   3.212
 9463SOL     OW29287   6.271   0.768   1.882
 9463SOL    HW129288   6.225   0.812   1.805
 9463SOL    HW229289   6.227   0.680   1.900
 9464SOL     OW29290   5.774   0.504   0.438
 9464SOL    HW129291   5.835   0.439   0.482
 9464SOL    HW229292   5.718   0.457   0.370
 9465SOL     OW29293   1.665   4.625   2.690
 9465SOL    HW129294   1.691   4.712   2.649
 9465SOL    HW229295   1.621   4.567   2.621
 9466SOL     OW29296   3.862   4.608   5.963
 9466SOL    HW129297   3.909   4.538   5.908
 9466SOL    HW229298   3.910   4.619   6.050
 9467SOL     OW29299   1.598   2.429   2.039
 9467SOL    HW129300   1.563   2.512   2.083
 9467SOL    HW229301   1.599   2.354   2.105
 9468SOL     OW29302   5.481   3.524   6.034
 9468SOL    HW129303   5.480   3.554   5.939
 9468SOL    HW229304   5.391   3.541   6.075
 9469SOL     OW29305   6.468   6.041   1.792
 9469SOL    HW129306   6.409   6.025   1.713
 9469SOL    HW229307   6.484   5.954   1.839
 9470SOL     OW29308   5.009   2.924   5.778
 9470SOL    HW129309   5.020   2.960   5.871
 9470SOL    HW229310   5.023   2.997   5.712
 9471SOL     OW29311   6.735   1.530   4.811
 9471SOL    HW129312   6.649   1.486   4.833
 9471SOL    HW229313   6.809   1.463   4.815
 9472SOL     OW29314   6.658   3.156   5.628
 9472SOL    HW129315   6.689   3.091   5.558
 9472SOL    HW229316   6.587   3.113   5.684
 9473SOL     OW29317   2.340   5.306   6.730
 9473SOL    HW129318   2.360   5.279   6.635
 9473SOL    HW229319   2.241   5.307   6.744
 9474SOL     OW29320   0.398   2.716   6.738
 9474SOL    HW129321   0.486   2.758   6.715
 9474SOL    HW229322   0.373   2.650   6.668
 9475SOL     OW29323   3.299   3.554   6.769
 9475SOL    HW129324   3.287   3.546   6.868
 9475SOL    HW229325   3.347   3.473   6.735
 9476SOL     OW29326   3.689   4.187   4.598
 9476SOL    HW129327   3.598   4.146   4.597
 9476SOL    HW229328   3.689   4.272   4.546
 9477SOL     OW29329   0.521   3.282   1.812
 9477SOL    HW129330   0.426   3.272   1.784
 9477SOL    HW229331   0.577   3.309   1.734
 9478SOL     OW29332   4.684   3.028   0.317
 9478SOL    HW129333   4.765   3.058   0.368
 9478SOL    HW229334   4.684   2.928   0.309
 9479SOL     OW29335   3.894   6.105   6.599
 9479SOL    HW129336   3.835   6.092   6.520
 9479SOL    HW229337   3.885   6.199   6.633
 9480SOL     OW29338   5.370   3.882   0.780
 9480SOL    HW129339   5.270   3.881   0.775
 9480SOL    HW229340   5.401   3.974   0.805
 9481SOL     OW29341   4.805   2.868   2.161
 9481SOL    HW129342   4.719   2.817   2.170
 9481SOL    HW229343   4.807   2.915   2.073
 9482SOL     OW29344   0.393   1.515   3.478
 9482SOL    HW129345   0.329   1.456   3.428
 9482SOL    HW229346   0.481   1.467   3.488
 9483SOL     OW29347   1.872   1.747   1.398
 9483SOL    HW129348   1.916   1.734   1.487
 9483SOL    HW229349   1.794   1.808   1.408
 9484SOL     OW29350   4.400   0.658   3.745
 9484SOL    HW129351   4.492   0.623   3.727
 9484SOL    HW229352   4.344   0.584   3.783
 9485SOL     OW29353   0.087   0.778   0.585
 9485SOL    HW129354   0.119   0.686   0.604
 9485SOL    HW229355   0.135   0.814   0.505
 9486SOL     OW29356   3.975   6.655   0.942
 9486SOL    HW129357   3.877   6.643   0.958
 9486SOL    HW229358   3.991   6.671   0.845
 9487SOL     OW29359   3.726   3.642   3.747
 9487SOL    HW129360   3.750   3.693   3.829
 9487SOL    HW229361   3.809   3.627   3.692
 9488SOL     OW29362   2.253   6.662   0.950
 9488SOL    HW129363   2.230   6.590   0.885
 9488SOL    HW229364   2.178   6.673   1.015
 9489SOL     OW29365   4.449   4.386   1.613
 9489SOL    HW129366   4.509   4.462   1.639
 9489SOL    HW229367   4.474   4.304   1.665
 9490SOL     OW29368   6.577   4.937   2.048
 9490SOL    HW129369   6.653   4.991   2.085
 9490SOL    HW229370   6.609   4.883   1.970
 9491SOL     OW29371   5.743   4.999   4.251
 9491SOL    HW129372   5.761   4.931   4.322
 9491SOL    HW229373   5.669   5.060   4.281
 9492SOL     OW29374   3.509   2.852   3.112
 9492SOL    HW129375   3.535   2.856   3.209
 9492SOL    HW229376   3.410   2.860   3.103
 9493SOL     OW29377   3.248   5.520   3.900
 9493SOL    HW129378   3.277   5.458   3.973
 9493SOL    HW229379   3.220   5.466   3.820
 9494SOL     OW29380   4.915   3.524   1.748
 9494SOL    HW129381   4.915   3.432   1.789
 9494SOL    HW229382   4.834   3.534   1.691
 9495SOL     OW29383   6.332   2.008   3.632
 9495SOL    HW129384   6.240   1.969   3.636
 9495SOL    HW229385   6.391   1.959   3.697
 9496SOL     OW29386   6.463   3.994   1.572
 9496SOL    HW129387   6.453   3.898   1.545
 9496SOL    HW229388   6.387   4.020   1.632
 9497SOL     OW29389   5.736   6.129   6.157
 9497SOL    HW129390   5.808   6.173   6.210
 9497SOL    HW229391   5.774   6.053   6.106
 9498SOL     OW29392   4.449   6.984   4.107
 9498SOL    HW129393   4.371   6.923   4.090
 9498SOL    HW229394   4.510   6.942   4.174
 9499SOL     OW29395   2.253   5.524   6.382
 9499SOL    HW129396   2.283   5.531   6.287
 9499SOL    HW229397   2.327   5.553   6.443
 9500SOL     OW29398   5.000   0.182   0.718
 9500SOL    HW129399   4.936   0.169   0.643
 9500SOL    HW229400   4.950   0.181   0.805
 9501SOL     OW29401   3.354   0.967   4.695
 9501SOL    HW129402   3.406   1.052   4.687
 9501SOL    HW229403   3.415   0.889   4.691
 9502SOL     OW29404   5.289   2.548   5.302
 9502SOL    HW129405   5.383   2.516   5.288
 9502SOL    HW229406   5.251   2.506   5.385
 9503SOL     OW29407   0.291   1.593   1.441
 9503SOL    HW129408   0.307   1.498   1.468
 9503SOL    HW229409   0.361   1.622   1.375
 9504SOL     OW29410   0.512   2.679   0.646
 9504SOL    HW129411   0.488   2.632   0.731
 9504SOL    HW229412   0.438   2.741   0.621
 9505SOL     OW29413   4.982   4.485   3.493
 9505SOL    HW129414   4.966   4.485   3.592
 9505SOL    HW229415   5.053   4.419   3.470
 9506SOL     OW29416   0.857   2.291   6.432
 9506SOL    HW129417   0.909   2.337   6.360
 9506SOL    HW229418   0.882   2.194   6.433
 9507SOL     OW29419   0.838   2.181   3.267
 9507SOL    HW129420   0.854   2.087   3.294
 9507SOL    HW229421   0.920   2.217   3.222
 9508SOL     OW29422   6.283   2.641   0.636
 9508SOL    HW129423   6.280   2.554   0.686
 9508SOL    HW229424   6.227   2.634   0.554
 9509SOL     OW29425   0.706   1.270   3.831
 9509SOL    HW129426   0.653   1.285   3.747
 9509SOL    HW229427   0.801   1.297   3.816
 9510SOL     OW29428   1.375   3.275   3.195
 9510SOL    HW129429   1.404   3.239   3.284
 9510SOL    HW229430   1.388   3.374   3.194
 9511SOL     OW29431   1.165   0.543   0.556
 9511SOL    HW129432   1.194   0.499   0.470
 9511SOL    HW229433   1.088   0.493   0.594
 9512SOL     OW29434   5.851   1.730   1.698
 9512SOL    HW129435   5.890   1.643   1.729
 9512SOL    HW229436   5.887   1.804   1.755
 9513SOL     OW29437   2.247   4.112   6.776
 9513SOL    HW129438   2.311   4.089   6.849
 9513SOL    HW229439   2.285   4.185   6.719
 9514SOL     OW29440   2.429   5.170   5.900
 9514SOL    HW129441   2.493   5.173   5.977
 9514SOL    HW229442   2.423   5.076   5.866
 9515SOL     OW29443   2.091   5.585   1.007
 9515SOL    HW129444   2.021   5.657   1.005
 9515SOL    HW229445   2.068   5.519   1.078
 9516SOL     OW29446   5.393   4.395   5.009
 9516SOL    HW129447   5.355   4.466   5.068
 9516SOL    HW229448   5.378   4.306   5.052
 9517SOL     OW29449   1.165   5.127   1.143
 9517SOL    HW129450   1.165   5.114   1.242
 9517SOL    HW229451   1.259   5.144   1.112
 9518SOL     OW29452   2.383   2.354   6.976
 9518SOL    HW129453   2.389   2.452   6.993
 9518SOL    HW229454   2.475   2.314   6.982
 9519SOL     OW29455   4.013   3.195   4.822
 9519SOL    HW129456   4.087   3.234   4.877
 9519SOL    HW229457   3.974   3.116   4.871
 9520SOL     OW29458   1.622   1.576   3.418
 9520SOL    HW129459   1.712   1.599   3.382
 9520SOL    HW229460   1.597   1.641   3.490
 9521SOL     OW29461   5.076   5.292   1.281
 9521SOL    HW129462   5.092   5.370   1.341
 9521SOL    HW229463   5.108   5.208   1.326
 9522SOL     OW29464   3.657   5.375   1.500
 9522SOL    HW129465   3.588   5.342   1.436
 9522SOL    HW229466   3.661   5.314   1.579
 9523SOL     OW29467   2.660   4.730   5.164
 9523SOL    HW129468   2.731   4.683   5.111
 9523SOL    HW229469   2.651   4.824   5.132
 9524SOL     OW29470   3.565   2.977   0.852
 9524SOL    HW129471   3.595   3.051   0.791
 9524SOL    HW229472   3.554   3.012   0.945
 9525SOL     OW29473   2.336   2.388   5.662
 9525SOL    HW129474   2.260   2.378   5.598
 9525SOL    HW229475   2.420   2.409   5.611
 9526SOL     OW29476   6.640   4.988   1.749
 9526SOL    HW129477   6.646   4.896   1.787
 9526SOL    HW229478   6.728   5.014   1.711
 9527SOL     OW29479   0.199   0.504   4.277
 9527SOL    HW129480   0.211   0.451   4.361
 9527SOL    HW229481   0.118   0.471   4.228
 9528SOL     OW29482   0.135   1.534   0.149
 9528SOL    HW129483   0.167   1.620   0.188
 9528SOL    HW229484   0.213   1.472   0.139
 9529SOL     OW29485   6.341   3.386   6.586
 9529SOL    HW129486   6.254   3.422   6.619
 9529SOL    HW229487   6.325   3.302   6.534
 9530SOL     OW29488   1.572   4.330   2.597
 9530SOL    HW129489   1.549   4.276   2.516
 9530SOL    HW229490   1.488   4.360   2.642
 9531SOL     OW29491   4.345   5.011   2.858
 9531SOL    HW129492   4.304   4.995   2.948
 9531SOL    HW229493   4.294   5.082   2.810
 9532SOL     OW29494   6.567   6.893   1.295
 9532SOL    HW129495   6.553   6.915   1.199
 9532SOL    HW229496   6.536   6.800   1.314
 9533SOL     OW29497   7.013   5.961   5.745
 9533SOL    HW129498   0.085   5.989   5.719
 9533SOL    HW229499   6.950   5.981   5.669
 9534SOL     OW29500   0.343   4.106   4.778
 9534SOL    HW129501   0.245   4.108   4.759
 9534SOL    HW229502   0.361   4.150   4.866
 9535SOL     OW29503   2.005   1.222   6.561
 9535SOL    HW129504   1.995   1.215   6.462
 9535SOL    HW229505   1.971   1.311   6.592
 9536SOL     OW29506   2.988   3.963   5.738
 9536SOL    HW129507   2.981   4.018   5.655
 9536SOL    HW229508   2.961   3.869   5.718
 9537SOL     OW29509   2.736   6.679   3.267
 9537SOL    HW129510   2.711   6.775   3.280
 9537SOL    HW229511   2.772   6.666   3.174
 9538SOL     OW29512   5.488   2.277   3.631
 9538SOL    HW129513   5.421   2.335   3.678
 9538SOL    HW229514   5.567   2.264   3.690
 9539SOL     OW29515   2.692   3.561   5.300
 9539SOL    HW129516   2.723   3.640   5.353
 9539SOL    HW229517   2.623   3.511   5.352
 9540SOL     OW29518   5.890   4.126   4.531
 9540SOL    HW129519   5.806   4.072   4.531
 9540SOL    HW229520   5.887   4.192   4.455
 9541SOL     OW29521   4.251   0.728   5.516
 9541SOL    HW129522   4.163   0.689   5.491
 9541SOL    HW229523   4.322   0.657   5.511
 9542SOL     OW29524   5.214   4.365   4.571
 9542SOL    HW129525   5.293   4.406   4.617
 9542SOL    HW229526   5.141   4.350   4.638
 9543SOL     OW29527   3.705   0.704   5.315
 9543SOL    HW129528   3.801   0.676   5.323
 9543SOL    HW229529   3.699   0.790   5.266
 9544SOL     OW29530   6.687   1.997   3.576
 9544SOL    HW129531   6.682   1.972   3.479
 9544SOL    HW229532   6.603   1.967   3.622
 9545SOL     OW29533   5.720   5.659   4.230
 9545SOL    HW129534   5.802   5.708   4.258
 9545SOL    HW229535   5.662   5.643   4.310
 9546SOL     OW29536   3.813   2.106   5.450
 9546SOL    HW129537   3.821   2.206   5.441
 9546SOL    HW229538   3.743   2.085   5.518
 9547SOL     OW29539   2.079   6.247   4.455
 9547SOL    HW129540   2.044   6.321   4.512
 9547SOL    HW229541   2.003   6.199   4.412
 9548SOL     OW29542   6.413   5.241   6.294
 9548SOL    HW129543   6.440   5.337   6.286
 9548SOL    HW229544   6.317   5.230   6.269
 9549SOL     OW29545   2.707   2.822   1.362
 9549SOL    HW129546   2.766   2.741   1.358
 9549SOL    HW229547   2.735   2.887   1.292
 9550SOL     OW29548   0.796   1.594   0.171
 9550SOL    HW129549   0.797   1.495   0.187
 9550SOL    HW229550   0.769   1.640   0.255
 9551SOL     OW29551   5.702   1.184   4.855
 9551SOL    HW129552   5.616   1.220   4.893
 9551SOL    HW229553   5.686   1.093   4.817
 9552SOL     OW29554   1.563   6.799   3.509
 9552SOL    HW129555   1.522   6.842   3.590
 9552SOL    HW229556   1.652   6.840   3.490
 9553SOL     OW29557   6.510   3.949   6.468
 9553SOL    HW129558   6.492   3.858   6.429
 9553SOL    HW229559   6.546   3.938   6.561
 9554SOL     OW29560   1.790   0.140   1.115
 9554SOL    HW129561   1.859   0.165   1.046
 9554SOL    HW229562   1.699   0.152   1.076
 9555SOL     OW29563   1.143   0.944   3.077
 9555SOL    HW129564   1.129   0.855   3.121
 9555SOL    HW229565   1.235   0.947   3.037
 9556SOL     OW29566   1.527   2.637   2.201
 9556SOL    HW129567   1.613   2.629   2.252
 9556SOL    HW229568   1.487   2.728   2.216
 9557SOL     OW29569   0.466   0.339   2.581
 9557SOL    HW129570   0.418   0.380   2.504
 9557SOL    HW229571   0.411   0.349   2.664
 9558SOL     OW29572   6.001   6.545   4.623
 9558SOL    HW129573   6.053   6.484   4.683
 9558SOL    HW229574   6.031   6.532   4.528
 9559SOL     OW29575   0.478   4.176   1.139
 9559SOL    HW129576   0.576   4.186   1.155
 9559SOL    HW229577   0.438   4.116   1.209
 9560SOL     OW29578   1.439   2.031   3.509
 9560SOL    HW129579   1.469   2.111   3.458
 9560SOL    HW229580   1.485   2.029   3.598
 9561SOL     OW29581   1.705   6.709   0.174
 9561SOL    HW129582   1.692   6.610   0.175
 9561SOL    HW229583   1.793   6.730   0.129
 9562SOL     OW29584   3.399   0.114   5.823
 9562SOL    HW129585   3.498   0.103   5.812
 9562SOL    HW229586   3.373   0.088   5.916
 9563SOL     OW29587   6.170   0.144   0.822
 9563SOL    HW129588   6.208   0.072   0.764
 9563SOL    HW229589   6.110   0.102   0.891
 9564SOL     OW29590   2.845   0.391   6.913
 9564SOL    HW129591   2.809   0.302   6.940
 9564SOL    HW229592   2.774   0.461   6.921
 9565SOL     OW29593   4.095   6.711   4.548
 9565SOL    HW129594   4.025   6.710   4.477
 9565SOL    HW229595   4.088   6.628   4.604
 9566SOL     OW29596   1.618   5.261   0.064
 9566SOL    HW129597   1.613   5.356   0.034
 9566SOL    HW229598   1.526   5.230   0.090
 9567SOL     OW29599   5.616   4.597   6.718
 9567SOL    HW129600   5.688   4.556   6.662
 9567SOL    HW229601   5.528   4.555   6.696
 9568SOL     OW29602   4.957   2.357   6.279
 9568SOL    HW129603   4.998   2.363   6.188
 9568SOL    HW229604   4.919   2.265   6.292
 9569SOL     OW29605   0.281   1.460   2.976
 9569SOL    HW129606   0.216   1.387   2.952
 9569SOL    HW229607   0.253   1.545   2.931
 9570SOL     OW29608   1.023   3.314   2.362
 9570SOL    HW129609   1.064   3.354   2.280
 9570SOL    HW229610   0.969   3.234   2.336
 9571SOL     OW29611   3.020   3.751   6.790
 9571SOL    HW129612   2.942   3.701   6.827
 9571SOL    HW229613   3.038   3.832   6.846
 9572SOL     OW29614   1.910   5.586   1.941
 9572SOL    HW129615   1.837   5.524   1.968
 9572SOL    HW229616   1.882   5.639   1.862
 9573SOL     OW29617   1.091   0.745   6.678
 9573SOL    HW129618   1.067   0.715   6.585
 9573SOL    HW229619   1.190   0.739   6.690
 9574SOL     OW29620   4.009   3.393   4.274
 9574SOL    HW129621   3.915   3.417   4.297
 9574SOL    HW229622   4.067   3.403   4.355
 9575SOL     OW29623   6.447   1.166   1.500
 9575SOL    HW129624   6.424   1.260   1.476
 9575SOL    HW229625   6.428   1.150   1.597
 9576SOL     OW29626   2.286   0.411   2.100
 9576SOL    HW129627   2.196   0.455   2.100
 9576SOL    HW229628   2.318   0.402   2.195
 9577SOL     OW29629   1.257   0.522   4.737
 9577SOL    HW129630   1.336   0.581   4.749
 9577SOL    HW229631   1.267   0.470   4.653
 9578SOL     OW29632   0.622   3.731   3.323
 9578SOL    HW129633   0.576   3.817   3.298
 9578SOL    HW229634   0.703   3.751   3.378
 9579SOL     OW29635   1.732   5.171   2.796
 9579SOL    HW129636   1.713   5.265   2.767
 9579SOL    HW229637   1.804   5.132   2.738
 9580SOL     OW29638   3.900   2.962   0.926
 9580SOL    HW129639   3.927   3.036   0.865
 9580SOL    HW229640   3.941   2.876   0.895
 9581SOL     OW29641   0.624   5.311   6.489
 9581SOL    HW129642   0.536   5.344   6.454
 9581SOL    HW229643   0.671   5.260   6.417
 9582SOL     OW29644   4.793   5.090   5.070
 9582SOL    HW129645   4.739   5.139   5.138
 9582SOL    HW229646   4.834   5.008   5.111
 9583SOL     OW29647   4.035   4.739   1.211
 9583SOL    HW129648   4.005   4.660   1.158
 9583SOL    HW229649   4.111   4.784   1.163
 9584SOL     OW29650   6.461   6.455   6.939
 9584SOL    HW129651   6.505   6.375   6.899
 9584SOL    HW229652   6.431   6.434   0.012
 9585SOL     OW29653   5.941   0.015   4.325
 9585SOL    HW129654   6.029   7.017   4.281
 9585SOL    HW229655   5.924   0.113   4.326
 9586SOL     OW29656   5.882   4.115   2.514
 9586SOL    HW129657   5.788   4.081   2.511
 9586SOL    HW229658   5.928   4.093   2.428
 9587SOL     OW29659   6.943   1.263   2.265
 9587SOL    HW129660   6.857   1.227   2.230
 9587SOL    HW229661   6.926   1.318   2.347
 9588SOL     OW29662   0.628   1.601   2.509
 9588SOL    HW129663   0.603   1.564   2.599
 9588SOL    HW229664   0.713   1.653   2.517
 9589SOL     OW29665   2.325   5.291   5.571
 9589SOL    HW129666   2.240   5.330   5.537
 9589SOL    HW229667   2.306   5.238   5.654
 9590SOL     OW29668   0.462   3.926   2.229
 9590SOL    HW129669   0.428   3.840   2.266
 9590SOL    HW229670   0.536   3.960   2.287
 9591SOL     OW29671   2.982   6.072   6.693
 9591SOL    HW129672   2.969   6.117   6.781
 9591SOL    HW229673   3.047   6.124   6.638
 9592SOL     OW29674   3.645   4.174   1.284
 9592SOL    HW129675   3.702   4.096   1.257
 9592SOL    HW229676   3.577   4.191   1.212
 9593SOL     OW29677   6.496   6.862   4.524
 9593SOL    HW129678   6.564   6.932   4.504
 9593SOL    HW229679   6.538   6.789   4.579
 9594SOL     OW29680   1.557   6.374   2.807
 9594SOL    HW129681   1.653   6.363   2.833
 9594SOL    HW229682   1.551   6.427   2.723
 9595SOL     OW29683   2.109   4.452   5.176
 9595SOL    HW129684   2.097   4.485   5.082
 9595SOL    HW229685   2.205   4.460   5.203
 9596SOL     OW29686   6.983   6.213   0.435
 9596SOL    HW129687   0.026   6.179   0.505
 9596SOL    HW229688   6.978   6.147   0.360
 9597SOL     OW29689   0.428   4.773   0.707
 9597SOL    HW129690   0.382   4.861   0.713
 9597SOL    HW229691   0.524   4.786   0.684
 9598SOL     OW29692   1.094   3.734   5.137
 9598SOL    HW129693   1.021   3.796   5.166
 9598SOL    HW229694   1.079   3.708   5.041
 9599SOL     OW29695   3.535   0.486   5.392
 9599SOL    HW129696   3.460   0.493   5.326
 9599SOL    HW229697   3.598   0.563   5.379
 9600SOL     OW29698   2.595   0.033   0.318
 9600SOL    HW129699   2.694   0.019   0.314
 9600SOL    HW229700   2.568   0.061   0.410
 9601SOL     OW29701   6.562   3.903   0.403
 9601SOL    HW129702   6.535   3.918   0.308
 9601SOL    HW229703   6.586   3.807   0.416
 9602SOL     OW29704   6.730   4.701   6.468
 9602SOL    HW129705   6.741   4.657   6.379
 9602SOL    HW229706   6.802   4.670   6.529
 9603SOL     OW29707   3.409   1.034   5.144
 9603SOL    HW129708   3.390   0.947   5.190
 9603SOL    HW229709   3.461   1.017   5.061
 9604SOL     OW29710   4.671   0.631   0.391
 9604SOL    HW129711   4.767   0.630   0.419
 9604SOL    HW229712   4.665   0.628   0.291
 9605SOL     OW29713   0.975   4.797   4.520
 9605SOL    HW129714   1.056   4.767   4.570
 9605SOL    HW229715   0.905   4.726   4.525
 9606SOL     OW29716   1.348   5.989   5.558
 9606SOL    HW129717   1.381   6.047   5.484
 9606SOL    HW229718   1.398   6.010   5.642
 9607SOL     OW29719   1.432   2.449   1.800
 9607SOL    HW129720   1.492   2.469   1.878
 9607SOL    HW229721   1.364   2.522   1.791
 9608SOL     OW29722   6.536   6.787   2.071
 9608SOL    HW129723   6.535   6.703   2.017
 9608SOL    HW229724   6.627   6.830   2.065
 9609SOL     OW29725   2.309   3.582   6.291
 9609SOL    HW129726   2.256   3.517   6.346
 9609SOL    HW229727   2.247   3.643   6.242
 9610SOL     OW29728   1.711   4.882   4.047
 9610SOL    HW129729   1.800   4.885   4.091
 9610SOL    HW229730   1.682   4.786   4.037
 9611SOL     OW29731   0.243   0.228   0.075
 9611SOL    HW129732   0.265   0.201   0.169
 9611SOL    HW229733   0.289   0.167   0.011
 9612SOL     OW29734   6.705   3.233   1.654
 9612SOL    HW129735   6.716   3.265   1.560
 9612SOL    HW229736   6.639   3.291   1.701
 9613SOL     OW29737   4.076   6.752   3.084
 9613SOL    HW129738   3.978   6.766   3.103
 9613SOL    HW229739   4.098   6.790   2.994
 9614SOL     OW29740   4.119   2.638   0.903
 9614SOL    HW129741   4.071   2.683   0.829
 9614SOL    HW229742   4.156   2.551   0.871
 9615SOL     OW29743   0.845   6.855   2.126
 9615SOL    HW129744   0.747   6.836   2.130
 9615SOL    HW229745   0.861   6.934   2.067
 9616SOL     OW29746   4.603   3.345   0.830
 9616SOL    HW129747   4.567   3.380   0.743
 9616SOL    HW229748   4.589   3.414   0.901
 9617SOL     OW29749   0.841   3.899   4.460
 9617SOL    HW129750   0.920   3.960   4.468
 9617SOL    HW229751   0.791   3.920   4.376
 9618SOL     OW29752   4.330   0.159   6.189
 9618SOL    HW129753   4.425   0.191   6.193
 9618SOL    HW229754   4.289   0.163   6.280
 9619SOL     OW29755   1.161   0.195   0.301
 9619SOL    HW129756   1.158   0.294   0.283
 9619SOL    HW229757   1.068   0.159   0.300
 9620SOL     OW29758   5.811   1.499   6.758
 9620SOL    HW129759   5.727   1.449   6.738
 9620SOL    HW229760   5.814   1.521   6.856
 9621SOL     OW29761   1.507   1.436   3.201
 9621SOL    HW129762   1.410   1.424   3.222
 9621SOL    HW229763   1.552   1.479   3.279
 9622SOL     OW29764   5.743   0.895   6.742
 9622SOL    HW129765   5.758   0.866   6.837
 9622SOL    HW229766   5.645   0.904   6.725
 9623SOL     OW29767   3.864   5.176   5.387
 9623SOL    HW129768   3.780   5.181   5.333
 9623SOL    HW229769   3.898   5.269   5.403
 9624SOL     OW29770   5.989   4.182   3.798
 9624SOL    HW129771   6.009   4.115   3.869
 9624SOL    HW229772   5.895   4.213   3.806
 9625SOL     OW29773   5.247   5.114   6.917
 9625SOL    HW129774   5.281   5.044   6.980
 9625SOL    HW229775   5.147   5.120   6.925
 9626SOL     OW29776   2.516   6.040   6.050
 9626SOL    HW129777   2.613   6.024   6.071
 9626SOL    HW229778   2.487   6.126   6.091
 9627SOL     OW29779   6.838   4.382   4.454
 9627SOL    HW129780   6.884   4.345   4.374
 9627SOL    HW229781   6.799   4.471   4.433
 9628SOL     OW29782   6.007   4.361   0.376
 9628SOL    HW129783   6.104   4.386   0.372
 9628SOL    HW229784   5.969   4.357   0.284
 9629SOL     OW29785   6.579   6.353   2.645
 9629SOL    HW129786   6.494   6.301   2.633
 9629SOL    HW229787   6.636   6.308   2.713
 9630SOL     OW29788   6.879   6.105   5.137
 9630SOL    HW129789   6.852   6.124   5.042
 9630SOL    HW229790   6.871   6.189   5.191
 9631SOL     OW29791   5.386   1.436   0.457
 9631SOL    HW129792   5.484   1.452   0.464
 9631SOL    HW229793   5.365   1.342   0.484
 9632SOL     OW29794   2.237   5.533   1.541
 9632SOL    HW129795   2.156   5.551   1.597
 9632SOL    HW229796   2.289   5.458   1.582
 9633SOL     OW29797   3.807   4.195   0.343
 9633SOL    HW129798   3.812   4.192   0.443
 9633SOL    HW229799   3.715   4.222   0.315
 9634SOL     OW29800   6.888   6.406   3.935
 9634SOL    HW129801   6.866   6.363   4.023
 9634SOL    HW229802   6.922   6.498   3.950
 9635SOL     OW29803   2.351   4.476   5.324
 9635SOL    HW129804   2.305   4.519   5.402
 9635SOL    HW229805   2.355   4.377   5.339
 9636SOL     OW29806   4.417   1.878   6.469
 9636SOL    HW129807   4.337   1.820   6.484
 9636SOL    HW229808   4.413   1.956   6.531
 9637SOL     OW29809   3.505   2.494   0.219
 9637SOL    HW129810   3.529   2.488   0.122
 9637SOL    HW229811   3.586   2.474   0.274
 9638SOL     OW29812   0.118   2.955   5.486
 9638SOL    HW129813   0.139   2.978   5.580
 9638SOL    HW229814   0.200   2.922   5.440
 9639SOL     OW29815   4.266   2.020   2.279
 9639SOL    HW129816   4.320   2.028   2.364
 9639SOL    HW229817   4.257   2.110   2.237
 9640SOL     OW29818   3.309   0.671   2.848
 9640SOL    HW129819   3.356   0.643   2.931
 9640SOL    HW229820   3.328   0.606   2.774
 9641SOL     OW29821   5.477   5.443   1.495
 9641SOL    HW129822   5.469   5.539   1.521
 9641SOL    HW229823   5.415   5.388   1.551
 9642SOL     OW29824   1.713   5.539   4.277
 9642SOL    HW129825   1.626   5.489   4.269
 9642SOL    HW229826   1.785   5.487   4.231
 9643SOL     OW29827   5.425   4.445   3.481
 9643SOL    HW129828   5.493   4.402   3.540
 9643SOL    HW229829   5.456   4.438   3.385
 9644SOL     OW29830   0.788   5.183   5.389
 9644SOL    HW129831   0.704   5.235   5.378
 9644SOL    HW229832   0.850   5.202   5.313
 9645SOL     OW29833   3.015   4.852   4.485
 9645SOL    HW129834   2.927   4.819   4.517
 9645SOL    HW229835   3.071   4.775   4.455
 9646SOL     OW29836   2.350   4.760   1.768
 9646SOL    HW129837   2.251   4.760   1.777
 9646SOL    HW229838   2.387   4.673   1.802
 9647SOL     OW29839   0.342   6.269   2.760
 9647SOL    HW129840   0.329   6.290   2.663
 9647SOL    HW229841   0.395   6.342   2.804
 9648SOL     OW29842   3.869   2.323   6.921
 9648SOL    HW129843   3.935   2.281   6.859
 9648SOL    HW229844   3.847   2.258   6.994
 9649SOL     OW29845   1.900   4.334   6.894
 9649SOL    HW129846   1.901   4.391   6.812
 9649SOL    HW229847   1.932   4.242   6.871
 9650SOL     OW29848   4.472   4.721   3.366
 9650SOL    HW129849   4.501   4.627   3.382
 9650SOL    HW229850   4.373   4.727   3.376
 9651SOL     OW29851   5.184   1.453   1.126
 9651SOL    HW129852   5.240   1.386   1.078
 9651SOL    HW229853   5.238   1.536   1.142
 9652SOL     OW29854   1.173   4.862   1.594
 9652SOL    HW129855   1.221   4.943   1.629
 9652SOL    HW229856   1.083   4.890   1.561
 9653SOL     OW29857   5.088   5.498   4.932
 9653SOL    HW129858   5.077   5.399   4.939
 9653SOL    HW229859   5.024   5.543   4.995
 9654SOL     OW29860   3.511   3.259   2.756
 9654SOL    HW129861   3.450   3.339   2.765
 9654SOL    HW229862   3.605   3.288   2.773
 9655SOL     OW29863   0.447   1.611   0.286
 9655SOL    HW129864   0.459   1.534   0.349
 9655SOL    HW229865   0.521   1.677   0.299
 9656SOL     OW29866   4.313   2.178   0.873
 9656SOL    HW129867   4.413   2.171   0.877
 9656SOL    HW229868   4.275   2.092   0.837
 9657SOL     OW29869   5.629   3.156   2.922
 9657SOL    HW129870   5.644   3.160   2.823
 9657SOL    HW229871   5.602   3.246   2.956
 9658SOL     OW29872   5.394   2.058   2.531
 9658SOL    HW129873   5.493   2.055   2.541
 9658SOL    HW229874   5.353   1.979   2.578
 9659SOL     OW29875   0.207   3.533   0.613
 9659SOL    HW129876   0.306   3.546   0.619
 9659SOL    HW229877   0.187   3.449   0.563
 9660SOL     OW29878   0.529   0.028   2.830
 9660SOL    HW129879   0.471   0.006   2.752
 9660SOL    HW229880   0.616   7.001   2.821
 9661SOL     OW29881   3.560   5.999   1.173
 9661SOL    HW129882   3.583   6.012   1.077
 9661SOL    HW229883   3.636   6.029   1.231
 9662SOL     OW29884   3.775   3.254   5.647
 9662SOL    HW129885   3.787   3.273   5.744
 9662SOL    HW229886   3.860   3.219   5.608
 9663SOL     OW29887   6.352   6.461   2.435
 9663SOL    HW129888   6.418   6.390   2.411
 9663SOL    HW229889   6.333   6.517   2.355
 9664SOL     OW29890   5.943   5.769   4.758
 9664SOL    HW129891   5.908   5.753   4.666
 9664SOL    HW229892   5.963   5.682   4.802
 9665SOL     OW29893   6.073   5.830   6.420
 9665SOL    HW129894   6.069   5.914   6.473
 9665SOL    HW229895   6.154   5.778   6.447
 9666SOL     OW29896   6.510   3.761   2.131
 9666SOL    HW129897   6.583   3.739   2.067
 9666SOL    HW229898   6.524   3.709   2.216
 9667SOL     OW29899   4.317   2.989   6.422
 9667SOL    HW129900   4.318   2.890   6.438
 9667SOL    HW229901   4.297   3.036   6.508
 9668SOL     OW29902   6.870   0.615   6.140
 9668SOL    HW129903   6.873   0.536   6.079
 9668SOL    HW229904   6.930   0.599   6.218
 9669SOL     OW29905   2.008   6.748   2.230
 9669SOL    HW129906   2.007   6.648   2.225
 9669SOL    HW229907   2.034   6.785   2.140
 9670SOL     OW29908   6.809   5.079   5.696
 9670SOL    HW129909   6.718   5.047   5.722
 9670SOL    HW229910   6.855   5.007   5.643
 9671SOL     OW29911   6.973   4.156   0.052
 9671SOL    HW129912   6.940   4.213   0.128
 9671SOL    HW229913   0.052   4.141   0.062
 9672SOL     OW29914   1.651   5.506   3.636
 9672SOL    HW129915   1.643   5.571   3.561
 9672SOL    HW229916   1.636   5.413   3.601
 9673SOL     OW29917   4.785   3.657   1.048
 9673SOL    HW129918   4.827   3.747   1.038
 9673SOL    HW229919   4.703   3.652   0.990
 9674SOL     OW29920   3.490   6.675   3.370
 9674SOL    HW129921   3.418   6.610   3.394
 9674SOL    HW229922   3.508   6.735   3.447
 9675SOL     OW29923   5.112   2.733   6.858
 9675SOL    HW129924   5.164   2.649   6.875
 9675SOL    HW229925   5.054   2.753   6.937
 9676SOL     OW29926   1.861   3.338   5.868
 9676SOL    HW129927   1.858   3.240   5.886
 9676SOL    HW229928   1.955   3.370   5.879
 9677SOL     OW29929   0.065   5.501   4.541
 9677SOL    HW129930   0.037   5.597   4.542
 9677SOL    HW229931   0.055   5.462   4.633
 9678SOL     OW29932   3.083   3.875   3.627
 9678SOL    HW129933   2.998   3.827   3.649
 9678SOL    HW229934   3.160   3.813   3.638
 9679SOL     OW29935   3.422   1.085   3.028
 9679SOL    HW129936   3.434   0.987   3.036
 9679SOL    HW229937   3.433   1.113   2.932
 9680SOL     OW29938   4.568   1.068   3.231
 9680SOL    HW129939   4.555   1.165   3.215
 9680SOL    HW229940   4.483   1.019   3.211
 9681SOL     OW29941   3.020   1.795   0.602
 9681SOL    HW129942   3.058   1.708   0.571
 9681SOL    HW229943   2.991   1.787   0.697
 9682SOL     OW29944   4.842   4.147   3.982
 9682SOL    HW129945   4.782   4.200   4.042
 9682SOL    HW229946   4.889   4.077   4.035
 9683SOL     OW29947   3.084   6.055   1.542
 9683SOL    HW129948   3.053   6.002   1.464
 9683SOL    HW229949   3.066   6.004   1.626
 9684SOL     OW29950   0.495   3.075   6.588
 9684SOL    HW129951   0.466   3.154   6.534
 9684SOL    HW229952   0.433   3.063   6.665
 9685SOL     OW29953   3.774   4.460   1.193
 9685SOL    HW129954   3.727   4.375   1.220
 9685SOL    HW229955   3.776   4.523   1.270
 9686SOL     OW29956   0.369   2.310   0.012
 9686SOL    HW129957   0.403   2.383   0.071
 9686SOL    HW229958   0.279   2.280   0.044
 9687SOL     OW29959   1.608   0.775   4.032
 9687SOL    HW129960   1.627   0.684   3.996
 9687SOL    HW229961   1.509   0.792   4.028
 9688SOL     OW29962   1.012   3.137   1.750
 9688SOL    HW129963   0.982   3.049   1.712
 9688SOL    HW229964   1.062   3.123   1.835
 9689SOL     OW29965   1.073   4.470   6.046
 9689SOL    HW129966   0.980   4.468   6.009
 9689SOL    HW229967   1.070   4.470   6.146
 9690SOL     OW29968   6.005   5.157   6.823
 9690SOL    HW129969   5.942   5.117   6.757
 9690SOL    HW229970   5.969   5.146   6.915
 9691SOL     OW29971   3.454   5.243   1.375
 9691SOL    HW129972   3.381   5.287   1.323
 9691SOL    HW229973   3.416   5.200   1.456
 9692SOL     OW29974   3.914   6.041   2.202
 9692SOL    HW129975   3.817   6.044   2.181
 9692SOL    HW229976   3.963   6.107   2.145
 9693SOL     OW29977   5.408   4.360   2.199
 9693SOL    HW129978   5.354   4.281   2.171
 9693SOL    HW229979   5.461   4.337   2.281
 9694SOL     OW29980   2.938   1.127   0.721
 9694SOL    HW129981   2.932   1.079   0.633
 9694SOL    HW229982   3.033   1.150   0.740
 9695SOL     OW29983   6.337   3.165   3.313
 9695SOL    HW129984   6.251   3.145   3.265
 9695SOL    HW229985   6.411   3.113   3.271
 9696SOL     OW29986   5.291   3.036   1.204
 9696SOL    HW129987   5.283   3.135   1.217
 9696SOL    HW229988   5.305   3.017   1.107
 9697SOL     OW29989   0.358   4.655   6.614
 9697SOL    HW129990   0.259   4.668   6.617
 9697SOL    HW229991   0.379   4.557   6.616
 9698SOL     OW29992   4.703   1.529   5.969
 9698SOL    HW129993   4.613   1.568   5.952
 9698SOL    HW229994   4.770   1.602   5.984
 9699SOL     OW29995   6.401   5.390   6.831
 9699SOL    HW129996   6.310   5.416   6.863
 9699SOL    HW229997   6.393   5.346   6.741
 9700SOL     OW29998   4.948   5.638   5.130
 9700SOL    HW129999   4.996   5.674   5.211
 9700SOL    HW230000   4.876   5.702   5.103
 9701SOL     OW30001   4.562   4.784   5.679
 9701SOL    HW130002   4.633   4.742   5.622
 9701SOL    HW230003   4.604   4.819   5.763
 9702SOL     OW30004   4.509   0.545   6.393
 9702SOL    HW130005   4.600   0.508   6.411
 9702SOL    HW230006   4.445   0.510   6.461
 9703SOL     OW30007   4.909   3.553   3.861
 9703SOL    HW130008   4.941   3.461   3.837
 9703SOL    HW230009   4.897   3.559   3.961
 9704SOL     OW30010   3.450   0.232   1.939
 9704SOL    HW130011   3.547   0.257   1.945
 9704SOL    HW230012   3.440   0.152   1.880
 9705SOL     OW30013   5.458   4.222   5.552
 9705SOL    HW130014   5.406   4.166   5.487
 9705SOL    HW230015   5.545   4.250   5.510
 9706SOL     OW30016   1.941   3.395   0.875
 9706SOL    HW130017   2.034   3.396   0.912
 9706SOL    HW230018   1.924   3.479   0.823
 9707SOL     OW30019   6.209   4.888   2.285
 9707SOL    HW130020   6.135   4.928   2.340
 9707SOL    HW230021   6.229   4.948   2.208
 9708SOL     OW30022   1.564   1.818   4.395
 9708SOL    HW130023   1.566   1.850   4.490
 9708SOL    HW230024   1.637   1.751   4.380
 9709SOL     OW30025   5.299   5.982   3.068
 9709SOL    HW130026   5.267   5.889   3.088
 9709SOL    HW230027   5.393   5.992   3.099
 9710SOL     OW30028   0.270   1.557   1.074
 9710SOL    HW130029   0.187   1.595   1.116
 9710SOL    HW230030   0.285   1.464   1.108
 9711SOL     OW30031   3.180   5.554   6.289
 9711SOL    HW130032   3.137   5.507   6.366
 9711SOL    HW230033   3.236   5.490   6.237
 9712SOL     OW30034   5.542   3.957   6.471
 9712SOL    HW130035   5.478   4.033   6.483
 9712SOL    HW230036   5.556   3.941   6.373
 9713SOL     OW30037   1.370   4.906   3.022
 9713SOL    HW130038   1.295   4.955   3.069
 9713SOL    HW230039   1.371   4.932   2.926
 9714SOL     OW30040   4.313   6.449   6.197
 9714SOL    HW130041   4.225   6.488   6.170
 9714SOL    HW230042   4.298   6.369   6.255
 9715SOL     OW30043   5.686   4.192   6.674
 9715SOL    HW130044   5.653   4.102   6.646
 9715SOL    HW230045   5.682   4.200   6.774
 9716SOL     OW30046   3.824   4.718   6.954
 9716SOL    HW130047   3.853   4.642   7.011
 9716SOL    HW230048   3.724   4.722   6.953
 9717SOL     OW30049   5.813   5.852   6.083
 9717SOL    HW130050   5.891   5.807   6.039
 9717SOL    HW230051   5.789   5.803   6.166
 9718SOL     OW30052   4.587   3.204   0.155
 9718SOL    HW130053   4.609   3.199   0.058
 9718SOL    HW230054   4.650   3.146   0.206
 9719SOL     OW30055   6.367   1.025   5.592
 9719SOL    HW130056   6.377   1.077   5.677
 9719SOL    HW230057   6.323   0.938   5.612
 9720SOL     OW30058   0.213   5.193   2.050
 9720SOL    HW130059   0.239   5.104   2.011
 9720SOL    HW230060   0.146   5.178   2.123
 9721SOL     OW30061   0.246   1.769   0.239
 9721SOL    HW130062   0.329   1.718   0.262
 9721SOL    HW230063   0.255   1.864   0.270
 9722SOL     OW30064   4.701   0.647   4.404
 9722SOL    HW130065   4.724   0.578   4.336
 9722SOL    HW230066   4.658   0.725   4.359
 9723SOL     OW30067   2.873   6.900   2.820
 9723SOL    HW130068   2.779   6.870   2.835
 9723SOL    HW230069   2.930   6.870   2.896
 9724SOL     OW30070   1.250   4.248   0.478
 9724SOL    HW130071   1.206   4.251   0.389
 9724SOL    HW230072   1.197   4.189   0.540
 9725SOL     OW30073   4.740   5.045   6.104
 9725SOL    HW130074   4.705   5.126   6.150
 9725SOL    HW230075   4.835   5.028   6.133
 9726SOL     OW30076   5.387   1.518   3.971
 9726SOL    HW130077   5.457   1.492   4.038
 9726SOL    HW230078   5.384   1.449   3.898
 9727SOL     OW30079   1.213   2.739   6.713
 9727SOL    HW130080   1.292   2.700   6.760
 9727SOL    HW230081   1.199   2.692   6.626
 9728SOL     OW30082   0.950   0.522   5.610
 9728SOL    HW130083   0.902   0.512   5.697
 9728SOL    HW230084   0.939   0.439   5.556
 9729SOL     OW30085   0.984   4.271   3.042
 9729SOL    HW130086   0.930   4.197   3.082
 9729SOL    HW230087   1.068   4.283   3.094
 9730SOL     OW30088   1.350   3.797   3.684
 9730SOL    HW130089   1.429   3.846   3.721
 9730SOL    HW230090   1.325   3.723   3.746
 9731SOL     OW30091   4.853   4.514   0.882
 9731SOL    HW130092   4.898   4.484   0.966
 9731SOL    HW230093   4.758   4.482   0.882
 9732SOL     OW30094   6.884   5.439   2.715
 9732SOL    HW130095   6.970   5.477   2.680
 9732SOL    HW230096   6.810   5.460   2.652
 9733SOL     OW30097   5.793   5.103   0.469
 9733SOL    HW130098   5.720   5.118   0.402
 9733SOL    HW230099   5.877   5.145   0.437
 9734SOL     OW30100   6.481   1.793   1.427
 9734SOL    HW130101   6.542   1.718   1.404
 9734SOL    HW230102   6.422   1.767   1.503
 9735SOL     OW30103   2.153   3.505   3.833
 9735SOL    HW130104   2.150   3.405   3.837
 9735SOL    HW230105   2.071   3.543   3.876
 9736SOL     OW30106   6.114   2.015   6.624
 9736SOL    HW130107   6.132   2.084   6.554
 9736SOL    HW230108   6.172   1.935   6.608
 9737SOL     OW30109   5.176   3.323   3.388
 9737SOL    HW130110   5.208   3.388   3.456
 9737SOL    HW230111   5.076   3.319   3.390
 9738SOL     OW30112   1.897   0.714   0.565
 9738SOL    HW130113   1.801   0.707   0.591
 9738SOL    HW230114   1.949   0.757   0.640
 9739SOL     OW30115   5.722   5.451   1.592
 9739SOL    HW130116   5.766   5.501   1.517
 9739SOL    HW230117   5.630   5.424   1.564
 9740SOL     OW30118   6.850   1.487   3.573
 9740SOL    HW130119   6.822   1.404   3.525
 9740SOL    HW230120   6.792   1.563   3.546
 9741SOL     OW30121   4.147   1.300   2.762
 9741SOL    HW130122   4.091   1.339   2.689
 9741SOL    HW230123   4.090   1.242   2.821
 9742SOL     OW30124   4.206   1.187   0.720
 9742SOL    HW130125   4.199   1.112   0.787
 9742SOL    HW230126   4.142   1.170   0.646
 9743SOL     OW30127   0.124   3.022   4.711
 9743SOL    HW130128   0.114   2.977   4.800
 9743SOL    HW230129   0.138   3.120   4.724
 9744SOL     OW30130   1.711   6.756   2.221
 9744SOL    HW130131   1.809   6.760   2.198
 9744SOL    HW230132   1.663   6.829   2.172
 9745SOL     OW30133   5.357   2.851   6.404
 9745SOL    HW130134   5.410   2.920   6.354
 9745SOL    HW230135   5.324   2.891   6.490
 9746SOL     OW30136   6.584   0.035   5.208
 9746SOL    HW130137   6.496   0.055   5.251
 9746SOL    HW230138   6.627   0.120   5.177
 9747SOL     OW30139   2.615   1.002   1.623
 9747SOL    HW130140   2.545   1.056   1.670
 9747SOL    HW230141   2.703   1.049   1.631
 9748SOL     OW30142   0.000   0.704   3.371
 9748SOL    HW130143   0.020   0.731   3.276
 9748SOL    HW230144   6.956   0.769   3.412
 9749SOL     OW30145   2.387   0.191   4.381
 9749SOL    HW130146   2.464   0.255   4.390
 9749SOL    HW230147   2.330   0.195   4.463
 9750SOL     OW30148   5.883   4.090   2.789
 9750SOL    HW130149   5.892   4.121   2.695
 9750SOL    HW230150   5.916   4.161   2.852
 9751SOL     OW30151   1.568   1.091   0.368
 9751SOL    HW130152   1.475   1.087   0.331
 9751SOL    HW230153   1.595   0.999   0.399
 9752SOL     OW30154   4.605   2.111   5.225
 9752SOL    HW130155   4.670   2.042   5.194
 9752SOL    HW230156   4.532   2.120   5.158
 9753SOL     OW30157   6.462   5.721   6.266
 9753SOL    HW130158   6.552   5.741   6.229
 9753SOL    HW230159   6.441   5.624   6.252
 9754SOL     OW30160   1.905   1.005   0.198
 9754SOL    HW130161   1.830   1.068   0.178
 9754SOL    HW230162   1.970   1.004   0.122
 9755SOL     OW30163   3.264   3.647   4.239
 9755SOL    HW130164   3.209   3.577   4.285
 9755SOL    HW230165   3.207   3.727   4.220
 9756SOL     OW30166   6.173   3.408   0.194
 9756SOL    HW130167   6.155   3.478   0.262
 9756SOL    HW230168   6.187   3.451   0.105
 9757SOL     OW30169   5.556   3.914   4.193
 9757SOL    HW130170   5.591   3.920   4.287
 9757SOL    HW230171   5.542   3.818   4.169
 9758SOL     OW30172   2.555   6.883   6.843
 9758SOL    HW130173   2.477   6.831   6.808
 9758SOL    HW230174   2.550   6.888   6.943
 9759SOL     OW30175   1.390   0.057   0.343
 9759SOL    HW130176   1.316   0.125   0.338
 9759SOL    HW230177   1.426   0.040   0.251
 9760SOL     OW30178   4.756   2.998   5.301
 9760SOL    HW130179   4.696   2.927   5.264
 9760SOL    HW230180   4.792   2.969   5.390
 9761SOL     OW30181   6.826   1.434   2.439
 9761SOL    HW130182   6.877   1.474   2.515
 9761SOL    HW230183   6.731   1.467   2.442
 9762SOL     OW30184   3.476   1.298   4.388
 9762SOL    HW130185   3.440   1.390   4.375
 9762SOL    HW230186   3.572   1.295   4.360
 9763SOL     OW30187   5.031   1.594   2.042
 9763SOL    HW130188   4.975   1.674   2.062
 9763SOL    HW230189   5.017   1.524   2.112
 9764SOL     OW30190   0.255   2.913   3.416
 9764SOL    HW130191   0.201   2.941   3.336
 9764SOL    HW230192   0.352   2.921   3.395
 9765SOL     OW30193   6.804   0.170   3.378
 9765SOL    HW130194   6.811   0.153   3.280
 9765SOL    HW230195   6.776   0.265   3.394
 9766SOL     OW30196   3.372   6.971   2.166
 9766SOL    HW130197   3.472   6.966   2.170
 9766SOL    HW230198   3.344   0.047   2.168
 9767SOL     OW30199   4.440   0.577   4.746
 9767SOL    HW130200   4.453   0.669   4.784
 9767SOL    HW230201   4.366   0.532   4.795
 9768SOL     OW30202   6.220   1.255   2.366
 9768SOL    HW130203   6.256   1.181   2.422
 9768SOL    HW230204   6.297   1.308   2.329
 9769SOL     OW30205   4.208   1.213   3.232
 9769SOL    HW130206   4.257   1.141   3.183
 9769SOL    HW230207   4.139   1.253   3.173
 9770SOL     OW30208   5.127   0.808   6.352
 9770SOL    HW130209   5.187   0.779   6.277
 9770SOL    HW230210   5.046   0.854   6.315
 9771SOL     OW30211   2.435   6.190   0.255
 9771SOL    HW130212   2.399   6.179   0.162
 9771SOL    HW230213   2.535   6.196   0.251
 9772SOL     OW30214   2.291   6.278   1.953
 9772SOL    HW130215   2.310   6.370   1.916
 9772SOL    HW230216   2.208   6.281   2.009
 9773SOL     OW30217   5.091   5.588   3.773
 9773SOL    HW130218   5.141   5.671   3.795
 9773SOL    HW230219   4.999   5.612   3.743
 9774SOL     OW30220   0.333   4.874   2.009
 9774SOL    HW130221   0.313   4.914   2.098
 9774SOL    HW230222   0.350   4.776   2.019
 9775SOL     OW30223   2.530   0.500   3.178
 9775SOL    HW130224   2.527   0.409   3.221
 9775SOL    HW230225   2.518   0.570   3.248
 9776SOL     OW30226   1.673   4.164   4.755
 9776SOL    HW130227   1.762   4.157   4.711
 9776SOL    HW230228   1.681   4.139   4.852
 9777SOL     OW30229   6.714   6.074   0.087
 9777SOL    HW130230   6.729   6.156   0.031
 9777SOL    HW230231   6.660   6.098   0.168
 9778SOL     OW30232   0.127   1.054   4.030
 9778SOL    HW130233   0.129   1.110   4.113
 9778SOL    HW230234   0.186   0.975   4.042
 9779SOL     OW30235   1.244   1.347   4.504
 9779SOL    HW130236   1.162   1.293   4.485
 9779SOL    HW230237   1.300   1.353   4.422
 9780SOL     OW30238   2.594   2.089   1.295
 9780SOL    HW130239   2.688   2.101   1.328
 9780SOL    HW230240   2.583   1.995   1.262
 9781SOL     OW30241   2.135   3.600   4.176
 9781SOL    HW130242   2.180   3.538   4.240
 9781SOL    HW230243   2.110   3.549   4.093
 9782SOL     OW30244   7.014   1.317   0.959
 9782SOL    HW130245   6.914   1.310   0.952
 9782SOL    HW230246   0.023   1.275   1.046
 9783SOL     OW30247   4.303   2.288   3.068
 9783SOL    HW130248   4.391   2.242   3.057
 9783SOL    HW230249   4.306   2.378   3.025
 9784SOL     OW30250   3.906   1.665   4.608
 9784SOL    HW130251   3.933   1.755   4.575
 9784SOL    HW230252   3.975   1.631   4.673
 9785SOL     OW30253   0.670   2.574   6.352
 9785SOL    HW130254   0.770   2.578   6.357
 9785SOL    HW230255   0.631   2.636   6.420
 9786SOL     OW30256   2.308   4.570   0.344
 9786SOL    HW130257   2.288   4.493   0.283
 9786SOL    HW230258   2.222   4.607   0.380
 9787SOL     OW30259   4.328   4.009   1.700
 9787SOL    HW130260   4.282   3.959   1.773
 9787SOL    HW230261   4.361   4.097   1.734
 9788SOL     OW30262   0.375   0.999   3.724
 9788SOL    HW130263   0.316   0.923   3.751
 9788SOL    HW230264   0.467   0.985   3.761
 9789SOL     OW30265   0.983   5.505   0.810
 9789SOL    HW130266   0.940   5.570   0.872
 9789SOL    HW230267   1.018   5.552   0.730
 9790SOL     OW30268   6.370   4.722   6.785
 9790SOL    HW130269   6.328   4.807   6.815
 9790SOL    HW230270   6.358   4.652   6.856
 9791SOL     OW30271   1.045   1.522   2.394
 9791SOL    HW130272   1.132   1.532   2.443
 9791SOL    HW230273   1.057   1.552   2.299
 9792SOL     OW30274   4.465   4.767   1.001
 9792SOL    HW130275   4.492   4.759   1.097
 9792SOL    HW230276   4.398   4.841   0.992
 9793SOL     OW30277   4.528   6.590   2.891
 9793SOL    HW130278   4.575   6.502   2.882
 9793SOL    HW230279   4.431   6.574   2.911
 9794SOL     OW30280   0.171   4.786   1.049
 9794SOL    HW130281   0.247   4.810   1.109
 9794SOL    HW230282   0.187   4.695   1.011
 9795SOL     OW30283   2.185   1.727   4.397
 9795SOL    HW130284   2.173   1.676   4.312
 9795SOL    HW230285   2.188   1.662   4.474
 9796SOL     OW30286   3.732   2.400   1.435
 9796SOL    HW130287   3.830   2.400   1.418
 9796SOL    HW230288   3.683   2.409   1.349
 9797SOL     OW30289   2.427   5.668   6.578
 9797SOL    HW130290   2.380   5.740   6.629
 9797SOL    HW230291   2.483   5.614   6.641
 9798SOL     OW30292   3.018   0.832   2.052
 9798SOL    HW130293   2.958   0.787   1.987
 9798SOL    HW230294   3.058   0.914   2.010
 9799SOL     OW30295   3.392   2.949   4.527
 9799SOL    HW130296   3.372   2.955   4.625
 9799SOL    HW230297   3.490   2.961   4.512
 9800SOL     OW30298   3.934   6.147   4.603
 9800SOL    HW130299   3.968   6.168   4.695
 9800SOL    HW230300   3.855   6.087   4.610
 9801SOL     OW30301   4.723   4.233   6.429
 9801SOL    HW130302   4.653   4.173   6.468
 9801SOL    HW230303   4.693   4.329   6.436
 9802SOL     OW30304   0.015   3.552   1.083
 9802SOL    HW130305   0.016   3.472   1.144
 9802SOL    HW230306   0.032   3.523   0.989
 9803SOL     OW30307   0.928   2.104   6.828
 9803SOL    HW130308   0.889   2.165   6.897
 9803SOL    HW230309   0.980   2.158   6.761
 9804SOL     OW30310   1.679   6.756   2.662
 9804SOL    HW130311   1.611   6.685   2.679
 9804SOL    HW230312   1.635   6.835   2.621
 9805SOL     OW30313   1.602   6.997   4.509
 9805SOL    HW130314   1.624   6.962   4.599
 9805SOL    HW230315   1.514   6.959   4.479
 9806SOL     OW30316   1.300   1.099   0.333
 9806SOL    HW130317   1.239   1.177   0.346
 9806SOL    HW230318   1.247   1.014   0.337
 9807SOL     OW30319   2.915   4.401   0.548
 9807SOL    HW130320   2.909   4.320   0.490
 9807SOL    HW230321   2.897   4.483   0.494
 9808SOL     OW30322   4.127   0.159   5.166
 9808SOL    HW130323   4.040   0.178   5.120
 9808SOL    HW230324   4.113   0.156   5.265
 9809SOL     OW30325   0.678   2.777   6.756
 9809SOL    HW130326   0.682   2.787   6.657
 9809SOL    HW230327   0.767   2.745   6.790
 9810SOL     OW30328   2.066   2.843   3.439
 9810SOL    HW130329   2.032   2.778   3.506
 9810SOL    HW230330   2.052   2.806   3.347
 9811SOL     OW30331   5.312   4.682   3.564
 9811SOL    HW130332   5.354   4.599   3.528
 9811SOL    HW230333   5.329   4.758   3.502
 9812SOL     OW30334   3.576   2.342   5.719
 9812SOL    HW130335   3.482   2.335   5.688
 9812SOL    HW230336   3.624   2.257   5.699
 9813SOL     OW30337   5.826   1.239   0.676
 9813SOL    HW130338   5.903   1.196   0.629
 9813SOL    HW230339   5.844   1.337   0.687
 9814SOL     OW30340   6.978   0.227   6.923
 9814SOL    HW130341   0.007   0.313   6.936
 9814SOL    HW230342   6.967   0.182   7.012
 9815SOL     OW30343   5.759   4.164   3.587
 9815SOL    HW130344   5.718   4.250   3.617
 9815SOL    HW230345   5.825   4.182   3.514
 9816SOL     OW30346   6.861   1.066   5.991
 9816SOL    HW130347   6.881   1.163   5.981
 9816SOL    HW230348   6.844   1.045   6.087
 9817SOL     OW30349   3.060   6.664   2.695
 9817SOL    HW130350   2.980   6.722   2.712
 9817SOL    HW230351   3.034   6.568   2.700
 9818SOL     OW30352   1.508   1.266   4.970
 9818SOL    HW130353   1.519   1.204   5.048
 9818SOL    HW230354   1.593   1.268   4.917
 9819SOL     OW30355   4.710   2.848   3.614
 9819SOL    HW130356   4.683   2.768   3.561
 9819SOL    HW230357   4.669   2.844   3.705
 9820SOL     OW30358   4.179   3.660   6.202
 9820SOL    HW130359   4.242   3.626   6.133
 9820SOL    HW230360   4.153   3.586   6.264
 9821SOL     OW30361   5.317   0.801   0.119
 9821SOL    HW130362   5.302   0.871   0.190
 9821SOL    HW230363   5.375   0.839   0.047
 9822SOL     OW30364   2.835   6.084   3.621
 9822SOL    HW130365   2.831   6.037   3.709
 9822SOL    HW230366   2.816   6.020   3.548
 9823SOL     OW30367   2.603   0.723   0.144
 9823SOL    HW130368   2.649   0.735   0.232
 9823SOL    HW230369   2.574   0.812   0.108
 9824SOL     OW30370   2.024   5.136   4.217
 9824SOL    HW130371   2.100   5.132   4.281
 9824SOL    HW230372   2.002   5.232   4.197
 9825SOL     OW30373   5.304   5.893   4.549
 9825SOL    HW130374   5.302   5.819   4.481
 9825SOL    HW230375   5.374   5.873   4.618
 9826SOL     OW30376   4.006   5.664   5.634
 9826SOL    HW130377   4.099   5.638   5.660
 9826SOL    HW230378   3.941   5.622   5.697
 9827SOL     OW30379   1.522   4.326   3.803
 9827SOL    HW130380   1.448   4.305   3.739
 9827SOL    HW230381   1.550   4.243   3.851
 9828SOL     OW30382   2.732   2.202   5.581
 9828SOL    HW130383   2.819   2.167   5.544
 9828SOL    HW230384   2.682   2.126   5.622
 9829SOL     OW30385   4.438   4.973   6.278
 9829SOL    HW130386   4.439   5.006   6.372
 9829SOL    HW230387   4.480   5.042   6.218
 9830SOL     OW30388   5.176   1.365   1.910
 9830SOL    HW130389   5.142   1.271   1.911
 9830SOL    HW230390   5.098   1.429   1.910
 9831SOL     OW30391   1.009   4.881   2.212
 9831SOL    HW130392   0.938   4.914   2.149
 9831SOL    HW230393   0.981   4.792   2.249
 9832SOL     OW30394   4.884   5.102   2.817
 9832SOL    HW130395   4.792   5.081   2.783
 9832SOL    HW230396   4.945   5.026   2.796
 9833SOL     OW30397   3.340   3.176   4.274
 9833SOL    HW130398   3.424   3.203   4.226
 9833SOL    HW230399   3.310   3.087   4.239
 9834SOL     OW30400   2.392   4.189   5.337
 9834SOL    HW130401   2.426   4.157   5.425
 9834SOL    HW230402   2.395   4.114   5.271
 9835SOL     OW30403   3.842   3.814   4.698
 9835SOL    HW130404   3.911   3.742   4.712
 9835SOL    HW230405   3.876   3.879   4.630
 9836SOL     OW30406   6.869   4.394   3.583
 9836SOL    HW130407   6.900   4.314   3.635
 9836SOL    HW230408   6.895   4.477   3.632
 9837SOL     OW30409   3.998   0.601   2.332
 9837SOL    HW130410   3.991   0.543   2.413
 9837SOL    HW230411   3.957   0.690   2.350
 9838SOL     OW30412   1.640   6.494   0.555
 9838SOL    HW130413   1.631   6.588   0.521
 9838SOL    HW230414   1.585   6.483   0.638
 9839SOL     OW30415   5.860   6.527   3.780
 9839SOL    HW130416   5.845   6.615   3.824
 9839SOL    HW230417   5.914   6.469   3.842
 9840SOL     OW30418   5.937   1.766   1.062
 9840SOL    HW130419   5.865   1.699   1.042
 9840SOL    HW230420   5.944   1.830   0.986
 9841SOL     OW30421   1.571   3.894   5.360
 9841SOL    HW130422   1.578   3.811   5.306
 9841SOL    HW230423   1.535   3.872   5.451
 9842SOL     OW30424   3.759   2.749   1.452
 9842SOL    HW130425   3.755   2.767   1.550
 9842SOL    HW230426   3.666   2.748   1.415
 9843SOL     OW30427   0.129   0.432   2.168
 9843SOL    HW130428   0.046   0.377   2.175
 9843SOL    HW230429   0.162   0.431   2.074
 9844SOL     OW30430   6.566   1.146   3.358
 9844SOL    HW130431   6.569   1.229   3.414
 9844SOL    HW230432   6.491   1.152   3.293
 9845SOL     OW30433   1.948   2.659   3.622
 9845SOL    HW130434   1.911   2.677   3.713
 9845SOL    HW230435   2.002   2.576   3.624
 9846SOL     OW30436   3.626   2.215   1.132
 9846SOL    HW130437   3.633   2.141   1.199
 9846SOL    HW230438   3.606   2.300   1.179
 9847SOL     OW30439   3.778   2.941   3.047
 9847SOL    HW130440   3.683   2.916   3.034
 9847SOL    HW230441   3.813   2.898   3.130
 9848SOL     OW30442   3.498   4.105   4.879
 9848SOL    HW130443   3.524   4.033   4.814
 9848SOL    HW230444   3.420   4.074   4.934
 9849SOL     OW30445   0.839   0.116   5.998
 9849SOL    HW130446   0.863   0.020   5.983
 9849SOL    HW230447   0.746   0.122   6.035
 9850SOL     OW30448   6.115   0.263   3.879
 9850SOL    HW130449   6.159   0.305   3.800
 9850SOL    HW230450   6.155   0.299   3.963
 9851SOL     OW30451   0.459   7.020   4.269
 9851SOL    HW130452   0.405   0.025   4.349
 9851SOL    HW230453   0.556   0.014   4.289
 9852SOL     OW30454   3.307   1.782   4.360
 9852SOL    HW130455   3.342   1.844   4.289
 9852SOL    HW230456   3.376   1.713   4.381
 9853SOL     OW30457   5.306   3.103   5.048
 9853SOL    HW130458   5.400   3.079   5.025
 9853SOL    HW230459   5.264   3.027   5.099
 9854SOL     OW30460   6.738   6.084   4.300
 9854SOL    HW130461   6.673   6.044   4.235
 9854SOL    HW230462   6.690   6.112   4.382
 9855SOL     OW30463   1.812   3.347   1.855
 9855SOL    HW130464   1.855   3.389   1.935
 9855SOL    HW230465   1.877   3.286   1.810
 9856SOL     OW30466   4.750   4.233   4.786
 9856SOL    HW130467   4.789   4.216   4.695
 9856SOL    HW230468   4.662   4.279   4.776
 9857SOL     OW30469   4.736   2.885   2.622
 9857SOL    HW130470   4.790   2.914   2.701
 9857SOL    HW230471   4.698   2.965   2.576
 9858SOL     OW30472   6.449   6.624   1.001
 9858SOL    HW130473   6.360   6.667   1.018
 9858SOL    HW230474   6.519   6.695   0.994
 9859SOL     OW30475   6.146   6.083   2.851
 9859SOL    HW130476   6.081   6.022   2.897
 9859SOL    HW230477   6.113   6.104   2.760
 9860SOL     OW30478   1.891   2.318   4.315
 9860SOL    HW130479   1.804   2.294   4.273
 9860SOL    HW230480   1.885   2.410   4.354
 9861SOL     OW30481   2.997   0.534   2.621
 9861SOL    HW130482   3.086   0.489   2.617
 9861SOL    HW230483   3.004   0.618   2.675
 9862SOL     OW30484   2.748   3.352   0.284
 9862SOL    HW130485   2.719   3.271   0.232
 9862SOL    HW230486   2.826   3.395   0.238
 9863SOL     OW30487   3.284   6.482   1.676
 9863SOL    HW130488   3.384   6.480   1.670
 9863SOL    HW230489   3.257   6.500   1.770
 9864SOL     OW30490   3.037   0.204   3.889
 9864SOL    HW130491   3.055   0.157   3.802
 9864SOL    HW230492   3.122   0.211   3.941
 9865SOL     OW30493   1.090   6.895   4.501
 9865SOL    HW130494   1.057   6.876   4.594
 9865SOL    HW230495   1.141   6.816   4.467
 9866SOL     OW30496   5.388   4.767   5.820
 9866SOL    HW130497   5.485   4.790   5.830
 9866SOL    HW230498   5.353   4.731   5.906
 9867SOL     OW30499   0.068   1.927   1.193
 9867SOL    HW130500   0.167   1.927   1.206
 9867SOL    HW230501   0.041   1.845   1.144
 9868SOL     OW30502   0.607   3.347   4.396
 9868SOL    HW130503   0.594   3.381   4.489
 9868SOL    HW230504   0.530   3.288   4.371
 9869SOL     OW30505   0.345   2.429   1.450
 9869SOL    HW130506   0.424   2.453   1.507
 9869SOL    HW230507   0.279   2.378   1.505
 9870SOL     OW30508   4.634   5.242   3.153
 9870SOL    HW130509   4.726   5.206   3.143
 9870SOL    HW230510   4.580   5.179   3.210
 9871SOL     OW30511   6.498   4.535   5.867
 9871SOL    HW130512   6.434   4.589   5.813
 9871SOL    HW230513   6.586   4.584   5.873
 9872SOL     OW30514   3.180   5.778   5.229
 9872SOL    HW130515   3.111   5.773   5.301
 9872SOL    HW230516   3.225   5.689   5.220
 9873SOL     OW30517   2.578   2.119   0.670
 9873SOL    HW130518   2.580   2.048   0.740
 9873SOL    HW230519   2.634   2.091   0.592
 9874SOL     OW30520   6.216   3.007   5.646
 9874SOL    HW130521   6.131   2.954   5.655
 9874SOL    HW230522   6.194   3.104   5.649
 9875SOL     OW30523   6.191   5.901   1.993
 9875SOL    HW130524   6.200   5.818   1.939
 9875SOL    HW230525   6.276   5.918   2.043
 9876SOL     OW30526   5.379   6.881   4.128
 9876SOL    HW130527   5.429   6.802   4.162
 9876SOL    HW230528   5.419   6.912   4.042
 9877SOL     OW30529   6.318   4.799   4.260
 9877SOL    HW130530   6.344   4.887   4.220
 9877SOL    HW230531   6.379   4.779   4.338
 9878SOL     OW30532   2.973   3.408   6.088
 9878SOL    HW130533   2.955   3.450   5.999
 9878SOL    HW230534   2.923   3.457   6.159
 9879SOL     OW30535   5.219   5.326   5.567
 9879SOL    HW130536   5.273   5.382   5.504
 9879SOL    HW230537   5.132   5.370   5.586
 9880SOL     OW30538   3.289   1.007   0.608
 9880SOL    HW130539   3.383   1.011   0.642
 9880SOL    HW230540   3.247   0.921   0.635
 9881SOL     OW30541   7.012   1.476   5.196
 9881SOL    HW130542   0.060   1.481   5.122
 9881SOL    HW230543   0.034   1.508   5.281
 9882SOL     OW30544   2.230   3.750   5.831
 9882SOL    HW130545   2.321   3.711   5.840
 9882SOL    HW230546   2.200   3.746   5.736
 9883SOL     OW30547   1.172   6.459   0.987
 9883SOL    HW130548   1.215   6.548   1.004
 9883SOL    HW230549   1.237   6.398   0.942
 9884SOL     OW30550   4.689   1.329   1.033
 9884SOL    HW130551   4.731   1.356   0.947
 9884SOL    HW230552   4.716   1.235   1.055
 9885SOL     OW30553   0.161   3.285   4.775
 9885SOL    HW130554   0.122   3.364   4.728
 9885SOL    HW230555   0.217   3.317   4.851
 9886SOL     OW30556   1.035   5.394   1.136
 9886SOL    HW130557   1.112   5.457   1.146
 9886SOL    HW230558   1.068   5.300   1.133
 9887SOL     OW30559   4.446   6.939   0.155
 9887SOL    HW130560   4.372   7.007   0.149
 9887SOL    HW230561   4.433   6.884   0.237
 9888SOL     OW30562   5.232   5.102   3.396
 9888SOL    HW130563   5.221   5.190   3.441
 9888SOL    HW230564   5.203   5.110   3.300
 9889SOL     OW30565   6.390   4.445   1.410
 9889SOL    HW130566   6.451   4.440   1.331
 9889SOL    HW230567   6.362   4.353   1.437
 9890SOL     OW30568   0.716   2.176   1.295
 9890SOL    HW130569   0.753   2.104   1.355
 9890SOL    HW230570   0.624   2.200   1.326
 9891SOL     OW30571   6.232   3.364   1.171
 9891SOL    HW130572   6.201   3.458   1.155
 9891SOL    HW230573   6.253   3.321   1.084
 9892SOL     OW30574   1.492   5.553   3.122
 9892SOL    HW130575   1.425   5.627   3.110
 9892SOL    HW230576   1.443   5.465   3.129
 9893SOL     OW30577   6.495   0.471   1.895
 9893SOL    HW130578   6.550   0.390   1.873
 9893SOL    HW230579   6.436   0.450   1.973
 9894SOL     OW30580   2.760   2.244   6.109
 9894SOL    HW130581   2.795   2.338   6.107
 9894SOL    HW230582   2.679   2.240   6.167
 9895SOL     OW30583   5.282   3.185   5.972
 9895SOL    HW130584   5.326   3.168   5.884
 9895SOL    HW230585   5.225   3.107   5.998
 9896SOL     OW30586   5.270   1.609   0.231
 9896SOL    HW130587   5.171   1.620   0.230
 9896SOL    HW230588   5.298   1.564   0.316
 9897SOL     OW30589   5.117   6.761   2.782
 9897SOL    HW130590   5.021   6.745   2.805
 9897SOL    HW230591   5.144   6.698   2.708
 9898SOL     OW30592   0.686   4.747   5.655
 9898SOL    HW130593   0.719   4.716   5.744
 9898SOL    HW230594   0.637   4.833   5.665
 9899SOL     OW30595   0.176   5.345   2.603
 9899SOL    HW130596   0.254   5.372   2.546
 9899SOL    HW230597   0.186   5.386   2.694
 9900SOL     OW30598   2.083   3.482   2.656
 9900SOL    HW130599   2.090   3.515   2.562
 9900SOL    HW230600   2.014   3.410   2.662
 9901SOL     OW30601   2.817   0.972   0.099
 9901SOL    HW130602   2.914   0.974   0.120
 9901SOL    HW230603   2.770   1.046   0.148
 9902SOL     OW30604   4.243   3.777   1.215
 9902SOL    HW130605   4.284   3.865   1.193
 9902SOL    HW230606   4.169   3.757   1.150
 9903SOL     OW30607   5.440   1.014   1.461
 9903SOL    HW130608   5.532   0.974   1.454
 9903SOL    HW230609   5.374   0.943   1.485
 9904SOL     OW30610   0.272   3.436   6.446
 9904SOL    HW130611   0.267   3.491   6.362
 9904SOL    HW230612   0.221   3.352   6.434
 9905SOL     OW30613   1.477   0.564   6.332
 9905SOL    HW130614   1.572   0.563   6.363
 9905SOL    HW230615   1.450   0.657   6.311
 9906SOL     OW30616   1.967   4.289   0.311
 9906SOL    HW130617   1.971   4.193   0.286
 9906SOL    HW230618   1.984   4.346   0.231
 9907SOL     OW30619   1.309   1.201   2.670
 9907SOL    HW130620   1.331   1.264   2.744
 9907SOL    HW230621   1.394   1.168   2.628
 9908SOL     OW30622   1.145   3.416   5.956
 9908SOL    HW130623   1.199   3.363   5.891
 9908SOL    HW230624   1.119   3.503   5.913
 9909SOL     OW30625   4.032   0.918   2.953
 9909SOL    HW130626   3.996   1.012   2.950
 9909SOL    HW230627   4.035   0.888   3.049
 9910SOL     OW30628   1.195   5.175   1.427
 9910SOL    HW130629   1.241   5.141   1.510
 9910SOL    HW230630   1.137   5.253   1.451
 9911SOL     OW30631   3.990   5.769   2.188
 9911SOL    HW130632   3.896   5.744   2.168
 9911SOL    HW230633   3.997   5.868   2.201
 9912SOL     OW30634   4.393   1.174   2.052
 9912SOL    HW130635   4.341   1.258   2.034
 9912SOL    HW230636   4.462   1.161   1.980
 9913SOL     OW30637   6.144   2.926   1.633
 9913SOL    HW130638   6.232   2.937   1.587
 9913SOL    HW230639   6.074   2.977   1.583
 9914SOL     OW30640   0.303   6.807   5.126
 9914SOL    HW130641   0.219   6.773   5.167
 9914SOL    HW230642   0.288   6.899   5.090
 9915SOL     OW30643   5.293   2.873   4.071
 9915SOL    HW130644   5.380   2.886   4.024
 9915SOL    HW230645   5.306   2.886   4.170
 9916SOL     OW30646   1.832   2.324   3.256
 9916SOL    HW130647   1.739   2.291   3.245
 9916SOL    HW230648   1.831   2.421   3.281
 9917SOL     OW30649   3.453   3.522   4.670
 9917SOL    HW130650   3.372   3.475   4.635
 9917SOL    HW230651   3.507   3.557   4.594
 9918SOL     OW30652   1.006   2.590   1.767
 9918SOL    HW130653   0.921   2.559   1.811
 9918SOL    HW230654   1.080   2.527   1.790
 9919SOL     OW30655   2.506   5.773   2.310
 9919SOL    HW130656   2.475   5.868   2.307
 9919SOL    HW230657   2.463   5.722   2.236
 9920SOL     OW30658   4.293   0.333   2.831
 9920SOL    HW130659   4.298   0.388   2.748
 9920SOL    HW230660   4.328   0.386   2.908
 9921SOL     OW30661   4.444   0.063   4.549
 9921SOL    HW130662   4.506   0.112   4.488
 9921SOL    HW230663   4.438   0.113   4.636
 9922SOL     OW30664   4.945   4.711   1.477
 9922SOL    HW130665   4.926   4.658   1.395
 9922SOL    HW230666   4.971   4.649   1.551
 9923SOL     OW30667   6.359   3.227   0.235
 9923SOL    HW130668   6.306   3.307   0.210
 9923SOL    HW230669   6.304   3.144   0.223
 9924SOL     OW30670   4.456   1.465   3.460
 9924SOL    HW130671   4.493   1.407   3.388
 9924SOL    HW230672   4.376   1.514   3.426
 9925SOL     OW30673   1.410   4.899   3.597
 9925SOL    HW130674   1.492   4.842   3.595
 9925SOL    HW230675   1.400   4.940   3.688
 9926SOL     OW30676   3.712   2.760   0.746
 9926SOL    HW130677   3.646   2.685   0.737
 9926SOL    HW230678   3.681   2.823   0.817
 9927SOL     OW30679   0.945   1.548   1.255
 9927SOL    HW130680   0.889   1.550   1.338
 9927SOL    HW230681   1.040   1.567   1.278
 9928SOL     OW30682   5.252   3.809   3.099
 9928SOL    HW130683   5.328   3.861   3.059
 9928SOL    HW230684   5.244   3.721   3.051
 9929SOL     OW30685   2.903   3.807   4.449
 9929SOL    HW130686   2.812   3.824   4.411
 9929SOL    HW230687   2.908   3.712   4.481
 9930SOL     OW30688   0.853   0.448   6.082
 9930SOL    HW130689   0.952   0.434   6.081
 9930SOL    HW230690   0.808   0.371   6.127
 9931SOL     OW30691   6.746   5.435   3.805
 9931SOL    HW130692   6.823   5.417   3.744
 9931SOL    HW230693   6.707   5.525   3.786
 9932SOL     OW30694   2.585   1.638   6.194
 9932SOL    HW130695   2.575   1.730   6.158
 9932SOL    HW230696   2.494   1.598   6.209
 9933SOL     OW30697   1.826   0.928   3.878
 9933SOL    HW130698   1.748   0.866   3.874
 9933SOL    HW230699   1.909   0.876   3.897
 9934SOL     OW30700   6.253   1.808   0.003
 9934SOL    HW130701   6.330   1.784   6.964
 9934SOL    HW230702   6.186   1.860   6.969
 9935SOL     OW30703   3.386   0.785   0.927
 9935SOL    HW130704   3.320   0.802   0.853
 9935SOL    HW230705   3.455   0.720   0.896
 9936SOL     OW30706   6.532   5.104   0.752
 9936SOL    HW130707   6.521   5.061   0.842
 9936SOL    HW230708   6.493   5.044   0.682
 9937SOL     OW30709   1.245   1.135   2.268
 9937SOL    HW130710   1.153   1.139   2.228
 9937SOL    HW230711   1.244   1.077   2.349
 9938SOL     OW30712   5.843   6.316   4.483
 9938SOL    HW130713   5.822   6.372   4.403
 9938SOL    HW230714   5.940   6.291   4.482
 9939SOL     OW30715   2.808   2.849   0.398
 9939SOL    HW130716   2.710   2.831   0.412
 9939SOL    HW230717   2.859   2.764   0.412
 9940SOL     OW30718   1.365   0.425   2.701
 9940SOL    HW130719   1.345   0.404   2.606
 9940SOL    HW230720   1.303   0.496   2.734
 9941SOL     OW30721   2.503   5.567   5.486
 9941SOL    HW130722   2.431   5.624   5.449
 9941SOL    HW230723   2.464   5.479   5.516
 9942SOL     OW30724   4.452   5.791   2.520
 9942SOL    HW130725   4.436   5.697   2.488
 9942SOL    HW230726   4.375   5.820   2.577
 9943SOL     OW30727   1.311   4.397   6.577
 9943SOL    HW130728   1.292   4.310   6.622
 9943SOL    HW230729   1.229   4.454   6.577
 9944SOL     OW30730   0.827   4.785   6.274
 9944SOL    HW130731   0.831   4.857   6.343
 9944SOL    HW230732   0.904   4.796   6.211
 9945SOL     OW30733   5.373   4.482   6.374
 9945SOL    HW130734   5.391   4.464   6.471
 9945SOL    HW230735   5.415   4.569   6.348
 9946SOL     OW30736   6.535   0.217   3.140
 9946SOL    HW130737   6.460   0.182   3.196
 9946SOL    HW230738   6.502   0.235   3.047
 9947SOL     OW30739   3.232   1.925   4.617
 9947SOL    HW130740   3.259   1.850   4.556
 9947SOL    HW230741   3.283   1.919   4.702
 9948SOL     OW30742   6.686   5.322   5.182
 9948SOL    HW130743   6.781   5.300   5.156
 9948SOL    HW230744   6.671   5.298   5.278
 9949SOL     OW30745   0.402   4.969   3.440
 9949SOL    HW130746   0.473   5.018   3.389
 9949SOL    HW230747   0.420   4.871   3.436
 9950SOL     OW30748   7.005   5.847   6.902
 9950SOL    HW130749   6.938   5.843   6.975
 9950SOL    HW230750   7.008   5.759   6.854
 9951SOL     OW30751   1.539   2.269   3.227
 9951SOL    HW130752   1.474   2.201   3.195
 9951SOL    HW230753   1.503   2.314   3.309
 9952SOL     OW30754   1.675   3.795   0.849
 9952SOL    HW130755   1.592   3.848   0.830
 9952SOL    HW230756   1.693   3.795   0.947
 9953SOL     OW30757   5.543   2.594   3.909
 9953SOL    HW130758   5.589   2.671   3.866
 9953SOL    HW230759   5.609   2.520   3.924
 9954SOL     OW30760   0.950   0.416   4.420
 9954SOL    HW130761   0.947   0.331   4.473
 9954SOL    HW230762   1.027   0.472   4.451
 9955SOL     OW30763   3.506   3.386   6.648
 9955SOL    HW130764   3.532   3.416   6.556
 9955SOL    HW230765   3.565   3.430   6.715
 9956SOL     OW30766   0.618   4.020   3.081
 9956SOL    HW130767   0.652   4.055   2.994
 9956SOL    HW230768   0.567   3.936   3.066
 9957SOL     OW30769   6.036   0.719   2.688
 9957SOL    HW130770   6.003   0.626   2.674
 9957SOL    HW230771   6.034   0.741   2.785
 9958SOL     OW30772   2.555   6.323   6.628
 9958SOL    HW130773   2.484   6.315   6.698
 9958SOL    HW230774   2.608   6.238   6.626
 9959SOL     OW30775   4.126   3.677   3.285
 9959SOL    HW130776   4.120   3.629   3.198
 9959SOL    HW230777   4.200   3.744   3.281
 9960SOL     OW30778   0.809   6.592   2.219
 9960SOL    HW130779   0.852   6.677   2.188
 9960SOL    HW230780   0.806   6.527   2.143
 9961SOL     OW30781   1.588   5.075   3.242
 9961SOL    HW130782   1.502   5.024   3.241
 9961SOL    HW230783   1.650   5.034   3.310
 9962SOL     OW30784   4.192   0.354   2.476
 9962SOL    HW130785   4.134   0.312   2.407
 9962SOL    HW230786   4.139   0.418   2.530
 9963SOL     OW30787   2.585   2.652   5.675
 9963SOL    HW130788   2.626   2.640   5.765
 9963SOL    HW230789   2.583   2.564   5.628
 9964SOL     OW30790   4.199   5.000   5.929
 9964SOL    HW130791   4.200   4.933   6.004
 9964SOL    HW230792   4.240   4.960   5.848
 9965SOL     OW30793   3.533   4.877   5.516
 9965SOL    HW130794   3.495   4.811   5.451
 9965SOL    HW230795   3.573   4.828   5.594
 9966SOL     OW30796   2.072   5.374   1.870
 9966SOL    HW130797   2.169   5.396   1.877
 9966SOL    HW230798   2.018   5.458   1.883
 9967SOL     OW30799   4.808   5.482   2.037
 9967SOL    HW130800   4.753   5.561   2.063
 9967SOL    HW230801   4.876   5.508   1.969
 9968SOL     OW30802   3.222   5.522   6.583
 9968SOL    HW130803   3.226   5.617   6.615
 9968SOL    HW230804   3.311   5.479   6.597
 9969SOL     OW30805   0.860   3.042   3.794
 9969SOL    HW130806   0.871   3.051   3.893
 9969SOL    HW230807   0.771   3.077   3.767
 9970SOL     OW30808   6.839   4.195   2.457
 9970SOL    HW130809   6.829   4.246   2.372
 9970SOL    HW230810   6.832   4.258   2.534
 9971SOL     OW30811   2.538   4.528   0.502
 9971SOL    HW130812   2.556   4.606   0.563
 9971SOL    HW230813   2.456   4.547   0.447
 9972SOL     OW30814   3.574   4.333   0.706
 9972SOL    HW130815   3.655   4.276   0.692
 9972SOL    HW230816   3.525   4.301   0.787
 9973SOL     OW30817   4.237   1.790   5.042
 9973SOL    HW130818   4.332   1.779   5.012
 9973SOL    HW230819   4.183   1.712   5.011
 9974SOL     OW30820   6.393   3.787   3.416
 9974SOL    HW130821   6.314   3.850   3.416
 9974SOL    HW230822   6.474   3.837   3.445
 9975SOL     OW30823   6.982   4.517   6.926
 9975SOL    HW130824   6.995   4.579   7.004
 9975SOL    HW230825   6.888   4.481   6.927
 9976SOL     OW30826   6.397   4.982   5.574
 9976SOL    HW130827   6.308   4.951   5.608
 9976SOL    HW230828   6.388   5.006   5.477
 9977SOL     OW30829   6.698   4.729   5.871
 9977SOL    HW130830   6.658   4.815   5.839
 9977SOL    HW230831   6.661   4.707   5.962
 9978SOL     OW30832   6.166   1.151   4.353
 9978SOL    HW130833   6.128   1.219   4.290
 9978SOL    HW230834   6.168   1.188   4.445
 9979SOL     OW30835   6.909   4.828   6.180
 9979SOL    HW130836   6.960   4.853   6.262
 9979SOL    HW230837   6.883   4.731   6.185
 9980SOL     OW30838   1.618   0.632   6.691
 9980SOL    HW130839   1.642   0.556   6.752
 9980SOL    HW230840   1.665   0.621   6.604
 9981SOL     OW30841   2.314   2.142   0.979
 9981SOL    HW130842   2.396   2.191   0.949
 9981SOL    HW230843   2.297   2.065   0.918
 9982SOL     OW30844   0.970   1.734   3.048
 9982SOL    HW130845   0.915   1.816   3.057
 9982SOL    HW230846   0.925   1.658   3.096
 9983SOL     OW30847   1.187   1.269   1.518
 9983SOL    HW130848   1.094   1.252   1.485
 9983SOL    HW230849   1.243   1.303   1.443
 9984SOL     OW30850   0.530   0.446   0.830
 9984SOL    HW130851   0.448   0.407   0.788
 9984SOL    HW230852   0.529   0.427   0.928
 9985SOL     OW30853   3.346   0.220   1.092
 9985SOL    HW130854   3.331   0.163   1.011
 9985SOL    HW230855   3.441   0.252   1.093
 9986SOL     OW30856   4.916   4.224   6.225
 9986SOL    HW130857   4.847   4.239   6.296
 9986SOL    HW230858   4.917   4.128   6.199
 9987SOL     OW30859   5.657   2.232   2.263
 9987SOL    HW130860   5.686   2.206   2.355
 9987SOL    HW230861   5.566   2.273   2.267
 9988SOL     OW30862   0.293   5.162   4.625
 9988SOL    HW130863   0.378   5.213   4.635
 9988SOL    HW230864   0.227   5.194   4.693
 9989SOL     OW30865   5.317   3.272   2.827
 9989SOL    HW130866   5.321   3.203   2.899
 9989SOL    HW230867   5.339   3.229   2.739
 9990SOL     OW30868   2.285   6.935   3.132
 9990SOL    HW130869   2.200   6.919   3.182
 9990SOL    HW230870   2.362   6.931   3.195
 9991SOL     OW30871   1.012   3.178   5.246
 9991SOL    HW130872   0.970   3.182   5.337
 9991SOL    HW230873   0.949   3.134   5.183
 9992SOL     OW30874   4.416   3.344   0.319
 9992SOL    HW130875   4.473   3.283   0.264
 9992SOL    HW230876   4.384   3.420   0.263
 9993SOL     OW30877   4.012   6.245   2.656
 9993SOL    HW130878   4.005   6.166   2.595
 9993SOL    HW230879   3.962   6.322   2.616
 9994SOL     OW30880   6.552   4.428   4.060
 9994SOL    HW130881   6.587   4.336   4.075
 9994SOL    HW230882   6.609   4.493   4.111
 9995SOL     OW30883   3.504   0.075   3.240
 9995SOL    HW130884   3.412   0.039   3.224
 9995SOL    HW230885   3.516   0.161   3.191
 9996SOL     OW30886   2.999   2.769   1.095
 9996SOL    HW130887   2.931   2.697   1.111
 9996SOL    HW230888   3.024   2.770   0.998
 9997SOL     OW30889   4.515   1.482   1.222
 9997SOL    HW130890   4.567   1.458   1.140
 9997SOL    HW230891   4.567   1.457   1.303
 9998SOL     OW30892   5.576   3.425   2.377
 9998SOL    HW130893   5.670   3.436   2.346
 9998SOL    HW230894   5.522   3.380   2.307
 9999SOL     OW30895   6.482   5.108   4.829
 9999SOL    HW130896   6.448   5.151   4.746
 9999SOL    HW230897   6.418   5.036   4.858
10000SOL     OW30898   6.176   1.586   6.597
10000SOL    HW130899   6.096   1.593   6.538
10000SOL    HW230900   6.257   1.567   6.542
10001SOL     OW30901   5.263   0.319   1.735
10001SOL    HW130902   5.215   0.285   1.654
10001SOL    HW230903   5.202   0.379   1.786
10002SOL     OW30904   1.389   1.048   1.379
10002SOL    HW130905   1.367   1.144   1.365
10002SOL    HW230906   1.487   1.038   1.395
10003SOL     OW30907   3.886   2.164   3.227
10003SOL    HW130908   3.788   2.156   3.210
10003SOL    HW230909   3.919   2.081   3.273
10004SOL     OW30910   5.970   3.090   4.822
10004SOL    HW130911   5.888   3.033   4.830
10004SOL    HW230912   5.977   3.126   4.728
10005SOL     OW30913   4.487   5.499   3.077
10005SOL    HW130914   4.546   5.430   3.118
10005SOL    HW230915   4.535   5.587   3.072
10006SOL     OW30916   5.171   0.850   4.580
10006SOL    HW130917   5.203   0.780   4.516
10006SOL    HW230918   5.072   0.861   4.570
10007SOL     OW30919   0.945   4.213   5.097
10007SOL    HW130920   0.891   4.178   5.021
10007SOL    HW230921   0.905   4.182   5.183
10008SOL     OW30922   4.158   1.236   3.512
10008SOL    HW130923   4.244   1.252   3.561
10008SOL    HW230924   4.176   1.238   3.413
10009SOL     OW30925   1.529   3.374   2.339
10009SOL    HW130926   1.512   3.289   2.288
10009SOL    HW230927   1.597   3.429   2.291
10010SOL     OW30928   2.088   6.617   0.245
10010SOL    HW130929   2.019   6.608   0.173
10010SOL    HW230930   2.058   6.687   0.310
10011SOL     OW30931   0.854   3.166   5.929
10011SOL    HW130932   0.875   3.221   6.009
10011SOL    HW230933   0.796   3.089   5.956
10012SOL     OW30934   4.901   7.013   2.633
10012SOL    HW130935   4.902   0.088   2.665
10012SOL    HW230936   4.934   6.953   2.707
10013SOL     OW30937   2.205   1.940   4.888
10013SOL    HW130938   2.202   1.949   4.789
10013SOL    HW230939   2.291   1.978   4.922
10014SOL     OW30940   6.988   1.733   0.987
10014SOL    HW130941   6.977   1.825   0.949
10014SOL    HW230942   6.944   1.666   0.927
10015SOL     OW30943   3.259   4.493   0.491
10015SOL    HW130944   3.302   4.580   0.468
10015SOL    HW230945   3.196   4.506   0.568
10016SOL     OW30946   1.808   6.719   4.786
10016SOL    HW130947   1.733   6.777   4.755
10016SOL    HW230948   1.834   6.745   4.879
10017SOL     OW30949   1.996   1.673   2.378
10017SOL    HW130950   1.995   1.594   2.439
10017SOL    HW230951   2.085   1.719   2.384
10018SOL     OW30952   5.983   5.423   6.141
10018SOL    HW130953   6.011   5.411   6.046
10018SOL    HW230954   6.013   5.513   6.174
10019SOL     OW30955   0.671   2.222   3.500
10019SOL    HW130956   0.741   2.221   3.428
10019SOL    HW230957   0.716   2.236   3.589
10020SOL     OW30958   0.477   1.218   0.894
10020SOL    HW130959   0.381   1.240   0.908
10020SOL    HW230960   0.490   1.119   0.902
10021SOL     OW30961   0.891   2.757   2.089
10021SOL    HW130962   0.819   2.721   2.029
10021SOL    HW230963   0.878   2.855   2.102
10022SOL     OW30964   3.615   6.893   0.904
10022SOL    HW130965   3.519   6.921   0.904
10022SOL    HW230966   3.666   6.949   0.970
10023SOL     OW30967   1.749   5.771   5.719
10023SOL    HW130968   1.848   5.754   5.725
10023SOL    HW230969   1.700   5.687   5.740
10024SOL     OW30970   2.192   6.721   1.794
10024SOL    HW130971   2.167   6.769   1.878
10024SOL    HW230972   2.180   6.781   1.715
10025SOL     OW30973   1.273   1.828   1.186
10025SOL    HW130974   1.280   1.872   1.275
10025SOL    HW230975   1.344   1.865   1.125
10026SOL     OW30976   4.342   6.151   3.515
10026SOL    HW130977   4.297   6.212   3.580
10026SOL    HW230978   4.322   6.180   3.422
10027SOL     OW30979   0.732   4.828   4.876
10027SOL    HW130980   0.779   4.790   4.955
10027SOL    HW230981   0.772   4.790   4.792
10028SOL     OW30982   1.285   1.890   1.798
10028SOL    HW130983   1.279   1.831   1.717
10028SOL    HW230984   1.381   1.916   1.813
10029SOL     OW30985   2.913   1.492   3.872
10029SOL    HW130986   2.882   1.496   3.777
10029SOL    HW230987   2.977   1.416   3.882
10030SOL     OW30988   2.488   6.738   4.310
10030SOL    HW130989   2.456   6.660   4.364
10030SOL    HW230990   2.474   6.720   4.213
10031SOL     OW30991   5.814   4.628   3.962
10031SOL    HW130992   5.863   4.663   3.883
10031SOL    HW230993   5.864   4.551   4.001
10032SOL     OW30994   3.387   0.540   5.154
10032SOL    HW130995   3.295   0.564   5.184
10032SOL    HW230996   3.381   0.477   5.076
10033SOL     OW30997   4.681   2.386   3.952
10033SOL    HW130998   4.729   2.460   3.904
10033SOL    HW230999   4.671   2.308   3.891
10034SOL     OW31000   3.610   6.959   4.064
10034SOL    HW131001   3.677   0.009   4.091
10034SOL    HW231002   3.555   6.994   3.988
10035SOL     OW31003   0.170   4.347   2.058
10035SOL    HW131004   0.237   4.420   2.044
10035SOL    HW231005   0.133   4.317   1.971
10036SOL     OW31006   5.813   1.297   1.219
10036SOL    HW131007   5.874   1.341   1.285
10036SOL    HW231008   5.854   1.302   1.128
10037SOL     OW31009   6.267   1.439   1.015
10037SOL    HW131010   6.196   1.374   0.989
10037SOL    HW231011   6.244   1.530   0.983
10038SOL     OW31012   4.052   1.452   6.727
10038SOL    HW131013   3.970   1.497   6.763
10038SOL    HW231014   4.131   1.477   6.783
10039SOL     OW31015   3.487   0.376   4.168
10039SOL    HW131016   3.485   0.476   4.168
10039SOL    HW231017   3.513   0.343   4.258
10040SOL     OW31018   4.321   5.810   6.175
10040SOL    HW131019   4.356   5.897   6.211
10040SOL    HW231020   4.331   5.739   6.245
10041SOL     OW31021   4.382   5.855   6.638
10041SOL    HW131022   4.328   5.837   6.720
10041SOL    HW231023   4.474   5.884   6.664
10042SOL     OW31024   0.874   1.792   4.552
10042SOL    HW131025   0.965   1.823   4.524
10042SOL    HW231026   0.874   1.774   4.651
10043SOL     OW31027   6.167   1.822   4.732
10043SOL    HW131028   6.191   1.906   4.684
10043SOL    HW231029   6.239   1.799   4.798
10044SOL     OW31030   3.442   1.277   4.923
10044SOL    HW131031   3.422   1.357   4.979
10044SOL    HW231032   3.474   1.202   4.981
10045SOL     OW31033   4.602   6.913   3.893
10045SOL    HW131034   4.532   6.940   3.959
10045SOL    HW231035   4.568   6.836   3.838
10046SOL     OW31036   2.443   3.913   1.162
10046SOL    HW131037   2.444   3.895   1.260
10046SOL    HW231038   2.532   3.948   1.133
10047SOL     OW31039   6.766   3.877   5.450
10047SOL    HW131040   6.778   3.779   5.430
10047SOL    HW231041   6.687   3.911   5.399
10048SOL     OW31042   6.286   0.815   2.642
10048SOL    HW131043   6.367   0.781   2.690
10048SOL    HW231044   6.205   0.769   2.677
10049SOL     OW31045   0.457   0.853   6.641
10049SOL    HW131046   0.440   0.933   6.585
10049SOL    HW231047   0.506   0.880   6.724
10050SOL     OW31048   5.583   3.457   5.474
10050SOL    HW131049   5.590   3.547   5.433
10050SOL    HW231050   5.653   3.397   5.436
10051SOL     OW31051   5.634   3.256   5.780
10051SOL    HW131052   5.601   3.350   5.794
10051SOL    HW231053   5.555   3.194   5.777
10052SOL     OW31054   1.742   1.880   2.972
10052SOL    HW131055   1.813   1.935   3.015
10052SOL    HW231056   1.676   1.851   3.041
10053SOL     OW31057   4.177   5.545   3.088
10053SOL    HW131058   4.240   5.471   3.063
10053SOL    HW231059   4.147   5.533   3.182
10054SOL     OW31060   5.797   5.803   6.368
10054SOL    HW131061   5.746   5.793   6.453
10054SOL    HW231062   5.895   5.789   6.385
10055SOL     OW31063   5.663   1.634   5.015
10055SOL    HW131064   5.597   1.613   4.942
10055SOL    HW231065   5.643   1.724   5.053
10056SOL     OW31066   5.356   4.282   3.021
10056SOL    HW131067   5.379   4.185   3.010
10056SOL    HW231068   5.437   4.331   3.056
10057SOL     OW31069   4.252   2.396   5.595
10057SOL    HW131070   4.214   2.307   5.570
10057SOL    HW231071   4.197   2.437   5.667
10058SOL     OW31072   0.125   3.601   5.025
10058SOL    HW131073   0.147   3.628   5.119
10058SOL    HW231074   0.074   3.515   5.026
10059SOL     OW31075   6.699   0.646   0.739
10059SOL    HW131076   6.632   0.604   0.801
10059SOL    HW231077   6.782   0.590   0.738
10060SOL     OW31078   1.843   2.894   2.005
10060SOL    HW131079   1.780   2.968   1.981
10060SOL    HW231080   1.872   2.847   1.921
10061SOL     OW31081   4.424   0.936   3.828
10061SOL    HW131082   4.410   0.838   3.811
10061SOL    HW231083   4.514   0.963   3.794
10062SOL     OW31084   6.185   0.443   4.098
10062SOL    HW131085   6.156   0.461   4.192
10062SOL    HW231086   6.120   0.485   4.034
10063SOL     OW31087   2.460   1.026   3.943
10063SOL    HW131088   2.540   1.045   3.999
10063SOL    HW231089   2.481   1.044   3.847
10064SOL     OW31090   4.812   7.005   0.018
10064SOL    HW131091   4.765   7.003   0.107
10064SOL    HW231092   4.777   6.930   6.981
10065SOL     OW31093   3.532   0.277   3.057
10065SOL    HW131094   3.457   0.322   3.106
10065SOL    HW231095   3.507   0.268   2.960
10066SOL     OW31096   0.249   2.770   4.227
10066SOL    HW131097   0.195   2.851   4.246
10066SOL    HW231098   0.201   2.713   4.160
10067SOL     OW31099   0.453   4.137   5.220
10067SOL    HW131100   0.549   4.145   5.248
10067SOL    HW231101   0.446   4.158   5.122
10068SOL     OW31102   0.225   3.569   3.603
10068SOL    HW131103   0.252   3.488   3.550
10068SOL    HW231104   0.126   3.579   3.600
10069SOL     OW31105   3.210   5.512   2.229
10069SOL    HW131106   3.155   5.478   2.306
10069SOL    HW231107   3.148   5.537   2.154
10070SOL     OW31108   0.256   6.072   5.282
10070SOL    HW131109   0.184   6.137   5.303
10070SOL    HW231110   0.313   6.108   5.208
10071SOL     OW31111   6.602   5.843   5.129
10071SOL    HW131112   6.628   5.746   5.125
10071SOL    HW231113   6.520   5.858   5.074
10072SOL     OW31114   6.318   6.363   4.316
10072SOL    HW131115   6.338   6.271   4.348
10072SOL    HW231116   6.339   6.430   4.388
10073SOL     OW31117   6.050   5.136   4.326
10073SOL    HW131118   6.047   5.236   4.323
10073SOL    HW231119   5.970   5.099   4.278
10074SOL     OW31120   1.676   0.210   5.114
10074SOL    HW131121   1.660   0.169   5.204
10074SOL    HW231122   1.716   0.141   5.053
10075SOL     OW31123   1.474   2.644   2.493
10075SOL    HW131124   1.518   2.654   2.404
10075SOL    HW231125   1.491   2.726   2.548
10076SOL     OW31126   6.297   6.319   3.503
10076SOL    HW131127   6.225   6.314   3.573
10076SOL    HW231128   6.323   6.227   3.476
10077SOL     OW31129   4.318   3.112   6.677
10077SOL    HW131130   4.302   3.165   6.760
10077SOL    HW231131   4.332   3.016   6.701
10078SOL     OW31132   0.253   5.627   3.535
10078SOL    HW131133   0.341   5.674   3.528
10078SOL    HW231134   0.224   5.624   3.630
10079SOL     OW31135   5.538   3.145   3.437
10079SOL    HW131136   5.601   3.108   3.368
10079SOL    HW231137   5.475   3.209   3.393
10080SOL     OW31138   4.325   0.204   5.466
10080SOL    HW131139   4.250   0.154   5.423
10080SOL    HW231140   4.333   0.295   5.424
10081SOL     OW31141   7.016   0.781   0.216
10081SOL    HW131142   6.978   0.742   0.300
10081SOL    HW231143   6.941   0.814   0.159
10082SOL     OW31144   7.010   5.376   1.689
10082SOL    HW131145   6.990   5.472   1.709
10082SOL    HW231146   6.996   5.321   1.771
10083SOL     OW31147   4.088   0.360   3.292
10083SOL    HW131148   4.180   0.332   3.263
10083SOL    HW231149   4.094   0.406   3.380
10084SOL     OW31150   2.095   0.753   6.534
10084SOL    HW131151   2.178   0.760   6.478
10084SOL    HW231152   2.038   0.678   6.501
10085SOL     OW31153   2.768   5.971   0.747
10085SOL    HW131154   2.691   5.907   0.754
10085SOL    HW231155   2.840   5.931   0.690
10086SOL     OW31156   5.312   6.336   2.084
10086SOL    HW131157   5.221   6.374   2.100
10086SOL    HW231158   5.363   6.336   2.170
10087SOL     OW31159   6.590   5.965   4.111
10087SOL    HW131160   6.546   5.883   4.076
10087SOL    HW231161   6.557   6.045   4.060
10088SOL     OW31162   6.636   0.081   2.075
10088SOL    HW131163   6.613   0.177   2.093
10088SOL    HW231164   6.600   0.025   2.149
10089SOL     OW31165   2.604   2.079   3.224
10089SOL    HW131166   2.648   1.990   3.213
10089SOL    HW231167   2.574   2.090   3.319
10090SOL     OW31168   0.557   4.979   1.896
10090SOL    HW131169   0.527   5.069   1.864
10090SOL    HW231170   0.483   4.936   1.948
10091SOL     OW31171   6.948   5.120   6.361
10091SOL    HW131172   6.855   5.129   6.326
10091SOL    HW231173   7.014   5.135   6.287
10092SOL     OW31174   2.634   2.935   5.615
10092SOL    HW131175   2.606   2.879   5.693
10092SOL    HW231176   2.731   2.921   5.596
10093SOL     OW31177   4.591   3.156   5.749
10093SOL    HW131178   4.665   3.164   5.816
10093SOL    HW231179   4.629   3.125   5.662
10094SOL     OW31180   3.158   5.590   1.463
10094SOL    HW131181   3.213   5.609   1.381
10094SOL    HW231182   3.218   5.553   1.534
10095SOL     OW31183   5.677   1.969   4.112
10095SOL    HW131184   5.715   1.920   4.190
10095SOL    HW231185   5.643   1.904   4.045
10096SOL     OW31186   3.708   5.630   3.475
10096SOL    HW131187   3.807   5.641   3.466
10096SOL    HW231188   3.664   5.648   3.387
10097SOL     OW31189   1.475   2.191   0.131
10097SOL    HW131190   1.535   2.112   0.118
10097SOL    HW231191   1.392   2.161   0.178
10098SOL     OW31192   3.198   0.429   5.415
10098SOL    HW131193   3.100   0.435   5.430
10098SOL    HW231194   3.237   0.361   5.478
10099SOL     OW31195   0.935   4.942   1.520
10099SOL    HW131196   0.922   4.953   1.422
10099SOL    HW231197   0.864   4.881   1.556
10100SOL     OW31198   4.841   5.873   5.983
10100SOL    HW131199   4.852   5.774   5.982
10100SOL    HW231200   4.813   5.905   5.892
10101SOL     OW31201   6.117   2.886   1.895
10101SOL    HW131202   6.146   2.972   1.937
10101SOL    HW231203   6.115   2.897   1.795
10102SOL     OW31204   0.081   1.043   2.098
10102SOL    HW131205   0.066   1.056   2.196
10102SOL    HW231206   0.179   1.038   2.079
10103SOL     OW31207   2.965   0.223   5.530
10103SOL    HW131208   2.924   0.301   5.577
10103SOL    HW231209   3.044   0.190   5.582
10104SOL     OW31210   1.078   2.081   4.990
10104SOL    HW131211   1.133   2.136   5.052
10104SOL    HW231212   1.093   1.984   5.009
10105SOL     OW31213   1.852   0.918   6.528
10105SOL    HW131214   1.806   0.968   6.601
10105SOL    HW231215   1.932   0.871   6.566
10106SOL     OW31216   4.264   6.704   0.986
10106SOL    HW131217   4.167   6.683   0.967
10106SOL    HW231218   4.316   6.619   0.985
10107SOL     OW31219   5.342   1.620   5.175
10107SOL    HW131220   5.280   1.549   5.208
10107SOL    HW231221   5.362   1.684   5.249
10108SOL     OW31222   6.982   1.088   0.413
10108SOL    HW131223   6.980   1.125   0.320
10108SOL    HW231224   0.046   1.034   0.426
10109SOL     OW31225   6.857   1.155   0.158
10109SOL    HW131226   6.862   1.058   0.134
10109SOL    HW231227   6.768   1.192   0.129
10110SOL     OW31228   5.248   5.001   4.163
10110SOL    HW131229   5.226   4.912   4.124
10110SOL    HW231230   5.173   5.031   4.222
10111SOL     OW31231   5.913   3.474   4.243
10111SOL    HW131232   5.964   3.520   4.316
10111SOL    HW231233   5.959   3.389   4.218
10112SOL     OW31234   6.008   3.707   3.915
10112SOL    HW131235   5.930   3.671   3.967
10112SOL    HW231236   5.979   3.728   3.822
10113SOL     OW31237   3.965   0.088   0.086
10113SOL    HW131238   3.931   0.037   0.165
10113SOL    HW231239   4.007   0.025   0.021
10114SOL     OW31240   4.000   2.191   2.517
10114SOL    HW131241   4.062   2.249   2.465
10114SOL    HW231242   3.913   2.183   2.469
10115SOL     OW31243   4.185   1.501   5.351
10115SOL    HW131244   4.127   1.579   5.376
10115SOL    HW231245   4.236   1.470   5.431
10116SOL     OW31246   1.354   0.515   0.189
10116SOL    HW131247   1.414   0.587   0.153
10116SOL    HW231248   1.399   0.468   0.264
10117SOL     OW31249   6.716   6.238   6.227
10117SOL    HW131250   6.761   6.326   6.240
10117SOL    HW231251   6.780   6.164   6.251
10118SOL     OW31252   2.115   4.594   3.482
10118SOL    HW131253   2.100   4.507   3.528
10118SOL    HW231254   2.032   4.620   3.432
10119SOL     OW31255   6.879   5.135   4.602
10119SOL    HW131256   6.911   5.163   4.512
10119SOL    HW231257   6.827   5.209   4.644
10120SOL     OW31258   2.101   3.387   4.422
10120SOL    HW131259   2.085   3.469   4.477
10120SOL    HW231260   2.031   3.379   4.352
10121SOL     OW31261   5.751   4.425   6.504
10121SOL    HW131262   5.714   4.344   6.550
10121SOL    HW231263   5.711   4.433   6.413
10122SOL     OW31264   5.489   2.837   3.119
10122SOL    HW131265   5.546   2.911   3.155
10122SOL    HW231266   5.464   2.775   3.193
10123SOL     OW31267   5.618   5.835   0.639
10123SOL    HW131268   5.605   5.744   0.599
10123SOL    HW231269   5.552   5.899   0.600
10124SOL     OW31270   1.568   4.934   0.393
10124SOL    HW131271   1.598   4.979   0.477
10124SOL    HW231272   1.613   4.975   0.314
10125SOL     OW31273   2.165   1.731   0.985
10125SOL    HW131274   2.104   1.809   0.969
10125SOL    HW231275   2.200   1.735   1.079
10126SOL     OW31276   0.129   6.944   0.678
10126SOL    HW131277   0.157   7.013   0.745
10126SOL    HW231278   0.030   6.929   0.686
10127SOL     OW31279   2.252   4.120   0.332
10127SOL    HW131280   2.322   4.052   0.310
10127SOL    HW231281   2.163   4.075   0.342
10128SOL     OW31282   3.448   0.884   6.459
10128SOL    HW131283   3.436   0.871   6.361
10128SOL    HW231284   3.545   0.880   6.482
10129SOL     OW31285   6.618   1.596   3.119
10129SOL    HW131286   6.685   1.591   3.193
10129SOL    HW231287   6.547   1.663   3.143
10130SOL     OW31288   1.401   3.517   1.262
10130SOL    HW131289   1.439   3.609   1.273
10130SOL    HW231290   1.383   3.499   1.166
10131SOL     OW31291   2.113   6.931   4.233
10131SOL    HW131292   2.107   6.834   4.210
10131SOL    HW231293   2.209   6.958   4.243
10132SOL     OW31294   2.469   0.224   3.289
10132SOL    HW131295   2.384   0.264   3.324
10132SOL    HW231296   2.490   0.141   3.340
10133SOL     OW31297   4.814   6.379   0.910
10133SOL    HW131298   4.891   6.442   0.919
10133SOL    HW231299   4.744   6.401   0.978
10134SOL     OW31300   6.361   1.045   2.543
10134SOL    HW131301   6.335   0.962   2.593
10134SOL    HW231302   6.394   1.114   2.608
10135SOL     OW31303   4.875   3.067   3.950
10135SOL    HW131304   4.838   3.160   3.955
10135SOL    HW231305   4.948   3.057   4.018
10136SOL     OW31306   5.039   1.831   2.314
10136SOL    HW131307   5.063   1.744   2.357
10136SOL    HW231308   4.979   1.883   2.374
10137SOL     OW31309   0.533   3.967   4.648
10137SOL    HW131310   0.473   4.004   4.719
10137SOL    HW231311   0.619   4.018   4.647
10138SOL     OW31312   5.149   3.962   0.471
10138SOL    HW131313   5.162   3.890   0.403
10138SOL    HW231314   5.092   3.927   0.546
10139SOL     OW31315   3.105   3.021   3.685
10139SOL    HW131316   3.150   2.977   3.608
10139SOL    HW231317   3.047   3.096   3.651
10140SOL     OW31318   0.399   6.019   0.133
10140SOL    HW131319   0.354   5.985   0.051
10140SOL    HW231320   0.358   6.106   0.161
10141SOL     OW31321   4.457   1.001   5.226
10141SOL    HW131322   4.524   1.057   5.275
10141SOL    HW231323   4.371   0.999   5.278
10142SOL     OW31324   5.963   6.643   5.574
10142SOL    HW131325   5.876   6.594   5.565
10142SOL    HW231326   5.956   6.710   5.648
10143SOL     OW31327   5.578   2.170   0.857
10143SOL    HW131328   5.515   2.121   0.918
10143SOL    HW231329   5.671   2.162   0.892
10144SOL     OW31330   4.080   0.016   6.129
10144SOL    HW131331   4.066   0.063   6.043
10144SOL    HW231332   4.170   0.040   6.166
10145SOL     OW31333   3.277   5.850   2.790
10145SOL    HW131334   3.356   5.910   2.799
10145SOL    HW231335   3.196   5.904   2.769
10146SOL     OW31336   5.407   4.464   4.719
10146SOL    HW131337   5.412   4.452   4.818
10146SOL    HW231338   5.484   4.417   4.676
10147SOL     OW31339   4.903   3.949   6.179
10147SOL    HW131340   4.910   3.915   6.273
10147SOL    HW231341   4.810   3.934   6.145
10148SOL     OW31342   5.545   4.838   6.828
10148SOL    HW131343   5.569   4.753   6.782
10148SOL    HW231344   5.560   4.828   6.927
10149SOL     OW31345   5.867   3.748   1.207
10149SOL    HW131346   5.921   3.775   1.127
10149SOL    HW231347   5.770   3.770   1.191
10150SOL     OW31348   4.249   2.798   1.574
10150SOL    HW131349   4.158   2.774   1.541
10150SOL    HW231350   4.264   2.896   1.561
10151SOL     OW31351   1.011   6.649   0.065
10151SOL    HW131352   1.026   6.740   0.104
10151SOL    HW231353   0.989   6.657   6.988
10152SOL     OW31354   0.136   6.214   3.622
10152SOL    HW131355   0.164   6.214   3.718
10152SOL    HW231356   0.212   6.186   3.564
10153SOL     OW31357   4.620   6.198   3.835
10153SOL    HW131358   4.679   6.254   3.893
10153SOL    HW231359   4.580   6.256   3.764
10154SOL     OW31360   3.747   6.534   4.763
10154SOL    HW131361   3.675   6.600   4.743
10154SOL    HW231362   3.706   6.443   4.773
10155SOL     OW31363   5.037   2.076   6.231
10155SOL    HW131364   5.131   2.104   6.254
10155SOL    HW231365   4.979   2.087   6.312
10156SOL     OW31366   5.857   0.553   1.966
10156SOL    HW131367   5.798   0.633   1.959
10156SOL    HW231368   5.866   0.526   2.062
10157SOL     OW31369   0.193   2.189   0.538
10157SOL    HW131370   0.165   2.283   0.556
10157SOL    HW231371   0.256   2.159   0.610
10158SOL     OW31372   6.025   6.224   1.040
10158SOL    HW131373   6.119   6.203   1.069
10158SOL    HW231374   6.026   6.261   0.947
10159SOL     OW31375   3.661   2.540   1.693
10159SOL    HW131376   3.643   2.473   1.765
10159SOL    HW231377   3.701   2.495   1.614
10160SOL     OW31378   1.284   3.295   3.521
10160SOL    HW131379   1.187   3.275   3.535
10160SOL    HW231380   1.334   3.209   3.512
10161SOL     OW31381   3.382   4.345   0.175
10161SOL    HW131382   3.386   4.297   0.087
10161SOL    HW231383   3.287   4.363   0.199
10162SOL     OW31384   3.115   5.301   0.503
10162SOL    HW131385   3.130   5.227   0.569
10162SOL    HW231386   3.017   5.317   0.492
10163SOL     OW31387   0.455   3.933   0.150
10163SOL    HW131388   0.428   3.864   0.218
10163SOL    HW231389   0.509   4.004   0.194
10164SOL     OW31390   6.324   3.605   5.080
10164SOL    HW131391   6.359   3.594   5.173
10164SOL    HW231392   6.304   3.516   5.041
10165SOL     OW31393   6.678   1.913   3.293
10165SOL    HW131394   6.582   1.920   3.269
10165SOL    HW231395   6.729   1.875   3.216
10166SOL     OW31396   2.619   1.722   1.532
10166SOL    HW131397   2.706   1.763   1.557
10166SOL    HW231398   2.587   1.760   1.446
10167SOL     OW31399   0.525   5.289   0.339
10167SOL    HW131400   0.566   5.373   0.303
10167SOL    HW231401   0.586   5.250   0.408
10168SOL     OW31402   6.855   2.138   5.831
10168SOL    HW131403   6.948   2.167   5.850
10168SOL    HW231404   6.799   2.218   5.809
10169SOL     OW31405   0.429   4.038   3.809
10169SOL    HW131406   0.381   3.951   3.799
10169SOL    HW231407   0.528   4.023   3.801
10170SOL     OW31408   6.612   4.949   6.532
10170SOL    HW131409   6.676   4.876   6.509
10170SOL    HW231410   6.583   4.996   6.449
10171SOL     OW31411   0.700   3.028   5.038
10171SOL    HW131412   0.747   3.007   4.952
10171SOL    HW231413   0.714   2.953   5.102
10172SOL     OW31414   1.076   5.972   4.257
10172SOL    HW131415   0.986   6.015   4.254
10172SOL    HW231416   1.071   5.882   4.214
10173SOL     OW31417   1.821   2.780   0.466
10173SOL    HW131418   1.851   2.808   0.557
10173SOL    HW231419   1.726   2.748   0.470
10174SOL     OW31420   5.079   4.784   3.730
10174SOL    HW131421   5.153   4.746   3.674
10174SOL    HW231422   5.061   4.879   3.703
10175SOL     OW31423   4.894   2.507   3.560
10175SOL    HW131424   4.940   2.446   3.625
10175SOL    HW231425   4.962   2.566   3.517
10176SOL     OW31426   6.988   3.169   5.410
10176SOL    HW131427   0.016   3.084   5.433
10176SOL    HW231428   0.030   3.229   5.358
10177SOL     OW31429   1.569   0.963   0.638
10177SOL    HW131430   1.589   1.035   0.572
10177SOL    HW231431   1.490   0.990   0.694
10178SOL     OW31432   0.670   0.799   0.173
10178SOL    HW131433   0.645   0.748   0.254
10178SOL    HW231434   0.628   0.758   0.092
10179SOL     OW31435   0.229   2.922   6.739
10179SOL    HW131436   0.298   2.850   6.734
10179SOL    HW231437   0.160   2.899   6.808
10180SOL     OW31438   4.645   0.663   0.134
10180SOL    HW131439   4.628   0.739   0.071
10180SOL    HW231440   4.718   0.605   0.098
10181SOL     OW31441   0.275   2.547   1.214
10181SOL    HW131442   0.272   2.647   1.220
10181SOL    HW231443   0.296   2.509   1.304
10182SOL     OW31444   5.007   0.867   0.033
10182SOL    HW131445   5.093   0.819   0.014
10182SOL    HW231446   4.994   0.874   0.132
10183SOL     OW31447   5.961   2.566   5.525
10183SOL    HW131448   5.902   2.613   5.458
10183SOL    HW231449   5.985   2.629   5.598
10184SOL     OW31450   4.344   2.398   6.408
10184SOL    HW131451   4.302   2.465   6.347
10184SOL    HW231452   4.433   2.370   6.370
10185SOL     OW31453   6.192   6.348   1.874
10185SOL    HW131454   6.101   6.359   1.834
10185SOL    HW231455   6.192   6.272   1.939
10186SOL     OW31456   5.418   4.188   4.433
10186SOL    HW131457   5.343   4.233   4.481
10186SOL    HW231458   5.406   4.200   4.334
10187SOL     OW31459   0.953   4.176   6.572
10187SOL    HW131460   0.901   4.094   6.594
10187SOL    HW231461   1.006   4.161   6.488
10188SOL     OW31462   3.504   5.199   6.869
10188SOL    HW131463   3.555   5.124   6.827
10188SOL    HW231464   3.425   5.162   6.919
10189SOL     OW31465   0.516   1.101   6.134
10189SOL    HW131466   0.461   1.105   6.050
10189SOL    HW231467   0.589   1.033   6.122
10190SOL     OW31468   3.989   2.651   1.545
10190SOL    HW131469   3.902   2.677   1.503
10190SOL    HW231470   3.991   2.553   1.561
10191SOL     OW31471   4.993   4.951   6.758
10191SOL    HW131472   5.051   4.875   6.787
10191SOL    HW231473   4.898   4.929   6.780
10192SOL     OW31474   3.847   0.780   4.966
10192SOL    HW131475   3.755   0.761   4.934
10192SOL    HW231476   3.903   0.815   4.891
10193SOL     OW31477   3.029   3.669   2.775
10193SOL    HW131478   2.990   3.637   2.861
10193SOL    HW231479   3.115   3.715   2.792
10194SOL     OW31480   4.661   0.419   4.743
10194SOL    HW131481   4.729   0.453   4.679
10194SOL    HW231482   4.587   0.485   4.753
10195SOL     OW31483   6.545   6.957   0.468
10195SOL    HW131484   6.535   6.868   0.422
10195SOL    HW231485   6.642   6.979   0.476
10196SOL     OW31486   4.274   2.126   4.136
10196SOL    HW131487   4.245   2.064   4.209
10196SOL    HW231488   4.346   2.187   4.170
10197SOL     OW31489   5.134   2.283   4.368
10197SOL    HW131490   5.196   2.278   4.290
10197SOL    HW231491   5.065   2.211   4.361
10198SOL     OW31492   3.692   0.124   1.685
10198SOL    HW131493   3.668   0.039   1.731
10198SOL    HW231494   3.666   0.201   1.743
10199SOL     OW31495   0.884   2.029   0.315
10199SOL    HW131496   0.925   1.986   0.235
10199SOL    HW231497   0.862   2.124   0.295
10200SOL     OW31498   5.079   3.106   5.594
10200SOL    HW131499   5.094   3.102   5.495
10200SOL    HW231500   5.130   3.183   5.632
10201SOL     OW31501   0.898   6.542   0.598
10201SOL    HW131502   0.922   6.488   0.679
10201SOL    HW231503   0.800   6.534   0.581
10202SOL     OW31504   2.064   4.680   0.034
10202SOL    HW131505   2.025   4.742   0.101
10202SOL    HW231506   2.120   4.732   6.989
10203SOL     OW31507   0.053   2.753   1.929
10203SOL    HW131508   0.152   2.765   1.918
10203SOL    HW231509   0.035   2.673   1.986
10204SOL     OW31510   3.823   5.957   6.914
10204SOL    HW131511   3.867   6.044   6.934
10204SOL    HW231512   3.752   5.970   6.845
10205SOL     OW31513   3.242   1.265   2.344
10205SOL    HW131514   3.284   1.331   2.406
10205SOL    HW231515   3.179   1.312   2.282
10206SOL     OW31516   6.355   6.847   6.580
10206SOL    HW131517   6.330   6.795   6.661
10206SOL    HW231518   6.407   6.789   6.517
10207SOL     OW31519   2.041   1.719   6.868
10207SOL    HW131520   2.072   1.741   6.776
10207SOL    HW231521   2.013   1.623   6.872
10208SOL     OW31522   6.569   4.813   3.566
10208SOL    HW131523   6.615   4.729   3.594
10208SOL    HW231524   6.479   4.791   3.529
10209SOL     OW31525   0.092   6.785   6.359
10209SOL    HW131526   0.077   6.854   6.429
10209SOL    HW231527   0.129   6.702   6.401
10210SOL     OW31528   5.332   6.241   1.131
10210SOL    HW131529   5.337   6.338   1.156
10210SOL    HW231530   5.424   6.202   1.130
10211SOL     OW31531   4.018   6.227   4.841
10211SOL    HW131532   3.965   6.236   4.925
10211SOL    HW231533   4.115   6.242   4.860
10212SOL     OW31534   6.692   6.830   5.103
10212SOL    HW131535   6.700   6.833   5.003
10212SOL    HW231536   6.647   6.913   5.135
10213SOL     OW31537   5.439   3.031   2.287
10213SOL    HW131538   5.510   2.962   2.304
10213SOL    HW231539   5.370   3.026   2.359
10214SOL     OW31540   0.903   1.781   1.959
10214SOL    HW131541   0.948   1.707   2.009
10214SOL    HW231542   0.826   1.815   2.013
10215SOL     OW31543   3.019   3.275   3.595
10215SOL    HW131544   3.008   3.322   3.683
10215SOL    HW231545   3.055   3.339   3.527
10216SOL     OW31546   0.763   0.406   1.180
10216SOL    HW131547   0.759   0.325   1.122
10216SOL    HW231548   0.690   0.469   1.154
10217SOL     OW31549   2.088   2.338   3.378
10217SOL    HW131550   1.992   2.325   3.350
10217SOL    HW231551   2.091   2.362   3.475
10218SOL     OW31552   1.662   0.978   1.689
10218SOL    HW131553   1.582   1.012   1.739
10218SOL    HW231554   1.745   1.012   1.733
10219SOL     OW31555   0.197   3.149   2.577
10219SOL    HW131556   0.185   3.247   2.593
10219SOL    HW231557   0.121   3.099   2.619
10220SOL     OW31558   3.997   1.554   0.936
10220SOL    HW131559   3.999   1.575   1.034
10220SOL    HW231560   4.087   1.524   0.906
10221SOL     OW31561   1.875   3.801   4.695
10221SOL    HW131562   1.971   3.820   4.679
10221SOL    HW231563   1.866   3.726   4.761
10222SOL     OW31564   2.607   3.384   5.837
10222SOL    HW131565   2.683   3.372   5.772
10222SOL    HW231566   2.612   3.314   5.908
10223SOL     OW31567   2.114   5.885   6.704
10223SOL    HW131568   2.092   5.945   6.627
10223SOL    HW231569   2.037   5.825   6.723
10224SOL     OW31570   6.986   1.862   5.287
10224SOL    HW131571   0.054   1.865   5.240
10224SOL    HW231572   6.912   1.855   5.219
10225SOL     OW31573   2.075   6.253   5.986
10225SOL    HW131574   2.094   6.283   6.079
10225SOL    HW231575   2.159   6.259   5.931
10226SOL     OW31576   2.553   0.724   6.613
10226SOL    HW131577   2.475   0.783   6.637
10226SOL    HW231578   2.523   0.629   6.611
10227SOL     OW31579   4.964   4.348   0.674
10227SOL    HW131580   4.890   4.361   0.740
10227SOL    HW231581   5.052   4.354   0.721
10228SOL     OW31582   0.945   6.553   1.845
10228SOL    HW131583   1.015   6.622   1.864
10228SOL    HW231584   0.857   6.597   1.829
10229SOL     OW31585   1.502   1.611   4.047
10229SOL    HW131586   1.434   1.560   3.995
10229SOL    HW231587   1.576   1.550   4.075
10230SOL     OW31588   6.605   6.814   2.723
10230SOL    HW131589   6.571   6.763   2.643
10230SOL    HW231590   6.558   6.782   2.805
10231SOL     OW31591   6.398   5.318   5.424
10231SOL    HW131592   6.419   5.293   5.518
10231SOL    HW231593   6.383   5.235   5.370
10232SOL     OW31594   2.711   1.111   4.446
10232SOL    HW131595   2.674   1.034   4.498
10232SOL    HW231596   2.809   1.121   4.467
10233SOL     OW31597   4.728   3.387   5.357
10233SOL    HW131598   4.793   3.437   5.413
10233SOL    HW231599   4.681   3.450   5.295
10234SOL     OW31600   5.767   0.062   6.973
10234SOL    HW131601   5.853   0.012   6.962
10234SOL    HW231602   5.781   0.157   6.943
10235SOL     OW31603   3.589   2.837   0.484
10235SOL    HW131604   3.492   2.816   0.486
10235SOL    HW231605   3.633   2.801   0.566
10236SOL     OW31606   2.125   0.953   1.504
10236SOL    HW131607   2.214   0.924   1.471
10236SOL    HW231608   2.107   1.047   1.474
10237SOL     OW31609   6.876   4.489   0.466
10237SOL    HW131610   6.844   4.530   0.382
10237SOL    HW231611   6.934   4.410   0.445
10238SOL     OW31612   3.159   4.046   2.692
10238SOL    HW131613   3.088   4.078   2.629
10238SOL    HW231614   3.162   3.946   2.690
10239SOL     OW31615   2.264   4.613   5.541
10239SOL    HW131616   2.242   4.565   5.626
10239SOL    HW231617   2.332   4.683   5.559
10240SOL     OW31618   1.737   4.798   2.496
10240SOL    HW131619   1.792   4.765   2.420
10240SOL    HW231620   1.672   4.866   2.463
10241SOL     OW31621   6.609   0.339   2.632
10241SOL    HW131622   6.594   0.367   2.727
10241SOL    HW231623   6.702   0.301   2.622
10242SOL     OW31624   6.726   1.711   1.138
10242SOL    HW131625   6.667   1.778   1.093
10242SOL    HW231626   6.821   1.725   1.110
10243SOL     OW31627   1.493   5.017   1.789
10243SOL    HW131628   1.537   5.027   1.879
10243SOL    HW231629   1.536   4.942   1.739
10244SOL     OW31630   1.396   4.196   0.902
10244SOL    HW131631   1.483   4.228   0.863
10244SOL    HW231632   1.400   4.203   1.001
10245SOL     OW31633   2.703   4.975   0.443
10245SOL    HW131634   2.659   5.047   0.389
10245SOL    HW231635   2.675   4.983   0.538
10246SOL     OW31636   3.350   3.997   3.090
10246SOL    HW131637   3.331   3.922   3.154
10246SOL    HW231638   3.409   4.065   3.135
10247SOL     OW31639   6.774   4.713   5.596
10247SOL    HW131640   6.872   4.693   5.596
10247SOL    HW231641   6.737   4.699   5.688
10248SOL     OW31642   2.149   0.140   2.408
10248SOL    HW131643   2.145   0.225   2.461
10248SOL    HW231644   2.102   0.067   2.458
10249SOL     OW31645   3.312   0.099   6.700
10249SOL    HW131646   3.409   0.085   6.679
10249SOL    HW231647   3.304   0.138   6.792
10250SOL     OW31648   6.443   2.917   1.521
10250SOL    HW131649   6.496   2.969   1.453
10250SOL    HW231650   6.418   2.976   1.597
10251SOL     OW31651   3.176   1.177   4.911
10251SOL    HW131652   3.149   1.273   4.916
10251SOL    HW231653   3.258   1.168   4.854
10252SOL     OW31654   4.265   4.731   0.006
10252SOL    HW131655   4.345   4.791   0.018
10252SOL    HW231656   4.197   4.777   6.969
10253SOL     OW31657   2.610   5.732   0.773
10253SOL    HW131658   2.579   5.741   0.679
10253SOL    HW231659   2.629   5.635   0.792
10254SOL     OW31660   4.609   0.819   4.623
10254SOL    HW131661   4.658   0.768   4.553
10254SOL    HW231662   4.518   0.843   4.589
10255SOL     OW31663   1.912   6.674   1.300
10255SOL    HW131664   1.823   6.718   1.287
10255SOL    HW231665   1.966   6.728   1.364
10256SOL     OW31666   6.385   1.163   1.861
10256SOL    HW131667   6.468   1.106   1.860
10256SOL    HW231668   6.325   1.133   1.935
10257SOL     OW31669   2.234   5.106   4.477
10257SOL    HW131670   2.198   5.023   4.519
10257SOL    HW231671   2.334   5.106   4.485
10258SOL     OW31672   3.050   1.239   3.843
10258SOL    HW131673   3.118   1.271   3.777
10258SOL    HW231674   3.091   1.168   3.900
10259SOL     OW31675   0.658   4.494   2.871
10259SOL    HW131676   0.757   4.494   2.886
10259SOL    HW231677   0.630   4.403   2.838
10260SOL     OW31678   0.587   1.385   4.020
10260SOL    HW131679   0.496   1.344   4.026
10260SOL    HW231680   0.641   1.337   3.952
10261SOL     OW31681   6.899   5.969   3.255
10261SOL    HW131682   6.865   5.996   3.165
10261SOL    HW231683   6.874   5.874   3.273
10262SOL     OW31684   1.573   6.850   4.728
10262SOL    HW131685   1.492   6.856   4.786
10262SOL    HW231686   1.572   6.763   4.679
10263SOL     OW31687   5.450   0.600   6.215
10263SOL    HW131688   5.382   0.639   6.153
10263SOL    HW231689   5.434   0.502   6.226
10264SOL     OW31690   5.858   1.756   6.092
10264SOL    HW131691   5.815   1.842   6.122
10264SOL    HW231692   5.811   1.722   6.011
10265SOL     OW31693   2.211   2.349   3.127
10265SOL    HW131694   2.168   2.355   3.216
10265SOL    HW231695   2.146   2.311   3.061
10266SOL     OW31696   3.252   2.933   4.170
10266SOL    HW131697   3.167   2.924   4.223
10266SOL    HW231698   3.318   2.864   4.200
10267SOL     OW31699   0.033   1.629   6.790
10267SOL    HW131700   0.061   1.674   6.875
10267SOL    HW231701   0.072   1.537   6.787
10268SOL     OW31702   5.652   5.286   2.292
10268SOL    HW131703   5.695   5.199   2.268
10268SOL    HW231704   5.718   5.360   2.283
10269SOL     OW31705   0.439   3.237   7.010
10269SOL    HW131706   0.448   3.137   7.019
10269SOL    HW231707   0.350   3.259   6.970
10270SOL     OW31708   2.858   4.792   3.192
10270SOL    HW131709   2.818   4.707   3.224
10270SOL    HW231710   2.791   4.866   3.198
10271SOL     OW31711   3.684   2.492   6.992
10271SOL    HW131712   3.768   2.441   6.974
10271SOL    HW231713   3.704   2.568   0.034
10272SOL     OW31714   0.465   0.760   4.759
10272SOL    HW131715   0.393   0.829   4.757
10272SOL    HW231716   0.467   0.716   4.849
10273SOL     OW31717   3.552   6.020   2.371
10273SOL    HW131718   3.615   5.943   2.377
10273SOL    HW231719   3.531   6.055   2.462
10274SOL     OW31720   6.765   5.335   4.174
10274SOL    HW131721   6.808   5.374   4.255
10274SOL    HW231722   6.752   5.237   4.187
10275SOL     OW31723   1.004   0.054   2.030
10275SOL    HW131724   1.081   7.015   2.058
10275SOL    HW231725   1.027   0.149   2.050
10276SOL     OW31726   6.119   4.949   5.644
10276SOL    HW131727   6.078   4.912   5.561
10276SOL    HW231728   6.132   5.048   5.634
10277SOL     OW31729   2.298   5.585   3.897
10277SOL    HW131730   2.260   5.501   3.936
10277SOL    HW231731   2.374   5.617   3.954
10278SOL     OW31732   0.078   0.727   4.583
10278SOL    HW131733   7.008   0.719   4.626
10278SOL    HW231734   0.111   0.636   4.557
10279SOL     OW31735   3.095   5.002   4.155
10279SOL    HW131736   2.995   4.993   4.158
10279SOL    HW231737   3.124   5.070   4.223
10280SOL     OW31738   0.699   3.963   0.980
10280SOL    HW131739   0.783   3.975   0.928
10280SOL    HW231740   0.720   3.916   1.066
10281SOL     OW31741   5.818   1.094   2.425
10281SOL    HW131742   5.840   1.138   2.337
10281SOL    HW231743   5.843   1.155   2.500
10282SOL     OW31744   5.632   4.607   4.150
10282SOL    HW131745   5.621   4.679   4.219
10282SOL    HW231746   5.697   4.637   4.080
10283SOL     OW31747   1.238   3.921   1.295
10283SOL    HW131748   1.285   3.892   1.212
10283SOL    HW231749   1.189   4.006   1.279
10284SOL     OW31750   5.227   2.863   5.571
10284SOL    HW131751   5.155   2.794   5.567
10284SOL    HW231752   5.199   2.945   5.521
10285SOL     OW31753   5.416   0.762   1.888
10285SOL    HW131754   5.403   0.712   1.803
10285SOL    HW231755   5.423   0.697   1.964
10286SOL     OW31756   2.823   1.873   3.704
10286SOL    HW131757   2.859   1.854   3.613
10286SOL    HW231758   2.899   1.897   3.765
10287SOL     OW31759   2.434   6.609   1.174
10287SOL    HW131760   2.398   6.618   1.081
10287SOL    HW231761   2.358   6.602   1.239
10288SOL     OW31762   4.459   5.982   3.189
10288SOL    HW131763   4.367   6.018   3.202
10288SOL    HW231764   4.472   5.901   3.245
10289SOL     OW31765   2.552   6.761   1.835
10289SOL    HW131766   2.548   6.817   1.753
10289SOL    HW231767   2.539   6.819   1.916
10290SOL     OW31768   2.911   3.290   2.351
10290SOL    HW131769   2.968   3.218   2.393
10290SOL    HW231770   2.830   3.305   2.408
10291SOL     OW31771   3.353   1.990   3.481
10291SOL    HW131772   3.364   2.069   3.420
10291SOL    HW231773   3.330   1.909   3.426
10292SOL     OW31774   1.189   0.090   4.884
10292SOL    HW131775   1.177   0.069   4.981
10292SOL    HW231776   1.102   0.120   4.845
10293SOL     OW31777   1.692   4.750   3.211
10293SOL    HW131778   1.788   4.725   3.200
10293SOL    HW231779   1.685   4.825   3.277
10294SOL     OW31780   5.480   3.290   2.149
10294SOL    HW131781   5.464   3.196   2.179
10294SOL    HW231782   5.407   3.317   2.087
10295SOL     OW31783   5.445   3.851   5.903
10295SOL    HW131784   5.454   3.828   6.000
10295SOL    HW231785   5.468   3.948   5.889
10296SOL     OW31786   4.765   2.851   6.951
10296SOL    HW131787   4.745   2.843   6.853
10296SOL    HW231788   4.685   2.887   6.999
10297SOL     OW31789   1.962   0.031   6.795
10297SOL    HW131790   1.969   0.008   6.698
10297SOL    HW231791   2.048   0.071   6.827
10298SOL     OW31792   3.513   4.788   1.619
10298SOL    HW131793   3.527   4.725   1.694
10298SOL    HW231794   3.602   4.822   1.587
10299SOL     OW31795   4.858   5.051   3.174
10299SOL    HW131796   4.859   5.008   3.083
10299SOL    HW231797   4.941   5.105   3.186
10300SOL     OW31798   0.957   4.036   3.210
10300SOL    HW131799   1.030   4.049   3.277
10300SOL    HW231800   0.921   3.943   3.219
10301SOL     OW31801   5.548   2.262   4.397
10301SOL    HW131802   5.584   2.212   4.476
10301SOL    HW231803   5.497   2.200   4.338
10302SOL     OW31804   1.540   6.301   3.603
10302SOL    HW131805   1.591   6.329   3.685
10302SOL    HW231806   1.551   6.371   3.532
10303SOL     OW31807   1.671   5.940   2.891
10303SOL    HW131808   1.574   5.938   2.865
10303SOL    HW231809   1.683   5.997   2.972
10304SOL     OW31810   4.879   0.382   1.890
10304SOL    HW131811   4.966   0.418   1.857
10304SOL    HW231812   4.804   0.437   1.853
10305SOL     OW31813   0.701   4.368   6.944
10305SOL    HW131814   0.690   4.283   6.996
10305SOL    HW231815   0.710   4.347   6.847
10306SOL     OW31816   4.419   6.271   6.587
10306SOL    HW131817   4.447   6.282   6.683
10306SOL    HW231818   4.455   6.185   6.551
10307SOL     OW31819   2.393   1.900   5.197
10307SOL    HW131820   2.378   1.959   5.117
10307SOL    HW231821   2.358   1.945   5.279
10308SOL     OW31822   2.451   4.503   4.111
10308SOL    HW131823   2.378   4.438   4.093
10308SOL    HW231824   2.514   4.506   4.034
10309SOL     OW31825   5.728   1.442   4.705
10309SOL    HW131826   5.824   1.430   4.678
10309SOL    HW231827   5.704   1.373   4.773
10310SOL     OW31828   3.698   3.054   1.804
10310SOL    HW131829   3.607   3.088   1.828
10310SOL    HW231830   3.693   2.955   1.789
10311SOL     OW31831   1.187   6.406   0.346
10311SOL    HW131832   1.233   6.397   0.435
10311SOL    HW231833   1.235   6.473   0.290
10312SOL     OW31834   2.807   6.482   1.536
10312SOL    HW131835   2.899   6.517   1.519
10312SOL    HW231836   2.777   6.511   1.627
10313SOL     OW31837   4.852   0.197   0.970
10313SOL    HW131838   4.851   0.167   1.065
10313SOL    HW231839   4.777   0.152   0.920
10314SOL     OW31840   6.500   0.045   2.395
10314SOL    HW131841   6.422   0.020   2.337
10314SOL    HW231842   6.511   0.144   2.395
10315SOL     OW31843   6.398   6.130   4.684
10315SOL    HW131844   6.340   6.049   4.676
10315SOL    HW231845   6.416   6.149   4.780
10316SOL     OW31846   6.480   2.784   5.042
10316SOL    HW131847   6.457   2.777   5.139
10316SOL    HW231848   6.418   2.727   4.988
10317SOL     OW31849   3.199   5.551   5.989
10317SOL    HW131850   3.121   5.583   6.041
10317SOL    HW231851   3.221   5.617   5.917
10318SOL     OW31852   5.716   5.256   6.725
10318SOL    HW131853   5.727   5.158   6.744
10318SOL    HW231854   5.737   5.273   6.629
10319SOL     OW31855   1.494   2.318   5.413
10319SOL    HW131856   1.550   2.243   5.446
10319SOL    HW231857   1.468   2.301   5.318
10320SOL     OW31858   1.205   0.653   2.795
10320SOL    HW131859   1.254   0.652   2.882
10320SOL    HW231860   1.107   0.638   2.812
10321SOL     OW31861   4.699   0.976   2.871
10321SOL    HW131862   4.659   1.016   2.953
10321SOL    HW231863   4.725   0.881   2.889
10322SOL     OW31864   6.802   5.699   6.631
10322SOL    HW131865   6.724   5.720   6.572
10322SOL    HW231866   6.775   5.704   6.727
10323SOL     OW31867   6.475   3.513   6.236
10323SOL    HW131868   6.572   3.530   6.221
10323SOL    HW231869   6.452   3.421   6.204
10324SOL     OW31870   3.233   2.947   3.085
10324SOL    HW131871   3.167   2.990   3.023
10324SOL    HW231872   3.216   2.978   3.178
10325SOL     OW31873   0.245   3.746   3.290
10325SOL    HW131874   0.332   3.751   3.340
10325SOL    HW231875   0.199   3.834   3.295
10326SOL     OW31876   3.707   3.830   0.392
10326SOL    HW131877   3.634   3.898   0.400
10326SOL    HW231878   3.785   3.869   0.344
10327SOL     OW31879   2.663   2.302   1.950
10327SOL    HW131880   2.759   2.325   1.966
10327SOL    HW231881   2.605   2.376   1.984
10328SOL     OW31882   6.498   2.676   1.397
10328SOL    HW131883   6.436   2.628   1.334
10328SOL    HW231884   6.460   2.766   1.419
10329SOL     OW31885   3.654   0.564   3.161
10329SOL    HW131886   3.686   0.625   3.234
10329SOL    HW231887   3.721   0.490   3.149
10330SOL     OW31888   3.788   5.896   1.919
10330SOL    HW131889   3.738   5.928   1.999
10330SOL    HW231890   3.884   5.925   1.925
10331SOL     OW31891   6.844   0.443   4.325
10331SOL    HW131892   6.819   0.512   4.392
10331SOL    HW231893   6.872   0.487   4.240
10332SOL     OW31894   6.005   1.761   0.716
10332SOL    HW131895   6.027   1.821   0.639
10332SOL    HW231896   6.069   1.778   0.791
10333SOL     OW31897   6.685   4.627   4.465
10333SOL    HW131898   6.638   4.655   4.549
10333SOL    HW231899   6.768   4.681   4.454
10334SOL     OW31900   2.700   6.165   4.150
10334SOL    HW131901   2.681   6.066   4.150
10334SOL    HW231902   2.744   6.190   4.064
10335SOL     OW31903   2.763   4.831   6.708
10335SOL    HW131904   2.720   4.761   6.764
10335SOL    HW231905   2.699   4.905   6.691
10336SOL     OW31906   6.005   0.453   3.033
10336SOL    HW131907   6.099   0.419   3.038
10336SOL    HW231908   5.950   0.389   2.979
10337SOL     OW31909   6.875   6.214   5.564
10337SOL    HW131910   6.831   6.124   5.571
10337SOL    HW231911   6.823   6.280   5.618
10338SOL     OW31912   2.151   6.376   1.463
10338SOL    HW131913   2.248   6.393   1.483
10338SOL    HW231914   2.095   6.443   1.510
10339SOL     OW31915   2.556   5.438   0.449
10339SOL    HW131916   2.486   5.505   0.425
10339SOL    HW231917   2.631   5.484   0.497
10340SOL     OW31918   0.752   5.858   0.776
10340SOL    HW131919   0.757   5.954   0.748
10340SOL    HW231920   0.667   5.818   0.740
10341SOL     OW31921   2.088   3.212   1.976
10341SOL    HW131922   2.167   3.272   1.965
10341SOL    HW231923   2.062   3.173   1.888
10342SOL     OW31924   1.046   6.413   5.118
10342SOL    HW131925   1.060   6.329   5.171
10342SOL    HW231926   0.951   6.416   5.086
10343SOL     OW31927   1.602   4.289   0.763
10343SOL    HW131928   1.682   4.237   0.732
10343SOL    HW231929   1.581   4.361   0.697
10344SOL     OW31930   4.277   3.614   1.644
10344SOL    HW131931   4.345   3.540   1.641
10344SOL    HW231932   4.224   3.615   1.559
10345SOL     OW31933   1.605   1.150   6.432
10345SOL    HW131934   1.662   1.080   6.389
10345SOL    HW231935   1.615   1.236   6.381
10346SOL     OW31936   6.115   0.686   0.916
10346SOL    HW131937   6.100   0.759   0.982
10346SOL    HW231938   6.070   0.602   0.948
10347SOL     OW31939   5.603   2.812   2.360
10347SOL    HW131940   5.515   2.788   2.401
10347SOL    HW231941   5.650   2.730   2.328
10348SOL     OW31942   6.471   1.467   0.107
10348SOL    HW131943   6.537   1.410   0.156
10348SOL    HW231944   6.448   1.546   0.164
10349SOL     OW31945   6.572   1.604   0.838
10349SOL    HW131946   6.660   1.643   0.811
10349SOL    HW231947   6.577   1.573   0.933
10350SOL     OW31948   2.086   5.898   5.375
10350SOL    HW131949   2.064   5.942   5.462
10350SOL    HW231950   2.043   5.948   5.300
10351SOL     OW31951   5.168   4.814   6.212
10351SOL    HW131952   5.239   4.884   6.210
10351SOL    HW231953   5.165   4.772   6.303
10352SOL     OW31954   5.375   2.155   0.042
10352SOL    HW131955   5.435   2.086   7.019
10352SOL    HW231956   5.413   2.246   0.025
10353SOL     OW31957   5.958   2.215   4.795
10353SOL    HW131958   6.055   2.198   4.815
10353SOL    HW231959   5.928   2.156   4.720
10354SOL     OW31960   6.825   2.479   1.945
10354SOL    HW131961   6.902   2.428   1.984
10354SOL    HW231962   6.813   2.454   1.849
10355SOL     OW31963   1.865   0.514   1.178
10355SOL    HW131964   1.849   0.613   1.180
10355SOL    HW231965   1.892   0.487   1.086
10356SOL     OW31966   0.027   4.006   5.318
10356SOL    HW131967   6.963   4.048   5.352
10356SOL    HW231968   0.104   4.036   5.373
10357SOL     OW31969   3.536   2.668   6.353
10357SOL    HW131970   3.524   2.738   6.424
10357SOL    HW231971   3.535   2.712   6.263
10358SOL     OW31972   6.746   3.156   3.752
10358SOL    HW131973   6.673   3.119   3.694
10358SOL    HW231974   6.802   3.219   3.698
10359SOL     OW31975   5.313   1.548   2.132
10359SOL    HW131976   5.361   1.633   2.113
10359SOL    HW231977   5.237   1.537   2.068
10360SOL     OW31978   4.552   5.782   1.559
10360SOL    HW131979   4.510   5.794   1.469
10360SOL    HW231980   4.486   5.743   1.622
10361SOL     OW31981   2.867   0.957   3.056
10361SOL    HW131982   2.951   1.010   3.071
10361SOL    HW231983   2.792   0.998   3.107
10362SOL     OW31984   0.179   5.373   2.894
10362SOL    HW131985   0.132   5.373   2.982
10362SOL    HW231986   0.246   5.447   2.892
10363SOL     OW31987   5.234   2.423   1.009
10363SOL    HW131988   5.290   2.464   0.937
10363SOL    HW231989   5.170   2.491   1.045
10364SOL     OW31990   3.481   3.858   1.744
10364SOL    HW131991   3.534   3.942   1.747
10364SOL    HW231992   3.494   3.814   1.655
10365SOL     OW31993   4.875   3.907   5.711
10365SOL    HW131994   4.856   3.989   5.765
10365SOL    HW231995   4.791   3.877   5.666
10366SOL     OW31996   3.484   6.708   4.000
10366SOL    HW131997   3.558   6.771   4.025
10366SOL    HW231998   3.398   6.758   3.993
10367SOL     OW31999   0.361   2.059   2.225
10367SOL    HW132000   0.349   2.153   2.192
10367SOL    HW232001   0.423   2.059   2.303
10368SOL     OW32002   2.442   1.244   2.583
10368SOL    HW132003   2.424   1.342   2.577
10368SOL    HW232004   2.533   1.229   2.622
10369SOL     OW32005   2.803   6.826   5.521
10369SOL    HW132006   2.720   6.830   5.465
10369SOL    HW232007   2.797   6.894   5.594
10370SOL     OW32008   6.257   0.962   5.358
10370SOL    HW132009   6.281   1.007   5.445
10370SOL    HW232010   6.335   0.969   5.295
10371SOL     OW32011   1.849   6.147   4.354
10371SOL    HW132012   1.872   6.053   4.332
10371SOL    HW232013   1.814   6.152   4.448
10372SOL     OW32014   2.211   1.428   6.637
10372SOL    HW132015   2.115   1.446   6.617
10372SOL    HW232016   2.218   1.384   6.727
10373SOL     OW32017   1.649   6.300   4.987
10373SOL    HW132018   1.607   6.360   4.919
10373SOL    HW232019   1.692   6.223   4.941
10374SOL     OW32020   2.772   0.706   3.909
10374SOL    HW132021   2.843   0.704   3.839
10374SOL    HW232022   2.808   0.750   3.992
10375SOL     OW32023   2.088   2.153   5.958
10375SOL    HW132024   2.133   2.183   6.042
10375SOL    HW232025   2.157   2.138   5.887
10376SOL     OW32026   0.981   5.691   3.691
10376SOL    HW132027   1.031   5.606   3.673
10376SOL    HW232028   0.890   5.669   3.727
10377SOL     OW32029   0.116   0.652   2.730
10377SOL    HW132030   0.112   0.557   2.761
10377SOL    HW232031   0.181   0.703   2.786
10378SOL     OW32032   6.037   5.730   5.926
10378SOL    HW132033   6.033   5.791   5.847
10378SOL    HW232034   6.066   5.639   5.896
10379SOL     OW32035   2.891   5.967   3.918
10379SOL    HW132036   2.979   5.921   3.931
10379SOL    HW232037   2.822   5.923   3.976
10380SOL     OW32038   0.772   2.720   4.977
10380SOL    HW132039   0.674   2.735   4.964
10380SOL    HW232040   0.818   2.716   4.888
10381SOL     OW32041   4.155   4.190   0.832
10381SOL    HW132042   4.112   4.156   0.749
10381SOL    HW232043   4.086   4.204   0.902
10382SOL     OW32044   1.641   5.385   1.796
10382SOL    HW132045   1.638   5.301   1.741
10382SOL    HW232046   1.647   5.464   1.734
10383SOL     OW32047   0.970   4.099   1.450
10383SOL    HW132048   0.961   4.146   1.363
10383SOL    HW232049   1.048   4.137   1.501
10384SOL     OW32050   6.787   0.415   1.016
10384SOL    HW132051   6.704   0.444   1.065
10384SOL    HW232052   6.859   0.483   1.030
10385SOL     OW32053   4.356   6.122   6.052
10385SOL    HW132054   4.452   6.100   6.032
10385SOL    HW232055   4.342   6.220   6.044
10386SOL     OW32056   6.735   1.693   5.697
10386SOL    HW132057   6.708   1.757   5.768
10386SOL    HW232058   6.804   1.735   5.638
10387SOL     OW32059   4.333   1.776   2.573
10387SOL    HW132060   4.358   1.728   2.489
10387SOL    HW232061   4.387   1.740   2.649
10388SOL     OW32062   1.725   5.763   1.790
10388SOL    HW132063   1.647   5.824   1.802
10388SOL    HW232064   1.807   5.818   1.769
10389SOL     OW32065   6.144   5.730   1.105
10389SOL    HW132066   6.216   5.797   1.083
10389SOL    HW232067   6.072   5.775   1.157
10390SOL     OW32068   1.799   3.020   1.166
10390SOL    HW132069   1.763   2.939   1.120
10390SOL    HW232070   1.807   3.095   1.100
10391SOL     OW32071   7.011   6.564   3.371
10391SOL    HW132072   7.020   6.496   3.299
10391SOL    HW232073   6.954   6.528   3.445
10392SOL     OW32074   6.279   4.684   5.725
10392SOL    HW132075   6.245   4.774   5.696
10392SOL    HW232076   6.219   4.647   5.795
10393SOL     OW32077   2.085   2.442   3.661
10393SOL    HW132078   2.163   2.478   3.713
10393SOL    HW232079   2.039   2.372   3.715
10394SOL     OW32080   1.962   5.639   5.342
10394SOL    HW132081   1.917   5.720   5.305
10394SOL    HW232082   1.998   5.659   5.433
10395SOL     OW32083   0.371   0.676   2.033
10395SOL    HW132084   0.402   0.702   1.941
10395SOL    HW232085   0.332   0.583   2.030
10396SOL     OW32086   3.711   1.156   3.197
10396SOL    HW132087   3.689   1.098   3.276
10396SOL    HW232088   3.637   1.149   3.130
10397SOL     OW32089   2.674   1.361   4.583
10397SOL    HW132090   2.687   1.276   4.532
10397SOL    HW232091   2.742   1.428   4.554
10398SOL     OW32092   4.871   2.695   0.468
10398SOL    HW132093   4.876   2.611   0.522
10398SOL    HW232094   4.864   2.774   0.530
10399SOL     OW32095   4.963   2.513   4.630
10399SOL    HW132096   4.909   2.432   4.653
10399SOL    HW232097   5.044   2.517   4.688
10400SOL     OW32098   4.068   5.766   0.138
10400SOL    HW132099   4.036   5.756   0.044
10400SOL    HW232100   4.158   5.724   0.148
10401SOL     OW32101   0.026   7.019   2.123
10401SOL    HW132102   0.080   0.072   2.166
10401SOL    HW232103   0.038   6.934   2.174
10402SOL     OW32104   6.985   1.661   5.495
10402SOL    HW132105   7.004   1.701   5.406
10402SOL    HW232106   0.036   1.689   5.560
10403SOL     OW32107   4.065   1.909   2.875
10403SOL    HW132108   4.072   1.998   2.919
10403SOL    HW232109   4.157   1.875   2.853
10404SOL     OW32110   6.500   6.193   3.980
10404SOL    HW132111   6.498   6.179   3.881
10404SOL    HW232112   6.487   6.290   4.000
10405SOL     OW32113   0.884   5.902   4.555
10405SOL    HW132114   0.932   5.988   4.569
10405SOL    HW232115   0.936   5.844   4.492
10406SOL     OW32116   2.353   2.957   5.390
10406SOL    HW132117   2.407   3.000   5.318
10406SOL    HW232118   2.256   2.978   5.376
10407SOL     OW32119   2.427   0.355   0.004
10407SOL    HW132120   2.448   0.260   6.999
10407SOL    HW232121   2.347   0.386   6.971
10408SOL     OW32122   3.965   6.807   1.929
10408SOL    HW132123   3.921   6.896   1.943
10408SOL    HW232124   4.004   6.775   2.016
10409SOL     OW32125   0.064   4.194   0.776
10409SOL    HW132126   0.110   4.262   0.833
10409SOL    HW232127   0.073   4.221   0.679
10410SOL     OW32128   5.549   2.965   1.925
10410SOL    HW132129   5.636   2.925   1.898
10410SOL    HW232130   5.523   3.037   1.860
10411SOL     OW32131   3.249   6.044   4.168
10411SOL    HW132132   3.339   6.001   4.183
10411SOL    HW232133   3.223   6.033   4.072
10412SOL     OW32134   0.006   0.935   6.667
10412SOL    HW132135   0.017   1.010   6.733
10412SOL    HW232136   6.934   0.895   6.678
10413SOL     OW32137   6.610   2.354   2.056
10413SOL    HW132138   6.565   2.294   1.989
10413SOL    HW232139   6.685   2.403   2.012
10414SOL     OW32140   3.527   5.076   5.876
10414SOL    HW132141   3.581   5.052   5.795
10414SOL    HW232142   3.430   5.074   5.852
10415SOL     OW32143   1.620   4.626   4.047
10415SOL    HW132144   1.577   4.602   3.960
10415SOL    HW232145   1.551   4.664   4.109
10416SOL     OW32146   5.730   6.536   5.445
10416SOL    HW132147   5.649   6.592   5.431
10416SOL    HW232148   5.791   6.544   5.366
10417SOL     OW32149   4.256   5.275   4.652
10417SOL    HW132150   4.231   5.181   4.673
10417SOL    HW232151   4.174   5.332   4.649
10418SOL     OW32152   0.061   4.191   6.046
10418SOL    HW132153   0.096   4.160   6.135
10418SOL    HW232154   6.983   4.211   6.054
10419SOL     OW32155   3.762   6.842   6.246
10419SOL    HW132156   3.669   6.810   6.226
10419SOL    HW232157   3.758   6.938   6.274
10420SOL     OW32158   0.212   4.263   4.410
10420SOL    HW132159   0.178   4.353   4.382
10420SOL    HW232160   0.288   4.274   4.475
10421SOL     OW32161   1.699   3.702   4.246
10421SOL    HW132162   1.720   3.605   4.227
10421SOL    HW232163   1.779   3.745   4.288
10422SOL     OW32164   6.701   3.179   6.035
10422SOL    HW132165   6.751   3.264   6.021
10422SOL    HW232166   6.707   3.122   5.953
10423SOL     OW32167   5.424   5.170   5.711
10423SOL    HW132168   5.395   5.099   5.775
10423SOL    HW232169   5.348   5.231   5.690
10424SOL     OW32170   3.913   3.126   0.645
10424SOL    HW132171   3.909   3.088   0.553
10424SOL    HW232172   3.831   3.181   0.663
10425SOL     OW32173   0.824   6.504   2.472
10425SOL    HW132174   0.830   6.527   2.375
10425SOL    HW232175   0.909   6.461   2.502
10426SOL     OW32176   5.335   4.948   6.702
10426SOL    HW132177   5.288   5.015   6.758
10426SOL    HW232178   5.415   4.914   6.752
10427SOL     OW32179   5.064   0.909   6.773
10427SOL    HW132180   5.037   0.897   6.869
10427SOL    HW232181   4.982   0.904   6.715
10428SOL     OW32182   3.278   1.101   4.075
10428SOL    HW132183   3.330   1.141   3.999
10428SOL    HW232184   3.332   1.105   4.159
10429SOL     OW32185   0.050   4.251   2.726
10429SOL    HW132186   6.972   4.234   2.741
10429SOL    HW232187   0.088   4.177   2.670
10430SOL     OW32188   3.901   6.520   4.980
10430SOL    HW132189   3.948   6.606   4.999
10430SOL    HW232190   3.839   6.531   4.902
10431SOL     OW32191   2.319   6.331   3.902
10431SOL    HW132192   2.240   6.284   3.941
10431SOL    HW232193   2.301   6.354   3.807
10432SOL     OW32194   6.337   0.652   4.806
10432SOL    HW132195   6.334   0.740   4.759
10432SOL    HW232196   6.249   0.605   4.794
10433SOL     OW32197   0.749   6.887   2.771
10433SOL    HW132198   0.718   6.843   2.855
10433SOL    HW232199   0.730   6.827   2.693
10434SOL     OW32200   3.250   6.335   2.932
10434SOL    HW132201   3.229   6.248   2.977
10434SOL    HW232202   3.348   6.341   2.914
10435SOL     OW32203   1.740   2.135   5.352
10435SOL    HW132204   1.799   2.173   5.423
10435SOL    HW232205   1.794   2.075   5.293
10436SOL     OW32206   6.096   4.543   5.091
10436SOL    HW132207   6.132   4.467   5.038
10436SOL    HW232208   6.026   4.591   5.038
10437SOL     OW32209   5.643   4.478   5.671
10437SOL    HW132210   5.593   4.475   5.758
10437SOL    HW232211   5.721   4.416   5.675
10438SOL     OW32212   0.815   5.580   6.044
10438SOL    HW132213   0.791   5.593   6.140
10438SOL    HW232214   0.752   5.514   6.003
10439SOL     OW32215   4.792   1.285   4.872
10439SOL    HW132216   4.727   1.244   4.808
10439SOL    HW232217   4.879   1.300   4.825
10440SOL     OW32218   0.607   6.943   0.435
10440SOL    HW132219   0.663   7.013   0.479
10440SOL    HW232220   0.532   6.917   0.496
10441SOL     OW32221   3.645   1.753   1.081
10441SOL    HW132222   3.628   1.760   0.983
10441SOL    HW232223   3.600   1.671   1.117
10442SOL     OW32224   4.120   6.432   5.299
10442SOL    HW132225   4.169   6.383   5.371
10442SOL    HW232226   4.146   6.529   5.301
10443SOL     OW32227   5.134   2.343   3.024
10443SOL    HW132228   5.037   2.358   3.045
10443SOL    HW232229   5.148   2.248   2.995
10444SOL     OW32230   3.737   5.358   3.377
10444SOL    HW132231   3.716   5.437   3.434
10444SOL    HW232232   3.691   5.367   3.289
10445SOL     OW32233   0.621   5.039   3.275
10445SOL    HW132234   0.562   4.993   3.208
10445SOL    HW232235   0.628   5.136   3.253
10446SOL     OW32236   2.317   3.090   6.523
10446SOL    HW132237   2.291   3.186   6.515
10446SOL    HW232238   2.361   3.074   6.611
10447SOL     OW32239   0.724   1.200   3.189
10447SOL    HW132240   0.697   1.243   3.103
10447SOL    HW232241   0.813   1.236   3.219
10448SOL     OW32242   4.727   0.424   2.487
10448SOL    HW132243   4.645   0.477   2.507
10448SOL    HW232244   4.764   0.452   2.398
10449SOL     OW32245   1.582   5.565   6.091
10449SOL    HW132246   1.556   5.473   6.122
10449SOL    HW232247   1.586   5.627   6.169
10450SOL     OW32248   0.587   1.272   0.205
10450SOL    HW132249   0.686   1.256   0.214
10450SOL    HW232250   0.551   1.308   0.291
10451SOL     OW32251   2.020   6.213   2.974
10451SOL    HW132252   2.068   6.274   3.037
10451SOL    HW232253   1.980   6.137   3.026
10452SOL     OW32254   6.013   3.205   2.648
10452SOL    HW132255   6.082   3.252   2.594
10452SOL    HW232256   5.968   3.270   2.709
10453SOL     OW32257   5.651   0.102   1.457
10453SOL    HW132258   5.636   0.183   1.514
10453SOL    HW232259   5.702   0.034   1.509
10454SOL     OW32260   5.001   2.890   0.072
10454SOL    HW132261   4.908   2.886   0.035
10454SOL    HW232262   4.998   2.890   0.172
10455SOL     OW32263   6.939   6.025   3.519
10455SOL    HW132264   6.926   6.014   3.421
10455SOL    HW232265   6.984   6.112   3.537
10456SOL     OW32266   1.399   5.500   0.614
10456SOL    HW132267   1.457   5.434   0.567
10456SOL    HW232268   1.455   5.571   0.657
10457SOL     OW32269   3.671   3.211   0.733
10457SOL    HW132270   3.684   3.232   0.830
10457SOL    HW232271   3.642   3.295   0.685
10458SOL     OW32272   6.257   0.196   6.026
10458SOL    HW132273   6.351   0.204   6.060
10458SOL    HW232274   6.209   0.283   6.040
10459SOL     OW32275   4.377   6.108   0.948
10459SOL    HW132276   4.442   6.121   0.873
10459SOL    HW232277   4.393   6.177   1.018
10460SOL     OW32278   1.176   4.317   1.798
10460SOL    HW132279   1.077   4.332   1.797
10460SOL    HW232280   1.220   4.386   1.856
10461SOL     OW32281   5.672   5.123   5.131
10461SOL    HW132282   5.691   5.197   5.196
10461SOL    HW232283   5.652   5.039   5.181
10462SOL     OW32284   5.043   1.877   3.353
10462SOL    HW132285   4.944   1.881   3.370
10462SOL    HW232286   5.091   1.863   3.439
10463SOL     OW32287   4.308   2.655   5.972
10463SOL    HW132288   4.244   2.652   5.894
10463SOL    HW232289   4.390   2.603   5.949
10464SOL     OW32290   6.584   6.822   1.563
10464SOL    HW132291   6.595   6.906   1.616
10464SOL    HW232292   6.575   6.844   1.466
10465SOL     OW32293   6.410   5.641   0.932
10465SOL    HW132294   6.496   5.599   0.901
10465SOL    HW232295   6.414   5.740   0.916
10466SOL     OW32296   4.331   4.944   5.684
10466SOL    HW132297   4.406   4.882   5.661
10466SOL    HW232298   4.255   4.930   5.620
10467SOL     OW32299   2.432   2.166   0.177
10467SOL    HW132300   2.365   2.093   0.189
10467SOL    HW232301   2.386   2.253   0.162
10468SOL     OW32302   3.698   5.211   3.081
10468SOL    HW132303   3.792   5.178   3.078
10468SOL    HW232304   3.637   5.139   3.048
10469SOL     OW32305   3.973   4.527   5.598
10469SOL    HW132306   3.997   4.460   5.669
10469SOL    HW232307   3.940   4.479   5.517
10470SOL     OW32308   1.820   2.642   3.903
10470SOL    HW132309   1.745   2.594   3.948
10470SOL    HW232310   1.883   2.676   3.973
10471SOL     OW32311   3.179   0.802   0.772
10471SOL    HW132312   3.099   0.815   0.831
10471SOL    HW232313   3.151   0.761   0.685
10472SOL     OW32314   3.384   5.811   0.636
10472SOL    HW132315   3.458   5.877   0.619
10472SOL    HW232316   3.414   5.720   0.609
10473SOL     OW32317   6.539   0.152   6.902
10473SOL    HW132318   6.471   0.082   6.927
10473SOL    HW232319   6.582   0.125   6.816
10474SOL     OW32320   4.023   1.479   4.214
10474SOL    HW132321   3.985   1.570   4.196
10474SOL    HW232322   3.961   1.428   4.273
10475SOL     OW32323   4.653   6.646   1.386
10475SOL    HW132324   4.725   6.714   1.374
10475SOL    HW232325   4.570   6.691   1.420
10476SOL     OW32326   7.015   6.738   0.143
10476SOL    HW132327   0.058   6.812   0.117
10476SOL    HW232328   0.028   6.652   0.105
10477SOL     OW32329   6.525   0.436   4.459
10477SOL    HW132330   6.495   0.414   4.366
10477SOL    HW232331   6.589   0.512   4.457
10478SOL     OW32332   6.316   0.734   0.446
10478SOL    HW132333   6.273   0.671   0.382
10478SOL    HW232334   6.248   0.767   0.511
10479SOL     OW32335   0.041   1.688   2.909
10479SOL    HW132336   6.968   1.654   2.921
10479SOL    HW232337   0.064   1.751   2.982
10480SOL     OW32338   0.593   0.751   1.475
10480SOL    HW132339   0.498   0.726   1.492
10480SOL    HW232340   0.611   0.841   1.516
10481SOL     OW32341   2.378   6.964   4.236
10481SOL    HW132342   2.411   0.015   4.299
10481SOL    HW232343   2.418   6.876   4.261
10482SOL     OW32344   6.200   4.962   4.501
10482SOL    HW132345   6.297   4.951   4.478
10482SOL    HW232346   6.152   5.002   4.422
10483SOL     OW32347   6.381   4.964   0.594
10483SOL    HW132348   6.413   4.927   0.507
10483SOL    HW232349   6.291   5.005   0.582
10484SOL     OW32350   6.297   1.874   2.116
10484SOL    HW132351   6.238   1.953   2.098
10484SOL    HW232352   6.355   1.892   2.195
10485SOL     OW32353   3.329   3.787   0.494
10485SOL    HW132354   3.361   3.720   0.561
10485SOL    HW232355   3.403   3.810   0.431
10486SOL     OW32356   0.450   0.484   0.424
10486SOL    HW132357   0.519   0.509   0.493
10486SOL    HW232358   0.439   0.385   0.423
10487SOL     OW32359   4.806   1.058   1.094
10487SOL    HW132360   4.892   1.035   1.139
10487SOL    HW232361   4.733   0.999   1.130
10488SOL     OW32362   3.058   0.823   5.761
10488SOL    HW132363   2.999   0.892   5.721
10488SOL    HW232364   3.094   0.763   5.689
10489SOL     OW32365   0.526   6.806   5.440
10489SOL    HW132366   0.574   6.765   5.518
10489SOL    HW232367   0.478   6.734   5.389
10490SOL     OW32368   5.652   1.732   1.160
10490SOL    HW132369   5.650   1.793   1.238
10490SOL    HW232370   5.590   1.766   1.089
10491SOL     OW32371   2.292   2.389   6.617
10491SOL    HW132372   2.306   2.313   6.681
10491SOL    HW232373   2.197   2.420   6.622
10492SOL     OW32374   5.759   4.998   6.747
10492SOL    HW132375   5.810   4.919   6.713
10492SOL    HW232376   5.689   4.967   6.812
10493SOL     OW32377   3.404   0.545   2.250
10493SOL    HW132378   3.327   0.602   2.280
10493SOL    HW232379   3.481   0.558   2.313
10494SOL     OW32380   5.350   4.015   5.417
10494SOL    HW132381   5.362   3.961   5.501
10494SOL    HW232382   5.319   3.955   5.344
10495SOL     OW32383   2.005   0.066   1.257
10495SOL    HW132384   1.971   0.095   1.346
10495SOL    HW232385   1.936   0.087   1.187
10496SOL     OW32386   0.056   3.763   6.112
10496SOL    HW132387   0.078   3.736   6.018
10496SOL    HW232388   7.000   3.827   6.112
10497SOL     OW32389   2.057   6.851   1.995
10497SOL    HW132390   2.012   6.860   1.906
10497SOL    HW232391   2.101   6.938   2.018
10498SOL     OW32392   4.562   5.081   0.931
10498SOL    HW132393   4.463   5.076   0.946
10498SOL    HW232394   4.589   5.012   0.863
10499SOL     OW32395   4.076   6.963   2.293
10499SOL    HW132396   3.998   6.999   2.344
10499SOL    HW232397   4.082   7.010   2.205
10500SOL     OW32398   6.072   1.114   6.197
10500SOL    HW132399   6.072   1.178   6.120
10500SOL    HW232400   6.001   1.045   6.182
10501SOL     OW32401   2.350   5.473   1.878
10501SOL    HW132402   2.448   5.476   1.859
10501SOL    HW232403   2.312   5.565   1.868
10502SOL     OW32404   2.519   1.317   1.888
10502SOL    HW132405   2.538   1.391   1.823
10502SOL    HW232406   2.574   1.331   1.970
10503SOL     OW32407   4.386   2.753   0.898
10503SOL    HW132408   4.353   2.668   0.856
10503SOL    HW232409   4.444   2.731   0.977
10504SOL     OW32410   1.194   1.888   5.903
10504SOL    HW132411   1.260   1.839   5.847
10504SOL    HW232412   1.114   1.829   5.919
10505SOL     OW32413   4.955   4.990   0.663
10505SOL    HW132414   5.040   5.013   0.616
10505SOL    HW232415   4.939   4.892   0.656
10506SOL     OW32416   6.790   4.854   0.783
10506SOL    HW132417   6.754   4.946   0.772
10506SOL    HW232418   6.774   4.802   0.698
10507SOL     OW32419   1.958   6.928   0.228
10507SOL    HW132420   2.040   6.924   0.286
10507SOL    HW232421   1.983   6.961   0.137
10508SOL     OW32422   6.308   5.837   4.999
10508SOL    HW132423   6.286   5.774   4.925
10508SOL    HW232424   6.255   5.922   4.987
10509SOL     OW32425   0.526   5.385   4.359
10509SOL    HW132426   0.556   5.296   4.325
10509SOL    HW232427   0.427   5.387   4.366
10510SOL     OW32428   4.437   5.588   6.766
10510SOL    HW132429   4.515   5.597   6.703
10510SOL    HW232430   4.403   5.678   6.789
10511SOL     OW32431   3.398   1.124   2.165
10511SOL    HW132432   3.496   1.141   2.158
10511SOL    HW232433   3.359   1.180   2.239
10512SOL     OW32434   4.222   0.188   6.450
10512SOL    HW132435   4.252   0.280   6.476
10512SOL    HW232436   4.132   0.169   6.490
10513SOL     OW32437   5.839   2.313   4.453
10513SOL    HW132438   5.923   2.362   4.477
10513SOL    HW232439   5.761   2.375   4.457
10514SOL     OW32440   0.323   3.217   1.364
10514SOL    HW132441   0.311   3.149   1.436
10514SOL    HW232442   0.306   3.308   1.402
10515SOL     OW32443   0.656   3.456   3.653
10515SOL    HW132444   0.598   3.534   3.631
10515SOL    HW232445   0.698   3.470   3.743
10516SOL     OW32446   4.427   1.305   0.827
10516SOL    HW132447   4.419   1.277   0.922
10516SOL    HW232448   4.354   1.262   0.774
10517SOL     OW32449   0.648   3.103   1.979
10517SOL    HW132450   0.724   3.160   2.010
10517SOL    HW232451   0.600   3.149   1.904
10518SOL     OW32452   0.650   5.921   0.448
10518SOL    HW132453   0.717   5.969   0.393
10518SOL    HW232454   0.590   5.987   0.494
10519SOL     OW32455   3.387   3.583   0.266
10519SOL    HW132456   3.416   3.557   0.174
10519SOL    HW232457   3.309   3.528   0.294
10520SOL     OW32458   0.392   2.664   6.057
10520SOL    HW132459   0.361   2.759   6.052
10520SOL    HW232460   0.473   2.653   6.000
10521SOL     OW32461   5.880   6.132   1.585
10521SOL    HW132462   5.810   6.112   1.517
10521SOL    HW232463   5.917   6.047   1.622
10522SOL     OW32464   0.941   0.677   5.370
10522SOL    HW132465   0.963   0.625   5.453
10522SOL    HW232466   0.904   0.766   5.395
10523SOL     OW32467   1.091   4.819   3.302
10523SOL    HW132468   1.101   4.847   3.398
10523SOL    HW232469   1.007   4.859   3.265
10524SOL     OW32470   1.750   0.163   4.373
10524SOL    HW132471   1.712   0.254   4.389
10524SOL    HW232472   1.700   0.096   4.427
10525SOL     OW32473   4.100   6.545   6.112
10525SOL    HW132474   4.088   6.456   6.067
10525SOL    HW232475   4.011   6.589   6.122
10526SOL     OW32476   2.127   6.816   3.833
10526SOL    HW132477   2.097   6.904   3.869
10526SOL    HW232478   2.076   6.742   3.877
10527SOL     OW32479   0.871   1.171   5.382
10527SOL    HW132480   0.861   1.076   5.414
10527SOL    HW232481   0.867   1.233   5.460
10528SOL     OW32482   1.794   3.064   5.933
10528SOL    HW132483   1.884   3.022   5.921
10528SOL    HW232484   1.724   3.006   5.891
10529SOL     OW32485   3.147   5.892   4.389
10529SOL    HW132486   3.176   5.797   4.401
10529SOL    HW232487   3.207   5.936   4.322
10530SOL     OW32488   1.742   0.495   6.483
10530SOL    HW132489   1.753   0.412   6.537
10530SOL    HW232490   1.815   0.501   6.415
10531SOL     OW32491   1.001   2.779   4.503
10531SOL    HW132492   0.971   2.731   4.420
10531SOL    HW232493   0.974   2.875   4.497
10532SOL     OW32494   0.933   6.449   6.270
10532SOL    HW132495   1.020   6.444   6.220
10532SOL    HW232496   0.858   6.422   6.210
10533SOL     OW32497   3.058   6.586   3.930
10533SOL    HW132498   3.011   6.547   3.851
10533SOL    HW232499   3.051   6.524   4.008
10534SOL     OW32500   6.385   6.206   1.514
10534SOL    HW132501   6.358   6.267   1.439
10534SOL    HW232502   6.383   6.257   1.600
10535SOL     OW32503   1.525   2.109   1.554
10535SOL    HW132504   1.541   2.207   1.569
10535SOL    HW232505   1.522   2.062   1.642
10536SOL     OW32506   4.678   0.534   3.809
10536SOL    HW132507   4.716   0.606   3.751
10536SOL    HW232508   4.739   0.518   3.886
10537SOL     OW32509   3.742   5.934   3.917
10537SOL    HW132510   3.744   5.988   3.834
10537SOL    HW232511   3.815   5.965   3.979
10538SOL     OW32512   5.851   2.758   1.009
10538SOL    HW132513   5.827   2.756   1.106
10538SOL    HW232514   5.917   2.831   0.992
10539SOL     OW32515   0.626   4.651   6.750
10539SOL    HW132516   0.546   4.689   6.703
10539SOL    HW232517   0.684   4.603   6.684
10540SOL     OW32518   1.723   1.831   5.033
10540SOL    HW132519   1.810   1.860   4.993
10540SOL    HW232520   1.652   1.897   5.009
10541SOL     OW32521   3.196   3.948   1.749
10541SOL    HW132522   3.295   3.955   1.757
10541SOL    HW232523   3.164   3.871   1.805
10542SOL     OW32524   7.017   0.125   5.288
10542SOL    HW132525   0.009   0.220   5.259
10542SOL    HW232526   0.082   0.093   5.331
10543SOL     OW32527   0.095   1.696   4.203
10543SOL    HW132528   0.115   1.783   4.247
10543SOL    HW232529   0.053   1.713   4.114
10544SOL     OW32530   2.542   6.939   1.621
10544SOL    HW132531   2.640   6.958   1.610
10544SOL    HW232532   2.490   0.003   1.604
10545SOL     OW32533   0.655   1.957   2.011
10545SOL    HW132534   0.678   1.994   1.921
10545SOL    HW232535   0.575   1.898   2.004
10546SOL     OW32536   2.047   1.053   0.654
10546SOL    HW132537   2.030   1.079   0.559
10546SOL    HW232538   1.969   1.082   0.710
10547SOL     OW32539   5.552   2.925   2.772
10547SOL    HW132540   5.501   2.988   2.831
10547SOL    HW232541   5.623   2.977   2.724
10548SOL     OW32542   5.546   4.454   3.924
10548SOL    HW132543   5.587   4.467   4.014
10548SOL    HW232544   5.533   4.542   3.880
10549SOL     OW32545   0.830   0.017   1.772
10549SOL    HW132546   0.863   6.958   1.719
10549SOL    HW232547   0.882   0.022   1.858
10550SOL     OW32548   4.644   6.315   3.554
10550SOL    HW132549   4.607   6.333   3.463
10550SOL    HW232550   4.737   6.279   3.546
10551SOL     OW32551   1.803   2.613   6.432
10551SOL    HW132552   1.711   2.585   6.459
10551SOL    HW232553   1.834   2.559   6.353
10552SOL     OW32554   3.516   0.331   6.043
10552SOL    HW132555   3.442   0.364   5.984
10552SOL    HW232556   3.599   0.383   6.024
10553SOL     OW32557   0.649   4.324   1.969
10553SOL    HW132558   0.619   4.419   1.978
10553SOL    HW232559   0.584   4.274   1.911
10554SOL     OW32560   5.593   4.376   0.099
10554SOL    HW132561   5.547   4.347   0.183
10554SOL    HW232562   5.569   4.471   0.079
10555SOL     OW32563   1.425   2.679   0.144
10555SOL    HW132564   1.505   2.740   0.143
10555SOL    HW232565   1.454   2.585   0.126
10556SOL     OW32566   1.980   1.636   5.024
10556SOL    HW132567   1.970   1.656   4.926
10556SOL    HW232568   2.032   1.710   5.067
10557SOL     OW32569   2.277   2.804   3.228
10557SOL    HW132570   2.256   2.902   3.237
10557SOL    HW232571   2.192   2.752   3.224
10558SOL     OW32572   4.255   0.426   3.794
10558SOL    HW132573   4.174   0.412   3.737
10558SOL    HW232574   4.286   0.338   3.830
10559SOL     OW32575   4.840   0.448   1.453
10559SOL    HW132576   4.814   0.506   1.529
10559SOL    HW232577   4.850   0.353   1.484
10560SOL     OW32578   3.982   6.261   2.917
10560SOL    HW132579   4.077   6.271   2.948
10560SOL    HW232580   3.981   6.233   2.821
10561SOL     OW32581   3.258   3.459   1.736
10561SOL    HW132582   3.323   3.510   1.792
10561SOL    HW232583   3.307   3.398   1.673
10562SOL     OW32584   4.601   4.752   0.231
10562SOL    HW132585   4.537   4.700   0.287
10562SOL    HW232586   4.550   4.809   0.166
10563SOL     OW32587   0.790   1.933   3.673
10563SOL    HW132588   0.826   1.921   3.581
10563SOL    HW232589   0.699   1.892   3.678
10564SOL     OW32590   5.979   6.111   2.274
10564SOL    HW132591   5.993   6.131   2.371
10564SOL    HW232592   5.885   6.081   2.259
10565SOL     OW32593   0.487   6.799   5.735
10565SOL    HW132594   0.522   6.707   5.752
10565SOL    HW232595   0.413   6.819   5.799
10566SOL     OW32596   3.454   1.805   6.341
10566SOL    HW132597   3.443   1.801   6.242
10566SOL    HW232598   3.371   1.842   6.383
10567SOL     OW32599   3.014   2.181   4.815
10567SOL    HW132600   2.953   2.116   4.860
10567SOL    HW232601   3.083   2.212   4.880
10568SOL     OW32602   5.811   3.326   1.258
10568SOL    HW132603   5.789   3.230   1.242
10568SOL    HW232604   5.727   3.378   1.273
10569SOL     OW32605   5.839   1.971   2.152
10569SOL    HW132606   5.805   2.065   2.140
10569SOL    HW232607   5.773   1.919   2.205
10570SOL     OW32608   0.676   5.975   3.474
10570SOL    HW132609   0.749   5.973   3.406
10570SOL    HW232610   0.717   5.978   3.566
10571SOL     OW32611   0.121   4.333   5.660
10571SOL    HW132612   0.213   4.356   5.628
10571SOL    HW232613   0.122   4.245   5.706
10572SOL     OW32614   6.532   4.386   3.765
10572SOL    HW132615   6.526   4.400   3.864
10572SOL    HW232616   6.565   4.294   3.746
10573SOL     OW32617   4.640   0.562   5.280
10573SOL    HW132618   4.588   0.633   5.233
10573SOL    HW232619   4.667   0.492   5.213
10574SOL     OW32620   1.693   1.429   4.249
10574SOL    HW132621   1.755   1.357   4.281
10574SOL    HW232622   1.711   1.513   4.300
10575SOL     OW32623   6.895   1.511   4.236
10575SOL    HW132624   6.874   1.471   4.146
10575SOL    HW232625   6.969   1.577   4.225
10576SOL     OW32626   0.301   5.556   4.860
10576SOL    HW132627   0.357   5.615   4.803
10576SOL    HW232628   0.353   5.529   4.942
10577SOL     OW32629   1.797   4.506   0.281
10577SOL    HW132630   1.751   4.565   0.347
10577SOL    HW232631   1.833   4.425   0.328
10578SOL     OW32632   4.749   1.281   3.021
10578SOL    HW132633   4.834   1.295   3.072
10578SOL    HW232634   4.769   1.286   2.923
10579SOL     OW32635   4.439   2.581   1.541
10579SOL    HW132636   4.358   2.637   1.523
10579SOL    HW232637   4.443   2.560   1.639
10580SOL     OW32638   0.014   0.288   6.344
10580SOL    HW132639   0.020   0.387   6.353
10580SOL    HW232640   6.939   0.261   6.328
10581SOL     OW32641   6.599   0.016   3.452
10581SOL    HW132642   6.661   0.089   3.423
10581SOL    HW232643   6.589   6.969   3.378
10582SOL     OW32644   5.149   4.620   5.729
10582SOL    HW132645   5.212   4.636   5.804
10582SOL    HW232646   5.179   4.540   5.676
10583SOL     OW32647   4.162   0.833   3.885
10583SOL    HW132648   4.207   0.778   3.956
10583SOL    HW232649   4.168   0.930   3.909
10584SOL     OW32650   6.608   0.371   0.769
10584SOL    HW132651   6.619   0.278   0.734
10584SOL    HW232652   6.574   0.368   0.863
10585SOL     OW32653   2.118   1.839   5.156
10585SOL    HW132654   2.173   1.855   5.074
10585SOL    HW232655   2.170   1.782   5.220
10586SOL     OW32656   6.863   5.372   4.434
10586SOL    HW132657   6.780   5.397   4.483
10586SOL    HW232658   6.941   5.423   4.472
10587SOL     OW32659   6.465   4.399   0.025
10587SOL    HW132660   6.457   4.303   0.051
10587SOL    HW232661   6.375   4.435   0.002
10588SOL     OW32662   1.231   3.082   4.214
10588SOL    HW132663   1.244   3.046   4.306
10588SOL    HW232664   1.315   3.071   4.161
10589SOL     OW32665   5.998   0.920   4.371
10589SOL    HW132666   6.038   0.880   4.289
10589SOL    HW232667   6.053   0.998   4.401
10590SOL     OW32668   0.927   0.316   1.620
10590SOL    HW132669   0.885   0.231   1.650
10590SOL    HW232670   0.857   0.386   1.609
10591SOL     OW32671   1.989   2.220   6.624
10591SOL    HW132672   2.003   2.318   6.613
10591SOL    HW232673   1.940   2.202   6.709
10592SOL     OW32674   5.187   3.310   2.408
10592SOL    HW132675   5.087   3.310   2.404
10592SOL    HW232676   5.223   3.375   2.342
10593SOL     OW32677   2.344   6.477   0.320
10593SOL    HW132678   2.361   6.390   0.274
10593SOL    HW232679   2.245   6.490   0.330
10594SOL     OW32680   4.941   0.826   2.365
10594SOL    HW132681   4.923   0.901   2.301
10594SOL    HW232682   4.885   0.747   2.341
10595SOL     OW32683   4.864   6.160   6.699
10595SOL    HW132684   4.954   6.175   6.659
10595SOL    HW232685   4.866   6.078   6.756
10596SOL     OW32686   4.634   6.968   0.491
10596SOL    HW132687   4.576   0.005   0.549
10596SOL    HW232688   4.628   6.873   0.521
10597SOL     OW32689   3.359   0.891   5.543
10597SOL    HW132690   3.445   0.941   5.535
10597SOL    HW232691   3.378   0.795   5.566
10598SOL     OW32692   3.291   2.645   6.940
10598SOL    HW132693   3.354   2.574   6.908
10598SOL    HW232694   3.257   2.697   6.861
10599SOL     OW32695   5.144   3.430   6.005
10599SOL    HW132696   5.215   3.359   6.004
10599SOL    HW232697   5.056   3.389   6.029
10600SOL     OW32698   2.694   2.482   0.652
10600SOL    HW132699   2.606   2.512   0.690
10600SOL    HW232700   2.678   2.429   0.569
10601SOL     OW32701   1.949   4.700   4.994
10601SOL    HW132702   1.942   4.800   4.997
10601SOL    HW232703   1.866   4.659   5.032
10602SOL     OW32704   3.161   1.098   2.020
10602SOL    HW132705   3.157   1.123   1.923
10602SOL    HW232706   3.257   1.097   2.050
10603SOL     OW32707   3.811   6.770   3.114
10603SOL    HW132708   3.735   6.759   3.050
10603SOL    HW232709   3.782   6.826   3.191
10604SOL     OW32710   6.151   5.213   5.570
10604SOL    HW132711   6.206   5.266   5.506
10604SOL    HW232712   6.054   5.237   5.557
10605SOL     OW32713   1.522   6.277   6.906
10605SOL    HW132714   1.493   6.372   6.895
10605SOL    HW232715   1.448   6.217   6.877
10606SOL     OW32716   6.712   0.705   2.491
10606SOL    HW132717   6.801   0.667   2.517
10606SOL    HW232718   6.657   0.721   2.572
10607SOL     OW32719   4.087   4.988   5.487
10607SOL    HW132720   4.119   4.979   5.392
10607SOL    HW232721   4.075   5.084   5.509
10608SOL     OW32722   5.725   2.580   5.942
10608SOL    HW132723   5.815   2.555   5.907
10608SOL    HW232724   5.714   2.680   5.941
10609SOL     OW32725   2.519   6.489   6.954
10609SOL    HW132726   2.548   6.395   6.937
10609SOL    HW232727   2.422   6.499   6.931
10610SOL     OW32728   0.670   2.176   4.957
10610SOL    HW132729   0.652   2.239   4.881
10610SOL    HW232730   0.689   2.228   5.040
10611SOL     OW32731   3.087   4.233   6.558
10611SOL    HW132732   3.018   4.257   6.490
10611SOL    HW232733   3.134   4.149   6.531
10612SOL     OW32734   3.664   1.531   4.616
10612SOL    HW132735   3.760   1.560   4.613
10612SOL    HW232736   3.642   1.497   4.708
10613SOL     OW32737   5.627   6.093   5.420
10613SOL    HW132738   5.543   6.090   5.475
10613SOL    HW232739   5.674   6.005   5.427
10614SOL     OW32740   5.744   1.864   4.670
10614SOL    HW132741   5.819   1.926   4.646
10614SOL    HW232742   5.782   1.780   4.710
10615SOL     OW32743   4.090   0.039   5.436
10615SOL    HW132744   4.019   7.013   5.489
10615SOL    HW232745   4.128   6.996   5.368
10616SOL     OW32746   3.089   6.679   0.975
10616SOL    HW132747   3.003   6.673   0.924
10616SOL    HW232748   3.110   6.775   0.992
10617SOL     OW32749   3.170   3.213   1.535
10617SOL    HW132750   3.117   3.183   1.456
10617SOL    HW232751   3.170   3.141   1.604
10618SOL     OW32752   0.851   3.651   6.365
10618SOL    HW132753   0.941   3.653   6.321
10618SOL    HW232754   0.788   3.598   6.309
10619SOL     OW32755   6.897   4.082   2.018
10619SOL    HW132756   6.835   4.042   1.951
10619SOL    HW232757   6.844   4.130   2.088
10620SOL     OW32758   1.052   5.785   4.777
10620SOL    HW132759   0.988   5.825   4.711
10620SOL    HW232760   1.064   5.688   4.756
10621SOL     OW32761   0.809   5.675   1.724
10621SOL    HW132762   0.776   5.753   1.778
10621SOL    HW232763   0.852   5.609   1.786
10622SOL     OW32764   5.122   2.034   1.487
10622SOL    HW132765   5.131   1.938   1.513
10622SOL    HW232766   5.096   2.089   1.566
10623SOL     OW32767   6.489   4.774   5.089
10623SOL    HW132768   6.512   4.677   5.096
10623SOL    HW232769   6.390   4.785   5.085
10624SOL     OW32770   0.840   3.113   4.765
10624SOL    HW132771   0.913   3.084   4.826
10624SOL    HW232772   0.813   3.207   4.785
10625SOL     OW32773   0.372   4.171   0.906
10625SOL    HW132774   0.363   4.075   0.881
10625SOL    HW232775   0.425   4.178   0.990
10626SOL     OW32776   2.567   3.021   0.753
10626SOL    HW132777   2.547   2.961   0.831
10626SOL    HW232778   2.637   3.086   0.778
10627SOL     OW32779   5.589   6.959   0.578
10627SOL    HW132780   5.600   0.031   0.615
10627SOL    HW232781   5.507   6.956   0.520
10628SOL     OW32782   5.509   6.254   0.230
10628SOL    HW132783   5.411   6.243   0.244
10628SOL    HW232784   5.533   6.228   0.137
10629SOL     OW32785   2.338   4.738   5.101
10629SOL    HW132786   2.435   4.734   5.122
10629SOL    HW232787   2.315   4.667   5.034
10630SOL     OW32788   6.371   1.674   3.543
10630SOL    HW132789   6.319   1.646   3.463
10630SOL    HW232790   6.323   1.647   3.626
10631SOL     OW32791   2.350   4.948   4.830
10631SOL    HW132792   2.332   4.880   4.760
10631SOL    HW232793   2.388   4.904   4.911
10632SOL     OW32794   5.718   1.908   3.723
10632SOL    HW132795   5.816   1.888   3.724
10632SOL    HW232796   5.672   1.853   3.793
10633SOL     OW32797   2.772   2.986   1.162
10633SOL    HW132798   2.725   2.921   1.102
10633SOL    HW232799   2.845   3.031   1.111
10634SOL     OW32800   3.363   5.122   1.009
10634SOL    HW132801   3.427   5.055   1.047
10634SOL    HW232802   3.405   5.167   0.931
10635SOL     OW32803   2.415   2.724   1.208
10635SOL    HW132804   2.389   2.631   1.235
10635SOL    HW232805   2.477   2.763   1.276
10636SOL     OW32806   1.291   1.960   1.424
10636SOL    HW132807   1.237   2.041   1.401
10636SOL    HW232808   1.388   1.984   1.429
10637SOL     OW32809   2.519   4.936   6.301
10637SOL    HW132810   2.469   4.877   6.239
10637SOL    HW232811   2.528   4.891   6.390
10638SOL     OW32812   6.603   5.629   2.707
10638SOL    HW132813   6.578   5.571   2.785
10638SOL    HW232814   6.633   5.571   2.631
10639SOL     OW32815   0.752   3.084   3.509
10639SOL    HW132816   0.700   3.143   3.571
10639SOL    HW232817   0.742   2.989   3.538
10640SOL     OW32818   3.708   0.273   5.260
10640SOL    HW132819   3.793   0.285   5.311
10640SOL    HW232820   3.714   0.191   5.203
10641SOL     OW32821   2.296   1.988   1.824
10641SOL    HW132822   2.261   1.927   1.753
10641SOL    HW232823   2.358   2.055   1.782
10642SOL     OW32824   6.382   3.094   1.711
10642SOL    HW132825   6.465   3.122   1.761
10642SOL    HW232826   6.302   3.116   1.766
10643SOL     OW32827   1.627   5.212   5.305
10643SOL    HW132828   1.704   5.177   5.359
10643SOL    HW232829   1.655   5.295   5.258
10644SOL     OW32830   5.173   2.952   3.214
10644SOL    HW132831   5.196   2.855   3.221
10644SOL    HW232832   5.074   2.964   3.224
10645SOL     OW32833   2.177   2.353   4.764
10645SOL    HW132834   2.258   2.384   4.714
10645SOL    HW232835   2.203   2.324   4.856
10646SOL     OW32836   0.017   0.583   6.379
10646SOL    HW132837   0.015   0.682   6.362
10646SOL    HW232838   6.961   0.557   6.438
10647SOL     OW32839   2.799   5.463   4.778
10647SOL    HW132840   2.823   5.417   4.693
10647SOL    HW232841   2.739   5.541   4.759
10648SOL     OW32842   5.522   4.472   5.908
10648SOL    HW132843   5.429   4.507   5.915
10648SOL    HW232844   5.563   4.470   5.999
10649SOL     OW32845   0.166   4.435   2.482
10649SOL    HW132846   0.139   4.363   2.546
10649SOL    HW232847   0.237   4.399   2.421
10650SOL     OW32848   1.246   0.079   3.727
10650SOL    HW132849   1.162   0.125   3.757
10650SOL    HW232850   1.233   0.046   3.634
10651SOL     OW32851   5.458   6.129   6.151
10651SOL    HW132852   5.557   6.141   6.142
10651SOL    HW232853   5.438   6.036   6.180
10652SOL     OW32854   3.629   6.766   5.909
10652SOL    HW132855   3.592   6.764   6.002
10652SOL    HW232856   3.720   6.806   5.910
10653SOL     OW32857   4.621   4.363   4.269
10653SOL    HW132858   4.549   4.431   4.284
10653SOL    HW232859   4.710   4.408   4.266
10654SOL     OW32860   5.161   1.040   0.422
10654SOL    HW132861   5.092   1.017   0.490
10654SOL    HW232862   5.216   1.117   0.455
10655SOL     OW32863   2.361   5.375   0.823
10655SOL    HW132864   2.339   5.469   0.796
10655SOL    HW232865   2.278   5.320   0.825
10656SOL     OW32866   6.676   2.427   2.513
10656SOL    HW132867   6.732   2.345   2.499
10656SOL    HW232868   6.590   2.402   2.558
10657SOL     OW32869   6.492   6.980   6.010
10657SOL    HW132870   6.407   6.952   6.054
10657SOL    HW232871   6.511   0.056   6.029
10658SOL     OW32872   5.968   4.411   5.315
10658SOL    HW132873   5.951   4.477   5.389
10658SOL    HW232874   6.020   4.456   5.242
10659SOL     OW32875   6.590   5.889   1.206
10659SOL    HW132876   6.636   5.969   1.244
10659SOL    HW232877   6.567   5.826   1.280
10660SOL     OW32878   5.352   4.235   6.773
10660SOL    HW132879   5.448   4.232   6.800
10660SOL    HW232880   5.331   4.155   6.716
10661SOL     OW32881   1.374   0.336   2.192
10661SOL    HW132882   1.290   0.306   2.147
10661SOL    HW232883   1.352   0.406   2.260
10662SOL     OW32884   5.599   0.093   2.904
10662SOL    HW132885   5.531   0.164   2.924
10662SOL    HW232886   5.557   0.003   2.915
10663SOL     OW32887   0.654   1.035   1.501
10663SOL    HW132888   0.637   1.100   1.428
10663SOL    HW232889   0.639   1.079   1.590
10664SOL     OW32890   0.310   4.600   5.428
10664SOL    HW132891   0.407   4.592   5.408
10664SOL    HW232892   0.270   4.674   5.374
10665SOL     OW32893   1.082   1.061   0.582
10665SOL    HW132894   1.093   0.982   0.522
10665SOL    HW232895   1.160   1.122   0.570
10666SOL     OW32896   3.135   4.054   1.449
10666SOL    HW132897   3.174   4.024   1.537
10666SOL    HW232898   3.103   4.148   1.458
10667SOL     OW32899   3.713   3.555   5.382
10667SOL    HW132900   3.746   3.464   5.354
10667SOL    HW232901   3.613   3.554   5.387
10668SOL     OW32902   1.732   0.957   4.754
10668SOL    HW132903   1.744   0.958   4.655
10668SOL    HW232904   1.736   1.051   4.790
10669SOL     OW32905   5.664   6.703   1.016
10669SOL    HW132906   5.652   6.692   0.917
10669SOL    HW232907   5.755   6.671   1.043
10670SOL     OW32908   5.142   3.329   4.969
10670SOL    HW132909   5.190   3.380   4.897
10670SOL    HW232910   5.196   3.249   4.995
10671SOL     OW32911   2.509   2.446   3.430
10671SOL    HW132912   2.461   2.504   3.364
10671SOL    HW232913   2.600   2.423   3.394
10672SOL     OW32914   6.198   2.577   0.199
10672SOL    HW132915   6.269   2.605   0.264
10672SOL    HW232916   6.205   2.478   0.182
10673SOL     OW32917   1.417   1.158   0.032
10673SOL    HW132918   1.429   1.231   0.099
10673SOL    HW232919   1.504   1.142   7.005
10674SOL     OW32920   3.396   3.616   1.902
10674SOL    HW132921   3.372   3.637   1.997
10674SOL    HW232922   3.439   3.697   1.861
10675SOL     OW32923   1.682   6.587   6.571
10675SOL    HW132924   1.670   6.589   6.670
10675SOL    HW232925   1.642   6.669   6.530
10676SOL     OW32926   6.485   6.296   6.399
10676SOL    HW132927   6.418   6.236   6.356
10676SOL    HW232928   6.575   6.279   6.358
10677SOL     OW32929   1.009   0.777   2.600
10677SOL    HW132930   1.007   0.800   2.697
10677SOL    HW232931   1.058   0.847   2.549
10678SOL     OW32932   3.137   5.638   4.129
10678SOL    HW132933   3.204   5.619   4.057
10678SOL    HW232934   3.045   5.628   4.092
10679SOL     OW32935   4.658   5.922   6.600
10679SOL    HW132936   4.632   5.994   6.535
10679SOL    HW232937   4.716   5.961   6.672
10680SOL     OW32938   2.721   1.544   3.440
10680SOL    HW132939   2.687   1.593   3.520
10680SOL    HW232940   2.721   1.605   3.360
10681SOL     OW32941   0.875   3.610   0.234
10681SOL    HW132942   0.836   3.534   0.286
10681SOL    HW232943   0.973   3.595   0.223
10682SOL     OW32944   1.993   1.296   4.226
10682SOL    HW132945   2.073   1.334   4.179
10682SOL    HW232946   1.987   1.337   4.318
10683SOL     OW32947   3.281   2.031   4.157
10683SOL    HW132948   3.320   1.985   4.078
10683SOL    HW232949   3.196   2.077   4.131
10684SOL     OW32950   5.353   4.019   1.197
10684SOL    HW132951   5.270   3.989   1.245
10684SOL    HW232952   5.430   3.960   1.224
10685SOL     OW32953   0.593   6.125   2.791
10685SOL    HW132954   0.497   6.148   2.775
10685SOL    HW232955   0.649   6.159   2.716
10686SOL     OW32956   1.508   4.754   6.523
10686SOL    HW132957   1.456   4.671   6.503
10686SOL    HW232958   1.452   4.834   6.502
10687SOL     OW32959   6.964   5.545   2.085
10687SOL    HW132960   0.031   5.528   2.039
10687SOL    HW232961   6.895   5.570   2.018
10688SOL     OW32962   5.895   4.342   2.979
10688SOL    HW132963   5.824   4.288   3.024
10688SOL    HW232964   5.943   4.397   3.048
10689SOL     OW32965   0.673   6.889   3.694
10689SOL    HW132966   0.709   6.974   3.656
10689SOL    HW232967   0.625   6.837   3.623
10690SOL     OW32968   0.111   6.466   3.059
10690SOL    HW132969   0.086   6.373   3.085
10690SOL    HW232970   0.043   6.502   2.995
10691SOL     OW32971   0.806   1.679   2.233
10691SOL    HW132972   0.707   1.677   2.223
10691SOL    HW232973   0.832   1.749   2.300
10692SOL     OW32974   3.105   4.847   2.635
10692SOL    HW132975   3.040   4.791   2.688
10692SOL    HW232976   3.078   4.846   2.538
10693SOL     OW32977   2.867   0.191   0.656
10693SOL    HW132978   2.900   0.096   0.651
10693SOL    HW232979   2.837   0.210   0.749
10694SOL     OW32980   5.285   6.659   1.671
10694SOL    HW132981   5.202   6.630   1.717
10694SOL    HW232982   5.269   6.747   1.625
10695SOL     OW32983   5.594   2.235   2.898
10695SOL    HW132984   5.666   2.260   2.833
10695SOL    HW232985   5.505   2.256   2.858
10696SOL     OW32986   6.325   4.059   3.822
10696SOL    HW132987   6.263   4.138   3.826
10696SOL    HW232988   6.336   4.022   3.914
10697SOL     OW32989   0.655   5.595   4.740
10697SOL    HW132990   0.669   5.496   4.749
10697SOL    HW232991   0.673   5.622   4.645
10698SOL     OW32992   3.626   5.455   4.856
10698SOL    HW132993   3.652   5.412   4.769
10698SOL    HW232994   3.708   5.476   4.909
10699SOL     OW32995   4.173   2.518   1.721
10699SOL    HW132996   4.173   2.617   1.715
10699SOL    HW232997   4.261   2.486   1.756
10700SOL     OW32998   0.529   0.139   0.663
10700SOL    HW132999   0.619   0.098   0.671
10700SOL    HW233000   0.464   0.073   0.626
10701SOL     OW33001   2.908   5.730   0.179
10701SOL    HW133002   2.991   5.710   0.127
10701SOL    HW233003   2.930   5.740   0.276
10702SOL     OW33004   5.977   2.410   2.412
10702SOL    HW133005   6.030   2.396   2.329
10702SOL    HW233006   6.023   2.477   2.470
10703SOL     OW33007   3.107   3.116   3.941
10703SOL    HW133008   3.094   3.077   3.850
10703SOL    HW233009   3.195   3.163   3.946
10704SOL     OW33010   5.749   5.411   1.252
10704SOL    HW133011   5.652   5.432   1.247
10704SOL    HW233012   5.799   5.488   1.292
10705SOL     OW33013   6.448   4.034   2.314
10705SOL    HW133014   6.468   4.127   2.284
10705SOL    HW233015   6.475   3.970   2.242
10706SOL     OW33016   4.308   6.479   2.269
10706SOL    HW133017   4.301   6.579   2.267
10706SOL    HW233018   4.297   6.446   2.363
10707SOL     OW33019   0.422   0.005   3.840
10707SOL    HW133020   0.441   6.981   3.752
10707SOL    HW233021   0.498   0.065   3.864
10708SOL     OW33022   4.476   0.561   2.524
10708SOL    HW133023   4.425   0.555   2.438
10708SOL    HW233024   4.488   0.657   2.549
10709SOL     OW33025   6.200   0.153   4.980
10709SOL    HW133026   6.187   0.079   5.046
10709SOL    HW233027   6.246   0.230   5.025
10710SOL     OW33028   0.310   6.541   4.505
10710SOL    HW133029   0.397   6.538   4.456
10710SOL    HW233030   0.272   6.633   4.500
10711SOL     OW33031   1.792   6.468   3.352
10711SOL    HW133032   1.876   6.522   3.349
10711SOL    HW233033   1.767   6.440   3.259
10712SOL     OW33034   2.836   1.154   1.664
10712SOL    HW133035   2.918   1.156   1.607
10712SOL    HW233036   2.863   1.146   1.760
10713SOL     OW33037   0.667   3.666   1.997
10713SOL    HW133038   0.702   3.731   2.065
10713SOL    HW233039   0.742   3.638   1.937
10714SOL     OW33040   6.633   3.716   5.814
10714SOL    HW133041   6.644   3.796   5.756
10714SOL    HW233042   6.627   3.744   5.910
10715SOL     OW33043   4.776   6.994   3.075
10715SOL    HW133044   4.875   6.982   3.071
10715SOL    HW233045   4.731   6.905   3.073
10716SOL     OW33046   6.396   2.498   4.613
10716SOL    HW133047   6.427   2.555   4.537
10716SOL    HW233048   6.399   2.552   4.698
10717SOL     OW33049   1.376   2.743   0.674
10717SOL    HW133050   1.315   2.790   0.611
10717SOL    HW233051   1.327   2.724   0.760
10718SOL     OW33052   0.133   3.226   6.449
10718SOL    HW133053   0.040   3.200   6.476
10718SOL    HW233054   0.173   3.154   6.394
10719SOL     OW33055   4.698   6.091   6.966
10719SOL    HW133056   4.699   6.060   0.041
10719SOL    HW233057   4.755   6.030   6.911
10720SOL     OW33058   6.770   2.843   5.667
10720SOL    HW133059   6.739   2.748   5.669
10720SOL    HW233060   6.766   2.877   5.574
10721SOL     OW33061   6.437   3.625   5.330
10721SOL    HW133062   6.450   3.613   5.429
10721SOL    HW233063   6.373   3.700   5.314
10722SOL     OW33064   6.540   3.349   0.981
10722SOL    HW133065   6.636   3.322   0.988
10722SOL    HW233066   6.507   3.379   1.070
10723SOL     OW33067   6.910   3.662   0.017
10723SOL    HW133068   6.933   3.568   0.041
10723SOL    HW233069   6.990   3.708   7.002
10724SOL     OW33070   4.216   0.678   6.664
10724SOL    HW133071   4.162   0.723   6.735
10724SOL    HW233072   4.228   0.741   6.587
10725SOL     OW33073   6.808   5.149   3.850
10725SOL    HW133074   6.872   5.105   3.913
10725SOL    HW233075   6.815   5.248   3.859
10726SOL     OW33076   5.804   6.036   5.741
10726SOL    HW133077   5.798   6.110   5.675
10726SOL    HW233078   5.714   6.022   5.784
10727SOL     OW33079   1.124   4.891   3.556
10727SOL    HW133080   1.215   4.876   3.595
10727SOL    HW233081   1.061   4.920   3.628
10728SOL     OW33082   6.586   6.289   1.743
10728SOL    HW133083   6.579   6.352   1.820
10728SOL    HW233084   6.524   6.212   1.756
10729SOL     OW33085   6.272   0.861   3.048
10729SOL    HW133086   6.205   0.821   2.986
10729SOL    HW233087   6.281   0.804   3.129
10730SOL     OW33088   2.910   0.328   1.288
10730SOL    HW133089   2.875   0.350   1.197
10730SOL    HW233090   2.966   0.404   1.322
10731SOL     OW33091   2.072   5.728   6.370
10731SOL    HW133092   2.135   5.804   6.355
10731SOL    HW233093   2.125   5.643   6.379
10732SOL     OW33094   5.570   6.261   2.767
10732SOL    HW133095   5.496   6.212   2.813
10732SOL    HW233096   5.535   6.344   2.725
10733SOL     OW33097   5.795   1.963   6.986
10733SOL    HW133098   5.779   1.897   6.913
10733SOL    HW233099   5.767   1.923   0.053
10734SOL     OW33100   1.236   0.438   6.642
10734SOL    HW133101   1.141   0.415   6.664
10734SOL    HW233102   1.284   0.466   6.725
10735SOL     OW33103   1.872   5.070   2.434
10735SOL    HW133104   1.965   5.034   2.428
10735SOL    HW233105   1.807   5.001   2.400
10736SOL     OW33106   0.764   1.251   3.552
10736SOL    HW133107   0.858   1.266   3.584
10736SOL    HW233108   0.762   1.174   3.489
10737SOL     OW33109   1.430   1.637   0.325
10737SOL    HW133110   1.521   1.667   0.354
10737SOL    HW233111   1.402   1.689   0.245
10738SOL     OW33112   2.598   0.482   2.169
10738SOL    HW133113   2.499   0.467   2.167
10738SOL    HW233114   2.636   0.439   2.250
10739SOL     OW33115   0.690   0.972   2.033
10739SOL    HW133116   0.621   0.929   2.091
10739SOL    HW233117   0.759   1.016   2.090
10740SOL     OW33118   1.559   4.238   6.240
10740SOL    HW133119   1.594   4.233   6.334
10740SOL    HW233120   1.625   4.286   6.182
10741SOL     OW33121   0.695   0.989   3.440
10741SOL    HW133122   0.630   1.023   3.371
10741SOL    HW233123   0.778   0.958   3.395
10742SOL     OW33124   6.072   0.243   1.755
10742SOL    HW133125   6.113   0.175   1.695
10742SOL    HW233126   6.085   0.216   1.850
10743SOL     OW33127   2.419   2.400   3.693
10743SOL    HW133128   2.391   2.490   3.727
10743SOL    HW233129   2.447   2.408   3.598
10744SOL     OW33130   3.439   1.868   2.746
10744SOL    HW133131   3.517   1.904   2.694
10744SOL    HW233132   3.472   1.826   2.831
10745SOL     OW33133   0.629   4.869   0.274
10745SOL    HW133134   0.665   4.927   0.347
10745SOL    HW233135   0.678   4.782   0.273
10746SOL     OW33136   1.725   4.088   1.667
10746SOL    HW133137   1.627   4.074   1.657
10746SOL    HW233138   1.774   4.032   1.600
10747SOL     OW33139   4.790   1.602   3.319
10747SOL    HW133140   4.883   1.626   3.292
10747SOL    HW233141   4.750   1.677   3.371
10748SOL     OW33142   5.309   0.187   1.172
10748SOL    HW133143   5.395   0.137   1.181
10748SOL    HW233144   5.326   0.275   1.128
10749SOL     OW33145   0.453   4.887   2.738
10749SOL    HW133146   0.385   4.831   2.784
10749SOL    HW233147   0.411   4.973   2.709
10750SOL     OW33148   3.979   6.015   4.126
10750SOL    HW133149   4.017   6.035   4.217
10750SOL    HW233150   3.960   5.917   4.119
10751SOL     OW33151   0.997   3.656   5.395
10751SOL    HW133152   0.897   3.669   5.391
10751SOL    HW233153   1.034   3.653   5.302
10752SOL     OW33154   6.587   3.748   6.085
10752SOL    HW133155   6.667   3.710   6.132
10752SOL    HW233156   6.508   3.690   6.102
10753SOL     OW33157   5.458   0.574   3.602
10753SOL    HW133158   5.507   0.521   3.533
10753SOL    HW233159   5.510   0.656   3.624
10754SOL     OW33160   2.249   2.129   3.360
10754SOL    HW133161   2.278   2.151   3.266
10754SOL    HW233162   2.198   2.206   3.398
10755SOL     OW33163   0.461   1.871   0.778
10755SOL    HW133164   0.521   1.800   0.740
10755SOL    HW233165   0.474   1.874   0.878
10756SOL     OW33166   6.019   4.203   6.955
10756SOL    HW133167   5.982   4.175   6.866
10756SOL    HW233168   6.031   4.122   7.012
10757SOL     OW33169   6.907   3.406   0.745
10757SOL    HW133170   6.857   3.357   0.815
10757SOL    HW233171   6.997   3.432   0.780
10758SOL     OW33172   1.792   6.098   4.857
10758SOL    HW133173   1.718   6.031   4.852
10758SOL    HW233174   1.861   6.067   4.923
10759SOL     OW33175   1.967   3.139   6.942
10759SOL    HW133176   1.878   3.097   6.951
10759SOL    HW233177   1.990   3.188   0.007
10760SOL     OW33178   6.952   0.484   0.699
10760SOL    HW133179   6.937   0.387   0.679
10760SOL    HW233180   0.021   0.512   0.664
10761SOL     OW33181   0.950   2.056   6.061
10761SOL    HW133182   0.994   2.106   6.136
10761SOL    HW233183   0.986   2.089   5.974
10762SOL     OW33184   4.634   1.504   5.023
10762SOL    HW133185   4.693   1.457   4.957
10762SOL    HW233186   4.578   1.436   5.070
10763SOL     OW33187   4.606   6.230   0.512
10763SOL    HW133188   4.623   6.237   0.610
10763SOL    HW233189   4.636   6.140   0.480
10764SOL     OW33190   5.640   1.581   5.892
10764SOL    HW133191   5.554   1.550   5.850
10764SOL    HW233192   5.698   1.622   5.823
10765SOL     OW33193   5.810   2.478   1.386
10765SOL    HW133194   5.867   2.417   1.441
10765SOL    HW233195   5.726   2.499   1.437
10766SOL     OW33196   3.221   3.371   0.073
10766SOL    HW133197   3.267   3.287   0.043
10766SOL    HW233198   3.233   3.382   0.172
10767SOL     OW33199   1.479   0.357   0.408
10767SOL    HW133200   1.511   0.275   0.359
10767SOL    HW233201   1.540   0.374   0.486
10768SOL     OW33202   5.336   5.230   0.738
10768SOL    HW133203   5.341   5.156   0.670
10768SOL    HW233204   5.246   5.272   0.734
10769SOL     OW33205   2.115   4.722   4.305
10769SOL    HW133206   2.208   4.725   4.270
10769SOL    HW233207   2.092   4.629   4.333
10770SOL     OW33208   5.474   6.947   4.636
10770SOL    HW133209   5.434   6.899   4.558
10770SOL    HW233210   5.497   6.880   4.707
10771SOL     OW33211   4.618   6.915   5.021
10771SOL    HW133212   4.664   6.956   4.942
10771SOL    HW233213   4.580   6.986   5.079
10772SOL     OW33214   6.431   6.421   4.069
10772SOL    HW133215   6.427   6.521   4.064
10772SOL    HW233216   6.397   6.392   4.159
10773SOL     OW33217   6.400   5.259   6.578
10773SOL    HW133218   6.303   5.282   6.575
10773SOL    HW233219   6.439   5.268   6.486
10774SOL     OW33220   1.611   1.965   0.091
10774SOL    HW133221   1.672   2.017   0.151
10774SOL    HW233222   1.652   1.959   7.019
10775SOL     OW33223   0.747   3.676   1.082
10775SOL    HW133224   0.806   3.712   1.154
10775SOL    HW233225   0.785   3.699   0.992
10776SOL     OW33226   1.319   6.300   0.817
10776SOL    HW133227   1.250   6.231   0.839
10776SOL    HW233228   1.301   6.337   0.725
10777SOL     OW33229   3.946   6.739   4.167
10777SOL    HW133230   3.922   6.770   4.259
10777SOL    HW233231   3.874   6.768   4.103
10778SOL     OW33232   5.509   6.108   5.182
10778SOL    HW133233   5.553   6.115   5.272
10778SOL    HW233234   5.552   6.033   5.131
10779SOL     OW33235   6.151   4.872   3.485
10779SOL    HW133236   6.112   4.916   3.404
10779SOL    HW233237   6.229   4.817   3.459
10780SOL     OW33238   1.207   6.870   2.773
10780SOL    HW133239   1.298   6.903   2.798
10780SOL    HW233240   1.139   6.941   2.792
10781SOL     OW33241   3.996   1.476   3.394
10781SOL    HW133242   3.927   1.460   3.465
10781SOL    HW233243   3.974   1.422   3.313
10782SOL     OW33244   6.787   2.200   3.720
10782SOL    HW133245   6.751   2.123   3.668
10782SOL    HW233246   6.754   2.195   3.815
10783SOL     OW33247   1.060   3.190   3.642
10783SOL    HW133248   0.998   3.112   3.651
10783SOL    HW233249   1.112   3.202   3.727
10784SOL     OW33250   2.698   0.372   2.388
10784SOL    HW133251   2.776   0.356   2.327
10784SOL    HW233252   2.715   0.326   2.475
10785SOL     OW33253   0.695   5.156   0.897
10785SOL    HW133254   0.766   5.196   0.841
10785SOL    HW233255   0.689   5.058   0.878
10786SOL     OW33256   5.020   3.169   1.630
10786SOL    HW133257   5.002   3.213   1.718
10786SOL    HW233258   4.936   3.124   1.598
10787SOL     OW33259   3.137   2.178   4.572
10787SOL    HW133260   3.179   2.088   4.581
10787SOL    HW233261   3.111   2.212   4.662
10788SOL     OW33262   1.900   4.574   0.612
10788SOL    HW133263   1.816   4.613   0.575
10788SOL    HW233264   1.910   4.480   0.580
10789SOL     OW33265   6.029   1.860   0.426
10789SOL    HW133266   6.047   1.958   0.415
10789SOL    HW233267   5.931   1.846   0.442
10790SOL     OW33268   1.022   0.844   3.886
10790SOL    HW133269   1.005   0.903   3.808
10790SOL    HW233270   1.057   0.756   3.855
10791SOL     OW33271   0.520   1.139   1.283
10791SOL    HW133272   0.527   1.126   1.184
10791SOL    HW233273   0.497   1.052   1.327
10792SOL     OW33274   3.513   3.329   1.616
10792SOL    HW133275   3.610   3.320   1.597
10792SOL    HW233276   3.477   3.243   1.653
10793SOL     OW33277   5.212   2.824   4.410
10793SOL    HW133278   5.146   2.860   4.344
10793SOL    HW233279   5.197   2.726   4.422
10794SOL     OW33280   3.093   4.057   2.980
10794SOL    HW133281   3.183   4.059   3.024
10794SOL    HW233282   3.103   4.089   2.885
10795SOL     OW33283   6.449   3.736   3.963
10795SOL    HW133284   6.382   3.727   3.889
10795SOL    HW233285   6.509   3.656   3.964
10796SOL     OW33286   5.125   6.271   0.002
10796SOL    HW133287   5.178   6.269   0.086
10796SOL    HW233288   5.084   6.362   7.010
10797SOL     OW33289   4.571   2.162   0.913
10797SOL    HW133290   4.588   2.261   0.912
10797SOL    HW233291   4.644   2.116   0.963
10798SOL     OW33292   2.281   6.800   0.548
10798SOL    HW133293   2.215   6.724   0.554
10798SOL    HW233294   2.233   6.883   0.521
10799SOL     OW33295   3.570   1.478   2.037
10799SOL    HW133296   3.505   1.535   2.087
10799SOL    HW233297   3.649   1.459   2.096
10800SOL     OW33298   1.287   0.342   7.010
10800SOL    HW133299   1.301   0.383   0.080
10800SOL    HW233300   1.313   0.407   6.939
10801SOL     OW33301   0.779   0.151   5.056
10801SOL    HW133302   0.818   0.144   4.965
10801SOL    HW233303   0.687   0.190   5.050
10802SOL     OW33304   2.092   3.283   4.775
10802SOL    HW133305   2.149   3.336   4.712
10802SOL    HW233306   2.047   3.345   4.839
10803SOL     OW33307   4.483   4.204   5.280
10803SOL    HW133308   4.493   4.217   5.182
10803SOL    HW233309   4.396   4.244   5.311
10804SOL     OW33310   0.076   3.953   1.324
10804SOL    HW133311   0.059   4.002   1.239
10804SOL    HW233312   7.010   3.938   1.372
10805SOL     OW33313   3.172   6.628   6.485
10805SOL    HW133314   3.136   6.687   6.557
10805SOL    HW233315   3.261   6.591   6.514
10806SOL     OW33316   5.085   4.485   6.440
10806SOL    HW133317   5.080   4.387   6.458
10806SOL    HW233318   5.177   4.509   6.409
10807SOL     OW33319   2.696   6.950   3.268
10807SOL    HW133320   2.673   6.974   3.174
10807SOL    HW233321   2.626   6.986   3.330
10808SOL     OW33322   6.563   3.889   6.761
10808SOL    HW133323   6.578   3.803   6.810
10808SOL    HW233324   6.480   3.933   6.795
10809SOL     OW33325   2.253   6.395   3.647
10809SOL    HW133326   2.292   6.315   3.600
10809SOL    HW233327   2.263   6.476   3.590
10810SOL     OW33328   1.360   0.201   4.668
10810SOL    HW133329   1.458   0.223   4.671
10810SOL    HW233330   1.334   0.155   4.753
10811SOL     OW33331   4.818   4.733   5.491
10811SOL    HW133332   4.867   4.783   5.562
10811SOL    HW233333   4.815   4.636   5.515
10812SOL     OW33334   0.501   3.326   2.436
10812SOL    HW133335   0.427   3.393   2.426
10812SOL    HW233336   0.498   3.261   2.360
10813SOL     OW33337   1.613   5.996   6.966
10813SOL    HW133338   1.692   6.005   0.006
10813SOL    HW233339   1.587   6.086   6.932
10814SOL     OW33340   1.666   6.653   6.821
10814SOL    HW133341   1.665   6.751   6.802
10814SOL    HW233342   1.742   6.631   6.882
10815SOL     OW33343   5.110   4.747   3.002
10815SOL    HW133344   5.022   4.787   3.024
10815SOL    HW233345   5.099   4.683   2.925
10816SOL     OW33346   1.417   1.960   2.208
10816SOL    HW133347   1.357   2.010   2.270
10816SOL    HW233348   1.366   1.936   2.125
10817SOL     OW33349   5.276   0.193   2.464
10817SOL    HW133350   5.237   0.282   2.442
10817SOL    HW233351   5.335   0.162   2.389
10818SOL     OW33352   4.651   4.080   5.461
10818SOL    HW133353   4.598   4.095   5.378
10818SOL    HW233354   4.747   4.062   5.436
10819SOL     OW33355   6.712   4.534   6.996
10819SOL    HW133356   6.620   4.517   0.010
10819SOL    HW233357   6.709   4.604   6.925
10820SOL     OW33358   5.847   5.769   4.504
10820SOL    HW133359   5.857   5.863   4.474
10820SOL    HW233360   5.750   5.748   4.517
10821SOL     OW33361   5.536   6.471   2.017
10821SOL    HW133362   5.452   6.433   2.055
10821SOL    HW233363   5.570   6.543   2.079
10822SOL     OW33364   0.769   2.690   3.240
10822SOL    HW133365   0.683   2.642   3.221
10822SOL    HW233366   0.768   2.779   3.195
10823SOL     OW33367   1.627   5.057   2.055
10823SOL    HW133368   1.716   5.021   2.026
10823SOL    HW233369   1.639   5.151   2.089
10824SOL     OW33370   5.145   0.185   4.039
10824SOL    HW133371   5.141   0.085   4.051
10824SOL    HW233372   5.238   0.217   4.057
10825SOL     OW33373   2.989   0.611   6.605
10825SOL    HW133374   3.014   0.578   6.696
10825SOL    HW233375   3.071   0.619   6.549
10826SOL     OW33376   0.437   3.632   4.083
10826SOL    HW133377   0.520   3.687   4.073
10826SOL    HW233378   0.423   3.612   4.180
10827SOL     OW33379   5.778   3.762   4.742
10827SOL    HW133380   5.825   3.839   4.785
10827SOL    HW233381   5.839   3.722   4.672
10828SOL     OW33382   0.935   5.531   2.186
10828SOL    HW133383   0.940   5.431   2.187
10828SOL    HW233384   0.991   5.568   2.260
10829SOL     OW33385   3.756   2.360   0.342
10829SOL    HW133386   3.828   2.408   0.392
10829SOL    HW233387   3.700   2.309   0.406
10830SOL     OW33388   5.202   1.935   3.599
10830SOL    HW133389   5.146   2.018   3.610
10830SOL    HW233390   5.295   1.961   3.574
10831SOL     OW33391   4.049   5.988   1.912
10831SOL    HW133392   4.049   6.065   1.976
10831SOL    HW233393   4.143   5.965   1.887
10832SOL     OW33394   0.320   2.120   0.770
10832SOL    HW133395   0.318   2.148   0.867
10832SOL    HW233396   0.374   2.037   0.761
10833SOL     OW33397   1.440   0.989   3.552
10833SOL    HW133398   1.427   1.087   3.573
10833SOL    HW233399   1.435   0.937   3.637
10834SOL     OW33400   1.584   2.285   6.253
10834SOL    HW133401   1.593   2.371   6.204
10834SOL    HW233402   1.528   2.298   6.335
10835SOL     OW33403   6.299   1.826   1.162
10835SOL    HW133404   6.208   1.822   1.202
10835SOL    HW233405   6.366   1.852   1.232
10836SOL     OW33406   6.552   1.207   4.903
10836SOL    HW133407   6.559   1.186   4.805
10836SOL    HW233408   6.526   1.302   4.915
10837SOL     OW33409   0.235   5.108   0.435
10837SOL    HW133410   0.180   5.143   0.359
10837SOL    HW233411   0.285   5.184   0.477
10838SOL     OW33412   5.999   6.319   5.051
10838SOL    HW133413   5.927   6.283   5.111
10838SOL    HW233414   5.994   6.274   4.962
10839SOL     OW33415   3.519   3.195   0.367
10839SOL    HW133416   3.420   3.193   0.354
10839SOL    HW233417   3.560   3.121   0.313
10840SOL     OW33418   4.130   5.772   1.470
10840SOL    HW133419   4.181   5.828   1.404
10840SOL    HW233420   4.041   5.747   1.431
10841SOL     OW33421   3.749   6.731   0.118
10841SOL    HW133422   3.659   6.695   0.096
10841SOL    HW233423   3.818   6.685   0.062
10842SOL     OW33424   5.270   3.280   1.298
10842SOL    HW133425   5.341   3.350   1.293
10842SOL    HW233426   5.185   3.321   1.330
10843SOL     OW33427   0.931   2.191   1.901
10843SOL    HW133428   0.994   2.149   1.835
10843SOL    HW233429   0.846   2.216   1.856
10844SOL     OW33430   0.273   7.017   4.090
10844SOL    HW133431   0.344   7.019   4.161
10844SOL    HW233432   0.315   7.019   4.000
10845SOL     OW33433   3.173   0.713   0.082
10845SOL    HW133434   3.181   0.747   7.008
10845SOL    HW233435   3.077   0.704   0.106
10846SOL     OW33436   4.739   3.172   0.683
10846SOL    HW133437   4.647   3.142   0.660
10846SOL    HW233438   4.734   3.255   0.739
10847SOL     OW33439   3.502   2.781   6.642
10847SOL    HW133440   3.564   2.853   6.673
10847SOL    HW233441   3.478   2.722   6.719
10848SOL     OW33442   3.433   1.909   6.675
10848SOL    HW133443   3.504   1.845   6.646
10848SOL    HW233444   3.368   1.921   6.600
10849SOL     OW33445   2.674   4.602   3.237
10849SOL    HW133446   2.607   4.602   3.312
10849SOL    HW233447   2.638   4.550   3.160
10850SOL     OW33448   4.425   6.348   0.076
10850SOL    HW133449   4.502   6.410   0.086
10850SOL    HW233450   4.399   6.313   0.166
10851SOL     OW33451   2.980   2.902   6.531
10851SOL    HW133452   3.071   2.879   6.496
10851SOL    HW233453   2.949   2.987   6.490
10852SOL     OW33454   0.039   6.325   6.423
10852SOL    HW133455   0.042   6.315   6.323
10852SOL    HW233456   6.964   6.336   6.453
10853SOL     OW33457   3.503   1.713   5.703
10853SOL    HW133458   3.474   1.722   5.608
10853SOL    HW233459   3.432   1.750   5.763
10854SOL     OW33460   6.045   6.322   5.445
10854SOL    HW133461   5.950   6.299   5.466
10854SOL    HW233462   6.093   6.240   5.415
10855SOL     OW33463   2.980   6.283   2.009
10855SOL    HW133464   2.893   6.333   2.014
10855SOL    HW233465   3.014   6.285   1.915
10856SOL     OW33466   6.131   1.528   2.405
10856SOL    HW133467   6.165   1.435   2.421
10856SOL    HW233468   6.172   1.590   2.472
10857SOL     OW33469   5.611   3.431   3.887
10857SOL    HW133470   5.628   3.333   3.899
10857SOL    HW233471   5.662   3.464   3.807
10858SOL     OW33472   0.942   2.629   6.389
10858SOL    HW133473   1.009   2.605   6.458
10858SOL    HW233474   0.988   2.648   6.302
10859SOL     OW33475   2.178   3.830   4.055
10859SOL    HW133476   2.177   3.852   3.958
10859SOL    HW233477   2.143   3.737   4.069
10860SOL     OW33478   6.540   1.507   5.953
10860SOL    HW133479   6.497   1.423   5.986
10860SOL    HW233480   6.519   1.519   5.856
10861SOL     OW33481   3.827   3.000   2.638
10861SOL    HW133482   3.728   2.989   2.646
10861SOL    HW233483   3.863   3.036   2.724
10862SOL     OW33484   2.902   1.537   6.600
10862SOL    HW133485   2.938   1.588   6.678
10862SOL    HW233486   2.952   1.561   6.518
10863SOL     OW33487   4.035   0.236   2.257
10863SOL    HW133488   4.044   0.186   2.170
10863SOL    HW233489   3.944   0.222   2.295
10864SOL     OW33490   2.604   4.985   0.688
10864SOL    HW133491   2.573   5.074   0.656
10864SOL    HW233492   2.640   4.994   0.781
10865SOL     OW33493   5.515   1.663   3.705
10865SOL    HW133494   5.420   1.693   3.701
10865SOL    HW233495   5.527   1.580   3.651
10866SOL     OW33496   4.883   5.257   0.615
10866SOL    HW133497   4.964   5.301   0.655
10866SOL    HW233498   4.901   5.159   0.604
10867SOL     OW33499   3.117   4.466   0.234
10867SOL    HW133500   3.031   4.516   0.224
10867SOL    HW233501   3.124   4.430   0.327
10868SOL     OW33502   1.672   2.013   3.748
10868SOL    HW133503   1.677   1.986   3.844
10868SOL    HW233504   1.650   1.932   3.692
10869NA      NA33505   0.287   2.479   6.153
10870NA      NA33506   4.499   4.554   5.174
10871NA      NA33507   2.394   4.421   2.319
10872NA      NA33508   4.873   4.032   3.783
10873NA      NA33509   4.258   2.438   5.323
10874NA      NA33510   3.228   4.403   1.601
10875NA      NA33511   0.707   4.605   6.971
10876NA      NA33512   3.858   3.835   2.308
10877NA      NA33513   4.899   4.903   1.147
10878NA      NA33514   3.543   0.258   5.422
10879NA      NA33515   6.212   5.538   0.975
10880NA      NA33516   2.009   0.572   5.094
10881NA      NA33517   4.278   4.760   1.683
10882NA      NA33518   4.102   2.639   1.134
   7.01984   7.01984   7.01984
