Generated by trjconv : CNT in water t=  80.00000
33518
    1C        C    1   2.836   2.765   4.744
    1C        C    2   2.891   2.715   4.864
    1C        C    3   2.846   2.774   4.982
    1C        C    4   2.844   2.771   4.258
    1C        C    5   2.895   2.723   4.381
    1C        C    6   2.838   2.768   4.502
    1C        C    7   3.006   2.635   4.624
    1C        C    8   2.889   2.714   4.623
    1C        C    9   3.069   2.596   4.745
    1C        C   10   3.003   2.628   4.865
    1C        C   11   3.179   2.487   4.974
    1C        C   12   3.061   2.562   4.975
    1C        C   13   2.848   2.771   3.769
    1C        C   14   2.893   2.718   3.892
    1C        C   15   2.845   2.771   4.014
    1C        C   16   3.014   2.643   4.135
    1C        C   17   2.898   2.724   4.136
    1C        C   18   3.075   2.610   4.257
    1C        C   19   3.012   2.644   4.379
    1C        C   20   3.203   2.557   4.503
    1C        C   21   3.071   2.607   4.502
    1C        C   22   3.274   2.533   4.623
    1C        C   23   3.201   2.543   4.743
    1C        C   24   3.408   2.479   4.861
    1C        C   25   3.265   2.494   4.860
    1C        C   26   3.486   2.470   4.976
    1C        C   27   2.853   2.771   3.281
    1C        C   28   2.905   2.728   3.405
    1C        C   29   2.847   2.772   3.526
    1C        C   30   3.017   2.644   3.648
    1C        C   31   2.900   2.723   3.647
    1C        C   32   3.077   2.607   3.771
    1C        C   33   3.009   2.637   3.891
    1C        C   34   3.206   2.554   4.013
    1C        C   35   3.075   2.607   4.012
    1C        C   36   3.273   2.538   4.136
    1C        C   37   3.206   2.555   4.258
    1C        C   38   3.411   2.511   4.382
    1C        C   39   3.271   2.534   4.382
    1C        C   40   3.485   2.501   4.502
    1C        C   41   3.412   2.502   4.622
    1C        C   42   3.627   2.482   4.743
    1C        C   43   3.484   2.478   4.741
    1C        C   44   3.702   2.486   4.862
    1C        C   45   3.626   2.468   4.979
    1C        C   46   2.837   2.753   2.790
    1C        C   47   2.891   2.710   2.913
    1C        C   48   2.844   2.761   3.036
    1C        C   49   3.016   2.636   3.158
    1C        C   50   2.904   2.722   3.158
    1C        C   51   3.077   2.601   3.281
    1C        C   52   3.016   2.641   3.402
    1C        C   53   3.206   2.550   3.525
    1C        C   54   3.076   2.607   3.525
    1C        C   55   3.275   2.529   3.646
    1C        C   56   3.207   2.551   3.768
    1C        C   57   3.414   2.513   3.891
    1C        C   58   3.274   2.532   3.891
    1C        C   59   3.482   2.504   4.014
    1C        C   60   3.412   2.512   4.136
    1C        C   61   3.622   2.504   4.257
    1C        C   62   3.481   2.507   4.260
    1C        C   63   3.697   2.508   4.377
    1C        C   64   3.626   2.496   4.499
    1C        C   65   3.833   2.538   4.621
    1C        C   66   3.696   2.502   4.622
    1C        C   67   3.904   2.552   4.742
    1C        C   68   3.840   2.516   4.862
    1C        C   69   4.044   2.588   4.977
    1C        C   70   3.922   2.519   4.976
    1C        C   71   2.825   2.737   2.304
    1C        C   72   2.885   2.698   2.425
    1C        C   73   2.831   2.745   2.547
    1C        C   74   3.008   2.626   2.670
    1C        C   75   2.889   2.703   2.669
    1C        C   76   3.070   2.593   2.793
    1C        C   77   3.007   2.629   2.914
    1C        C   78   3.206   2.548   3.036
    1C        C   79   3.074   2.600   3.034
    1C        C   80   3.273   2.527   3.158
    1C        C   81   3.207   2.548   3.282
    1C        C   82   3.412   2.494   3.401
    1C        C   83   3.273   2.521   3.404
    1C        C   84   3.482   2.489   3.523
    1C        C   85   3.412   2.495   3.646
    1C        C   86   3.623   2.493   3.768
    1C        C   87   3.482   2.496   3.768
    1C        C   88   3.694   2.502   3.890
    1C        C   89   3.624   2.505   4.012
    1C        C   90   3.830   2.543   4.130
    1C        C   91   3.693   2.507   4.135
    1C        C   92   3.897   2.564   4.252
    1C        C   93   3.834   2.539   4.376
    1C        C   94   4.024   2.630   4.494
    1C        C   95   3.900   2.562   4.499
    1C        C   96   4.087   2.665   4.615
    1C        C   97   4.028   2.622   4.736
    1C        C   98   4.189   2.759   4.857
    1C        C   99   4.092   2.653   4.859
    1C        C  100   4.214   2.833   4.973
    1C        C  101   2.817   2.728   2.069
    1C        C  102   2.982   2.583   2.188
    1C        C  103   2.870   2.672   2.186
    1C        C  104   3.058   2.572   2.307
    1C        C  105   3.004   2.622   2.428
    1C        C  106   3.199   2.533   2.545
    1C        C  107   3.069   2.588   2.549
    1C        C  108   3.268   2.525   2.669
    1C        C  109   3.201   2.540   2.792
    1C        C  110   3.409   2.498   2.914
    1C        C  111   3.270   2.519   2.913
    1C        C  112   3.482   2.487   3.035
    1C        C  113   3.411   2.497   3.158
    1C        C  114   3.624   2.492   3.279
    1C        C  115   3.483   2.489   3.279
    1C        C  116   3.696   2.502   3.401
    1C        C  117   3.624   2.496   3.522
    1C        C  118   3.830   2.540   3.645
    1C        C  119   3.692   2.508   3.645
    1C        C  120   3.896   2.566   3.766
    1C        C  121   3.830   2.542   3.888
    1C        C  122   4.022   2.636   4.010
    1C        C  123   3.896   2.572   4.009
    1C        C  124   4.082   2.672   4.133
    1C        C  125   4.021   2.631   4.254
    1C        C  126   4.197   2.757   4.375
    1C        C  127   4.084   2.673   4.373
    1C        C  128   4.242   2.816   4.495
    1C        C  129   4.191   2.761   4.615
    1C        C  130   4.316   2.933   4.739
    1C        C  131   4.243   2.811   4.737
    1C        C  132   4.351   2.999   4.858
    1C        C  133   4.289   2.950   4.974
    1C        C  134   3.168   2.467   2.080
    1C        C  135   3.032   2.502   2.080
    1C        C  136   3.255   2.478   2.189
    1C        C  137   3.190   2.519   2.307
    1C        C  138   3.404   2.472   2.427
    1C        C  139   3.265   2.496   2.425
    1C        C  140   3.475   2.475   2.549
    1C        C  141   3.407   2.498   2.670
    1C        C  142   3.620   2.484   2.789
    1C        C  143   3.479   2.492   2.792
    1C        C  144   3.693   2.493   2.910
    1C        C  145   3.623   2.489   3.032
    1C        C  146   3.830   2.529   3.154
    1C        C  147   3.692   2.497   3.155
    1C        C  148   3.899   2.556   3.274
    1C        C  149   3.832   2.537   3.398
    1C        C  150   4.022   2.626   3.521
    1C        C  151   3.896   2.561   3.522
    1C        C  152   4.082   2.663   3.643
    1C        C  153   4.022   2.631   3.767
    1C        C  154   4.191   2.763   3.888
    1C        C  155   4.082   2.673   3.887
    1C        C  156   4.244   2.810   4.010
    1C        C  157   4.194   2.758   4.132
    1C        C  158   4.337   2.915   4.250
    1C        C  159   4.251   2.803   4.253
    1C        C  160   4.372   2.980   4.370
    1C        C  161   4.328   2.927   4.494
    1C        C  162   4.432   3.110   4.613
    1C        C  163   4.360   2.989   4.617
    1C        C  164   4.459   3.180   4.733
    1C        C  165   4.425   3.119   4.855
    1C        C  166   4.503   3.321   4.968
    1C        C  167   4.470   3.186   4.970
    1C        C  168   3.471   2.442   2.069
    1C        C  169   3.395   2.456   2.186
    1C        C  170   3.614   2.458   2.306
    1C        C  171   3.471   2.457   2.304
    1C        C  172   3.689   2.480   2.424
    1C        C  173   3.616   2.484   2.545
    1C        C  174   3.824   2.532   2.665
    1C        C  175   3.688   2.495   2.666
    1C        C  176   3.893   2.552   2.787
    1C        C  177   3.831   2.522   2.910
    1C        C  178   4.022   2.615   3.029
    1C        C  179   3.899   2.546   3.032
    1C        C  180   4.083   2.657   3.149
    1C        C  181   4.024   2.621   3.272
    1C        C  182   4.187   2.752   3.398
    1C        C  183   4.077   2.663   3.396
    1C        C  184   4.241   2.803   3.519
    1C        C  185   4.190   2.754   3.641
    1C        C  186   4.335   2.911   3.762
    1C        C  187   4.241   2.806   3.763
    1C        C  188   4.374   2.972   3.883
    1C        C  189   4.337   2.917   4.008
    1C        C  190   4.442   3.102   4.126
    1C        C  191   4.377   2.977   4.129
    1C        C  192   4.468   3.169   4.248
    1C        C  193   4.441   3.103   4.370
    1C        C  194   4.498   3.310   4.488
    1C        C  195   4.466   3.172   4.491
    1C        C  196   4.516   3.384   4.607
    1C        C  197   4.501   3.316   4.730
    1C        C  198   4.546   3.533   4.846
    1C        C  199   4.523   3.391   4.849
    1C        C  200   4.574   3.619   4.957
    1C        C  201   3.609   2.420   2.072
    1C        C  202   3.820   2.515   2.179
    1C        C  203   3.688   2.459   2.185
    1C        C  204   3.891   2.541   2.299
    1C        C  205   3.825   2.517   2.421
    1C        C  206   4.020   2.609   2.539
    1C        C  207   3.891   2.550   2.541
    1C        C  208   4.081   2.647   2.661
    1C        C  209   4.018   2.617   2.784
    1C        C  210   4.192   2.739   2.905
    1C        C  211   4.081   2.652   2.905
    1C        C  212   4.240   2.794   3.026
    1C        C  213   4.191   2.748   3.151
    1C        C  214   4.328   2.907   3.268
    1C        C  215   4.238   2.798   3.275
    1C        C  216   4.366   2.967   3.390
    1C        C  217   4.330   2.912   3.515
    1C        C  218   4.424   3.101   3.635
    1C        C  219   4.368   2.971   3.638
    1C        C  220   4.456   3.164   3.757
    1C        C  221   4.434   3.100   3.881
    1C        C  222   4.495   3.304   4.001
    1C        C  223   4.464   3.166   4.002
    1C        C  224   4.505   3.376   4.122
    1C        C  225   4.497   3.307   4.246
    1C        C  226   4.508   3.521   4.363
    1C        C  227   4.511   3.380   4.366
    1C        C  228   4.507   3.595   4.484
    1C        C  229   4.520   3.525   4.606
    1C        C  230   4.500   3.741   4.724
    1C        C  231   4.533   3.602   4.723
    1C        C  232   4.491   3.819   4.840
    1C        C  233   4.538   3.755   4.955
    1C        C  234   4.015   2.605   2.060
    1C        C  235   3.890   2.544   2.061
    1C        C  236   4.081   2.646   2.176
    1C        C  237   4.018   2.607   2.296
    1C        C  238   4.195   2.729   2.419
    1C        C  239   4.078   2.647   2.417
    1C        C  240   4.248   2.780   2.540
    1C        C  241   4.190   2.737   2.661
    1C        C  242   4.325   2.901   2.780
    1C        C  243   4.244   2.786   2.782
    1C        C  244   4.365   2.963   2.901
    1C        C  245   4.327   2.904   3.024
    1C        C  246   4.435   3.089   3.147
    1C        C  247   4.368   2.964   3.146
    1C        C  248   4.461   3.157   3.268
    1C        C  249   4.428   3.095   3.391
    1C        C  250   4.488   3.300   3.509
    1C        C  251   4.452   3.164   3.512
    1C        C  252   4.508   3.367   3.632
    1C        C  253   4.493   3.301   3.756
    1C        C  254   4.514   3.514   3.873
    1C        C  255   4.503   3.373   3.877
    1C        C  256   4.518   3.585   3.995
    1C        C  257   4.519   3.516   4.118
    1C        C  258   4.490   3.728   4.236
    1C        C  259   4.507   3.588   4.239
    1C        C  260   4.471   3.800   4.356
    1C        C  261   4.487   3.735   4.481
    1C        C  262   4.423   3.938   4.598
    1C        C  263   4.473   3.806   4.601
    1C        C  264   4.396   4.006   4.718
    1C        C  265   4.431   3.947   4.842
    1C        C  266   4.314   4.129   4.958
    1C        C  267   4.387   4.011   4.958
    1C        C  268   4.254   2.775   2.059
    1C        C  269   4.191   2.735   2.178
    1C        C  270   4.341   2.888   2.299
    1C        C  271   4.248   2.780   2.299
    1C        C  272   4.374   2.955   2.418
    1C        C  273   4.339   2.888   2.538
    1C        C  274   4.437   3.080   2.656
    1C        C  275   4.373   2.954   2.658
    1C        C  276   4.459   3.149   2.777
    1C        C  277   4.436   3.085   2.901
    1C        C  278   4.496   3.287   3.020
    1C        C  279   4.464   3.150   3.023
    1C        C  280   4.509   3.362   3.139
    1C        C  281   4.495   3.294   3.262
    1C        C  282   4.508   3.506   3.384
    1C        C  283   4.498   3.365   3.384
    1C        C  284   4.507   3.578   3.506
    1C        C  285   4.512   3.508   3.628
    1C        C  286   4.488   3.722   3.751
    1C        C  287   4.511   3.582   3.749
    1C        C  288   4.475   3.793   3.872
    1C        C  289   4.494   3.724   3.994
    1C        C  290   4.425   3.929   4.113
    1C        C  291   4.474   3.797   4.114
    1C        C  292   4.397   3.999   4.233
    1C        C  293   4.424   3.933   4.355
    1C        C  294   4.325   4.125   4.476
    1C        C  295   4.395   4.002   4.475
    1C        C  296   4.281   4.185   4.596
    1C        C  297   4.320   4.127   4.719
    1C        C  298   4.196   4.309   4.837
    1C        C  299   4.281   4.194   4.838
    1C        C  300   4.165   4.398   4.944
    1C        C  301   4.352   2.874   2.064
    1C        C  302   4.469   3.064   2.176
    1C        C  303   4.397   2.940   2.179
    1C        C  304   4.484   3.140   2.295
    1C        C  305   4.441   3.079   2.415
    1C        C  306   4.506   3.283   2.536
    1C        C  307   4.466   3.148   2.536
    1C        C  308   4.517   3.356   2.657
    1C        C  309   4.498   3.285   2.777
    1C        C  310   4.521   3.498   2.896
    1C        C  311   4.512   3.357   2.898
    1C        C  312   4.515   3.571   3.016
    1C        C  313   4.518   3.503   3.140
    1C        C  314   4.485   3.714   3.259
    1C        C  315   4.509   3.575   3.261
    1C        C  316   4.474   3.784   3.382
    1C        C  317   4.488   3.718   3.506
    1C        C  318   4.416   3.918   3.624
    1C        C  319   4.464   3.786   3.628
    1C        C  320   4.388   3.986   3.745
    1C        C  321   4.421   3.923   3.867
    1C        C  322   4.318   4.108   3.987
    1C        C  323   4.391   3.987   3.989
    1C        C  324   4.283   4.173   4.108
    1C        C  325   4.324   4.120   4.233
    1C        C  326   4.185   4.283   4.352
    1C        C  327   4.282   4.180   4.354
    1C        C  328   4.134   4.335   4.473
    1C        C  329   4.187   4.290   4.596
    1C        C  330   4.020   4.430   4.712
    1C        C  331   4.137   4.349   4.714
    1C        C  332   3.966   4.486   4.830
    1C        C  333   4.047   4.474   4.944
    1C        C  334   4.548   3.264   2.059
    1C        C  335   4.529   3.126   2.062
    1C        C  336   4.529   3.349   2.169
    1C        C  337   4.512   3.280   2.291
    1C        C  338   4.517   3.492   2.408
    1C        C  339   4.521   3.351   2.413
    1C        C  340   4.518   3.565   2.529
    1C        C  341   4.517   3.497   2.653
    1C        C  342   4.490   3.709   2.770
    1C        C  343   4.511   3.569   2.774
    1C        C  344   4.474   3.779   2.892
    1C        C  345   4.489   3.710   3.014
    1C        C  346   4.420   3.912   3.136
    1C        C  347   4.472   3.781   3.135
    1C        C  348   4.387   3.979   3.256
    1C        C  349   4.424   3.916   3.377
    1C        C  350   4.318   4.101   3.498
    1C        C  351   4.393   3.980   3.499
    1C        C  352   4.271   4.158   3.619
    1C        C  353   4.317   4.108   3.743
    1C        C  354   4.177   4.267   3.864
    1C        C  355   4.275   4.165   3.865
    1C        C  356   4.124   4.315   3.986
    1C        C  357   4.178   4.268   4.107
    1C        C  358   4.008   4.395   4.229
    1C        C  359   4.130   4.323   4.228
    1C        C  360   3.949   4.440   4.349
    1C        C  361   4.018   4.415   4.470
    1C        C  362   3.824   4.510   4.591
    1C        C  363   3.954   4.454   4.590
    1C        C  364   3.760   4.542   4.713
    1C        C  365   3.838   4.545   4.830
    1C        C  366   3.628   4.605   4.946
    1C        C  367   3.764   4.576   4.945
    1C        C  368   4.499   3.563   2.049
    1C        C  369   4.513   3.489   2.167
    1C        C  370   4.501   3.705   2.279
    1C        C  371   4.514   3.564   2.287
    1C        C  372   4.485   3.773   2.401
    1C        C  373   4.500   3.705   2.524
    1C        C  374   4.420   3.903   2.644
    1C        C  375   4.477   3.774   2.645
    1C        C  376   4.389   3.969   2.765
    1C        C  377   4.426   3.912   2.888
    1C        C  378   4.314   4.089   3.010
    1C        C  379   4.398   3.976   3.011
    1C        C  380   4.267   4.149   3.129
    1C        C  381   4.309   4.096   3.254
    1C        C  382   4.176   4.259   3.375
    1C        C  383   4.273   4.156   3.377
    1C        C  384   4.118   4.304   3.496
    1C        C  385   4.172   4.258   3.619
    1C        C  386   4.008   4.391   3.739
    1C        C  387   4.124   4.311   3.741
    1C        C  388   3.946   4.428   3.861
    1C        C  389   4.009   4.396   3.983
    1C        C  390   3.819   4.487   4.104
    1C        C  391   3.948   4.431   4.106
    1C        C  392   3.749   4.511   4.225
    1C        C  393   3.818   4.492   4.347
    1C        C  394   3.616   4.549   4.471
    1C        C  395   3.755   4.524   4.469
    1C        C  396   3.545   4.558   4.593
    1C        C  397   3.619   4.560   4.712
    1C        C  398   3.412   4.546   4.834
    1C        C  399   3.549   4.578   4.834
    1C        C  400   3.342   4.515   4.951
    1C        C  401   4.501   3.702   2.040
    1C        C  402   4.448   3.912   2.161
    1C        C  403   4.487   3.776   2.158
    1C        C  404   4.408   3.973   2.281
    1C        C  405   4.435   3.905   2.402
    1C        C  406   4.325   4.091   2.522
    1C        C  407   4.400   3.971   2.522
    1C        C  408   4.276   4.148   2.642
    1C        C  409   4.310   4.087   2.765
    1C        C  410   4.172   4.246   2.885
    1C        C  411   4.269   4.143   2.887
    1C        C  412   4.120   4.296   3.007
    1C        C  413   4.170   4.250   3.131
    1C        C  414   3.999   4.377   3.249
    1C        C  415   4.115   4.297   3.253
    1C        C  416   3.939   4.415   3.371
    1C        C  417   3.998   4.378   3.494
    1C        C  418   3.812   4.475   3.620
    1C        C  419   3.942   4.420   3.617
    1C        C  420   3.744   4.501   3.741
    1C        C  421   3.815   4.480   3.861
    1C        C  422   3.609   4.529   3.986
    1C        C  423   3.748   4.506   3.983
    1C        C  424   3.539   4.541   4.108
    1C        C  425   3.611   4.537   4.230
    1C        C  426   3.399   4.546   4.355
    1C        C  427   3.541   4.548   4.352
    1C        C  428   3.328   4.545   4.477
    1C        C  429   3.403   4.553   4.596
    1C        C  430   3.192   4.517   4.720
    1C        C  431   3.333   4.537   4.717
    1C        C  432   3.123   4.493   4.842
    1C        C  433   3.205   4.487   4.955
    1C        C  434   4.382   4.121   2.050
    1C        C  435   4.439   3.993   2.047
    1C        C  436   4.296   4.154   2.159
    1C        C  437   4.329   4.092   2.283
    1C        C  438   4.176   4.245   2.397
    1C        C  439   4.277   4.147   2.402
    1C        C  440   4.124   4.293   2.519
    1C        C  441   4.178   4.249   2.642
    1C        C  442   4.000   4.370   2.760
    1C        C  443   4.117   4.290   2.763
    1C        C  444   3.939   4.403   2.883
    1C        C  445   3.998   4.366   3.006
    1C        C  446   3.809   4.468   3.130
    1C        C  447   3.936   4.406   3.126
    1C        C  448   3.743   4.494   3.252
    1C        C  449   3.810   4.473   3.375
    1C        C  450   3.607   4.527   3.495
    1C        C  451   3.745   4.498   3.498
    1C        C  452   3.537   4.540   3.617
    1C        C  453   3.606   4.531   3.741
    1C        C  454   3.396   4.543   3.860
    1C        C  455   3.537   4.538   3.864
    1C        C  456   3.330   4.535   3.985
    1C        C  457   3.398   4.541   4.108
    1C        C  458   3.193   4.505   4.233
    1C        C  459   3.330   4.539   4.232
    1C        C  460   3.128   4.483   4.356
    1C        C  461   3.192   4.505   4.479
    1C        C  462   2.995   4.429   4.598
    1C        C  463   3.121   4.492   4.600
    1C        C  464   2.930   4.396   4.719
    1C        C  465   2.989   4.442   4.840
    1C        C  466   2.803   4.332   4.954
    1C        C  467   2.907   4.426   4.956
    1C        C  468   4.125   4.292   2.038
    1C        C  469   4.186   4.246   2.155
    1C        C  470   4.003   4.367   2.275
    1C        C  471   4.125   4.292   2.274
    1C        C  472   3.940   4.402   2.397
    1C        C  473   4.001   4.364   2.518
    1C        C  474   3.807   4.458   2.639
    1C        C  475   3.937   4.403   2.638
    1C        C  476   3.742   4.483   2.762
    1C        C  477   3.811   4.463   2.884
    1C        C  478   3.606   4.517   3.007
    1C        C  479   3.744   4.488   3.006
    1C        C  480   3.536   4.526   3.129
    1C        C  481   3.606   4.527   3.252
    1C        C  482   3.394   4.529   3.373
    1C        C  483   3.535   4.536   3.374
    1C        C  484   3.325   4.526   3.496
    1C        C  485   3.396   4.541   3.618
    1C        C  486   3.187   4.499   3.744
    1C        C  487   3.324   4.533   3.739
    1C        C  488   3.122   4.480   3.868
    1C        C  489   3.193   4.499   3.988
    1C        C  490   3.001   4.413   4.113
    1C        C  491   3.126   4.479   4.111
    1C        C  492   2.942   4.378   4.237
    1C        C  493   2.998   4.426   4.357
    1C        C  494   2.824   4.299   4.481
    1C        C  495   2.935   4.386   4.477
    1C        C  496   2.767   4.253   4.602
    1C        C  497   2.820   4.306   4.721
    1C        C  498   2.660   4.161   4.841
    1C        C  499   2.755   4.266   4.840
    1C        C  500   2.593   4.115   4.954
    1C        C  501   4.002   4.356   2.035
    1C        C  502   3.808   4.451   2.155
    1C        C  503   3.936   4.392   2.154
    1C        C  504   3.741   4.480   2.276
    1C        C  505   3.809   4.455   2.396
    1C        C  506   3.600   4.504   2.518
    1C        C  507   3.737   4.470   2.517
    1C        C  508   3.531   4.518   2.640
    1C        C  509   3.603   4.511   2.762
    1C        C  510   3.394   4.524   2.881
    1C        C  511   3.535   4.522   2.885
    1C        C  512   3.324   4.522   3.004
    1C        C  513   3.394   4.528   3.126
    1C        C  514   3.188   4.488   3.253
    1C        C  515   3.326   4.519   3.250
    1C        C  516   3.122   4.461   3.375
    1C        C  517   3.188   4.492   3.496
    1C        C  518   3.004   4.399   3.626
    1C        C  519   3.124   4.473   3.620
    1C        C  520   2.942   4.363   3.748
    1C        C  521   3.001   4.407   3.869
    1C        C  522   2.837   4.276   3.994
    1C        C  523   2.946   4.365   3.992
    1C        C  524   2.784   4.231   4.117
    1C        C  525   2.837   4.284   4.237
    1C        C  526   2.696   4.128   4.360
    1C        C  527   2.782   4.241   4.359
    1C        C  528   2.655   4.070   4.482
    1C        C  529   2.684   4.139   4.602
    1C        C  530   2.577   3.956   4.728
    1C        C  531   2.636   4.086   4.724
    1C        C  532   2.532   3.898   4.850
    1C        C  533   2.525   3.992   4.958
    1C        C  534   3.613   4.550   2.034
    1C        C  535   3.745   4.503   2.041
    1C        C  536   3.533   4.538   2.152
    1C        C  537   3.602   4.512   2.274
    1C        C  538   3.389   4.516   2.396
    1C        C  539   3.530   4.519   2.396
    1C        C  540   3.319   4.509   2.518
    1C        C  541   3.390   4.514   2.640
    1C        C  542   3.181   4.481   2.764
    1C        C  543   3.319   4.510   2.762
    1C        C  544   3.115   4.462   2.888
    1C        C  545   3.188   4.484   3.007
    1C        C  546   2.995   4.402   3.133
    1C        C  547   3.122   4.464   3.130
    1C        C  548   2.937   4.361   3.255
    1C        C  549   2.996   4.396   3.378
    1C        C  550   2.834   4.271   3.501
    1C        C  551   2.943   4.360   3.504
    1C        C  552   2.783   4.222   3.624
    1C        C  553   2.834   4.273   3.745
    1C        C  554   2.707   4.110   3.872
    1C        C  555   2.791   4.224   3.871
    1C        C  556   2.664   4.056   3.995
    1C        C  557   2.699   4.118   4.117
    1C        C  558   2.596   3.937   4.245
    1C        C  559   2.657   4.065   4.240
    1C        C  560   2.564   3.874   4.367
    1C        C  561   2.588   3.945   4.486
    1C        C  562   2.528   3.745   4.613
    1C        C  563   2.558   3.882   4.609
    1C        C  564   2.505   3.678   4.735
    1C        C  565   2.509   3.757   4.853
    1C        C  566   2.526   3.543   4.973
    1C        C  567   2.521   3.682   4.971
    1C        C  568   3.325   4.470   2.039
    1C        C  569   3.394   4.509   2.154
    1C        C  570   3.181   4.468   2.276
    1C        C  571   3.319   4.504   2.275
    1C        C  572   3.111   4.455   2.398
    1C        C  573   3.180   4.481   2.518
    1C        C  574   2.989   4.399   2.644
    1C        C  575   3.113   4.467   2.641
    1C        C  576   2.927   4.362   2.766
    1C        C  577   2.989   4.399   2.888
    1C        C  578   2.830   4.265   3.012
    1C        C  579   2.933   4.362   3.012
    1C        C  580   2.780   4.213   3.134
    1C        C  581   2.832   4.267   3.253
    1C        C  582   2.694   4.113   3.380
    1C        C  583   2.785   4.220   3.378
    1C        C  584   2.662   4.050   3.503
    1C        C  585   2.700   4.108   3.626
    1C        C  586   2.600   3.926   3.753
    1C        C  587   2.663   4.053   3.751
    1C        C  588   2.573   3.867   3.878
    1C        C  589   2.595   3.933   4.001
    1C        C  590   2.529   3.733   4.123
    1C        C  591   2.568   3.869   4.124
    1C        C  592   2.519   3.667   4.248
    1C        C  593   2.527   3.738   4.370
    1C        C  594   2.507   3.529   4.495
    1C        C  595   2.514   3.671   4.494
    1C        C  596   2.508   3.460   4.618
    1C        C  597   2.509   3.536   4.737
    1C        C  598   2.530   3.324   4.864
    1C        C  599   2.515   3.464   4.858
    1C        C  600   2.525   3.245   4.980
    1C        C  601   3.191   4.434   2.040
    1C        C  602   2.978   4.389   2.156
    1C        C  603   3.111   4.441   2.155
    1C        C  604   2.920   4.353   2.280
    1C        C  605   2.984   4.394   2.400
    1C        C  606   2.818   4.268   2.526
    1C        C  607   2.927   4.358   2.524
    1C        C  608   2.775   4.214   2.649
    1C        C  609   2.822   4.268   2.770
    1C        C  610   2.686   4.105   2.892
    1C        C  611   2.775   4.215   2.892
    1C        C  612   2.651   4.046   3.015
    1C        C  613   2.694   4.101   3.138
    1C        C  614   2.590   3.921   3.263
    1C        C  615   2.648   4.050   3.262
    1C        C  616   2.564   3.859   3.387
    1C        C  617   2.595   3.926   3.508
    1C        C  618   2.527   3.726   3.634
    1C        C  619   2.571   3.860   3.631
    1C        C  620   2.516   3.661   3.758
    1C        C  621   2.533   3.731   3.880
    1C        C  622   2.498   3.522   4.008
    1C        C  623   2.518   3.662   4.002
    1C        C  624   2.501   3.451   4.130
    1C        C  625   2.509   3.527   4.249
    1C        C  626   2.529   3.318   4.376
    1C        C  627   2.508   3.458   4.373
    1C        C  628   2.548   3.250   4.498
    1C        C  629   2.532   3.321   4.620
    1C        C  630   2.593   3.119   4.743
    1C        C  631   2.549   3.254   4.743
    1C        C  632   2.615   3.050   4.865
    1C        C  633   2.554   3.108   4.981
    1C        C  634   2.773   4.301   2.051
    1C        C  635   2.889   4.380   2.044
    1C        C  636   2.746   4.225   2.165
    1C        C  637   2.808   4.265   2.286
    1C        C  638   2.678   4.102   2.408
    1C        C  639   2.757   4.219   2.408
    1C        C  640   2.638   4.044   2.531
    1C        C  641   2.686   4.104   2.649
    1C        C  642   2.586   3.917   2.773
    1C        C  643   2.646   4.044   2.771
    1C        C  644   2.563   3.852   2.896
    1C        C  645   2.591   3.918   3.018
    1C        C  646   2.523   3.719   3.146
    1C        C  647   2.565   3.854   3.141
    1C        C  648   2.511   3.653   3.270
    1C        C  649   2.524   3.724   3.391
    1C        C  650   2.507   3.513   3.515
    1C        C  651   2.510   3.654   3.513
    1C        C  652   2.510   3.447   3.640
    1C        C  653   2.506   3.520   3.762
    1C        C  654   2.526   3.313   3.887
    1C        C  655   2.501   3.452   3.885
    1C        C  656   2.542   3.244   4.010
    1C        C  657   2.522   3.311   4.132
    1C        C  658   2.601   3.117   4.258
    1C        C  659   2.545   3.246   4.255
    1C        C  660   2.632   3.054   4.380
    1C        C  661   2.598   3.118   4.502
    1C        C  662   2.705   2.935   4.623
    1C        C  663   2.624   3.050   4.623
    1C        C  664   2.743   2.873   4.744
    1C        C  665   2.692   2.929   4.864
    1C        C  666   2.744   2.869   4.980
    1C        C  667   2.677   4.020   2.050
    1C        C  668   2.682   4.100   2.165
    1C        C  669   2.591   3.907   2.288
    1C        C  670   2.643   4.039   2.286
    1C        C  671   2.561   3.843   2.411
    1C        C  672   2.583   3.914   2.531
    1C        C  673   2.513   3.714   2.657
    1C        C  674   2.555   3.848   2.653
    1C        C  675   2.504   3.645   2.780
    1C        C  676   2.525   3.716   2.900
    1C        C  677   2.500   3.508   3.028
    1C        C  678   2.515   3.648   3.024
    1C        C  679   2.502   3.437   3.150
    1C        C  680   2.500   3.512   3.270
    1C        C  681   2.520   3.302   3.399
    1C        C  682   2.504   3.442   3.393
    1C        C  683   2.538   3.235   3.522
    1C        C  684   2.525   3.307   3.643
    1C        C  685   2.596   3.110   3.768
    1C        C  686   2.543   3.241   3.767
    1C        C  687   2.637   3.053   3.891
    1C        C  688   2.602   3.116   4.012
    1C        C  689   2.704   2.931   4.136
    1C        C  690   2.630   3.052   4.135
    1C        C  691   2.749   2.875   4.258
    1C        C  692   2.708   2.935   4.379
    1C        C  693   2.750   2.878   4.501
    1C        C  694   2.625   3.889   2.052
    1C        C  695   2.529   3.699   2.172
    1C        C  696   2.574   3.833   2.169
    1C        C  697   2.505   3.633   2.295
    1C        C  698   2.518   3.709   2.413
    1C        C  699   2.483   3.503   2.537
    1C        C  700   2.494   3.643   2.536
    1C        C  701   2.493   3.434   2.660
    1C        C  702   2.491   3.504   2.783
    1C        C  703   2.521   3.298   2.907
    1C        C  704   2.495   3.436   2.907
    1C        C  705   2.534   3.227   3.029
    1C        C  706   2.523   3.297   3.152
    1C        C  707   2.592   3.103   3.276
    1C        C  708   2.540   3.234   3.277
    1C        C  709   2.628   3.045   3.400
    1C        C  710   2.598   3.107   3.523
    1C        C  711   2.707   2.928   3.646
    1C        C  712   2.630   3.046   3.647
    1C        C  713   2.753   2.875   3.769
    1C        C  714   2.714   2.934   3.892
    1C        C  715   2.754   2.879   4.015
    1C        C  716   2.443   3.496   2.058
    1C        C  717   2.489   3.628   2.058
    1C        C  718   2.455   3.417   2.177
    1C        C  719   2.480   3.493   2.294
    1C        C  720   2.510   3.287   2.420
    1C        C  721   2.480   3.425   2.418
    1C        C  722   2.534   3.223   2.543
    1C        C  723   2.516   3.295   2.664
    1C        C  724   2.588   3.096   2.789
    1C        C  725   2.538   3.228   2.786
    1C        C  726   2.623   3.033   2.911
    1C        C  727   2.588   3.097   3.033
    1C        C  728   2.702   2.919   3.157
    1C        C  729   2.625   3.037   3.155
    1C        C  730   2.750   2.867   3.279
    1C        C  731   2.702   2.924   3.399
    1C        C  732   2.750   2.875   3.523
    1C        C  733   2.484   3.192   2.069
    1C        C  734   2.478   3.276   2.181
    1C        C  735   2.578   3.082   2.303
    1C        C  736   2.521   3.212   2.300
    1C        C  737   2.612   3.023   2.427
    1C        C  738   2.580   3.090   2.547
    1C        C  739   2.695   2.911   2.666
    1C        C  740   2.615   3.027   2.669
    1C        C  741   2.743   2.859   2.788
    1C        C  742   2.704   2.918   2.911
    1C        C  743   2.748   2.865   3.034
    1C        C  744   2.536   3.063   2.070
    1C        C  745   2.677   2.893   2.185
    1C        C  746   2.597   3.009   2.184
    1C        C  747   2.731   2.843   2.306
    1C        C  748   2.682   2.900   2.426
    1C        C  749   2.734   2.847   2.546
    1C        C  750   2.729   2.835   2.068
    1C        C  751   3.668   2.329   1.971
    1C        O  752   3.688   2.207   1.995
    1C        O  753   3.663   2.347   1.832
    1C        C  754   4.614   3.055   1.964
    1C        O  755   4.576   3.043   1.844
    1C        O  756   4.722   2.971   1.998
    1C        C  757   4.468   4.220   1.981
    1C        O  758   4.561   4.270   2.051
    1C        O  759   4.537   4.208   1.860
    1C        C  760   3.574   4.650   1.932
    1C        O  761   3.587   4.773   1.953
    1C        O  762   3.512   4.612   1.812
    1C        C  763   2.869   4.503   1.964
    1C        O  764   2.835   4.501   1.843
    1C        O  765   2.823   4.622   2.021
    1C        C  766   2.360   3.462   1.940
    1C        O  767   2.396   3.503   1.827
    1C        O  768   2.222   3.481   1.947
    1C        C  769   4.692   3.594   5.043
    1C        O  770   4.682   3.559   5.164
    1C        O  771   4.821   3.569   4.995
    1C        C  772   4.280   4.442   5.027
    1C        O  773   4.267   4.427   5.151
    1C        O  774   4.328   4.571   5.006
    1C        C  775   4.138   2.517   5.067
    1C        O  776   4.209   2.416   5.041
    1C        O  777   4.148   2.567   5.198
    1C        C  778   2.866   4.550   5.027
    1C        O  779   2.864   4.662   4.969
    1C        O  780   2.876   4.565   5.166
    1C        C  781   2.474   3.032   5.080
    1C        O  782   2.359   2.992   5.048
    1C        O  783   2.499   3.039   5.217
    1C        C  784   2.405   4.001   5.045
    1C        O  785   2.297   4.040   4.994
    1C        O  786   2.399   3.969   5.181
    1C        C  787   2.949   2.416   1.993
    1C        O  788   2.927   2.455   1.876
    1C        O  789   2.826   2.368   2.036
    1C        C  790   3.170   2.352   5.034
    1C        O  791   3.087   2.268   4.989
    1C        O  792   3.184   2.315   5.168
    1C        H  793   4.280   3.015   5.059
    1C        H  794   4.211   2.773   5.062
    1C        H  795   4.521   3.121   5.039
    1C        H  796   4.548   3.352   5.060
    1C        H  797   4.588   3.819   5.025
    1C        H  798   4.448   3.999   5.046
    1C        H  799   4.268   4.157   5.051
    1C        H  800   4.019   4.526   5.033
    1C        H  801   3.819   4.612   5.030
    1C        H  802   3.591   4.671   5.022
    1C        H  803   3.399   4.511   5.041
    1C        H  804   3.163   4.496   5.052
    1C        H  805   3.875   2.523   5.072
    1C        H  806   3.668   2.458   5.077
    1C        H  807   3.028   2.584   5.074
    1C        H  808   3.440   2.486   5.071
    1C        H  809   2.907   2.759   5.068
    1C        H  810   2.728   2.917   5.074
    1C        H  811   2.452   3.279   5.051
    1C        H  812   2.567   3.502   5.064
    1C        H  813   2.564   3.733   5.055
    1C        H  814   2.636   4.142   5.048
    1C        H  815   2.760   4.309   5.049
    1C        H  816   2.675   2.855   1.978
    1C        H  817   2.835   2.674   1.978
    1C        H  818   3.213   2.445   1.985
    1C        H  819   3.439   2.500   1.985
    1C        H  820   3.829   2.551   1.973
    1C        H  821   4.070   2.606   1.968
    1C        H  822   4.266   2.697   1.987
    1C        H  823   4.427   2.862   1.989
    1C        H  824   4.594   3.302   1.971
    1C        H  825   4.455   3.506   1.969
    1C        H  826   4.564   3.741   1.962
    1C        H  827   3.816   4.549   1.975
    1C        H  828   3.960   4.381   1.940
    1C        H  829   4.173   4.274   1.944
    1C        H  830   4.457   3.950   1.951
    1C        H  831   2.668   3.825   1.978
    1C        H  832   2.750   4.033   1.974
    1C        H  833   2.702   4.308   1.971
    1C        H  834   3.350   4.528   1.953
    1C        H  835   3.160   4.366   1.963
    1C        H  836   2.535   3.012   1.976
    1C        H  837   2.496   3.246   1.977
    1C        H  838   2.478   3.683   1.967
    2V3OU   H29  839   2.789   3.550   1.334
    2V3OU   C27  840   2.777   3.496   1.431
    2V3OU   H27  841   2.723   3.559   1.506
    2V3OU   H28  842   2.725   3.398   1.420
    2V3OU   O11  843   2.903   3.475   1.496
    2V3OU   C15  844   2.914   3.398   1.610
    2V3OU   C13  845   3.044   3.373   1.656
    2V3OU   C14  846   3.072   3.261   1.736
    2V3OU   C16  847   2.969   3.181   1.784
    2V3OU    H6  848   2.989   3.101   1.857
    2V3OU   C12  849   3.213   3.221   1.759
    2V3OU    O2  850   3.237   3.117   1.824
    2V3OU   C10  851   3.321   3.301   1.700
    2V3OU    C8  852   3.454   3.264   1.714
    2V3OU   O10  853   3.485   3.150   1.782
    2V3OU   H26  854   3.403   3.110   1.814
    2V3OU    C6  855   3.562   3.340   1.660
    2V3OU    C5  856   3.534   3.460   1.597
    2V3OU    C4  857   3.701   3.286   1.666
    2V3OU    H4  858   3.716   3.224   1.760
    2V3OU    H5  859   3.713   3.224   1.572
    2V3OU    C2  860   3.810   3.392   1.679
    2V3OU    O6  861   3.805   3.473   1.797
    2V3OU   H21  862   3.762   3.551   1.757
    2V3OU    C3  863   3.780   3.493   1.569
    2V3OU    H2  864   3.864   3.567   1.561
    2V3OU    H3  865   3.784   3.437   1.472
    2V3OU   C25  866   3.945   3.322   1.665
    2V3OU    O7  867   3.998   3.295   1.557
    2V3OU   C26  868   4.029   3.288   1.787
    2V3OU   H22  869   4.070   3.378   1.839
    2V3OU   H23  870   4.113   3.220   1.755
    2V3OU    O8  871   3.966   3.208   1.885
    2V3OU   H24  872   3.916   3.271   1.940
    2V3OU    C1  873   3.645   3.561   1.583
    2V3OU    H1  874   3.621   3.613   1.485
    2V3OU    O3  875   3.655   3.656   1.689
    2V3OU   C19  876   3.614   3.791   1.670
    2V3OU    H9  877   3.522   3.793   1.605
    2V3OU    O4  878   3.705   3.847   1.578
    2V3OU   C20  879   3.835   3.870   1.631
    2V3OU   H10  880   3.889   3.771   1.644
    2V3OU   C24  881   3.606   3.857   1.808
    2V3OU   H16  882   3.535   3.799   1.872
    2V3OU   H17  883   3.559   3.951   1.770
    2V3OU   C23  884   3.747   3.874   1.866
    2V3OU   H15  885   3.789   3.770   1.884
    2V3OU    N1  886   3.733   3.952   1.987
    2V3OU   H19  887   3.804   3.912   2.045
    2V3OU   H20  888   3.643   3.945   2.030
    2V3OU   C21  889   3.843   3.944   1.765
    2V3OU   H11  890   3.949   3.932   1.802
    2V3OU    O5  891   3.822   4.084   1.774
    2V3OU   H18  892   3.783   4.094   1.863
    2V3OU   C22  893   3.907   3.941   1.518
    2V3OU   H12  894   3.858   4.040   1.499
    2V3OU   H13  895   3.901   3.882   1.422
    2V3OU   H14  896   4.015   3.953   1.546
    2V3OU   C11  897   3.155   3.464   1.624
    2V3OU    O1  898   3.130   3.581   1.591
    2V3OU    C9  899   3.296   3.419   1.625
    2V3OU    C7  900   3.398   3.499   1.575
    2V3OU    O9  901   3.381   3.619   1.508
    2V3OU   H25  902   3.285   3.628   1.518
    2V3OU   C17  903   2.813   3.309   1.654
    2V3OU    H7  904   2.711   3.340   1.630
    2V3OU   C18  905   2.839   3.204   1.741
    2V3OU    H8  906   2.753   3.150   1.780
    3SOL     OW  907   1.558   3.079   0.679
    3SOL    HW1  908   1.570   3.135   0.597
    3SOL    HW2  909   1.497   3.003   0.659
    4SOL     OW  910   5.925   0.291   1.994
    4SOL    HW1  911   5.927   0.382   1.953
    4SOL    HW2  912   5.914   0.299   2.093
    5SOL     OW  913   3.101   1.925   1.158
    5SOL    HW1  914   3.011   1.951   1.123
    5SOL    HW2  915   3.158   2.006   1.169
    6SOL     OW  916   2.460   1.795   1.424
    6SOL    HW1  917   2.468   1.873   1.487
    6SOL    HW2  918   2.380   1.807   1.366
    7SOL     OW  919   6.276   1.426   1.567
    7SOL    HW1  920   6.321   1.510   1.536
    7SOL    HW2  921   6.261   1.432   1.666
    8SOL     OW  922   3.059   1.143   4.894
    8SOL    HW1  923   3.055   1.137   4.994
    8SOL    HW2  924   3.023   1.232   4.865
    9SOL     OW  925   1.413   3.731   5.666
    9SOL    HW1  926   1.477   3.657   5.645
    9SOL    HW2  927   1.394   3.783   5.583
   10SOL     OW  928   0.859   3.646   0.056
   10SOL    HW1  929   0.855   3.552   0.023
   10SOL    HW2  930   0.788   3.661   0.125
   11SOL     OW  931   3.754   6.892   6.950
   11SOL    HW1  932   3.830   6.938   6.996
   11SOL    HW2  933   3.776   6.795   6.939
   12SOL     OW  934   5.524   6.119   2.509
   12SOL    HW1  935   5.585   6.040   2.508
   12SOL    HW2  936   5.524   6.161   2.599
   13SOL     OW  937   2.496   6.321   3.463
   13SOL    HW1  938   2.453   6.232   3.478
   13SOL    HW2  939   2.495   6.374   3.548
   14SOL     OW  940   3.529   6.064   0.757
   14SOL    HW1  941   3.502   6.131   0.688
   14SOL    HW2  942   3.572   6.111   0.834
   15SOL     OW  943   1.743   6.315   6.908
   15SOL    HW1  944   1.674   6.362   6.853
   15SOL    HW2  945   1.758   6.364   6.993
   16SOL     OW  946   5.844   2.145   5.741
   16SOL    HW1  947   5.918   2.109   5.684
   16SOL    HW2  948   5.869   2.235   5.776
   17SOL     OW  949   5.273   6.527   4.523
   17SOL    HW1  950   5.224   6.524   4.610
   17SOL    HW2  951   5.336   6.604   4.523
   18SOL     OW  952   1.546   1.803   6.144
   18SOL    HW1  953   1.617   1.873   6.135
   18SOL    HW2  954   1.589   1.715   6.163
   19SOL     OW  955   0.930   0.074   2.391
   19SOL    HW1  956   0.850   0.054   2.447
   19SOL    HW2  957   0.948   7.014   2.330
   20SOL     OW  958   3.274   1.948   3.718
   20SOL    HW1  959   3.291   1.858   3.759
   20SOL    HW2  960   3.351   1.972   3.658
   21SOL     OW  961   2.990   2.169   1.231
   21SOL    HW1  962   2.937   2.206   1.307
   21SOL    HW2  963   3.087   2.180   1.249
   22SOL     OW  964   1.391   6.427   5.757
   22SOL    HW1  965   1.489   6.406   5.748
   22SOL    HW2  966   1.349   6.362   5.820
   23SOL     OW  967   3.899   6.680   4.499
   23SOL    HW1  968   3.886   6.738   4.419
   23SOL    HW2  969   3.869   6.728   4.581
   24SOL     OW  970   4.578   1.197   5.189
   24SOL    HW1  971   4.481   1.198   5.215
   24SOL    HW2  972   4.615   1.290   5.197
   25SOL     OW  973   3.505   5.517   0.473
   25SOL    HW1  974   3.568   5.481   0.543
   25SOL    HW2  975   3.411   5.506   0.504
   26SOL     OW  976   6.804   1.624   2.458
   26SOL    HW1  977   6.822   1.593   2.364
   26SOL    HW2  978   6.840   1.557   2.522
   27SOL     OW  979   5.975   6.546   2.709
   27SOL    HW1  980   5.979   6.646   2.712
   27SOL    HW2  981   6.058   6.510   2.666
   28SOL     OW  982   3.848   0.576   0.413
   28SOL    HW1  983   3.773   0.521   0.376
   28SOL    HW2  984   3.935   0.527   0.400
   29SOL     OW  985   4.479   2.063   1.323
   29SOL    HW1  986   4.443   2.112   1.243
   29SOL    HW2  987   4.432   2.095   1.405
   30SOL     OW  988   3.487   0.682   4.844
   30SOL    HW1  989   3.552   0.652   4.774
   30SOL    HW2  990   3.516   0.769   4.882
   31SOL     OW  991   0.100   0.601   5.369
   31SOL    HW1  992   0.039   0.553   5.433
   31SOL    HW2  993   0.091   0.561   5.278
   32SOL     OW  994   0.365   2.133   1.142
   32SOL    HW1  995   0.292   2.138   1.073
   32SOL    HW2  996   0.325   2.143   1.233
   33SOL     OW  997   1.988   2.319   6.231
   33SOL    HW1  998   1.991   2.255   6.308
   33SOL    HW2  999   1.907   2.301   6.175
   34SOL     OW 1000   1.374   0.491   4.701
   34SOL    HW1 1001   1.303   0.435   4.743
   34SOL    HW2 1002   1.333   0.551   4.632
   35SOL     OW 1003   5.091   1.724   6.645
   35SOL    HW1 1004   5.045   1.637   6.627
   35SOL    HW2 1005   5.107   1.734   6.743
   36SOL     OW 1006   1.630   2.039   5.464
   36SOL    HW1 1007   1.707   1.976   5.454
   36SOL    HW2 1008   1.651   2.125   5.417
   37SOL     OW 1009   3.150   6.598   1.692
   37SOL    HW1 1010   3.135   6.577   1.788
   37SOL    HW2 1011   3.088   6.671   1.663
   38SOL     OW 1012   6.961   6.250   3.465
   38SOL    HW1 1013   6.875   6.224   3.509
   38SOL    HW2 1014   6.950   6.338   3.419
   39SOL     OW 1015   6.960   3.526   5.025
   39SOL    HW1 1016   0.025   3.490   5.069
   39SOL    HW2 1017   6.966   3.625   5.019
   40SOL     OW 1018   6.601   0.918   1.926
   40SOL    HW1 1019   6.603   1.018   1.932
   40SOL    HW2 1020   6.673   0.880   1.984
   41SOL     OW 1021   1.258   6.882   5.691
   41SOL    HW1 1022   1.298   6.817   5.628
   41SOL    HW2 1023   1.244   6.838   5.780
   42SOL     OW 1024   3.850   1.011   0.492
   42SOL    HW1 1025   3.873   1.047   0.401
   42SOL    HW2 1026   3.853   1.085   0.559
   43SOL     OW 1027   5.627   5.967   5.231
   43SOL    HW1 1028   5.634   5.915   5.145
   43SOL    HW2 1029   5.610   5.905   5.307
   44SOL     OW 1030   0.376   3.021   5.716
   44SOL    HW1 1031   0.301   2.985   5.773
   44SOL    HW2 1032   0.442   2.947   5.699
   45SOL     OW 1033   2.381   0.372   1.862
   45SOL    HW1 1034   2.462   0.318   1.837
   45SOL    HW2 1035   2.363   0.440   1.791
   46SOL     OW 1036   1.527   3.966   4.510
   46SOL    HW1 1037   1.581   4.039   4.468
   46SOL    HW2 1038   1.506   3.990   4.604
   47SOL     OW 1039   6.402   4.752   3.618
   47SOL    HW1 1040   6.305   4.775   3.621
   47SOL    HW2 1041   6.425   4.713   3.529
   48SOL     OW 1042   0.081   2.340   5.198
   48SOL    HW1 1043   0.129   2.282   5.264
   48SOL    HW2 1044   0.149   2.388   5.142
   49SOL     OW 1045   4.844   2.246   0.947
   49SOL    HW1 1046   4.801   2.185   0.880
   49SOL    HW2 1047   4.818   2.217   1.039
   50SOL     OW 1048   6.776   4.028   4.631
   50SOL    HW1 1049   6.744   4.053   4.722
   50SOL    HW2 1050   6.759   4.103   4.567
   51SOL     OW 1051   3.534   4.950   2.593
   51SOL    HW1 1052   3.594   4.959   2.513
   51SOL    HW2 1053   3.516   5.041   2.631
   52SOL     OW 1054   2.378   1.846   2.155
   52SOL    HW1 1055   2.385   1.824   2.252
   52SOL    HW2 1056   2.409   1.940   2.140
   53SOL     OW 1057   5.378   0.016   4.127
   53SOL    HW1 1058   5.335   0.106   4.118
   53SOL    HW2 1059   5.367   7.000   4.220
   54SOL     OW 1060   4.260   5.313   5.899
   54SOL    HW1 1061   4.323   5.375   5.947
   54SOL    HW2 1062   4.297   5.292   5.808
   55SOL     OW 1063   3.866   2.207   6.889
   55SOL    HW1 1064   3.961   2.178   6.876
   55SOL    HW2 1065   3.853   2.238   6.983
   56SOL     OW 1066   1.455   0.182   2.271
   56SOL    HW1 1067   1.375   0.144   2.317
   56SOL    HW2 1068   1.448   0.282   2.269
   57SOL     OW 1069   5.728   0.611   0.248
   57SOL    HW1 1070   5.800   0.633   0.182
   57SOL    HW2 1071   5.751   0.525   0.294
   58SOL     OW 1072   0.245   6.000   0.057
   58SOL    HW1 1073   0.311   5.935   0.094
   58SOL    HW2 1074   0.270   6.093   0.086
   59SOL     OW 1075   1.541   0.430   5.595
   59SOL    HW1 1076   1.443   0.414   5.608
   59SOL    HW2 1077   1.593   0.376   5.661
   60SOL     OW 1078   4.473   6.913   4.954
   60SOL    HW1 1079   4.478   6.833   4.894
   60SOL    HW2 1080   4.498   6.886   5.047
   61SOL     OW 1081   4.486   0.210   4.184
   61SOL    HW1 1082   4.561   0.260   4.228
   61SOL    HW2 1083   4.399   0.236   4.226
   62SOL     OW 1084   1.736   0.786   4.636
   62SOL    HW1 1085   1.782   0.781   4.547
   62SOL    HW2 1086   1.763   0.708   4.692
   63SOL     OW 1087   0.134   3.028   2.905
   63SOL    HW1 1088   0.117   3.116   2.948
   63SOL    HW2 1089   0.060   2.965   2.928
   64SOL     OW 1090   0.067   4.186   5.668
   64SOL    HW1 1091   0.093   4.254   5.600
   64SOL    HW2 1092   0.149   4.148   5.710
   65SOL     OW 1093   6.512   4.747   5.670
   65SOL    HW1 1094   6.582   4.766   5.601
   65SOL    HW2 1095   6.550   4.762   5.761
   66SOL     OW 1096   2.964   0.715   0.477
   66SOL    HW1 1097   2.978   0.722   0.576
   66SOL    HW2 1098   2.866   0.712   0.457
   67SOL     OW 1099   5.446   5.627   4.683
   67SOL    HW1 1100   5.508   5.565   4.633
   67SOL    HW2 1101   5.387   5.675   4.617
   68SOL     OW 1102   5.666   2.067   5.541
   68SOL    HW1 1103   5.674   2.148   5.482
   68SOL    HW2 1104   5.742   2.067   5.607
   69SOL     OW 1105   2.995   3.744   6.263
   69SOL    HW1 1106   3.008   3.678   6.336
   69SOL    HW2 1107   3.039   3.830   6.288
   70SOL     OW 1108   0.170   5.303   2.704
   70SOL    HW1 1109   0.080   5.259   2.696
   70SOL    HW2 1110   0.186   5.359   2.622
   71SOL     OW 1111   1.379   2.738   3.048
   71SOL    HW1 1112   1.426   2.651   3.030
   71SOL    HW2 1113   1.374   2.753   3.146
   72SOL     OW 1114   2.505   5.480   3.993
   72SOL    HW1 1115   2.558   5.481   3.908
   72SOL    HW2 1116   2.435   5.408   3.988
   73SOL     OW 1117   4.458   2.579   0.216
   73SOL    HW1 1118   4.362   2.572   0.190
   73SOL    HW2 1119   4.465   2.615   0.309
   74SOL     OW 1120   5.291   6.127   6.481
   74SOL    HW1 1121   5.314   6.120   6.578
   74SOL    HW2 1122   5.375   6.121   6.427
   75SOL     OW 1123   3.714   5.813   5.590
   75SOL    HW1 1124   3.730   5.908   5.565
   75SOL    HW2 1125   3.783   5.784   5.656
   76SOL     OW 1126   2.542   3.025   1.669
   76SOL    HW1 1127   2.507   3.072   1.588
   76SOL    HW2 1128   2.611   2.959   1.641
   77SOL     OW 1129   5.711   5.556   6.067
   77SOL    HW1 1130   5.771   5.598   6.000
   77SOL    HW2 1131   5.650   5.492   6.021
   78SOL     OW 1132   6.677   6.799   5.828
   78SOL    HW1 1133   6.701   6.708   5.864
   78SOL    HW2 1134   6.700   6.802   5.730
   79SOL     OW 1135   2.947   6.910   0.556
   79SOL    HW1 1136   2.928   6.856   0.474
   79SOL    HW2 1137   2.989   6.997   0.529
   80SOL     OW 1138   0.142   1.397   4.315
   80SOL    HW1 1139   0.208   1.468   4.291
   80SOL    HW2 1140   0.190   1.317   4.351
   81SOL     OW 1141   1.710   0.811   2.859
   81SOL    HW1 1142   1.801   0.839   2.829
   81SOL    HW2 1143   1.692   0.849   2.949
   82SOL     OW 1144   0.053   4.671   6.156
   82SOL    HW1 1145   0.091   4.764   6.150
   82SOL    HW2 1146   0.125   4.608   6.186
   83SOL     OW 1147   0.389   6.856   0.593
   83SOL    HW1 1148   0.346   6.813   0.513
   83SOL    HW2 1149   0.413   6.950   0.571
   84SOL     OW 1150   5.246   3.731   1.573
   84SOL    HW1 1151   5.164   3.675   1.560
   84SOL    HW2 1152   5.287   3.710   1.662
   85SOL     OW 1153   0.886   2.630   5.230
   85SOL    HW1 1154   0.922   2.548   5.187
   85SOL    HW2 1155   0.795   2.650   5.194
   86SOL     OW 1156   0.680   0.915   5.726
   86SOL    HW1 1157   0.625   0.844   5.771
   86SOL    HW2 1158   0.777   0.893   5.735
   87SOL     OW 1159   5.004   1.275   0.635
   87SOL    HW1 1160   4.983   1.177   0.623
   87SOL    HW2 1161   4.957   1.327   0.564
   88SOL     OW 1162   5.347   1.201   1.108
   88SOL    HW1 1163   5.404   1.219   1.028
   88SOL    HW2 1164   5.261   1.253   1.100
   89SOL     OW 1165   1.525   2.663   5.908
   89SOL    HW1 1166   1.530   2.741   5.971
   89SOL    HW2 1167   1.615   2.647   5.868
   90SOL     OW 1168   5.389   6.222   3.981
   90SOL    HW1 1169   5.292   6.217   3.958
   90SOL    HW2 1170   5.400   6.258   4.073
   91SOL     OW 1171   4.752   4.297   5.097
   91SOL    HW1 1172   4.806   4.381   5.106
   91SOL    HW2 1173   4.713   4.293   5.005
   92SOL     OW 1174   3.441   4.883   1.483
   92SOL    HW1 1175   3.345   4.874   1.456
   92SOL    HW2 1176   3.447   4.915   1.578
   93SOL     OW 1177   3.239   5.714   5.979
   93SOL    HW1 1178   3.184   5.670   5.908
   93SOL    HW2 1179   3.303   5.648   6.019
   94SOL     OW 1180   2.791   5.731   0.353
   94SOL    HW1 1181   2.695   5.708   0.366
   94SOL    HW2 1182   2.828   5.677   0.278
   95SOL     OW 1183   0.347   0.270   4.346
   95SOL    HW1 1184   0.396   0.195   4.302
   95SOL    HW2 1185   0.340   0.253   4.444
   96SOL     OW 1186   2.120   6.942   5.438
   96SOL    HW1 1187   2.094   0.018   5.463
   96SOL    HW2 1188   2.058   6.909   5.366
   97SOL     OW 1189   5.862   3.259   4.404
   97SOL    HW1 1190   5.919   3.268   4.486
   97SOL    HW2 1191   5.784   3.321   4.411
   98SOL     OW 1192   5.359   2.375   5.984
   98SOL    HW1 1193   5.459   2.383   5.983
   98SOL    HW2 1194   5.319   2.458   5.946
   99SOL     OW 1195   4.149   1.796   0.885
   99SOL    HW1 1196   4.156   1.737   0.965
   99SOL    HW2 1197   4.170   1.890   0.911
  100SOL     OW 1198   0.724   5.662   6.813
  100SOL    HW1 1199   0.690   5.570   6.832
  100SOL    HW2 1200   0.651   5.728   6.831
  101SOL     OW 1201   1.910   6.457   3.647
  101SOL    HW1 1202   1.873   6.487   3.559
  101SOL    HW2 1203   1.904   6.357   3.653
  102SOL     OW 1204   4.492   0.085   3.951
  102SOL    HW1 1205   4.539   0.123   3.871
  102SOL    HW2 1206   4.503   0.147   4.028
  103SOL     OW 1207   3.910   2.127   1.367
  103SOL    HW1 1208   4.001   2.114   1.406
  103SOL    HW2 1209   3.867   2.207   1.410
  104SOL     OW 1210   0.499   6.069   2.233
  104SOL    HW1 1211   0.552   6.054   2.316
  104SOL    HW2 1212   0.485   5.982   2.186
  105SOL     OW 1213   5.306   1.116   6.070
  105SOL    HW1 1214   5.383   1.080   6.122
  105SOL    HW2 1215   5.249   1.173   6.129
  106SOL     OW 1216   2.813   6.507   6.556
  106SOL    HW1 1217   2.815   6.493   6.457
  106SOL    HW2 1218   2.740   6.572   6.578
  107SOL     OW 1219   2.607   2.865   0.717
  107SOL    HW1 1220   2.646   2.860   0.809
  107SOL    HW2 1221   2.508   2.871   0.722
  108SOL     OW 1222   4.915   4.251   5.815
  108SOL    HW1 1223   4.917   4.288   5.908
  108SOL    HW2 1224   5.006   4.215   5.792
  109SOL     OW 1225   6.583   0.681   0.926
  109SOL    HW1 1226   6.498   0.636   0.954
  109SOL    HW2 1227   6.582   0.697   0.828
  110SOL     OW 1228   3.853   5.799   4.995
  110SOL    HW1 1229   3.783   5.731   4.970
  110SOL    HW2 1230   3.887   5.780   5.087
  111SOL     OW 1231   3.737   0.860   3.544
  111SOL    HW1 1232   3.771   0.822   3.630
  111SOL    HW2 1233   3.733   0.788   3.475
  112SOL     OW 1234   6.849   6.575   5.946
  112SOL    HW1 1235   6.789   6.497   5.962
  112SOL    HW2 1236   6.887   6.605   6.033
  113SOL     OW 1237   0.154   5.015   3.334
  113SOL    HW1 1238   0.190   5.102   3.301
  113SOL    HW2 1239   0.212   4.981   3.408
  114SOL     OW 1240   0.595   6.934   0.023
  114SOL    HW1 1241   0.630   6.841   0.022
  114SOL    HW2 1242   0.637   6.986   6.966
  115SOL     OW 1243   5.168   1.384   4.619
  115SOL    HW1 1244   5.120   1.423   4.697
  115SOL    HW2 1245   5.194   1.457   4.556
  116SOL     OW 1246   6.227   4.491   2.057
  116SOL    HW1 1247   6.251   4.410   2.003
  116SOL    HW2 1248   6.150   4.538   2.014
  117SOL     OW 1249   1.742   0.088   6.267
  117SOL    HW1 1250   1.808   0.057   6.199
  117SOL    HW2 1251   1.655   0.041   6.253
  118SOL     OW 1252   0.554   0.365   2.061
  118SOL    HW1 1253   0.543   0.461   2.088
  118SOL    HW2 1254   0.647   0.351   2.027
  119SOL     OW 1255   6.844   2.554   5.762
  119SOL    HW1 1256   6.756   2.594   5.786
  119SOL    HW2 1257   6.850   2.543   5.662
  120SOL     OW 1258   5.869   6.761   0.850
  120SOL    HW1 1259   5.891   6.844   0.798
  120SOL    HW2 1260   5.797   6.711   0.803
  121SOL     OW 1261   2.758   3.538   6.070
  121SOL    HW1 1262   2.714   3.503   5.988
  121SOL    HW2 1263   2.748   3.637   6.074
  122SOL     OW 1264   0.823   3.249   4.281
  122SOL    HW1 1265   0.829   3.346   4.304
  122SOL    HW2 1266   0.913   3.207   4.292
  123SOL     OW 1267   0.619   2.074   1.173
  123SOL    HW1 1268   0.649   2.111   1.261
  123SOL    HW2 1269   0.524   2.100   1.156
  124SOL     OW 1270   4.515   3.183   1.119
  124SOL    HW1 1271   4.446   3.225   1.178
  124SOL    HW2 1272   4.599   3.237   1.121
  125SOL     OW 1273   1.570   2.557   1.883
  125SOL    HW1 1274   1.584   2.569   1.785
  125SOL    HW2 1275   1.657   2.564   1.930
  126SOL     OW 1276   3.191   4.870   1.359
  126SOL    HW1 1277   3.194   4.812   1.277
  126SOL    HW2 1278   3.155   4.960   1.334
  127SOL     OW 1279   0.037   6.006   6.087
  127SOL    HW1 1280   0.071   6.021   5.994
  127SOL    HW2 1281   6.964   5.962   6.083
  128SOL     OW 1282   4.709   2.214   1.399
  128SOL    HW1 1283   4.629   2.160   1.374
  128SOL    HW2 1284   4.787   2.184   1.345
  129SOL     OW 1285   2.763   3.813   6.543
  129SOL    HW1 1286   2.846   3.805   6.487
  129SOL    HW2 1287   2.746   3.727   6.591
  130SOL     OW 1288   1.481   1.463   4.491
  130SOL    HW1 1289   1.404   1.488   4.432
  130SOL    HW2 1290   1.449   1.454   4.585
  131SOL     OW 1291   4.504   1.673   3.137
  131SOL    HW1 1292   4.440   1.712   3.203
  131SOL    HW2 1293   4.524   1.579   3.162
  132SOL     OW 1294   1.283   2.594   1.330
  132SOL    HW1 1295   1.341   2.674   1.313
  132SOL    HW2 1296   1.226   2.611   1.410
  133SOL     OW 1297   6.618   5.803   2.579
  133SOL    HW1 1298   6.542   5.791   2.515
  133SOL    HW2 1299   6.582   5.812   2.672
  134SOL     OW 1300   6.969   3.863   2.881
  134SOL    HW1 1301   6.883   3.869   2.931
  134SOL    HW2 1302   6.952   3.829   2.788
  135SOL     OW 1303   4.856   1.442   4.101
  135SOL    HW1 1304   4.853   1.405   4.193
  135SOL    HW2 1305   4.764   1.452   4.065
  136SOL     OW 1306   5.361   4.394   5.504
  136SOL    HW1 1307   5.407   4.332   5.439
  136SOL    HW2 1308   5.378   4.489   5.478
  137SOL     OW 1309   4.196   0.037   5.555
  137SOL    HW1 1310   4.274   0.043   5.492
  137SOL    HW2 1311   4.176   0.127   5.593
  138SOL     OW 1312   6.909   5.297   4.959
  138SOL    HW1 1313   6.991   5.295   4.903
  138SOL    HW2 1314   6.923   5.241   5.041
  139SOL     OW 1315   3.222   4.743   5.249
  139SOL    HW1 1316   3.163   4.670   5.283
  139SOL    HW2 1317   3.309   4.742   5.299
  140SOL     OW 1318   5.914   4.730   4.705
  140SOL    HW1 1319   5.973   4.777   4.771
  140SOL    HW2 1320   5.966   4.709   4.622
  141SOL     OW 1321   1.146   2.028   4.380
  141SOL    HW1 1322   1.088   2.068   4.451
  141SOL    HW2 1323   1.242   2.050   4.398
  142SOL     OW 1324   1.830   5.928   1.049
  142SOL    HW1 1325   1.899   5.859   1.028
  142SOL    HW2 1326   1.790   5.908   1.138
  143SOL     OW 1327   5.560   4.528   2.064
  143SOL    HW1 1328   5.593   4.583   1.987
  143SOL    HW2 1329   5.475   4.568   2.098
  144SOL     OW 1330   2.383   6.943   6.824
  144SOL    HW1 1331   2.307   6.928   6.888
  144SOL    HW2 1332   2.359   6.907   6.734
  145SOL     OW 1333   0.058   5.870   0.753
  145SOL    HW1 1334   0.137   5.914   0.712
  145SOL    HW2 1335   7.012   5.839   0.682
  146SOL     OW 1336   4.846   5.691   0.768
  146SOL    HW1 1337   4.808   5.777   0.735
  146SOL    HW2 1338   4.944   5.702   0.786
  147SOL     OW 1339   6.396   2.024   1.282
  147SOL    HW1 1340   6.352   2.074   1.208
  147SOL    HW2 1341   6.365   1.929   1.281
  148SOL     OW 1342   1.198   5.228   5.746
  148SOL    HW1 1343   1.164   5.152   5.801
  148SOL    HW2 1344   1.187   5.313   5.798
  149SOL     OW 1345   3.355   1.236   4.508
  149SOL    HW1 1346   3.441   1.235   4.559
  149SOL    HW2 1347   3.345   1.149   4.458
  150SOL     OW 1348   0.310   4.925   6.781
  150SOL    HW1 1349   0.223   4.962   6.814
  150SOL    HW2 1350   0.306   4.914   6.682
  151SOL     OW 1351   4.126   1.601   1.701
  151SOL    HW1 1352   4.033   1.610   1.736
  151SOL    HW2 1353   4.176   1.686   1.719
  152SOL     OW 1354   3.332   0.782   4.177
  152SOL    HW1 1355   3.265   0.756   4.247
  152SOL    HW2 1356   3.287   0.833   4.104
  153SOL     OW 1357   1.816   1.241   3.221
  153SOL    HW1 1358   1.810   1.160   3.163
  153SOL    HW2 1359   1.816   1.323   3.164
  154SOL     OW 1360   6.489   2.405   2.261
  154SOL    HW1 1361   6.397   2.378   2.288
  154SOL    HW2 1362   6.554   2.333   2.286
  155SOL     OW 1363   0.040   0.802   2.754
  155SOL    HW1 1364   0.059   0.719   2.702
  155SOL    HW2 1365   0.007   0.874   2.692
  156SOL     OW 1366   6.298   2.040   0.751
  156SOL    HW1 1367   6.311   1.942   0.768
  156SOL    HW2 1368   6.210   2.055   0.707
  157SOL     OW 1369   6.073   3.647   2.592
  157SOL    HW1 1370   6.142   3.689   2.651
  157SOL    HW2 1371   6.043   3.560   2.633
  158SOL     OW 1372   2.555   1.176   2.771
  158SOL    HW1 1373   2.475   1.233   2.789
  158SOL    HW2 1374   2.546   1.135   2.680
  159SOL     OW 1375   4.772   4.092   1.958
  159SOL    HW1 1376   4.694   4.154   1.955
  159SOL    HW2 1377   4.801   4.079   2.053
  160SOL     OW 1378   6.408   4.286   5.914
  160SOL    HW1 1379   6.470   4.358   5.943
  160SOL    HW2 1380   6.402   4.284   5.814
  161SOL     OW 1381   2.033   5.236   4.945
  161SOL    HW1 1382   2.000   5.146   4.973
  161SOL    HW2 1383   2.050   5.236   4.847
  162SOL     OW 1384   4.240   5.398   1.271
  162SOL    HW1 1385   4.279   5.462   1.337
  162SOL    HW2 1386   4.309   5.374   1.203
  163SOL     OW 1387   4.491   0.740   2.313
  163SOL    HW1 1388   4.481   0.799   2.393
  163SOL    HW2 1389   4.427   0.662   2.321
  164SOL     OW 1390   5.941   3.484   1.142
  164SOL    HW1 1391   5.935   3.436   1.230
  164SOL    HW2 1392   5.849   3.506   1.110
  165SOL     OW 1393   4.873   3.322   6.765
  165SOL    HW1 1394   4.821   3.407   6.758
  165SOL    HW2 1395   4.942   3.331   6.837
  166SOL     OW 1396   0.730   6.967   2.557
  166SOL    HW1 1397   0.698   6.903   2.627
  166SOL    HW2 1398   0.673   6.957   2.475
  167SOL     OW 1399   6.140   3.039   6.928
  167SOL    HW1 1400   6.054   2.998   6.898
  167SOL    HW2 1401   6.172   3.104   6.859
  168SOL     OW 1402   2.319   5.374   0.881
  168SOL    HW1 1403   2.282   5.317   0.808
  168SOL    HW2 1404   2.315   5.324   0.968
  169SOL     OW 1405   2.081   6.945   1.873
  169SOL    HW1 1406   2.132   0.002   1.917
  169SOL    HW2 1407   1.987   6.944   1.908
  170SOL     OW 1408   0.408   1.528   3.282
  170SOL    HW1 1409   0.380   1.516   3.377
  170SOL    HW2 1410   0.440   1.622   3.269
  171SOL     OW 1411   3.924   3.833   0.001
  171SOL    HW1 1412   3.841   3.855   6.968
  171SOL    HW2 1413   3.947   3.909   0.063
  172SOL     OW 1414   6.897   2.444   5.024
  172SOL    HW1 1415   6.821   2.388   4.991
  172SOL    HW2 1416   6.954   2.390   5.085
  173SOL     OW 1417   0.285   6.866   5.499
  173SOL    HW1 1418   0.245   6.957   5.506
  173SOL    HW2 1419   0.379   6.872   5.467
  174SOL     OW 1420   2.498   5.228   3.798
  174SOL    HW1 1421   2.485   5.142   3.748
  174SOL    HW2 1422   2.577   5.277   3.760
  175SOL     OW 1423   1.352   5.367   2.685
  175SOL    HW1 1424   1.343   5.286   2.742
  175SOL    HW2 1425   1.353   5.449   2.743
  176SOL     OW 1426   2.347   4.060   0.666
  176SOL    HW1 1427   2.248   4.058   0.674
  176SOL    HW2 1428   2.388   4.022   0.750
  177SOL     OW 1429   4.810   1.764   2.482
  177SOL    HW1 1430   4.904   1.736   2.504
  177SOL    HW2 1431   4.775   1.707   2.408
  178SOL     OW 1432   5.309   4.865   6.671
  178SOL    HW1 1433   5.311   4.942   6.607
  178SOL    HW2 1434   5.274   4.895   6.759
  179SOL     OW 1435   3.071   0.131   0.541
  179SOL    HW1 1436   3.038   0.216   0.500
  179SOL    HW2 1437   3.063   0.138   0.641
  180SOL     OW 1438   0.458   1.969   6.978
  180SOL    HW1 1439   0.435   1.895   6.915
  180SOL    HW2 1440   0.498   1.931   0.044
  181SOL     OW 1441   3.686   3.134   5.414
  181SOL    HW1 1442   3.764   3.196   5.425
  181SOL    HW2 1443   3.608   3.186   5.378
  182SOL     OW 1444   4.004   2.101   4.903
  182SOL    HW1 1445   4.025   2.146   4.990
  182SOL    HW2 1446   3.913   2.130   4.872
  183SOL     OW 1447   5.117   1.060   1.926
  183SOL    HW1 1448   5.077   1.152   1.930
  183SOL    HW2 1449   5.216   1.068   1.914
  184SOL     OW 1450   6.927   4.678   3.161
  184SOL    HW1 1451   6.984   4.714   3.234
  184SOL    HW2 1452   6.911   4.580   3.176
  185SOL     OW 1453   1.886   3.645   5.925
  185SOL    HW1 1454   1.895   3.652   5.825
  185SOL    HW2 1455   1.965   3.597   5.962
  186SOL     OW 1456   5.724   0.236   3.163
  186SOL    HW1 1457   5.651   0.177   3.131
  186SOL    HW2 1458   5.705   0.267   3.256
  187SOL     OW 1459   5.691   1.077   3.954
  187SOL    HW1 1460   5.718   1.087   4.050
  187SOL    HW2 1461   5.595   1.048   3.949
  188SOL     OW 1462   6.099   2.308   3.468
  188SOL    HW1 1463   6.061   2.394   3.434
  188SOL    HW2 1464   6.144   2.323   3.556
  189SOL     OW 1465   1.975   4.450   2.511
  189SOL    HW1 1466   2.055   4.501   2.481
  189SOL    HW2 1467   1.992   4.352   2.499
  190SOL     OW 1468   3.661   1.009   5.479
  190SOL    HW1 1469   3.579   1.063   5.499
  190SOL    HW2 1470   3.636   0.930   5.424
  191SOL     OW 1471   5.625   5.812   6.681
  191SOL    HW1 1472   5.635   5.830   6.779
  191SOL    HW2 1473   5.705   5.848   6.632
  192SOL     OW 1474   0.088   0.742   1.899
  192SOL    HW1 1475   7.015   0.722   1.858
  192SOL    HW2 1476   0.084   0.725   1.997
  193SOL     OW 1477   5.612   3.815   0.032
  193SOL    HW1 1478   5.549   3.891   0.049
  193SOL    HW2 1479   5.635   3.771   0.118
  194SOL     OW 1480   3.758   0.425   3.708
  194SOL    HW1 1481   3.668   0.467   3.706
  194SOL    HW2 1482   3.760   0.354   3.779
  195SOL     OW 1483   0.931   5.960   3.386
  195SOL    HW1 1484   0.865   5.968   3.312
  195SOL    HW2 1485   1.019   5.998   3.357
  196SOL     OW 1486   1.115   2.180   0.101
  196SOL    HW1 1487   1.018   2.198   0.116
  196SOL    HW2 1488   1.169   2.257   0.135
  197SOL     OW 1489   1.573   1.037   0.532
  197SOL    HW1 1490   1.670   1.012   0.532
  197SOL    HW2 1491   1.517   0.954   0.542
  198SOL     OW 1492   3.144   2.189   3.686
  198SOL    HW1 1493   3.220   2.151   3.633
  198SOL    HW2 1494   3.162   2.176   3.784
  199SOL     OW 1495   1.101   2.572   4.027
  199SOL    HW1 1496   1.163   2.645   4.055
  199SOL    HW2 1497   1.105   2.560   3.928
  200SOL     OW 1498   6.784   2.637   0.217
  200SOL    HW1 1499   6.691   2.673   0.210
  200SOL    HW2 1500   6.815   2.606   0.127
  201SOL     OW 1501   0.505   0.709   6.350
  201SOL    HW1 1502   0.500   0.799   6.305
  201SOL    HW2 1503   0.583   0.708   6.413
  202SOL     OW 1504   4.548   6.831   0.005
  202SOL    HW1 1505   4.539   6.896   6.946
  202SOL    HW2 1506   4.467   6.835   0.063
  203SOL     OW 1507   5.664   2.951   5.552
  203SOL    HW1 1508   5.565   2.954   5.568
  203SOL    HW2 1509   5.682   2.903   5.466
  204SOL     OW 1510   6.224   1.095   5.682
  204SOL    HW1 1511   6.153   1.025   5.690
  204SOL    HW2 1512   6.298   1.075   5.746
  205SOL     OW 1513   0.926   2.911   2.228
  205SOL    HW1 1514   0.896   2.872   2.141
  205SOL    HW2 1515   1.024   2.930   2.223
  206SOL     OW 1516   0.556   3.107   0.598
  206SOL    HW1 1517   0.540   3.072   0.690
  206SOL    HW2 1518   0.593   3.199   0.603
  207SOL     OW 1519   5.402   2.343   4.216
  207SOL    HW1 1520   5.469   2.309   4.283
  207SOL    HW2 1521   5.311   2.342   4.258
  208SOL     OW 1522   0.995   4.235   4.315
  208SOL    HW1 1523   1.026   4.314   4.263
  208SOL    HW2 1524   1.044   4.153   4.285
  209SOL     OW 1525   6.520   3.997   2.612
  209SOL    HW1 1526   6.522   4.089   2.572
  209SOL    HW2 1527   6.610   3.975   2.651
  210SOL     OW 1528   4.477   2.612   6.963
  210SOL    HW1 1529   4.559   2.650   6.921
  210SOL    HW2 1530   4.476   2.633   0.044
  211SOL     OW 1531   0.277   1.501   3.040
  211SOL    HW1 1532   0.304   1.472   3.132
  211SOL    HW2 1533   0.356   1.540   2.993
  212SOL     OW 1534   1.917   3.677   2.925
  212SOL    HW1 1535   1.952   3.752   2.868
  212SOL    HW2 1536   1.823   3.657   2.900
  213SOL     OW 1537   1.782   4.853   0.987
  213SOL    HW1 1538   1.771   4.773   0.928
  213SOL    HW2 1539   1.852   4.913   0.949
  214SOL     OW 1540   4.247   5.805   2.648
  214SOL    HW1 1541   4.163   5.859   2.654
  214SOL    HW2 1542   4.320   5.861   2.609
  215SOL     OW 1543   2.422   4.971   2.646
  215SOL    HW1 1544   2.463   5.020   2.570
  215SOL    HW2 1545   2.386   4.883   2.613
  216SOL     OW 1546   1.169   6.807   2.680
  216SOL    HW1 1547   1.118   6.771   2.758
  216SOL    HW2 1548   1.206   6.897   2.702
  217SOL     OW 1549   1.852   4.225   6.349
  217SOL    HW1 1550   1.840   4.237   6.448
  217SOL    HW2 1551   1.903   4.302   6.312
  218SOL     OW 1552   0.822   2.069   5.130
  218SOL    HW1 1553   0.854   2.079   5.225
  218SOL    HW2 1554   0.893   2.025   5.076
  219SOL     OW 1555   3.910   1.666   0.780
  219SOL    HW1 1556   3.851   1.680   0.860
  219SOL    HW2 1557   4.004   1.689   0.803
  220SOL     OW 1558   3.070   6.572   0.829
  220SOL    HW1 1559   3.112   6.559   0.919
  220SOL    HW2 1560   3.100   6.659   0.790
  221SOL     OW 1561   4.773   6.032   1.598
  221SOL    HW1 1562   4.694   5.971   1.591
  221SOL    HW2 1563   4.770   6.081   1.685
  222SOL     OW 1564   2.241   4.762   6.152
  222SOL    HW1 1565   2.243   4.712   6.065
  222SOL    HW2 1566   2.158   4.816   6.157
  223SOL     OW 1567   6.519   2.687   5.257
  223SOL    HW1 1568   6.419   2.693   5.256
  223SOL    HW2 1569   6.549   2.612   5.199
  224SOL     OW 1570   2.638   1.559   6.243
  224SOL    HW1 1571   2.616   1.464   6.224
  224SOL    HW2 1572   2.595   1.617   6.173
  225SOL     OW 1573   4.813   5.169   5.976
  225SOL    HW1 1574   4.758   5.182   6.059
  225SOL    HW2 1575   4.752   5.167   5.897
  226SOL     OW 1576   1.225   2.203   6.501
  226SOL    HW1 1577   1.142   2.153   6.524
  226SOL    HW2 1578   1.217   2.298   6.532
  227SOL     OW 1579   1.007   3.988   1.869
  227SOL    HW1 1580   1.018   3.989   1.969
  227SOL    HW2 1581   1.007   4.083   1.835
  228SOL     OW 1582   1.814   6.687   2.430
  228SOL    HW1 1583   1.905   6.658   2.462
  228SOL    HW2 1584   1.768   6.610   2.387
  229SOL     OW 1585   5.095   5.782   6.186
  229SOL    HW1 1586   5.145   5.836   6.119
  229SOL    HW2 1587   5.042   5.711   6.140
  230SOL     OW 1588   4.777   5.597   5.270
  230SOL    HW1 1589   4.829   5.618   5.188
  230SOL    HW2 1590   4.799   5.663   5.342
  231SOL     OW 1591   5.464   1.245   6.993
  231SOL    HW1 1592   5.481   1.221   6.897
  231SOL    HW2 1593   5.473   1.344   7.004
  232SOL     OW 1594   1.615   3.015   5.843
  232SOL    HW1 1595   1.561   3.094   5.812
  232SOL    HW2 1596   1.643   3.029   5.938
  233SOL     OW 1597   2.787   1.468   3.326
  233SOL    HW1 1598   2.715   1.537   3.340
  233SOL    HW2 1599   2.747   1.377   3.333
  234SOL     OW 1600   4.581   1.369   6.751
  234SOL    HW1 1601   4.575   1.311   6.833
  234SOL    HW2 1602   4.587   1.465   6.779
  235SOL     OW 1603   4.648   2.404   2.687
  235SOL    HW1 1604   4.747   2.416   2.682
  235SOL    HW2 1605   4.609   2.402   2.595
  236SOL     OW 1606   4.328   4.463   6.311
  236SOL    HW1 1607   4.354   4.559   6.323
  236SOL    HW2 1608   4.316   4.444   6.213
  237SOL     OW 1609   6.312   3.786   2.946
  237SOL    HW1 1610   6.318   3.810   3.043
  237SOL    HW2 1611   6.346   3.693   2.933
  238SOL     OW 1612   6.744   1.413   0.382
  238SOL    HW1 1613   6.655   1.440   0.344
  238SOL    HW2 1614   6.747   1.438   0.479
  239SOL     OW 1615   0.811   3.987   0.231
  239SOL    HW1 1616   0.902   3.981   0.189
  239SOL    HW2 1617   0.813   3.944   0.321
  240SOL     OW 1618   6.108   2.807   3.182
  240SOL    HW1 1619   6.090   2.830   3.087
  240SOL    HW2 1620   6.046   2.857   3.242
  241SOL     OW 1621   2.879   1.614   3.709
  241SOL    HW1 1622   2.809   1.647   3.646
  241SOL    HW2 1623   2.970   1.635   3.672
  242SOL     OW 1624   3.721   3.461   3.104
  242SOL    HW1 1625   3.663   3.533   3.143
  242SOL    HW2 1626   3.773   3.418   3.177
  243SOL     OW 1627   4.871   2.448   6.067
  243SOL    HW1 1628   4.874   2.444   5.967
  243SOL    HW2 1629   4.964   2.447   6.103
  244SOL     OW 1630   5.177   3.331   5.559
  244SOL    HW1 1631   5.196   3.358   5.464
  244SOL    HW2 1632   5.125   3.246   5.559
  245SOL     OW 1633   3.693   1.989   2.387
  245SOL    HW1 1634   3.642   1.918   2.436
  245SOL    HW2 1635   3.738   2.049   2.454
  246SOL     OW 1636   6.325   1.361   2.492
  246SOL    HW1 1637   6.282   1.392   2.407
  246SOL    HW2 1638   6.409   1.413   2.508
  247SOL     OW 1639   2.039   1.561   1.211
  247SOL    HW1 1640   1.988   1.619   1.149
  247SOL    HW2 1641   1.983   1.540   1.291
  248SOL     OW 1642   1.676   2.238   2.121
  248SOL    HW1 1643   1.717   2.306   2.181
  248SOL    HW2 1644   1.588   2.210   2.157
  249SOL     OW 1645   5.605   6.324   4.883
  249SOL    HW1 1646   5.528   6.386   4.893
  249SOL    HW2 1647   5.647   6.309   4.973
  250SOL     OW 1648   3.656   2.635   1.387
  250SOL    HW1 1649   3.689   2.626   1.481
  250SOL    HW2 1650   3.734   2.639   1.324
  251SOL     OW 1651   4.079   4.024   5.708
  251SOL    HW1 1652   4.096   4.018   5.807
  251SOL    HW2 1653   4.139   4.093   5.669
  252SOL     OW 1654   6.022   6.093   5.759
  252SOL    HW1 1655   6.033   6.072   5.662
  252SOL    HW2 1656   6.105   6.139   5.792
  253SOL     OW 1657   4.282   5.925   6.195
  253SOL    HW1 1658   4.367   5.940   6.145
  253SOL    HW2 1659   4.293   5.958   6.289
  254SOL     OW 1660   5.893   2.567   4.828
  254SOL    HW1 1661   5.840   2.578   4.912
  254SOL    HW2 1662   5.941   2.479   4.830
  255SOL     OW 1663   1.744   4.645   5.691
  255SOL    HW1 1664   1.765   4.704   5.768
  255SOL    HW2 1665   1.827   4.600   5.659
  256SOL     OW 1666   4.986   2.471   4.770
  256SOL    HW1 1667   5.035   2.537   4.826
  256SOL    HW2 1668   4.940   2.518   4.694
  257SOL     OW 1669   4.905   6.187   2.896
  257SOL    HW1 1670   4.985   6.224   2.945
  257SOL    HW2 1671   4.915   6.088   2.887
  258SOL     OW 1672   2.224   3.663   6.100
  258SOL    HW1 1673   2.207   3.710   6.186
  258SOL    HW2 1674   2.170   3.579   6.096
  259SOL     OW 1675   4.027   0.129   3.774
  259SOL    HW1 1676   4.104   0.173   3.728
  259SOL    HW2 1677   4.002   0.046   3.724
  260SOL     OW 1678   3.730   5.395   3.520
  260SOL    HW1 1679   3.762   5.300   3.518
  260SOL    HW2 1680   3.661   5.410   3.450
  261SOL     OW 1681   4.357   4.553   6.947
  261SOL    HW1 1682   4.395   4.579   6.858
  261SOL    HW2 1683   4.412   4.595   0.003
  262SOL     OW 1684   2.265   3.934   0.322
  262SOL    HW1 1685   2.299   4.026   0.345
  262SOL    HW2 1686   2.292   3.911   0.228
  263SOL     OW 1687   1.347   6.212   4.155
  263SOL    HW1 1688   1.368   6.257   4.242
  263SOL    HW2 1689   1.392   6.123   4.151
  264SOL     OW 1690   0.106   3.242   6.452
  264SOL    HW1 1691   0.110   3.224   6.550
  264SOL    HW2 1692   0.011   3.232   6.420
  265SOL     OW 1693   6.639   6.947   4.270
  265SOL    HW1 1694   6.689   6.876   4.320
  265SOL    HW2 1695   6.571   6.904   4.211
  266SOL     OW 1696   3.796   1.453   5.552
  266SOL    HW1 1697   3.834   1.446   5.460
  266SOL    HW2 1698   3.781   1.362   5.589
  267SOL     OW 1699   1.857   0.850   5.055
  267SOL    HW1 1700   1.956   0.860   5.043
  267SOL    HW2 1701   1.810   0.885   4.974
  268SOL     OW 1702   3.134   1.319   0.845
  268SOL    HW1 1703   3.066   1.372   0.794
  268SOL    HW2 1704   3.106   1.223   0.845
  269SOL     OW 1705   4.045   1.819   0.032
  269SOL    HW1 1706   4.135   1.786   0.062
  269SOL    HW2 1707   4.055   1.911   7.011
  270SOL     OW 1708   6.496   6.873   0.287
  270SOL    HW1 1709   6.511   6.940   0.214
  270SOL    HW2 1710   6.536   6.908   0.372
  271SOL     OW 1711   0.256   2.294   5.501
  271SOL    HW1 1712   0.214   2.204   5.491
  271SOL    HW2 1713   0.185   2.362   5.522
  272SOL     OW 1714   2.728   6.226   3.682
  272SOL    HW1 1715   2.710   6.322   3.663
  272SOL    HW2 1716   2.768   6.182   3.601
  273SOL     OW 1717   1.703   5.210   6.199
  273SOL    HW1 1718   1.783   5.267   6.182
  273SOL    HW2 1719   1.649   5.203   6.115
  274SOL     OW 1720   4.589   1.070   3.556
  274SOL    HW1 1721   4.602   1.003   3.482
  274SOL    HW2 1722   4.534   1.029   3.628
  275SOL     OW 1723   0.107   6.537   2.814
  275SOL    HW1 1724   0.176   6.466   2.828
  275SOL    HW2 1725   0.036   6.529   2.884
  276SOL     OW 1726   0.494   0.582   4.676
  276SOL    HW1 1727   0.543   0.668   4.666
  276SOL    HW2 1728   0.480   0.562   4.773
  277SOL     OW 1729   2.606   3.090   0.456
  277SOL    HW1 1730   2.682   3.067   0.517
  277SOL    HW2 1731   2.638   3.156   0.388
  278SOL     OW 1732   0.152   2.419   2.556
  278SOL    HW1 1733   0.094   2.401   2.635
  278SOL    HW2 1734   0.170   2.517   2.550
  279SOL     OW 1735   5.707   2.452   4.405
  279SOL    HW1 1736   5.649   2.374   4.427
  279SOL    HW2 1737   5.803   2.423   4.404
  280SOL     OW 1738   1.605   4.518   1.801
  280SOL    HW1 1739   1.524   4.466   1.773
  280SOL    HW2 1740   1.666   4.528   1.722
  281SOL     OW 1741   2.545   4.137   0.510
  281SOL    HW1 1742   2.635   4.095   0.522
  281SOL    HW2 1743   2.478   4.088   0.566
  282SOL     OW 1744   3.355   1.977   5.649
  282SOL    HW1 1745   3.369   2.025   5.563
  282SOL    HW2 1746   3.259   1.950   5.657
  283SOL     OW 1747   5.273   2.939   6.005
  283SOL    HW1 1748   5.328   2.980   5.932
  283SOL    HW2 1749   5.324   2.942   6.091
  284SOL     OW 1750   0.525   3.805   4.136
  284SOL    HW1 1751   0.525   3.900   4.168
  284SOL    HW2 1752   0.572   3.747   4.202
  285SOL     OW 1753   5.765   4.299   4.208
  285SOL    HW1 1754   5.811   4.385   4.184
  285SOL    HW2 1755   5.828   4.242   4.261
  286SOL     OW 1756   3.180   3.682   6.676
  286SOL    HW1 1757   3.110   3.647   6.614
  286SOL    HW2 1758   3.189   3.620   6.754
  287SOL     OW 1759   2.064   3.545   6.979
  287SOL    HW1 1760   2.051   3.519   6.884
  287SOL    HW2 1761   2.066   3.645   6.987
  288SOL     OW 1762   4.999   2.217   6.885
  288SOL    HW1 1763   4.976   2.121   6.872
  288SOL    HW2 1764   5.080   2.240   6.831
  289SOL     OW 1765   2.737   5.144   5.980
  289SOL    HW1 1766   2.686   5.060   5.995
  289SOL    HW2 1767   2.728   5.172   5.884
  290SOL     OW 1768   6.926   2.270   5.839
  290SOL    HW1 1769   6.910   2.208   5.762
  290SOL    HW2 1770   6.901   2.363   5.813
  291SOL     OW 1771   6.873   1.872   2.891
  291SOL    HW1 1772   6.813   1.872   2.971
  291SOL    HW2 1773   6.819   1.854   2.809
  292SOL     OW 1774   2.046   0.014   3.448
  292SOL    HW1 1775   2.008   0.106   3.442
  292SOL    HW2 1776   1.986   6.974   3.505
  293SOL     OW 1777   3.963   5.174   3.598
  293SOL    HW1 1778   4.039   5.190   3.535
  293SOL    HW2 1779   3.880   5.156   3.546
  294SOL     OW 1780   4.348   6.564   6.458
  294SOL    HW1 1781   4.332   6.636   6.525
  294SOL    HW2 1782   4.371   6.479   6.505
  295SOL     OW 1783   4.976   0.326   4.333
  295SOL    HW1 1784   4.996   0.414   4.292
  295SOL    HW2 1785   5.056   0.293   4.384
  296SOL     OW 1786   2.017   2.000   3.548
  296SOL    HW1 1787   2.011   2.098   3.532
  296SOL    HW2 1788   2.009   1.981   3.646
  297SOL     OW 1789   1.861   4.502   3.052
  297SOL    HW1 1790   1.923   4.424   3.042
  297SOL    HW2 1791   1.793   4.482   3.122
  298SOL     OW 1792   5.946   5.281   1.044
  298SOL    HW1 1793   5.935   5.291   1.143
  298SOL    HW2 1794   6.043   5.270   1.023
  299SOL     OW 1795   6.267   2.307   4.683
  299SOL    HW1 1796   6.346   2.316   4.622
  299SOL    HW2 1797   6.226   2.216   4.673
  300SOL     OW 1798   6.196   0.036   2.881
  300SOL    HW1 1799   6.292   0.021   2.859
  300SOL    HW2 1800   6.166   0.123   2.843
  301SOL     OW 1801   5.204   4.045   6.056
  301SOL    HW1 1802   5.183   4.009   6.147
  301SOL    HW2 1803   5.213   3.969   5.992
  302SOL     OW 1804   1.155   6.686   3.664
  302SOL    HW1 1805   1.105   6.633   3.596
  302SOL    HW2 1806   1.165   6.780   3.632
  303SOL     OW 1807   5.648   0.448   3.816
  303SOL    HW1 1808   5.702   0.393   3.751
  303SOL    HW2 1809   5.574   0.392   3.854
  304SOL     OW 1810   3.113   0.172   3.433
  304SOL    HW1 1811   3.197   0.182   3.487
  304SOL    HW2 1812   3.122   0.222   3.347
  305SOL     OW 1813   1.323   3.493   1.192
  305SOL    HW1 1814   1.333   3.562   1.263
  305SOL    HW2 1815   1.231   3.455   1.195
  306SOL     OW 1816   2.360   0.670   3.747
  306SOL    HW1 1817   2.459   0.661   3.732
  306SOL    HW2 1818   2.337   0.637   3.839
  307SOL     OW 1819   3.780   0.324   1.703
  307SOL    HW1 1820   3.814   0.232   1.721
  307SOL    HW2 1821   3.721   0.321   1.622
  308SOL     OW 1822   0.650   5.255   4.219
  308SOL    HW1 1823   0.741   5.292   4.236
  308SOL    HW2 1824   0.640   5.168   4.267
  309SOL     OW 1825   4.316   5.163   5.329
  309SOL    HW1 1826   4.265   5.248   5.317
  309SOL    HW2 1827   4.410   5.176   5.297
  310SOL     OW 1828   0.654   6.530   6.355
  310SOL    HW1 1829   0.641   6.435   6.327
  310SOL    HW2 1830   0.578   6.585   6.320
  311SOL     OW 1831   0.433   0.481   1.515
  311SOL    HW1 1832   0.343   0.518   1.539
  311SOL    HW2 1833   0.474   0.438   1.596
  312SOL     OW 1834   4.087   1.836   4.849
  312SOL    HW1 1835   4.005   1.783   4.829
  312SOL    HW2 1836   4.061   1.926   4.884
  313SOL     OW 1837   0.945   4.444   1.331
  313SOL    HW1 1838   0.932   4.535   1.291
  313SOL    HW2 1839   0.894   4.377   1.277
  314SOL     OW 1840   3.637   6.250   0.931
  314SOL    HW1 1841   3.543   6.264   0.903
  314SOL    HW2 1842   3.643   6.251   1.031
  315SOL     OW 1843   0.977   3.083   3.062
  315SOL    HW1 1844   0.932   3.006   3.016
  315SOL    HW2 1845   0.914   3.161   3.065
  316SOL     OW 1846   2.388   2.748   3.860
  316SOL    HW1 1847   2.398   2.665   3.805
  316SOL    HW2 1848   2.458   2.749   3.931
  317SOL     OW 1849   6.900   1.973   6.781
  317SOL    HW1 1850   6.938   1.893   6.827
  317SOL    HW2 1851   6.972   2.040   6.764
  318SOL     OW 1852   2.630   5.171   0.960
  318SOL    HW1 1853   2.729   5.173   0.972
  318SOL    HW2 1854   2.592   5.262   0.977
  319SOL     OW 1855   1.439   6.477   0.519
  319SOL    HW1 1856   1.454   6.460   0.617
  319SOL    HW2 1857   1.352   6.524   0.506
  320SOL     OW 1858   5.350   3.970   0.518
  320SOL    HW1 1859   5.315   3.879   0.496
  320SOL    HW2 1860   5.449   3.972   0.504
  321SOL     OW 1861   1.976   1.279   1.138
  321SOL    HW1 1862   2.010   1.292   1.044
  321SOL    HW2 1863   1.915   1.354   1.162
  322SOL     OW 1864   3.630   2.866   4.660
  322SOL    HW1 1865   3.686   2.875   4.578
  322SOL    HW2 1866   3.679   2.903   4.739
  323SOL     OW 1867   0.435   4.518   1.834
  323SOL    HW1 1868   0.341   4.523   1.868
  323SOL    HW2 1869   0.447   4.585   1.760
  324SOL     OW 1870   0.278   3.010   4.497
  324SOL    HW1 1871   0.285   3.069   4.578
  324SOL    HW2 1872   0.369   2.980   4.471
  325SOL     OW 1873   2.288   2.763   2.549
  325SOL    HW1 1874   2.291   2.774   2.648
  325SOL    HW2 1875   2.239   2.840   2.508
  326SOL     OW 1876   2.075   4.387   6.285
  326SOL    HW1 1877   2.073   4.370   6.187
  326SOL    HW2 1878   2.038   4.478   6.305
  327SOL     OW 1879   6.079   5.634   5.424
  327SOL    HW1 1880   6.104   5.720   5.381
  327SOL    HW2 1881   6.160   5.575   5.432
  328SOL     OW 1882   3.241   6.044   2.144
  328SOL    HW1 1883   3.271   6.137   2.165
  328SOL    HW2 1884   3.263   5.983   2.220
  329SOL     OW 1885   3.086   3.055   2.587
  329SOL    HW1 1886   3.002   3.081   2.541
  329SOL    HW2 1887   3.146   3.007   2.522
  330SOL     OW 1888   3.621   0.705   1.392
  330SOL    HW1 1889   3.534   0.742   1.360
  330SOL    HW2 1890   3.606   0.654   1.476
  331SOL     OW 1891   5.484   4.747   6.370
  331SOL    HW1 1892   5.454   4.688   6.295
  331SOL    HW2 1893   5.404   4.776   6.423
  332SOL     OW 1894   3.745   1.832   2.925
  332SOL    HW1 1895   3.752   1.791   2.834
  332SOL    HW2 1896   3.707   1.765   2.989
  333SOL     OW 1897   3.643   6.167   6.407
  333SOL    HW1 1898   3.571   6.104   6.377
  333SOL    HW2 1899   3.700   6.194   6.330
  334SOL     OW 1900   4.448   6.567   2.640
  334SOL    HW1 1901   4.521   6.628   2.669
  334SOL    HW2 1902   4.474   6.472   2.659
  335SOL     OW 1903   3.333   6.605   3.381
  335SOL    HW1 1904   3.233   6.597   3.385
  335SOL    HW2 1905   3.363   6.685   3.433
  336SOL     OW 1906   3.381   1.020   4.336
  336SOL    HW1 1907   3.341   0.945   4.388
  336SOL    HW2 1908   3.453   0.984   4.276
  337SOL     OW 1909   6.667   4.104   1.317
  337SOL    HW1 1910   6.762   4.080   1.339
  337SOL    HW2 1911   6.610   4.023   1.322
  338SOL     OW 1912   3.734   2.908   1.257
  338SOL    HW1 1913   3.829   2.880   1.274
  338SOL    HW2 1914   3.695   2.850   1.185
  339SOL     OW 1915   4.389   6.333   3.196
  339SOL    HW1 1916   4.388   6.334   3.096
  339SOL    HW2 1917   4.373   6.426   3.230
  340SOL     OW 1918   4.716   4.298   4.328
  340SOL    HW1 1919   4.770   4.228   4.376
  340SOL    HW2 1920   4.714   4.277   4.231
  341SOL     OW 1921   5.835   5.080   4.903
  341SOL    HW1 1922   5.910   5.044   4.848
  341SOL    HW2 1923   5.813   5.016   4.976
  342SOL     OW 1924   6.341   3.825   0.330
  342SOL    HW1 1925   6.388   3.906   0.294
  342SOL    HW2 1926   6.274   3.854   0.399
  343SOL     OW 1927   3.096   0.530   2.834
  343SOL    HW1 1928   3.174   0.592   2.837
  343SOL    HW2 1929   3.066   0.510   2.927
  344SOL     OW 1930   3.310   5.081   0.191
  344SOL    HW1 1931   3.211   5.068   0.192
  344SOL    HW2 1932   3.335   5.138   0.113
  345SOL     OW 1933   0.551   6.776   5.484
  345SOL    HW1 1934   0.610   6.841   5.437
  345SOL    HW2 1935   0.537   6.695   5.426
  346SOL     OW 1936   1.860   6.843   3.585
  346SOL    HW1 1937   1.940   6.794   3.616
  346SOL    HW2 1938   1.780   6.816   3.638
  347SOL     OW 1939   5.533   6.418   6.370
  347SOL    HW1 1940   5.555   6.515   6.378
  347SOL    HW2 1941   5.436   6.404   6.388
  348SOL     OW 1942   3.654   5.945   3.004
  348SOL    HW1 1943   3.630   5.961   2.909
  348SOL    HW2 1944   3.650   6.031   3.055
  349SOL     OW 1945   1.771   4.933   1.994
  349SOL    HW1 1946   1.799   5.012   2.048
  349SOL    HW2 1947   1.764   4.959   1.898
  350SOL     OW 1948   4.924   3.075   1.297
  350SOL    HW1 1949   4.934   3.168   1.331
  350SOL    HW2 1950   4.921   3.011   1.373
  351SOL     OW 1951   3.195   2.162   0.066
  351SOL    HW1 1952   3.173   2.235   0.130
  351SOL    HW2 1953   3.145   2.079   0.090
  352SOL     OW 1954   3.514   0.926   6.617
  352SOL    HW1 1955   3.509   1.024   6.637
  352SOL    HW2 1956   3.438   0.900   6.558
  353SOL     OW 1957   2.103   6.540   0.557
  353SOL    HW1 1958   2.140   6.590   0.635
  353SOL    HW2 1959   2.176   6.486   0.514
  354SOL     OW 1960   4.676   1.373   1.684
  354SOL    HW1 1961   4.774   1.390   1.689
  354SOL    HW2 1962   4.657   1.281   1.718
  355SOL     OW 1963   0.672   1.736   2.404
  355SOL    HW1 1964   0.648   1.682   2.484
  355SOL    HW2 1965   0.734   1.810   2.431
  356SOL     OW 1966   4.103   5.459   3.162
  356SOL    HW1 1967   4.007   5.432   3.158
  356SOL    HW2 1968   4.119   5.514   3.244
  357SOL     OW 1969   0.897   4.660   5.443
  357SOL    HW1 1970   0.905   4.729   5.515
  357SOL    HW2 1971   0.906   4.705   5.354
  358SOL     OW 1972   5.592   0.698   1.536
  358SOL    HW1 1973   5.625   0.608   1.562
  358SOL    HW2 1974   5.567   0.697   1.439
  359SOL     OW 1975   1.388   1.179   2.000
  359SOL    HW1 1976   1.367   1.232   2.083
  359SOL    HW2 1977   1.467   1.219   1.954
  360SOL     OW 1978   3.892   6.217   0.831
  360SOL    HW1 1979   3.875   6.179   0.740
  360SOL    HW2 1980   3.806   6.223   0.882
  361SOL     OW 1981   4.300   0.541   3.145
  361SOL    HW1 1982   4.227   0.490   3.099
  361SOL    HW2 1983   4.377   0.480   3.164
  362SOL     OW 1984   2.440   3.345   0.744
  362SOL    HW1 1985   2.397   3.283   0.678
  362SOL    HW2 1986   2.527   3.306   0.775
  363SOL     OW 1987   4.634   4.853   4.199
  363SOL    HW1 1988   4.543   4.811   4.207
  363SOL    HW2 1989   4.704   4.783   4.212
  364SOL     OW 1990   1.601   5.507   5.737
  364SOL    HW1 1991   1.541   5.428   5.721
  364SOL    HW2 1992   1.575   5.581   5.675
  365SOL     OW 1993   4.600   6.357   2.721
  365SOL    HW1 1994   4.691   6.381   2.688
  365SOL    HW2 1995   4.589   6.258   2.720
  366SOL     OW 1996   5.713   6.862   6.849
  366SOL    HW1 1997   5.721   6.918   6.767
  366SOL    HW2 1998   5.618   6.831   6.859
  367SOL     OW 1999   5.126   2.301   1.300
  367SOL    HW1 2000   5.201   2.236   1.310
  367SOL    HW2 2001   5.152   2.388   1.341
  368SOL     OW 2002   1.338   4.873   5.363
  368SOL    HW1 2003   1.245   4.910   5.362
  368SOL    HW2 2004   1.379   4.889   5.453
  369SOL     OW 2005   0.168   3.639   1.576
  369SOL    HW1 2006   0.075   3.631   1.540
  369SOL    HW2 2007   0.166   3.675   1.669
  370SOL     OW 2008   3.984   1.257   6.465
  370SOL    HW1 2009   3.961   1.245   6.368
  370SOL    HW2 2010   3.960   1.349   6.493
  371SOL     OW 2011   4.102   2.892   6.525
  371SOL    HW1 2012   4.158   2.866   6.446
  371SOL    HW2 2013   4.157   2.884   6.609
  372SOL     OW 2014   1.189   5.422   5.940
  372SOL    HW1 2015   1.267   5.427   6.002
  372SOL    HW2 2016   1.105   5.409   5.993
  373SOL     OW 2017   6.702   0.088   0.468
  373SOL    HW1 2018   6.783   0.074   0.524
  373SOL    HW2 2019   6.727   0.139   0.385
  374SOL     OW 2020   3.746   1.349   0.904
  374SOL    HW1 2021   3.652   1.378   0.886
  374SOL    HW2 2022   3.749   1.291   0.985
  375SOL     OW 2023   6.871   4.543   2.580
  375SOL    HW1 2024   6.776   4.560   2.606
  375SOL    HW2 2025   6.928   4.544   2.662
  376SOL     OW 2026   2.108   2.502   4.248
  376SOL    HW1 2027   2.149   2.443   4.318
  376SOL    HW2 2028   2.100   2.595   4.284
  377SOL     OW 2029   5.033   1.656   4.042
  377SOL    HW1 2030   4.966   1.723   4.010
  377SOL    HW2 2031   4.985   1.582   4.090
  378SOL     OW 2032   4.835   2.600   4.577
  378SOL    HW1 2033   4.868   2.544   4.501
  378SOL    HW2 2034   4.861   2.695   4.563
  379SOL     OW 2035   6.419   3.621   1.226
  379SOL    HW1 2036   6.489   3.549   1.215
  379SOL    HW2 2037   6.398   3.631   1.323
  380SOL     OW 2038   0.883   2.079   0.358
  380SOL    HW1 2039   0.859   2.145   0.288
  380SOL    HW2 2040   0.867   2.118   0.449
  381SOL     OW 2041   3.346   3.993   0.604
  381SOL    HW1 2042   3.394   3.960   0.523
  381SOL    HW2 2043   3.248   3.999   0.584
  382SOL     OW 2044   2.485   5.642   1.249
  382SOL    HW1 2045   2.563   5.582   1.235
  382SOL    HW2 2046   2.443   5.665   1.161
  383SOL     OW 2047   6.383   2.245   6.546
  383SOL    HW1 2048   6.396   2.343   6.565
  383SOL    HW2 2049   6.354   2.199   6.630
  384SOL     OW 2050   1.732   5.598   5.101
  384SOL    HW1 2051   1.704   5.628   5.010
  384SOL    HW2 2052   1.756   5.501   5.099
  385SOL     OW 2053   4.817   5.448   1.094
  385SOL    HW1 2054   4.738   5.453   1.156
  385SOL    HW2 2055   4.786   5.420   1.003
  386SOL     OW 2056   2.872   6.269   5.121
  386SOL    HW1 2057   2.820   6.205   5.176
  386SOL    HW2 2058   2.950   6.222   5.080
  387SOL     OW 2059   6.822   0.184   5.568
  387SOL    HW1 2060   6.919   0.161   5.580
  387SOL    HW2 2061   6.803   0.197   5.471
  388SOL     OW 2062   6.969   1.941   5.067
  388SOL    HW1 2063   0.045   1.976   5.078
  388SOL    HW2 2064   6.970   1.867   4.999
  389SOL     OW 2065   4.556   4.307   1.464
  389SOL    HW1 2066   4.485   4.305   1.534
  389SOL    HW2 2067   4.624   4.236   1.484
  390SOL     OW 2068   4.186   2.289   0.420
  390SOL    HW1 2069   4.222   2.334   0.501
  390SOL    HW2 2070   4.132   2.209   0.447
  391SOL     OW 2071   3.570   3.912   3.922
  391SOL    HW1 2072   3.540   3.835   3.978
  391SOL    HW2 2073   3.567   3.996   3.977
  392SOL     OW 2074   1.381   3.519   1.601
  392SOL    HW1 2075   1.320   3.596   1.585
  392SOL    HW2 2076   1.470   3.538   1.558
  393SOL     OW 2077   1.232   5.049   1.017
  393SOL    HW1 2078   1.195   5.097   1.096
  393SOL    HW2 2079   1.190   4.958   1.011
  394SOL     OW 2080   6.142   0.994   6.363
  394SOL    HW1 2081   6.164   1.069   6.425
  394SOL    HW2 2082   6.226   0.942   6.343
  395SOL     OW 2083   6.028   4.981   1.016
  395SOL    HW1 2084   5.962   5.031   0.960
  395SOL    HW2 2085   6.119   5.021   1.005
  396SOL     OW 2086   1.472   6.882   1.396
  396SOL    HW1 2087   1.399   6.840   1.343
  396SOL    HW2 2088   1.433   6.944   1.464
  397SOL     OW 2089   3.813   1.711   5.265
  397SOL    HW1 2090   3.767   1.737   5.181
  397SOL    HW2 2091   3.862   1.624   5.251
  398SOL     OW 2092   1.286   0.723   3.425
  398SOL    HW1 2093   1.191   0.725   3.455
  398SOL    HW2 2094   1.314   0.814   3.395
  399SOL     OW 2095   5.514   5.975   3.963
  399SOL    HW1 2096   5.455   6.055   3.972
  399SOL    HW2 2097   5.609   6.004   3.956
  400SOL     OW 2098   5.759   6.778   4.277
  400SOL    HW1 2099   5.776   6.724   4.360
  400SOL    HW2 2100   5.781   6.874   4.296
  401SOL     OW 2101   0.762   5.683   5.537
  401SOL    HW1 2102   0.669   5.697   5.503
  401SOL    HW2 2103   0.793   5.591   5.513
  402SOL     OW 2104   5.722   1.826   3.312
  402SOL    HW1 2105   5.715   1.783   3.222
  402SOL    HW2 2106   5.732   1.756   3.382
  403SOL     OW 2107   3.030   1.376   5.329
  403SOL    HW1 2108   3.086   1.410   5.404
  403SOL    HW2 2109   3.002   1.452   5.270
  404SOL     OW 2110   3.849   5.435   3.232
  404SOL    HW1 2111   3.853   5.504   3.305
  404SOL    HW2 2112   3.755   5.423   3.203
  405SOL     OW 2113   2.423   4.742   4.304
  405SOL    HW1 2114   2.405   4.809   4.376
  405SOL    HW2 2115   2.463   4.659   4.344
  406SOL     OW 2116   0.111   6.576   6.498
  406SOL    HW1 2117   0.143   6.666   6.468
  406SOL    HW2 2118   0.183   6.508   6.483
  407SOL     OW 2119   2.188   2.912   3.904
  407SOL    HW1 2120   2.273   2.864   3.887
  407SOL    HW2 2121   2.168   2.911   4.002
  408SOL     OW 2122   1.953   1.591   3.315
  408SOL    HW1 2123   1.961   1.564   3.219
  408SOL    HW2 2124   1.856   1.600   3.338
  409SOL     OW 2125   0.661   3.312   2.270
  409SOL    HW1 2126   0.667   3.277   2.177
  409SOL    HW2 2127   0.577   3.366   2.281
  410SOL     OW 2128   1.552   1.900   1.912
  410SOL    HW1 2129   1.647   1.870   1.906
  410SOL    HW2 2130   1.547   1.999   1.900
  411SOL     OW 2131   0.302   2.691   1.370
  411SOL    HW1 2132   0.253   2.711   1.455
  411SOL    HW2 2133   0.336   2.597   1.372
  412SOL     OW 2134   1.370   4.894   2.629
  412SOL    HW1 2135   1.423   4.978   2.619
  412SOL    HW2 2136   1.430   4.815   2.620
  413SOL     OW 2137   5.889   6.169   2.265
  413SOL    HW1 2138   5.917   6.133   2.176
  413SOL    HW2 2139   5.866   6.266   2.256
  414SOL     OW 2140   1.661   6.630   3.133
  414SOL    HW1 2141   1.708   6.690   3.199
  414SOL    HW2 2142   1.727   6.566   3.094
  415SOL     OW 2143   6.014   1.160   6.728
  415SOL    HW1 2144   5.968   1.110   6.801
  415SOL    HW2 2145   6.061   1.240   6.766
  416SOL     OW 2146   5.520   3.702   5.636
  416SOL    HW1 2147   5.463   3.658   5.705
  416SOL    HW2 2148   5.501   3.662   5.546
  417SOL     OW 2149   1.934   2.248   6.739
  417SOL    HW1 2150   1.868   2.323   6.745
  417SOL    HW2 2151   1.884   2.162   6.726
  418SOL     OW 2152   3.837   0.405   4.727
  418SOL    HW1 2153   3.830   0.306   4.715
  418SOL    HW2 2154   3.795   0.431   4.814
  419SOL     OW 2155   6.631   0.460   0.311
  419SOL    HW1 2156   6.649   0.383   0.249
  419SOL    HW2 2157   6.576   0.429   0.388
  420SOL     OW 2158   4.122   0.203   0.610
  420SOL    HW1 2159   4.057   0.171   0.680
  420SOL    HW2 2160   4.075   0.262   0.545
  421SOL     OW 2161   4.654   4.365   2.288
  421SOL    HW1 2162   4.591   4.427   2.335
  421SOL    HW2 2163   4.608   4.325   2.209
  422SOL     OW 2164   5.361   2.821   1.969
  422SOL    HW1 2165   5.362   2.820   2.069
  422SOL    HW2 2166   5.271   2.853   1.937
  423SOL     OW 2167   2.852   1.135   6.218
  423SOL    HW1 2168   2.803   1.089   6.292
  423SOL    HW2 2169   2.910   1.207   6.257
  424SOL     OW 2170   1.296   3.646   3.983
  424SOL    HW1 2171   1.351   3.569   3.952
  424SOL    HW2 2172   1.243   3.620   4.064
  425SOL     OW 2173   3.569   0.962   6.968
  425SOL    HW1 2174   3.607   0.941   6.878
  425SOL    HW2 2175   3.631   1.023   0.001
  426SOL     OW 2176   2.668   1.919   4.281
  426SOL    HW1 2177   2.680   2.018   4.281
  426SOL    HW2 2178   2.681   1.883   4.188
  427SOL     OW 2179   4.600   1.929   3.049
  427SOL    HW1 2180   4.563   1.997   2.986
  427SOL    HW2 2181   4.575   1.837   3.017
  428SOL     OW 2182   2.626   2.181   5.897
  428SOL    HW1 2183   2.627   2.102   5.957
  428SOL    HW2 2184   2.602   2.263   5.950
  429SOL     OW 2185   6.620   5.782   4.577
  429SOL    HW1 2186   6.537   5.765   4.629
  429SOL    HW2 2187   6.598   5.791   4.480
  430SOL     OW 2188   1.834   0.122   4.158
  430SOL    HW1 2189   1.923   0.096   4.196
  430SOL    HW2 2190   1.834   0.220   4.138
  431SOL     OW 2191   2.483   1.744   1.840
  431SOL    HW1 2192   2.452   1.662   1.793
  431SOL    HW2 2193   2.557   1.787   1.789
  432SOL     OW 2194   4.203   1.794   1.275
  432SOL    HW1 2195   4.254   1.796   1.361
  432SOL    HW2 2196   4.132   1.724   1.280
  433SOL     OW 2197   1.839   4.668   0.796
  433SOL    HW1 2198   1.851   4.739   0.727
  433SOL    HW2 2199   1.870   4.580   0.758
  434SOL     OW 2200   4.850   4.597   3.406
  434SOL    HW1 2201   4.895   4.611   3.318
  434SOL    HW2 2202   4.818   4.684   3.442
  435SOL     OW 2203   3.911   2.822   5.732
  435SOL    HW1 2204   3.945   2.899   5.678
  435SOL    HW2 2205   3.889   2.852   5.825
  436SOL     OW 2206   5.100   6.543   2.679
  436SOL    HW1 2207   5.167   6.518   2.609
  436SOL    HW2 2208   5.113   6.639   2.704
  437SOL     OW 2209   6.453   1.099   5.048
  437SOL    HW1 2210   6.391   1.035   5.094
  437SOL    HW2 2211   6.414   1.191   5.052
  438SOL     OW 2212   0.670   4.707   2.405
  438SOL    HW1 2213   0.684   4.619   2.449
  438SOL    HW2 2214   0.757   4.757   2.403
  439SOL     OW 2215   0.188   0.756   4.831
  439SOL    HW1 2216   0.218   0.816   4.758
  439SOL    HW2 2217   0.268   0.716   4.877
  440SOL     OW 2218   3.936   1.632   0.248
  440SOL    HW1 2219   3.943   1.675   0.338
  440SOL    HW2 2220   3.996   1.679   0.184
  441SOL     OW 2221   0.696   4.804   1.765
  441SOL    HW1 2222   0.636   4.825   1.842
  441SOL    HW2 2223   0.751   4.723   1.787
  442SOL     OW 2224   4.846   3.232   5.115
  442SOL    HW1 2225   4.872   3.277   5.030
  442SOL    HW2 2226   4.928   3.208   5.167
  443SOL     OW 2227   4.835   2.918   2.476
  443SOL    HW1 2228   4.917   2.909   2.533
  443SOL    HW2 2229   4.832   3.009   2.435
  444SOL     OW 2230   4.833   1.462   1.962
  444SOL    HW1 2231   4.756   1.438   2.021
  444SOL    HW2 2232   4.847   1.561   1.964
  445SOL     OW 2233   1.592   4.976   2.892
  445SOL    HW1 2234   1.579   4.998   2.989
  445SOL    HW2 2235   1.504   4.951   2.851
  446SOL     OW 2236   6.217   0.058   1.416
  446SOL    HW1 2237   6.281   7.015   1.465
  446SOL    HW2 2238   6.146   0.089   1.478
  447SOL     OW 2239   5.845   4.162   1.050
  447SOL    HW1 2240   5.756   4.204   1.067
  447SOL    HW2 2241   5.912   4.200   1.115
  448SOL     OW 2242   4.039   6.623   4.051
  448SOL    HW1 2243   3.949   6.630   4.008
  448SOL    HW2 2244   4.029   6.579   4.141
  449SOL     OW 2245   1.730   4.117   4.366
  449SOL    HW1 2246   1.728   4.216   4.374
  449SOL    HW2 2247   1.822   4.084   4.387
  450SOL     OW 2248   6.430   4.581   3.398
  450SOL    HW1 2249   6.513   4.525   3.393
  450SOL    HW2 2250   6.440   4.661   3.339
  451SOL     OW 2251   1.014   2.081   0.700
  451SOL    HW1 2252   0.922   2.044   0.684
  451SOL    HW2 2253   1.078   2.005   0.713
  452SOL     OW 2254   5.074   5.324   2.764
  452SOL    HW1 2255   5.026   5.410   2.747
  452SOL    HW2 2256   5.008   5.249   2.770
  453SOL     OW 2257   3.739   1.166   0.078
  453SOL    HW1 2258   3.820   1.224   0.075
  453SOL    HW2 2259   3.659   1.220   0.102
  454SOL     OW 2260   7.008   2.941   5.500
  454SOL    HW1 2261   0.060   2.943   5.427
  454SOL    HW2 2262   6.928   2.994   5.472
  455SOL     OW 2263   5.500   5.275   6.249
  455SOL    HW1 2264   5.486   5.360   6.301
  455SOL    HW2 2265   5.481   5.197   6.308
  456SOL     OW 2266   2.807   1.109   2.651
  456SOL    HW1 2267   2.759   1.142   2.732
  456SOL    HW2 2268   2.869   1.180   2.617
  457SOL     OW 2269   2.421   6.411   7.011
  457SOL    HW1 2270   2.477   6.447   6.937
  457SOL    HW2 2271   2.465   6.330   0.032
  458SOL     OW 2272   3.545   1.466   2.507
  458SOL    HW1 2273   3.521   1.460   2.604
  458SOL    HW2 2274   3.554   1.562   2.481
  459SOL     OW 2275   3.399   0.615   3.435
  459SOL    HW1 2276   3.375   0.695   3.380
  459SOL    HW2 2277   3.328   0.600   3.504
  460SOL     OW 2278   0.600   1.621   6.440
  460SOL    HW1 2279   0.663   1.590   6.511
  460SOL    HW2 2280   0.621   1.716   6.416
  461SOL     OW 2281   1.404   5.538   5.501
  461SOL    HW1 2282   1.346   5.528   5.420
  461SOL    HW2 2283   1.488   5.486   5.488
  462SOL     OW 2284   3.408   4.145   4.581
  462SOL    HW1 2285   3.352   4.114   4.658
  462SOL    HW2 2286   3.492   4.187   4.616
  463SOL     OW 2287   4.980   5.923   3.870
  463SOL    HW1 2288   5.021   5.858   3.934
  463SOL    HW2 2289   4.998   5.893   3.776
  464SOL     OW 2290   4.123   5.353   6.141
  464SOL    HW1 2291   4.037   5.399   6.158
  464SOL    HW2 2292   4.141   5.350   6.042
  465SOL     OW 2293   0.916   4.271   0.075
  465SOL    HW1 2294   0.840   4.268   0.010
  465SOL    HW2 2295   0.983   4.200   0.052
  466SOL     OW 2296   3.772   5.057   4.208
  466SOL    HW1 2297   3.810   4.976   4.163
  466SOL    HW2 2298   3.765   5.039   4.307
  467SOL     OW 2299   6.087   0.186   2.427
  467SOL    HW1 2300   6.021   0.224   2.362
  467SOL    HW2 2301   6.064   0.216   2.519
  468SOL     OW 2302   2.757   5.715   6.420
  468SOL    HW1 2303   2.793   5.753   6.335
  468SOL    HW2 2304   2.800   5.627   6.438
  469SOL     OW 2305   2.883   4.796   4.751
  469SOL    HW1 2306   2.877   4.735   4.830
  469SOL    HW2 2307   2.978   4.826   4.739
  470SOL     OW 2308   2.094   4.957   2.359
  470SOL    HW1 2309   1.994   4.967   2.366
  470SOL    HW2 2310   2.138   5.032   2.408
  471SOL     OW 2311   1.629   2.295   4.370
  471SOL    HW1 2312   1.575   2.341   4.299
  471SOL    HW2 2313   1.569   2.234   4.423
  472SOL     OW 2314   5.423   4.109   6.753
  472SOL    HW1 2315   5.490   4.180   6.773
  472SOL    HW2 2316   5.373   4.086   6.837
  473SOL     OW 2317   5.903   3.281   2.554
  473SOL    HW1 2318   5.920   3.301   2.650
  473SOL    HW2 2319   5.836   3.345   2.517
  474SOL     OW 2320   4.719   5.555   4.149
  474SOL    HW1 2321   4.690   5.537   4.243
  474SOL    HW2 2322   4.639   5.565   4.091
  475SOL     OW 2323   5.968   1.654   0.424
  475SOL    HW1 2324   5.932   1.715   0.495
  475SOL    HW2 2325   6.030   1.705   0.365
  476SOL     OW 2326   1.327   3.849   6.908
  476SOL    HW1 2327   1.234   3.882   6.888
  476SOL    HW2 2328   1.355   3.783   6.838
  477SOL     OW 2329   1.359   4.957   3.143
  477SOL    HW1 2330   1.302   4.998   3.071
  477SOL    HW2 2331   1.419   5.027   3.182
  478SOL     OW 2332   5.510   5.991   3.001
  478SOL    HW1 2333   5.495   6.070   3.060
  478SOL    HW2 2334   5.436   5.925   3.014
  479SOL     OW 2335   3.257   4.086   2.889
  479SOL    HW1 2336   3.218   4.068   2.979
  479SOL    HW2 2337   3.184   4.092   2.821
  480SOL     OW 2338   1.082   0.295   2.663
  480SOL    HW1 2339   1.010   0.309   2.595
  480SOL    HW2 2340   1.091   0.376   2.720
  481SOL     OW 2341   6.538   0.174   1.029
  481SOL    HW1 2342   6.478   0.111   1.078
  481SOL    HW2 2343   6.611   0.121   0.985
  482SOL     OW 2344   4.357   4.798   2.537
  482SOL    HW1 2345   4.390   4.892   2.533
  482SOL    HW2 2346   4.283   4.786   2.472
  483SOL     OW 2347   5.840   2.024   4.292
  483SOL    HW1 2348   5.862   1.929   4.270
  483SOL    HW2 2349   5.806   2.069   4.209
  484SOL     OW 2350   2.194   4.808   3.623
  484SOL    HW1 2351   2.234   4.832   3.711
  484SOL    HW2 2352   2.200   4.886   3.561
  485SOL     OW 2353   5.390   2.474   1.526
  485SOL    HW1 2354   5.452   2.481   1.605
  485SOL    HW2 2355   5.443   2.479   1.442
  486SOL     OW 2356   5.996   6.428   5.854
  486SOL    HW1 2357   6.013   6.455   5.760
  486SOL    HW2 2358   6.070   6.368   5.885
  487SOL     OW 2359   0.254   0.286   6.460
  487SOL    HW1 2360   0.273   0.368   6.513
  487SOL    HW2 2361   0.253   0.309   6.362
  488SOL     OW 2362   2.254   5.592   3.218
  488SOL    HW1 2363   2.275   5.687   3.193
  488SOL    HW2 2364   2.201   5.590   3.302
  489SOL     OW 2365   1.840   5.700   5.592
  489SOL    HW1 2366   1.744   5.728   5.584
  489SOL    HW2 2367   1.885   5.754   5.662
  490SOL     OW 2368   1.118   3.850   4.601
  490SOL    HW1 2369   1.108   3.946   4.576
  490SOL    HW2 2370   1.194   3.839   4.665
  491SOL     OW 2371   6.645   2.839   0.827
  491SOL    HW1 2372   6.552   2.865   0.850
  491SOL    HW2 2373   6.651   2.818   0.729
  492SOL     OW 2374   1.460   2.886   5.272
  492SOL    HW1 2375   1.488   2.855   5.181
  492SOL    HW2 2376   1.539   2.926   5.320
  493SOL     OW 2377   1.583   5.186   4.496
  493SOL    HW1 2378   1.629   5.150   4.577
  493SOL    HW2 2379   1.565   5.283   4.507
  494SOL     OW 2380   2.717   0.103   4.151
  494SOL    HW1 2381   2.637   0.077   4.206
  494SOL    HW2 2382   2.794   0.120   4.212
  495SOL     OW 2383   3.631   3.992   6.481
  495SOL    HW1 2384   3.713   3.956   6.523
  495SOL    HW2 2385   3.553   3.979   6.542
  496SOL     OW 2386   5.348   1.125   3.244
  496SOL    HW1 2387   5.446   1.110   3.232
  496SOL    HW2 2388   5.333   1.181   3.326
  497SOL     OW 2389   4.703   1.903   0.123
  497SOL    HW1 2390   4.666   1.992   0.148
  497SOL    HW2 2391   4.633   1.833   0.134
  498SOL     OW 2392   0.212   0.586   1.602
  498SOL    HW1 2393   0.231   0.675   1.643
  498SOL    HW2 2394   0.128   0.549   1.641
  499SOL     OW 2395   2.931   6.033   0.247
  499SOL    HW1 2396   2.838   5.997   0.252
  499SOL    HW2 2397   2.979   6.014   0.333
  500SOL     OW 2398   5.385   1.677   6.551
  500SOL    HW1 2399   5.285   1.675   6.561
  500SOL    HW2 2400   5.428   1.652   6.637
  501SOL     OW 2401   1.404   1.004   5.043
  501SOL    HW1 2402   1.443   1.094   5.061
  501SOL    HW2 2403   1.463   0.933   5.082
  502SOL     OW 2404   2.559   4.682   6.910
  502SOL    HW1 2405   2.657   4.665   6.916
  502SOL    HW2 2406   2.521   4.635   6.830
  503SOL     OW 2407   3.551   5.803   0.829
  503SOL    HW1 2408   3.622   5.746   0.788
  503SOL    HW2 2409   3.560   5.897   0.795
  504SOL     OW 2410   6.559   6.061   1.752
  504SOL    HW1 2411   6.519   6.141   1.798
  504SOL    HW2 2412   6.492   5.987   1.751
  505SOL     OW 2413   5.696   5.183   5.207
  505SOL    HW1 2414   5.682   5.274   5.168
  505SOL    HW2 2415   5.623   5.163   5.271
  506SOL     OW 2416   3.368   4.907   3.343
  506SOL    HW1 2417   3.366   4.939   3.248
  506SOL    HW2 2418   3.274   4.901   3.378
  507SOL     OW 2419   3.060   1.170   1.487
  507SOL    HW1 2420   3.007   1.087   1.503
  507SOL    HW2 2421   2.999   1.242   1.453
  508SOL     OW 2422   0.303   4.646   3.432
  508SOL    HW1 2423   0.357   4.570   3.396
  508SOL    HW2 2424   0.361   4.727   3.442
  509SOL     OW 2425   4.075   6.795   6.086
  509SOL    HW1 2426   4.060   6.739   6.167
  509SOL    HW2 2427   4.136   6.746   6.023
  510SOL     OW 2428   6.475   4.049   0.172
  510SOL    HW1 2429   6.572   4.029   0.183
  510SOL    HW2 2430   6.460   4.096   0.085
  511SOL     OW 2431   0.701   1.426   0.285
  511SOL    HW1 2432   0.777   1.480   0.249
  511SOL    HW2 2433   0.653   1.381   0.210
  512SOL     OW 2434   0.322   2.430   3.773
  512SOL    HW1 2435   0.338   2.505   3.837
  512SOL    HW2 2436   0.363   2.452   3.685
  513SOL     OW 2437   4.889   0.438   3.351
  513SOL    HW1 2438   4.843   0.416   3.265
  513SOL    HW2 2439   4.979   0.477   3.332
  514SOL     OW 2440   5.018   0.960   5.501
  514SOL    HW1 2441   4.963   0.926   5.578
  514SOL    HW2 2442   4.959   0.979   5.423
  515SOL     OW 2443   3.791   0.288   0.031
  515SOL    HW1 2444   3.804   0.256   6.954
  515SOL    HW2 2445   3.735   0.223   0.081
  516SOL     OW 2446   2.180   6.322   2.386
  516SOL    HW1 2447   2.202   6.230   2.355
  516SOL    HW2 2448   2.257   6.383   2.368
  517SOL     OW 2449   3.117   5.184   1.581
  517SOL    HW1 2450   3.190   5.129   1.620
  517SOL    HW2 2451   3.137   5.281   1.593
  518SOL     OW 2452   1.876   5.024   4.297
  518SOL    HW1 2453   1.839   5.035   4.389
  518SOL    HW2 2454   1.976   5.020   4.302
  519SOL     OW 2455   6.930   6.910   2.311
  519SOL    HW1 2456   0.002   6.863   2.302
  519SOL    HW2 2457   6.876   6.894   2.229
  520SOL     OW 2458   2.559   4.408   0.616
  520SOL    HW1 2459   2.606   4.414   0.704
  520SOL    HW2 2460   2.554   4.312   0.587
  521SOL     OW 2461   6.465   5.981   5.003
  521SOL    HW1 2462   6.463   6.053   4.935
  521SOL    HW2 2463   6.508   5.899   4.964
  522SOL     OW 2464   3.971   4.333   0.130
  522SOL    HW1 2465   3.996   4.388   0.210
  522SOL    HW2 2466   4.047   4.331   0.066
  523SOL     OW 2467   1.018   6.945   0.311
  523SOL    HW1 2468   0.957   6.942   0.232
  523SOL    HW2 2469   1.016   0.019   0.353
  524SOL     OW 2470   6.815   1.466   0.631
  524SOL    HW1 2471   6.792   1.561   0.612
  524SOL    HW2 2472   6.914   1.456   0.635
  525SOL     OW 2473   0.908   3.028   3.989
  525SOL    HW1 2474   0.912   2.966   3.911
  525SOL    HW2 2475   0.948   3.116   3.964
  526SOL     OW 2476   4.256   6.962   3.911
  526SOL    HW1 2477   4.170   7.011   3.921
  526SOL    HW2 2478   4.332   0.006   3.937
  527SOL     OW 2479   0.361   1.686   0.859
  527SOL    HW1 2480   0.357   1.751   0.935
  527SOL    HW2 2481   0.457   1.672   0.833
  528SOL     OW 2482   6.727   2.873   4.684
  528SOL    HW1 2483   6.653   2.864   4.617
  528SOL    HW2 2484   6.742   2.969   4.704
  529SOL     OW 2485   1.823   0.095   6.930
  529SOL    HW1 2486   1.740   0.048   6.960
  529SOL    HW2 2487   1.898   0.073   6.992
  530SOL     OW 2488   3.492   4.753   1.227
  530SOL    HW1 2489   3.434   4.671   1.231
  530SOL    HW2 2490   3.494   4.797   1.316
  531SOL     OW 2491   1.235   0.075   0.773
  531SOL    HW1 2492   1.207   0.071   0.869
  531SOL    HW2 2493   1.330   0.045   0.765
  532SOL     OW 2494   1.871   1.890   5.962
  532SOL    HW1 2495   1.825   1.913   6.048
  532SOL    HW2 2496   1.844   1.956   5.891
  533SOL     OW 2497   4.197   0.366   3.961
  533SOL    HW1 2498   4.223   0.306   3.885
  533SOL    HW2 2499   4.230   0.458   3.943
  534SOL     OW 2500   1.907   4.139   1.760
  534SOL    HW1 2501   1.954   4.052   1.743
  534SOL    HW2 2502   1.846   4.159   1.683
  535SOL     OW 2503   4.897   3.443   4.288
  535SOL    HW1 2504   4.937   3.351   4.284
  535SOL    HW2 2505   4.857   3.458   4.378
  536SOL     OW 2506   6.070   6.619   2.034
  536SOL    HW1 2507   6.165   6.609   2.005
  536SOL    HW2 2508   6.062   6.594   2.130
  537SOL     OW 2509   2.908   1.967   2.666
  537SOL    HW1 2510   2.904   1.877   2.709
  537SOL    HW2 2511   3.003   1.997   2.661
  538SOL     OW 2512   3.587   5.016   4.707
  538SOL    HW1 2513   3.582   4.997   4.805
  538SOL    HW2 2514   3.496   5.039   4.672
  539SOL     OW 2515   1.232   0.135   6.365
  539SOL    HW1 2516   1.250   0.215   6.308
  539SOL    HW2 2517   1.225   0.164   6.461
  540SOL     OW 2518   1.575   0.451   4.872
  540SOL    HW1 2519   1.507   0.493   4.813
  540SOL    HW2 2520   1.530   0.393   4.939
  541SOL     OW 2521   5.207   5.775   4.026
  541SOL    HW1 2522   5.249   5.704   3.969
  541SOL    HW2 2523   5.132   5.735   4.078
  542SOL     OW 2524   3.593   6.743   5.692
  542SOL    HW1 2525   3.655   6.729   5.768
  542SOL    HW2 2526   3.499   6.730   5.722
  543SOL     OW 2527   6.403   2.340   3.607
  543SOL    HW1 2528   6.404   2.249   3.650
  543SOL    HW2 2529   6.353   2.404   3.664
  544SOL     OW 2530   1.376   3.187   1.496
  544SOL    HW1 2531   1.459   3.187   1.552
  544SOL    HW2 2532   1.401   3.196   1.400
  545SOL     OW 2533   6.611   6.458   1.127
  545SOL    HW1 2534   6.512   6.448   1.118
  545SOL    HW2 2535   6.649   6.377   1.171
  546SOL     OW 2536   0.037   3.826   1.973
  546SOL    HW1 2537   0.048   3.804   2.070
  546SOL    HW2 2538   0.112   3.787   1.921
  547SOL     OW 2539   5.103   0.176   6.414
  547SOL    HW1 2540   5.096   0.236   6.334
  547SOL    HW2 2541   5.011   0.144   6.439
  548SOL     OW 2542   3.567   2.436   6.846
  548SOL    HW1 2543   3.578   2.351   6.897
  548SOL    HW2 2544   3.562   2.513   6.911
  549SOL     OW 2545   5.473   1.579   2.086
  549SOL    HW1 2546   5.500   1.626   2.003
  549SOL    HW2 2547   5.550   1.580   2.151
  550SOL     OW 2548   6.944   5.904   3.214
  550SOL    HW1 2549   7.007   5.933   3.287
  550SOL    HW2 2550   6.876   5.975   3.198
  551SOL     OW 2551   5.921   0.459   0.679
  551SOL    HW1 2552   5.972   0.461   0.594
  551SOL    HW2 2553   5.823   0.455   0.659
  552SOL     OW 2554   0.788   6.429   5.286
  552SOL    HW1 2555   0.704   6.387   5.252
  552SOL    HW2 2556   0.785   6.528   5.270
  553SOL     OW 2557   3.473   1.871   6.740
  553SOL    HW1 2558   3.564   1.889   6.776
  553SOL    HW2 2559   3.406   1.879   6.814
  554SOL     OW 2560   6.170   6.069   1.089
  554SOL    HW1 2561   6.141   6.158   1.054
  554SOL    HW2 2562   6.112   5.998   1.051
  555SOL     OW 2563   2.212   3.787   5.196
  555SOL    HW1 2564   2.233   3.705   5.143
  555SOL    HW2 2565   2.285   3.854   5.182
  556SOL     OW 2566   5.859   0.058   3.584
  556SOL    HW1 2567   5.941   0.076   3.530
  556SOL    HW2 2568   5.840   6.977   3.586
  557SOL     OW 2569   5.581   4.318   6.735
  557SOL    HW1 2570   5.673   4.297   6.701
  557SOL    HW2 2571   5.533   4.375   6.668
  558SOL     OW 2572   3.455   3.532   2.784
  558SOL    HW1 2573   3.381   3.518   2.718
  558SOL    HW2 2574   3.451   3.461   2.854
  559SOL     OW 2575   6.482   0.215   5.658
  559SOL    HW1 2576   6.567   0.263   5.637
  559SOL    HW2 2577   6.485   0.123   5.621
  560SOL     OW 2578   6.793   3.021   4.431
  560SOL    HW1 2579   6.865   3.005   4.499
  560SOL    HW2 2580   6.810   3.107   4.384
  561SOL     OW 2581   0.681   2.867   0.497
  561SOL    HW1 2582   0.763   2.835   0.546
  561SOL    HW2 2583   0.642   2.945   0.545
  562SOL     OW 2584   4.249   6.468   4.642
  562SOL    HW1 2585   4.173   6.528   4.669
  562SOL    HW2 2586   4.242   6.381   4.691
  563SOL     OW 2587   1.802   0.747   4.017
  563SOL    HW1 2588   1.753   0.812   3.958
  563SOL    HW2 2589   1.834   0.670   3.962
  564SOL     OW 2590   6.032   1.901   6.038
  564SOL    HW1 2591   6.034   1.940   6.130
  564SOL    HW2 2592   5.941   1.916   5.997
  565SOL     OW 2593   3.593   3.725   3.465
  565SOL    HW1 2594   3.535   3.650   3.433
  565SOL    HW2 2595   3.560   3.757   3.553
  566SOL     OW 2596   3.222   0.889   3.707
  566SOL    HW1 2597   3.147   0.870   3.643
  566SOL    HW2 2598   3.266   0.975   3.681
  567SOL     OW 2599   2.964   2.947   5.643
  567SOL    HW1 2600   2.944   2.960   5.740
  567SOL    HW2 2601   2.962   3.036   5.597
  568SOL     OW 2602   0.477   6.267   0.632
  568SOL    HW1 2603   0.500   6.293   0.539
  568SOL    HW2 2604   0.521   6.329   0.697
  569SOL     OW 2605   6.239   3.927   0.079
  569SOL    HW1 2606   6.260   3.858   0.148
  569SOL    HW2 2607   6.266   4.017   0.112
  570SOL     OW 2608   2.738   0.627   6.207
  570SOL    HW1 2609   2.800   0.696   6.168
  570SOL    HW2 2610   2.710   0.563   6.136
  571SOL     OW 2611   2.256   4.482   1.357
  571SOL    HW1 2612   2.257   4.448   1.452
  571SOL    HW2 2613   2.177   4.445   1.309
  572SOL     OW 2614   2.926   0.620   4.911
  572SOL    HW1 2615   2.983   0.701   4.900
  572SOL    HW2 2616   2.889   0.616   5.004
  573SOL     OW 2617   0.265   0.784   5.210
  573SOL    HW1 2618   0.235   0.728   5.287
  573SOL    HW2 2619   0.219   0.873   5.214
  574SOL     OW 2620   2.016   1.596   6.152
  574SOL    HW1 2621   2.069   1.675   6.182
  574SOL    HW2 2622   1.973   1.616   6.064
  575SOL     OW 2623   4.058   3.623   6.922
  575SOL    HW1 2624   4.076   3.568   7.004
  575SOL    HW2 2625   4.016   3.710   6.949
  576SOL     OW 2626   1.984   2.102   2.940
  576SOL    HW1 2627   2.080   2.106   2.914
  576SOL    HW2 2628   1.928   2.082   2.860
  577SOL     OW 2629   0.520   1.115   1.166
  577SOL    HW1 2630   0.478   1.206   1.170
  577SOL    HW2 2631   0.573   1.099   1.249
  578SOL     OW 2632   3.525   0.212   6.762
  578SOL    HW1 2633   3.558   0.288   6.707
  578SOL    HW2 2634   3.574   0.128   6.736
  579SOL     OW 2635   2.050   3.915   1.762
  579SOL    HW1 2636   2.081   3.955   1.676
  579SOL    HW2 2637   2.113   3.939   1.836
  580SOL     OW 2638   4.849   5.284   4.808
  580SOL    HW1 2639   4.856   5.217   4.882
  580SOL    HW2 2640   4.753   5.300   4.786
  581SOL     OW 2641   2.199   2.397   5.012
  581SOL    HW1 2642   2.235   2.305   4.996
  581SOL    HW2 2643   2.271   2.465   4.999
  582SOL     OW 2644   5.072   4.857   4.123
  582SOL    HW1 2645   5.064   4.955   4.106
  582SOL    HW2 2646   5.154   4.840   4.178
  583SOL     OW 2647   3.840   6.189   5.731
  583SOL    HW1 2648   3.778   6.207   5.655
  583SOL    HW2 2649   3.847   6.271   5.788
  584SOL     OW 2650   3.941   0.934   5.592
  584SOL    HW1 2651   3.851   0.940   5.549
  584SOL    HW2 2652   3.995   0.862   5.549
  585SOL     OW 2653   3.646   0.286   1.261
  585SOL    HW1 2654   3.726   0.255   1.311
  585SOL    HW2 2655   3.563   0.254   1.307
  586SOL     OW 2656   3.963   0.713   0.602
  586SOL    HW1 2657   3.914   0.663   0.531
  586SOL    HW2 2658   3.997   0.799   0.564
  587SOL     OW 2659   5.061   2.070   1.878
  587SOL    HW1 2660   5.089   2.165   1.866
  587SOL    HW2 2661   4.961   2.065   1.878
  588SOL     OW 2662   1.764   4.774   3.035
  588SOL    HW1 2663   1.716   4.823   2.963
  588SOL    HW2 2664   1.820   4.702   2.995
  589SOL     OW 2665   2.895   5.233   0.442
  589SOL    HW1 2666   2.846   5.293   0.505
  589SOL    HW2 2667   2.924   5.285   0.362
  590SOL     OW 2668   3.418   2.432   0.201
  590SOL    HW1 2669   3.338   2.464   0.149
  590SOL    HW2 2670   3.390   2.356   0.260
  591SOL     OW 2671   3.085   5.982   3.828
  591SOL    HW1 2672   3.083   5.888   3.861
  591SOL    HW2 2673   3.078   5.983   3.728
  592SOL     OW 2674   3.609   1.803   4.428
  592SOL    HW1 2675   3.541   1.772   4.494
  592SOL    HW2 2676   3.695   1.754   4.443
  593SOL     OW 2677   2.148   1.909   6.762
  593SOL    HW1 2678   2.054   1.941   6.775
  593SOL    HW2 2679   2.169   1.838   6.830
  594SOL     OW 2680   4.560   1.073   2.610
  594SOL    HW1 2681   4.491   1.001   2.606
  594SOL    HW2 2682   4.633   1.053   2.545
  595SOL     OW 2683   6.080   5.771   2.781
  595SOL    HW1 2684   6.030   5.858   2.786
  595SOL    HW2 2685   6.027   5.705   2.728
  596SOL     OW 2686   6.543   4.712   4.294
  596SOL    HW1 2687   6.522   4.809   4.285
  596SOL    HW2 2688   6.561   4.673   4.203
  597SOL     OW 2689   3.062   1.219   6.770
  597SOL    HW1 2690   3.126   1.206   6.846
  597SOL    HW2 2691   2.977   1.171   6.790
  598SOL     OW 2692   3.283   4.126   3.952
  598SOL    HW1 2693   3.211   4.115   4.020
  598SOL    HW2 2694   3.369   4.147   3.999
  599SOL     OW 2695   1.463   5.438   1.463
  599SOL    HW1 2696   1.403   5.466   1.388
  599SOL    HW2 2697   1.418   5.456   1.550
  600SOL     OW 2698   6.602   3.177   5.199
  600SOL    HW1 2699   6.638   3.255   5.148
  600SOL    HW2 2700   6.556   3.114   5.136
  601SOL     OW 2701   0.883   6.479   5.808
  601SOL    HW1 2702   0.972   6.508   5.773
  601SOL    HW2 2703   0.835   6.427   5.737
  602SOL     OW 2704   2.088   0.335   3.391
  602SOL    HW1 2705   2.112   0.357   3.296
  602SOL    HW2 2706   2.166   0.294   3.437
  603SOL     OW 2707   1.671   1.707   4.394
  603SOL    HW1 2708   1.707   1.764   4.320
  603SOL    HW2 2709   1.596   1.651   4.361
  604SOL     OW 2710   5.968   3.099   1.087
  604SOL    HW1 2711   5.955   3.168   1.158
  604SOL    HW2 2712   5.879   3.060   1.062
  605SOL     OW 2713   6.464   6.462   1.550
  605SOL    HW1 2714   6.478   6.363   1.562
  605SOL    HW2 2715   6.417   6.478   1.463
  606SOL     OW 2716   3.620   0.163   4.594
  606SOL    HW1 2717   3.601   0.087   4.531
  606SOL    HW2 2718   3.622   0.128   4.688
  607SOL     OW 2719   1.704   2.989   5.427
  607SOL    HW1 2720   1.686   2.932   5.507
  607SOL    HW2 2721   1.801   2.981   5.402
  608SOL     OW 2722   3.194   1.304   5.549
  608SOL    HW1 2723   3.111   1.265   5.589
  608SOL    HW2 2724   3.201   1.400   5.575
  609SOL     OW 2725   3.579   2.992   2.123
  609SOL    HW1 2726   3.527   2.919   2.077
  609SOL    HW2 2727   3.649   3.026   2.060
  610SOL     OW 2728   4.558   3.647   1.667
  610SOL    HW1 2729   4.585   3.551   1.657
  610SOL    HW2 2730   4.467   3.652   1.707
  611SOL     OW 2731   3.609   0.652   3.115
  611SOL    HW1 2732   3.667   0.726   3.079
  611SOL    HW2 2733   3.613   0.653   3.215
  612SOL     OW 2734   4.261   5.060   4.242
  612SOL    HW1 2735   4.314   5.014   4.313
  612SOL    HW2 2736   4.323   5.104   4.177
  613SOL     OW 2737   4.184   4.647   5.320
  613SOL    HW1 2738   4.085   4.632   5.326
  613SOL    HW2 2739   4.219   4.602   5.238
  614SOL     OW 2740   3.148   6.154   6.100
  614SOL    HW1 2741   3.058   6.197   6.111
  614SOL    HW2 2742   3.215   6.199   6.159
  615SOL     OW 2743   0.825   4.941   2.449
  615SOL    HW1 2744   0.863   4.948   2.357
  615SOL    HW2 2745   0.792   5.031   2.478
  616SOL     OW 2746   5.972   2.561   3.645
  616SOL    HW1 2747   6.056   2.601   3.610
  616SOL    HW2 2748   5.908   2.546   3.569
  617SOL     OW 2749   2.934   6.546   6.044
  617SOL    HW1 2750   2.878   6.530   6.125
  617SOL    HW2 2751   2.880   6.529   5.961
  618SOL     OW 2752   1.597   1.324   2.863
  618SOL    HW1 2753   1.510   1.331   2.814
  618SOL    HW2 2754   1.647   1.244   2.831
  619SOL     OW 2755   0.738   1.826   6.756
  619SOL    HW1 2756   0.651   1.827   6.804
  619SOL    HW2 2757   0.748   1.738   6.709
  620SOL     OW 2758   4.389   3.574   1.292
  620SOL    HW1 2759   4.334   3.649   1.330
  620SOL    HW2 2760   4.432   3.604   1.207
  621SOL     OW 2761   0.391   5.281   1.194
  621SOL    HW1 2762   0.381   5.329   1.107
  621SOL    HW2 2763   0.369   5.343   1.269
  622SOL     OW 2764   0.872   0.609   6.758
  622SOL    HW1 2765   0.883   0.522   6.808
  622SOL    HW2 2766   0.932   0.608   6.678
  623SOL     OW 2767   0.628   4.723   6.036
  623SOL    HW1 2768   0.712   4.757   5.994
  623SOL    HW2 2769   0.577   4.800   6.076
  624SOL     OW 2770   0.861   1.954   1.212
  624SOL    HW1 2771   0.946   1.988   1.172
  624SOL    HW2 2772   0.783   1.996   1.166
  625SOL     OW 2773   1.591   1.255   2.483
  625SOL    HW1 2774   1.557   1.338   2.439
  625SOL    HW2 2775   1.668   1.219   2.429
  626SOL     OW 2776   3.229   6.759   4.616
  626SOL    HW1 2777   3.161   6.781   4.545
  626SOL    HW2 2778   3.319   6.747   4.574
  627SOL     OW 2779   5.397   0.980   7.001
  627SOL    HW1 2780   5.332   0.998   0.058
  627SOL    HW2 2781   5.426   1.066   6.960
  628SOL     OW 2782   5.395   4.059   3.448
  628SOL    HW1 2783   5.418   3.978   3.395
  628SOL    HW2 2784   5.354   4.128   3.389
  629SOL     OW 2785   1.511   6.228   0.507
  629SOL    HW1 2786   1.487   6.325   0.516
  629SOL    HW2 2787   1.610   6.218   0.512
  630SOL     OW 2788   3.067   1.943   1.807
  630SOL    HW1 2789   2.970   1.936   1.785
  630SOL    HW2 2790   3.119   1.968   1.726
  631SOL     OW 2791   2.134   6.894   4.807
  631SOL    HW1 2792   2.190   6.977   4.804
  631SOL    HW2 2793   2.157   6.835   4.730
  632SOL     OW 2794   2.109   0.577   1.224
  632SOL    HW1 2795   2.204   0.584   1.192
  632SOL    HW2 2796   2.052   0.641   1.171
  633SOL     OW 2797   1.986   6.277   5.550
  633SOL    HW1 2798   1.926   6.334   5.493
  633SOL    HW2 2799   2.076   6.272   5.507
  634SOL     OW 2800   3.109   5.680   1.392
  634SOL    HW1 2801   3.136   5.663   1.297
  634SOL    HW2 2802   3.136   5.603   1.449
  635SOL     OW 2803   2.623   0.504   2.510
  635SOL    HW1 2804   2.554   0.458   2.566
  635SOL    HW2 2805   2.602   0.489   2.413
  636SOL     OW 2806   5.294   5.535   0.173
  636SOL    HW1 2807   5.263   5.567   0.083
  636SOL    HW2 2808   5.334   5.612   0.223
  637SOL     OW 2809   5.498   4.545   0.523
  637SOL    HW1 2810   5.454   4.582   0.605
  637SOL    HW2 2811   5.533   4.453   0.542
  638SOL     OW 2812   5.498   1.062   2.283
  638SOL    HW1 2813   5.558   1.045   2.204
  638SOL    HW2 2814   5.476   1.159   2.287
  639SOL     OW 2815   4.639   4.449   2.703
  639SOL    HW1 2816   4.698   4.437   2.624
  639SOL    HW2 2817   4.682   4.408   2.784
  640SOL     OW 2818   2.354   4.220   5.668
  640SOL    HW1 2819   2.317   4.218   5.575
  640SOL    HW2 2820   2.446   4.181   5.667
  641SOL     OW 2821   0.465   5.962   5.808
  641SOL    HW1 2822   0.413   5.877   5.803
  641SOL    HW2 2823   0.458   6.001   5.900
  642SOL     OW 2824   1.529   4.342   5.897
  642SOL    HW1 2825   1.483   4.306   5.815
  642SOL    HW2 2826   1.513   4.440   5.904
  643SOL     OW 2827   6.212   6.009   4.856
  643SOL    HW1 2828   6.130   6.024   4.910
  643SOL    HW2 2829   6.286   5.976   4.915
  644SOL     OW 2830   2.700   6.148   2.183
  644SOL    HW1 2831   2.723   6.058   2.147
  644SOL    HW2 2832   2.658   6.139   2.274
  645SOL     OW 2833   6.036   2.923   3.594
  645SOL    HW1 2834   5.993   2.875   3.518
  645SOL    HW2 2835   5.967   2.943   3.664
  646SOL     OW 2836   1.327   1.956   4.716
  646SOL    HW1 2837   1.301   2.052   4.727
  646SOL    HW2 2838   1.398   1.933   4.783
  647SOL     OW 2839   5.450   3.277   0.357
  647SOL    HW1 2840   5.545   3.248   0.363
  647SOL    HW2 2841   5.437   3.361   0.411
  648SOL     OW 2842   4.666   1.946   3.877
  648SOL    HW1 2843   4.570   1.947   3.906
  648SOL    HW2 2844   4.682   2.022   3.815
  649SOL     OW 2845   4.372   4.641   1.948
  649SOL    HW1 2846   4.450   4.581   1.928
  649SOL    HW2 2847   4.376   4.670   2.043
  650SOL     OW 2848   4.765   3.700   1.071
  650SOL    HW1 2849   4.816   3.708   0.985
  650SOL    HW2 2850   4.806   3.761   1.139
  651SOL     OW 2851   1.081   5.961   6.227
  651SOL    HW1 2852   1.057   5.976   6.323
  651SOL    HW2 2853   1.020   5.891   6.188
  652SOL     OW 2854   5.006   1.525   2.888
  652SOL    HW1 2855   4.994   1.433   2.926
  652SOL    HW2 2856   4.974   1.526   2.793
  653SOL     OW 2857   3.829   4.868   3.328
  653SOL    HW1 2858   3.787   4.856   3.238
  653SOL    HW2 2859   3.774   4.821   3.398
  654SOL     OW 2860   6.446   5.254   0.015
  654SOL    HW1 2861   6.512   5.329   0.014
  654SOL    HW2 2862   6.440   5.213   6.941
  655SOL     OW 2863   0.051   1.352   6.766
  655SOL    HW1 2864   7.004   1.281   6.797
  655SOL    HW2 2865   0.036   1.436   6.818
  656SOL     OW 2866   2.549   5.895   1.472
  656SOL    HW1 2867   2.646   5.872   1.481
  656SOL    HW2 2868   2.493   5.820   1.508
  657SOL     OW 2869   4.168   1.137   6.627
  657SOL    HW1 2870   4.228   1.216   6.640
  657SOL    HW2 2871   4.092   1.163   6.567
  658SOL     OW 2872   3.465   5.111   5.652
  658SOL    HW1 2873   3.530   5.132   5.579
  658SOL    HW2 2874   3.399   5.043   5.619
  659SOL     OW 2875   2.858   0.810   6.499
  659SOL    HW1 2876   2.877   0.713   6.509
  659SOL    HW2 2877   2.921   0.851   6.433
  660SOL     OW 2878   3.863   5.773   3.340
  660SOL    HW1 2879   3.877   5.871   3.328
  660SOL    HW2 2880   3.799   5.758   3.416
  661SOL     OW 2881   5.545   5.679   2.881
  661SOL    HW1 2882   5.641   5.678   2.907
  661SOL    HW2 2883   5.492   5.629   2.949
  662SOL     OW 2884   3.592   1.255   0.617
  662SOL    HW1 2885   3.584   1.179   0.682
  662SOL    HW2 2886   3.687   1.288   0.616
  663SOL     OW 2887   2.204   4.853   4.709
  663SOL    HW1 2888   2.151   4.770   4.691
  663SOL    HW2 2889   2.289   4.829   4.755
  664SOL     OW 2890   5.904   0.878   6.299
  664SOL    HW1 2891   5.838   0.952   6.290
  664SOL    HW2 2892   5.997   0.916   6.303
  665SOL     OW 2893   1.900   4.571   2.142
  665SOL    HW1 2894   1.835   4.582   2.067
  665SOL    HW2 2895   1.968   4.643   2.139
  666SOL     OW 2896   4.075   1.135   0.731
  666SOL    HW1 2897   4.093   1.194   0.652
  666SOL    HW2 2898   4.058   1.191   0.812
  667SOL     OW 2899   1.178   6.616   2.477
  667SOL    HW1 2900   1.211   6.533   2.523
  667SOL    HW2 2901   1.190   6.695   2.538
  668SOL     OW 2902   5.120   3.969   0.693
  668SOL    HW1 2903   5.203   3.993   0.644
  668SOL    HW2 2904   5.143   3.913   0.773
  669SOL     OW 2905   5.077   1.690   2.457
  669SOL    HW1 2906   5.082   1.744   2.373
  669SOL    HW2 2907   5.141   1.728   2.524
  670SOL     OW 2908   2.961   2.214   3.085
  670SOL    HW1 2909   2.892   2.282   3.109
  670SOL    HW2 2910   2.991   2.166   3.167
  671SOL     OW 2911   3.011   6.816   1.537
  671SOL    HW1 2912   2.979   6.869   1.458
  671SOL    HW2 2913   2.948   6.828   1.613
  672SOL     OW 2914   1.591   6.868   2.404
  672SOL    HW1 2915   1.680   6.823   2.416
  672SOL    HW2 2916   1.572   6.924   2.485
  673SOL     OW 2917   5.659   6.557   0.808
  673SOL    HW1 2918   5.699   6.564   0.717
  673SOL    HW2 2919   5.649   6.461   0.833
  674SOL     OW 2920   6.184   0.790   3.908
  674SOL    HW1 2921   6.238   0.787   3.992
  674SOL    HW2 2922   6.206   0.711   3.851
  675SOL     OW 2923   0.186   3.569   3.167
  675SOL    HW1 2924   0.098   3.541   3.205
  675SOL    HW2 2925   0.208   3.662   3.199
  676SOL     OW 2926   2.386   6.533   5.940
  676SOL    HW1 2927   2.398   6.462   5.871
  676SOL    HW2 2928   2.308   6.590   5.916
  677SOL     OW 2929   5.230   1.697   1.287
  677SOL    HW1 2930   5.156   1.645   1.329
  677SOL    HW2 2931   5.258   1.653   1.202
  678SOL     OW 2932   0.780   5.371   3.516
  678SOL    HW1 2933   0.760   5.281   3.475
  678SOL    HW2 2934   0.803   5.359   3.613
  679SOL     OW 2935   4.661   2.217   5.293
  679SOL    HW1 2936   4.566   2.198   5.270
  679SOL    HW2 2937   4.700   2.140   5.343
  680SOL     OW 2938   6.059   6.372   4.445
  680SOL    HW1 2939   6.043   6.281   4.408
  680SOL    HW2 2940   6.152   6.378   4.481
  681SOL     OW 2941   4.625   4.919   2.363
  681SOL    HW1 2942   4.569   4.854   2.312
  681SOL    HW2 2943   4.605   4.910   2.461
  682SOL     OW 2944   0.612   1.331   3.245
  682SOL    HW1 2945   0.541   1.401   3.257
  682SOL    HW2 2946   0.578   1.258   3.185
  683SOL     OW 2947   3.502   3.933   1.388
  683SOL    HW1 2948   3.591   3.944   1.431
  683SOL    HW2 2949   3.506   3.966   1.294
  684SOL     OW 2950   6.444   1.440   5.945
  684SOL    HW1 2951   6.456   1.538   5.963
  684SOL    HW2 2952   6.502   1.414   5.868
  685SOL     OW 2953   3.389   0.463   3.106
  685SOL    HW1 2954   3.441   0.548   3.119
  685SOL    HW2 2955   3.376   0.448   3.008
  686SOL     OW 2956   4.189   0.279   4.966
  686SOL    HW1 2957   4.151   0.229   4.887
  686SOL    HW2 2958   4.284   0.252   4.980
  687SOL     OW 2959   0.691   2.177   3.411
  687SOL    HW1 2960   0.627   2.124   3.355
  687SOL    HW2 2961   0.667   2.274   3.407
  688SOL     OW 2962   6.136   1.396   6.802
  688SOL    HW1 2963   6.233   1.380   6.818
  688SOL    HW2 2964   6.124   1.455   6.722
  689SOL     OW 2965   1.547   5.603   6.108
  689SOL    HW1 2966   1.524   5.660   6.029
  689SOL    HW2 2967   1.642   5.573   6.101
  690SOL     OW 2968   5.223   3.463   2.869
  690SOL    HW1 2969   5.238   3.378   2.920
  690SOL    HW2 2970   5.201   3.442   2.774
  691SOL     OW 2971   5.961   1.505   0.865
  691SOL    HW1 2972   5.978   1.602   0.881
  691SOL    HW2 2973   6.047   1.454   0.873
  692SOL     OW 2974   1.683   0.160   4.679
  692SOL    HW1 2975   1.766   0.105   4.669
  692SOL    HW2 2976   1.628   0.124   4.755
  693SOL     OW 2977   5.432   5.893   3.378
  693SOL    HW1 2978   5.520   5.932   3.402
  693SOL    HW2 2979   5.431   5.867   3.282
  694SOL     OW 2980   4.946   6.112   5.394
  694SOL    HW1 2981   5.019   6.069   5.448
  694SOL    HW2 2982   4.903   6.184   5.449
  695SOL     OW 2983   4.535   6.911   4.181
  695SOL    HW1 2984   4.466   6.978   4.154
  695SOL    HW2 2985   4.550   6.847   4.105
  696SOL     OW 2986   5.317   3.843   2.821
  696SOL    HW1 2987   5.221   3.832   2.796
  696SOL    HW2 2988   5.331   3.932   2.865
  697SOL     OW 2989   0.911   6.410   2.137
  697SOL    HW1 2990   0.971   6.478   2.180
  697SOL    HW2 2991   0.857   6.364   2.207
  698SOL     OW 2992   5.825   6.693   0.025
  698SOL    HW1 2993   5.784   6.751   6.971
  698SOL    HW2 2994   5.879   6.750   0.087
  699SOL     OW 2995   3.130   3.099   1.403
  699SOL    HW1 2996   3.178   3.061   1.483
  699SOL    HW2 2997   3.087   3.024   1.352
  700SOL     OW 2998   4.082   7.003   4.390
  700SOL    HW1 2999   4.156   6.937   4.402
  700SOL    HW2 3000   4.116   0.065   4.340
  701SOL     OW 3001   4.713   4.982   1.661
  701SOL    HW1 3002   4.618   5.006   1.681
  701SOL    HW2 3003   4.773   5.056   1.690
  702SOL     OW 3004   3.956   0.513   3.967
  702SOL    HW1 3005   4.044   0.469   3.978
  702SOL    HW2 3006   3.892   0.449   3.924
  703SOL     OW 3007   3.152   2.295   6.832
  703SOL    HW1 3008   3.154   2.395   6.838
  703SOL    HW2 3009   3.185   2.256   6.918
  704SOL     OW 3010   2.196   2.268   5.482
  704SOL    HW1 3011   2.185   2.171   5.464
  704SOL    HW2 3012   2.188   2.285   5.581
  705SOL     OW 3013   0.448   6.487   4.999
  705SOL    HW1 3014   0.526   6.545   4.976
  705SOL    HW2 3015   0.478   6.413   5.059
  706SOL     OW 3016   4.308   1.148   5.228
  706SOL    HW1 3017   4.278   1.058   5.258
  706SOL    HW2 3018   4.249   1.218   5.267
  707SOL     OW 3019   3.233   5.243   4.172
  707SOL    HW1 3020   3.287   5.200   4.099
  707SOL    HW2 3021   3.136   5.233   4.152
  708SOL     OW 3022   4.471   5.800   3.914
  708SOL    HW1 3023   4.412   5.864   3.964
  708SOL    HW2 3024   4.563   5.839   3.905
  709SOL     OW 3025   2.165   0.134   0.990
  709SOL    HW1 3026   2.181   0.208   1.055
  709SOL    HW2 3027   2.240   0.068   0.995
  710SOL     OW 3028   4.798   3.201   1.811
  710SOL    HW1 3029   4.712   3.149   1.805
  710SOL    HW2 3030   4.875   3.138   1.806
  711SOL     OW 3031   6.871   2.295   6.917
  711SOL    HW1 3032   6.851   2.271   7.012
  711SOL    HW2 3033   6.814   2.238   6.857
  712SOL     OW 3034   5.197   3.705   0.388
  712SOL    HW1 3035   5.098   3.707   0.403
  712SOL    HW2 3036   5.216   3.724   0.292
  713SOL     OW 3037   4.014   3.326   4.878
  713SOL    HW1 3038   4.020   3.238   4.831
  713SOL    HW2 3039   3.924   3.334   4.921
  714SOL     OW 3040   5.086   5.982   3.025
  714SOL    HW1 3041   5.004   5.940   2.987
  714SOL    HW2 3042   5.152   5.998   2.952
  715SOL     OW 3043   6.244   4.940   5.842
  715SOL    HW1 3044   6.185   4.888   5.905
  715SOL    HW2 3045   6.255   4.888   5.757
  716SOL     OW 3046   2.064   1.826   2.958
  716SOL    HW1 3047   2.053   1.925   2.952
  716SOL    HW2 3048   1.981   1.782   2.921
  717SOL     OW 3049   5.286   4.789   4.283
  717SOL    HW1 3050   5.230   4.735   4.345
  717SOL    HW2 3051   5.378   4.799   4.321
  718SOL     OW 3052   5.268   2.377   5.203
  718SOL    HW1 3053   5.319   2.435   5.267
  718SOL    HW2 3054   5.307   2.285   5.202
  719SOL     OW 3055   5.474   6.641   3.921
  719SOL    HW1 3056   5.493   6.634   4.019
  719SOL    HW2 3057   5.521   6.721   3.884
  720SOL     OW 3058   2.202   1.098   0.451
  720SOL    HW1 3059   2.150   1.181   0.433
  720SOL    HW2 3060   2.293   1.107   0.410
  721SOL     OW 3061   0.097   2.026   2.673
  721SOL    HW1 3062   0.159   1.974   2.732
  721SOL    HW2 3063   0.049   1.963   2.612
  722SOL     OW 3064   5.346   6.428   0.719
  722SOL    HW1 3065   5.322   6.508   0.774
  722SOL    HW2 3066   5.393   6.458   0.636
  723SOL     OW 3067   2.503   6.616   4.093
  723SOL    HW1 3068   2.576   6.647   4.153
  723SOL    HW2 3069   2.501   6.673   4.011
  724SOL     OW 3070   1.401   1.819   4.072
  724SOL    HW1 3071   1.389   1.903   4.125
  724SOL    HW2 3072   1.499   1.797   4.067
  725SOL     OW 3073   1.675   4.473   2.867
  725SOL    HW1 3074   1.726   4.499   2.949
  725SOL    HW2 3075   1.577   4.478   2.887
  726SOL     OW 3076   1.615   3.759   0.862
  726SOL    HW1 3077   1.535   3.699   0.863
  726SOL    HW2 3078   1.627   3.799   0.953
  727SOL     OW 3079   3.841   5.504   4.857
  727SOL    HW1 3080   3.900   5.526   4.779
  727SOL    HW2 3081   3.791   5.420   4.838
  728SOL     OW 3082   6.491   3.081   3.656
  728SOL    HW1 3083   6.545   3.015   3.708
  728SOL    HW2 3084   6.505   3.064   3.558
  729SOL     OW 3085   0.642   4.337   0.915
  729SOL    HW1 3086   0.567   4.271   0.923
  729SOL    HW2 3087   0.604   4.429   0.914
  730SOL     OW 3088   3.674   0.624   3.381
  730SOL    HW1 3089   3.584   0.596   3.414
  730SOL    HW2 3090   3.744   0.565   3.421
  731SOL     OW 3091   4.904   5.210   5.416
  731SOL    HW1 3092   4.852   5.242   5.338
  731SOL    HW2 3093   4.945   5.121   5.396
  732SOL     OW 3094   3.669   1.312   5.129
  732SOL    HW1 3095   3.634   1.369   5.054
  732SOL    HW2 3096   3.625   1.340   5.215
  733SOL     OW 3097   6.228   5.581   3.077
  733SOL    HW1 3098   6.246   5.679   3.069
  733SOL    HW2 3099   6.292   5.531   3.017
  734SOL     OW 3100   6.407   6.577   2.784
  734SOL    HW1 3101   6.329   6.547   2.839
  734SOL    HW2 3102   6.441   6.664   2.820
  735SOL     OW 3103   4.862   6.346   2.355
  735SOL    HW1 3104   4.801   6.423   2.377
  735SOL    HW2 3105   4.910   6.318   2.438
  736SOL     OW 3106   2.308   1.206   3.815
  736SOL    HW1 3107   2.389   1.150   3.794
  736SOL    HW2 3108   2.225   1.154   3.794
  737SOL     OW 3109   3.595   0.865   5.859
  737SOL    HW1 3110   3.650   0.826   5.785
  737SOL    HW2 3111   3.647   0.938   5.904
  738SOL     OW 3112   2.284   4.378   0.313
  738SOL    HW1 3113   2.355   4.448   0.308
  738SOL    HW2 3114   2.325   4.287   0.311
  739SOL     OW 3115   3.111   6.885   4.401
  739SOL    HW1 3116   3.192   6.920   4.355
  739SOL    HW2 3117   3.083   6.799   4.359
  740SOL     OW 3118   4.937   3.369   2.731
  740SOL    HW1 3119   4.991   3.294   2.691
  740SOL    HW2 3120   4.952   3.372   2.830
  741SOL     OW 3121   3.034   0.872   3.109
  741SOL    HW1 3122   3.043   0.794   3.171
  741SOL    HW2 3123   3.003   0.841   3.020
  742SOL     OW 3124   2.569   6.617   2.009
  742SOL    HW1 3125   2.551   6.636   1.913
  742SOL    HW2 3126   2.568   6.518   2.025
  743SOL     OW 3127   0.608   0.022   3.151
  743SOL    HW1 3128   0.638   0.118   3.149
  743SOL    HW2 3129   0.684   6.981   3.178
  744SOL     OW 3130   5.074   1.647   0.123
  744SOL    HW1 3131   5.017   1.648   0.206
  744SOL    HW2 3132   5.065   1.559   0.077
  745SOL     OW 3133   2.017   0.213   4.688
  745SOL    HW1 3134   2.107   0.249   4.711
  745SOL    HW2 3135   2.027   0.126   4.639
  746SOL     OW 3136   6.981   4.687   5.782
  746SOL    HW1 3137   0.008   4.634   5.710
  746SOL    HW2 3138   6.995   4.641   5.870
  747SOL     OW 3139   4.880   5.793   2.670
  747SOL    HW1 3140   4.884   5.703   2.713
  747SOL    HW2 3141   4.795   5.801   2.617
  748SOL     OW 3142   5.211   5.230   1.795
  748SOL    HW1 3143   5.295   5.280   1.813
  748SOL    HW2 3144   5.133   5.291   1.808
  749SOL     OW 3145   4.898   4.087   4.437
  749SOL    HW1 3146   4.874   3.990   4.427
  749SOL    HW2 3147   4.971   4.097   4.505
  750SOL     OW 3148   2.452   1.763   2.393
  750SOL    HW1 3149   2.421   1.673   2.363
  750SOL    HW2 3150   2.541   1.754   2.438
  751SOL     OW 3151   3.717   0.703   0.714
  751SOL    HW1 3152   3.805   0.749   0.701
  751SOL    HW2 3153   3.681   0.675   0.625
  752SOL     OW 3154   3.648   2.547   5.439
  752SOL    HW1 3155   3.604   2.471   5.487
  752SOL    HW2 3156   3.731   2.514   5.393
  753SOL     OW 3157   3.974   3.918   4.465
  753SOL    HW1 3158   3.940   3.944   4.374
  753SOL    HW2 3159   3.956   3.993   4.529
  754SOL     OW 3160   5.845   0.388   0.360
  754SOL    HW1 3161   5.841   0.301   0.310
  754SOL    HW2 3162   5.940   0.407   0.386
  755SOL     OW 3163   4.138   4.313   5.339
  755SOL    HW1 3164   4.185   4.380   5.282
  755SOL    HW2 3165   4.040   4.331   5.338
  756SOL     OW 3166   2.490   5.474   6.308
  756SOL    HW1 3167   2.469   5.569   6.330
  756SOL    HW2 3168   2.507   5.466   6.210
  757SOL     OW 3169   2.641   5.951   2.571
  757SOL    HW1 3170   2.732   5.940   2.531
  757SOL    HW2 3171   2.645   5.932   2.669
  758SOL     OW 3172   4.724   0.622   4.201
  758SOL    HW1 3173   4.798   0.674   4.244
  758SOL    HW2 3174   4.660   0.684   4.157
  759SOL     OW 3175   0.831   3.211   3.643
  759SOL    HW1 3176   0.908   3.154   3.672
  759SOL    HW2 3177   0.747   3.156   3.645
  760SOL     OW 3178   6.283   5.376   3.278
  760SOL    HW1 3179   6.371   5.391   3.323
  760SOL    HW2 3180   6.260   5.456   3.223
  761SOL     OW 3181   3.929   4.265   6.268
  761SOL    HW1 3182   3.840   4.295   6.235
  761SOL    HW2 3183   3.967   4.335   6.329
  762SOL     OW 3184   3.153   5.851   3.496
  762SOL    HW1 3185   3.227   5.784   3.508
  762SOL    HW2 3186   3.065   5.806   3.513
  763SOL     OW 3187   5.623   0.702   0.702
  763SOL    HW1 3188   5.602   0.740   0.792
  763SOL    HW2 3189   5.704   0.747   0.665
  764SOL     OW 3190   4.996   6.875   6.020
  764SOL    HW1 3191   4.928   6.864   6.092
  764SOL    HW2 3192   4.974   6.955   5.964
  765SOL     OW 3193   6.820   0.076   0.721
  765SOL    HW1 3194   6.863   0.159   0.758
  765SOL    HW2 3195   6.786   0.020   0.797
  766SOL     OW 3196   2.643   2.043   4.754
  766SOL    HW1 3197   2.604   2.009   4.840
  766SOL    HW2 3198   2.724   1.989   4.732
  767SOL     OW 3199   6.583   4.982   4.841
  767SOL    HW1 3200   6.593   4.983   4.741
  767SOL    HW2 3201   6.643   4.911   4.879
  768SOL     OW 3202   1.751   5.525   2.970
  768SOL    HW1 3203   1.727   5.620   2.947
  768SOL    HW2 3204   1.727   5.465   2.894
  769SOL     OW 3205   2.497   2.117   5.309
  769SOL    HW1 3206   2.592   2.099   5.283
  769SOL    HW2 3207   2.492   2.137   5.407
  770SOL     OW 3208   1.419   4.628   5.872
  770SOL    HW1 3209   1.372   4.639   5.784
  770SOL    HW2 3210   1.460   4.715   5.899
  771SOL     OW 3211   1.545   5.274   2.920
  771SOL    HW1 3212   1.461   5.228   2.890
  771SOL    HW2 3213   1.585   5.224   2.997
  772SOL     OW 3214   5.993   4.438   0.961
  772SOL    HW1 3215   6.004   4.338   0.961
  772SOL    HW2 3216   5.905   4.462   1.001
  773SOL     OW 3217   1.623   4.163   3.722
  773SOL    HW1 3218   1.674   4.079   3.702
  773SOL    HW2 3219   1.554   4.144   3.792
  774SOL     OW 3220   2.532   0.619   3.453
  774SOL    HW1 3221   2.437   0.647   3.462
  774SOL    HW2 3222   2.574   0.669   3.376
  775SOL     OW 3223   1.166   4.359   2.732
  775SOL    HW1 3224   1.113   4.293   2.785
  775SOL    HW2 3225   1.146   4.347   2.635
  776SOL     OW 3226   2.367   5.265   6.061
  776SOL    HW1 3227   2.362   5.295   5.966
  776SOL    HW2 3228   2.417   5.179   6.066
  777SOL     OW 3229   2.529   3.983   6.251
  777SOL    HW1 3230   2.439   3.955   6.286
  777SOL    HW2 3231   2.552   4.073   6.287
  778SOL     OW 3232   2.837   5.955   6.920
  778SOL    HW1 3233   2.822   5.946   0.001
  778SOL    HW2 3234   2.749   5.949   6.872
  779SOL     OW 3235   0.043   2.736   3.080
  779SOL    HW1 3236   0.011   2.738   3.175
  779SOL    HW2 3237   0.143   2.728   3.078
  780SOL     OW 3238   0.283   2.228   4.511
  780SOL    HW1 3239   0.296   2.133   4.542
  780SOL    HW2 3240   0.219   2.229   4.435
  781SOL     OW 3241   0.031   4.551   0.066
  781SOL    HW1 3242   0.008   4.473   0.125
  781SOL    HW2 3243   0.075   4.622   0.120
  782SOL     OW 3244   1.838   3.337   4.525
  782SOL    HW1 3245   1.923   3.284   4.526
  782SOL    HW2 3246   1.860   3.434   4.521
  783SOL     OW 3247   6.340   4.892   6.741
  783SOL    HW1 3248   6.351   4.810   6.798
  783SOL    HW2 3249   6.409   4.960   6.767
  784SOL     OW 3250   2.399   5.909   0.889
  784SOL    HW1 3251   2.414   5.827   0.944
  784SOL    HW2 3252   2.301   5.929   0.884
  785SOL     OW 3253   0.749   0.844   3.950
  785SOL    HW1 3254   0.671   0.884   3.901
  785SOL    HW2 3255   0.743   0.745   3.947
  786SOL     OW 3256   6.065   1.012   4.007
  786SOL    HW1 3257   6.161   1.041   4.017
  786SOL    HW2 3258   6.062   0.913   3.989
  787SOL     OW 3259   2.017   6.636   0.864
  787SOL    HW1 3260   2.043   6.701   0.935
  787SOL    HW2 3261   2.007   6.545   0.905
  788SOL     OW 3262   2.089   2.388   1.804
  788SOL    HW1 3263   2.160   2.317   1.803
  788SOL    HW2 3264   2.008   2.353   1.757
  789SOL     OW 3265   4.384   4.492   2.663
  789SOL    HW1 3266   4.482   4.478   2.680
  789SOL    HW2 3267   4.331   4.421   2.710
  790SOL     OW 3268   0.965   2.668   2.337
  790SOL    HW1 3269   0.940   2.758   2.302
  790SOL    HW2 3270   1.043   2.678   2.400
  791SOL     OW 3271   2.791   6.064   3.879
  791SOL    HW1 3272   2.770   6.115   3.796
  791SOL    HW2 3273   2.880   6.020   3.870
  792SOL     OW 3274   1.520   0.394   0.015
  792SOL    HW1 3275   1.543   0.490   0.034
  792SOL    HW2 3276   1.558   0.368   6.943
  793SOL     OW 3277   2.776   6.260   4.083
  793SOL    HW1 3278   2.873   6.269   4.108
  793SOL    HW2 3279   2.767   6.197   4.006
  794SOL     OW 3280   3.472   3.524   2.399
  794SOL    HW1 3281   3.397   3.505   2.464
  794SOL    HW2 3282   3.491   3.622   2.397
  795SOL     OW 3283   4.199   0.773   6.044
  795SOL    HW1 3284   4.156   0.856   6.079
  795SOL    HW2 3285   4.293   0.768   6.078
  796SOL     OW 3286   0.439   2.562   0.844
  796SOL    HW1 3287   0.379   2.524   0.773
  796SOL    HW2 3288   0.433   2.504   0.926
  797SOL     OW 3289   4.622   0.311   0.815
  797SOL    HW1 3290   4.636   0.278   0.721
  797SOL    HW2 3291   4.533   0.280   0.848
  798SOL     OW 3292   5.092   6.280   1.058
  798SOL    HW1 3293   5.086   6.189   1.100
  798SOL    HW2 3294   5.130   6.270   0.966
  799SOL     OW 3295   2.598   2.108   5.605
  799SOL    HW1 3296   2.552   2.153   5.681
  799SOL    HW2 3297   2.660   2.173   5.560
  800SOL     OW 3298   5.570   2.944   3.234
  800SOL    HW1 3299   5.579   2.847   3.256
  800SOL    HW2 3300   5.597   2.959   3.139
  801SOL     OW 3301   1.994   5.776   6.110
  801SOL    HW1 3302   2.039   5.847   6.056
  801SOL    HW2 3303   1.895   5.782   6.098
  802SOL     OW 3304   5.369   2.187   6.830
  802SOL    HW1 3305   5.310   2.267   6.818
  802SOL    HW2 3306   5.328   2.126   6.898
  803SOL     OW 3307   2.454   1.415   4.711
  803SOL    HW1 3308   2.532   1.352   4.715
  803SOL    HW2 3309   2.408   1.416   4.800
  804SOL     OW 3310   5.226   0.684   3.172
  804SOL    HW1 3311   5.214   0.600   3.224
  804SOL    HW2 3312   5.322   0.712   3.175
  805SOL     OW 3313   3.784   0.711   4.102
  805SOL    HW1 3314   3.772   0.772   4.024
  805SOL    HW2 3315   3.841   0.633   4.075
  806SOL     OW 3316   2.499   5.855   5.219
  806SOL    HW1 3317   2.446   5.785   5.172
  806SOL    HW2 3318   2.597   5.835   5.208
  807SOL     OW 3319   1.588   6.397   6.064
  807SOL    HW1 3320   1.605   6.340   5.983
  807SOL    HW2 3321   1.491   6.392   6.088
  808SOL     OW 3322   5.149   2.716   6.130
  808SOL    HW1 3323   5.169   2.812   6.110
  808SOL    HW2 3324   5.063   2.709   6.180
  809SOL     OW 3325   2.333   5.090   0.101
  809SOL    HW1 3326   2.246   5.131   0.075
  809SOL    HW2 3327   2.334   5.074   0.200
  810SOL     OW 3328   3.920   3.231   6.990
  810SOL    HW1 3329   3.852   3.173   6.945
  810SOL    HW2 3330   3.883   3.323   7.002
  811SOL     OW 3331   6.318   5.042   4.918
  811SOL    HW1 3332   6.300   5.136   4.886
  811SOL    HW2 3333   6.406   5.011   4.881
  812SOL     OW 3334   0.466   3.479   1.887
  812SOL    HW1 3335   0.448   3.400   1.946
  812SOL    HW2 3336   0.537   3.455   1.821
  813SOL     OW 3337   1.803   2.114   5.040
  813SOL    HW1 3338   1.709   2.149   5.039
  813SOL    HW2 3339   1.860   2.172   5.098
  814SOL     OW 3340   0.674   5.159   2.548
  814SOL    HW1 3341   0.655   5.177   2.644
  814SOL    HW2 3342   0.687   5.245   2.499
  815SOL     OW 3343   4.107   1.770   4.567
  815SOL    HW1 3344   4.114   1.803   4.661
  815SOL    HW2 3345   4.186   1.802   4.515
  816SOL     OW 3346   5.934   4.587   6.942
  816SOL    HW1 3347   6.015   4.541   6.978
  816SOL    HW2 3348   5.857   4.523   6.940
  817SOL     OW 3349   0.568   5.152   6.947
  817SOL    HW1 3350   0.593   5.120   0.021
  817SOL    HW2 3351   0.584   5.079   6.880
  818SOL     OW 3352   6.810   2.117   4.664
  818SOL    HW1 3353   6.812   2.209   4.623
  818SOL    HW2 3354   6.793   2.125   4.762
  819SOL     OW 3355   4.894   2.891   1.832
  819SOL    HW1 3356   4.886   2.793   1.812
  819SOL    HW2 3357   4.821   2.918   1.895
  820SOL     OW 3358   2.398   1.753   5.339
  820SOL    HW1 3359   2.438   1.696   5.411
  820SOL    HW2 3360   2.467   1.773   5.270
  821SOL     OW 3361   5.110   3.566   6.767
  821SOL    HW1 3362   5.111   3.511   6.683
  821SOL    HW2 3363   5.084   3.508   6.844
  822SOL     OW 3364   0.509   4.834   3.487
  822SOL    HW1 3365   0.438   4.897   3.519
  822SOL    HW2 3366   0.556   4.795   3.566
  823SOL     OW 3367   1.180   3.489   4.846
  823SOL    HW1 3368   1.170   3.390   4.858
  823SOL    HW2 3369   1.090   3.532   4.855
  824SOL     OW 3370   4.827   0.748   6.582
  824SOL    HW1 3371   4.742   0.788   6.547
  824SOL    HW2 3372   4.843   0.781   6.675
  825SOL     OW 3373   5.959   5.884   1.105
  825SOL    HW1 3374   6.006   5.850   1.187
  825SOL    HW2 3375   5.982   5.826   1.027
  826SOL     OW 3376   3.604   2.036   7.012
  826SOL    HW1 3377   3.607   2.132   0.023
  826SOL    HW2 3378   3.640   2.027   6.919
  827SOL     OW 3379   3.675   3.915   5.286
  827SOL    HW1 3380   3.623   3.844   5.334
  827SOL    HW2 3381   3.747   3.950   5.346
  828SOL     OW 3382   0.250   6.380   6.192
  828SOL    HW1 3383   0.151   6.377   6.210
  828SOL    HW2 3384   0.299   6.378   6.280
  829SOL     OW 3385   3.446   3.202   2.557
  829SOL    HW1 3386   3.473   3.113   2.521
  829SOL    HW2 3387   3.460   3.272   2.487
  830SOL     OW 3388   6.985   4.424   0.560
  830SOL    HW1 3389   6.922   4.500   0.572
  830SOL    HW2 3390   6.934   4.338   0.563
  831SOL     OW 3391   4.731   0.613   2.188
  831SOL    HW1 3392   4.651   0.672   2.181
  831SOL    HW2 3393   4.715   0.529   2.135
  832SOL     OW 3394   3.180   1.572   4.939
  832SOL    HW1 3395   3.171   1.609   5.032
  832SOL    HW2 3396   3.245   1.496   4.939
  833SOL     OW 3397   3.645   2.302   0.072
  833SOL    HW1 3398   3.743   2.315   0.090
  833SOL    HW2 3399   3.592   2.354   0.139
  834SOL     OW 3400   5.950   2.754   0.390
  834SOL    HW1 3401   5.974   2.851   0.395
  834SOL    HW2 3402   5.921   2.721   0.480
  835SOL     OW 3403   0.247   0.272   4.875
  835SOL    HW1 3404   0.191   0.354   4.867
  835SOL    HW2 3405   0.330   0.294   4.926
  836SOL     OW 3406   5.225   0.610   5.052
  836SOL    HW1 3407   5.226   0.605   5.152
  836SOL    HW2 3408   5.136   0.643   5.022
  837SOL     OW 3409   1.587   0.641   0.026
  837SOL    HW1 3410   1.597   0.714   6.975
  837SOL    HW2 3411   1.640   0.663   0.107
  838SOL     OW 3412   1.185   5.796   3.464
  838SOL    HW1 3413   1.234   5.878   3.433
  838SOL    HW2 3414   1.088   5.806   3.441
  839SOL     OW 3415   1.535   1.996   0.428
  839SOL    HW1 3416   1.503   2.025   0.337
  839SOL    HW2 3417   1.626   2.034   0.445
  840SOL     OW 3418   4.885   5.190   0.115
  840SOL    HW1 3419   4.826   5.253   0.166
  840SOL    HW2 3420   4.977   5.192   0.153
  841SOL     OW 3421   2.965   4.626   0.083
  841SOL    HW1 3422   2.900   4.645   0.156
  841SOL    HW2 3423   2.988   4.528   0.084
  842SOL     OW 3424   4.145   5.665   0.738
  842SOL    HW1 3425   4.127   5.639   0.832
  842SOL    HW2 3426   4.196   5.592   0.692
  843SOL     OW 3427   1.213   0.582   2.139
  843SOL    HW1 3428   1.121   0.546   2.123
  843SOL    HW2 3429   1.208   0.662   2.198
  844SOL     OW 3430   6.894   0.704   1.476
  844SOL    HW1 3431   6.922   0.771   1.544
  844SOL    HW2 3432   6.924   0.735   1.385
  845SOL     OW 3433   3.167   1.515   2.875
  845SOL    HW1 3434   3.119   1.430   2.897
  845SOL    HW2 3435   3.165   1.530   2.776
  846SOL     OW 3436   3.021   1.983   0.657
  846SOL    HW1 3437   2.980   1.895   0.680
  846SOL    HW2 3438   3.106   1.994   0.708
  847SOL     OW 3439   2.636   3.805   1.667
  847SOL    HW1 3440   2.619   3.902   1.685
  847SOL    HW2 3441   2.733   3.786   1.678
  848SOL     OW 3442   6.930   6.096   0.542
  848SOL    HW1 3443   6.849   6.154   0.539
  848SOL    HW2 3444   6.988   6.114   0.463
  849SOL     OW 3445   6.113   3.324   6.601
  849SOL    HW1 3446   6.089   3.336   6.697
  849SOL    HW2 3447   6.078   3.401   6.548
  850SOL     OW 3448   0.916   0.618   5.140
  850SOL    HW1 3449   0.860   0.696   5.112
  850SOL    HW2 3450   1.009   0.630   5.106
  851SOL     OW 3451   5.376   3.544   5.834
  851SOL    HW1 3452   5.387   3.581   5.926
  851SOL    HW2 3453   5.305   3.473   5.834
  852SOL     OW 3454   0.489   3.730   1.987
  852SOL    HW1 3455   0.491   3.630   1.985
  852SOL    HW2 3456   0.535   3.765   1.905
  853SOL     OW 3457   2.539   2.415   0.248
  853SOL    HW1 3458   2.577   2.389   0.159
  853SOL    HW2 3459   2.563   2.345   0.316
  854SOL     OW 3460   5.794   6.013   5.882
  854SOL    HW1 3461   5.881   6.030   5.834
  854SOL    HW2 3462   5.785   5.915   5.900
  855SOL     OW 3463   5.660   1.754   0.350
  855SOL    HW1 3464   5.722   1.677   0.336
  855SOL    HW2 3465   5.583   1.747   0.287
  856SOL     OW 3466   1.592   5.311   1.718
  856SOL    HW1 3467   1.644   5.227   1.735
  856SOL    HW2 3468   1.556   5.311   1.624
  857SOL     OW 3469   0.036   5.878   4.947
  857SOL    HW1 3470   7.003   5.959   4.979
  857SOL    HW2 3471   0.087   5.900   4.864
  858SOL     OW 3472   4.430   3.306   0.281
  858SOL    HW1 3473   4.417   3.319   0.379
  858SOL    HW2 3474   4.448   3.209   0.262
  859SOL     OW 3475   5.040   6.374   5.209
  859SOL    HW1 3476   5.100   6.295   5.197
  859SOL    HW2 3477   5.057   6.415   5.299
  860SOL     OW 3478   4.554   3.083   6.070
  860SOL    HW1 3479   4.454   3.092   6.070
  860SOL    HW2 3480   4.590   3.107   6.160
  861SOL     OW 3481   2.240   5.990   1.733
  861SOL    HW1 3482   2.141   5.976   1.745
  861SOL    HW2 3483   2.289   5.908   1.763
  862SOL     OW 3484   0.243   4.110   4.165
  862SOL    HW1 3485   0.210   4.200   4.139
  862SOL    HW2 3486   0.172   4.042   4.146
  863SOL     OW 3487   6.137   0.701   1.305
  863SOL    HW1 3488   6.172   0.743   1.389
  863SOL    HW2 3489   6.180   0.744   1.226
  864SOL     OW 3490   5.655   6.148   4.319
  864SOL    HW1 3491   5.599   6.225   4.289
  864SOL    HW2 3492   5.619   6.113   4.405
  865SOL     OW 3493   1.548   5.995   5.731
  865SOL    HW1 3494   1.489   6.046   5.669
  865SOL    HW2 3495   1.597   6.058   5.791
  866SOL     OW 3496   3.528   0.101   1.730
  866SOL    HW1 3497   3.486   0.183   1.689
  866SOL    HW2 3498   3.485   0.019   1.693
  867SOL     OW 3499   5.615   1.808   5.989
  867SOL    HW1 3500   5.585   1.758   5.908
  867SOL    HW2 3501   5.683   1.876   5.963
  868SOL     OW 3502   0.368   2.202   2.105
  868SOL    HW1 3503   0.371   2.292   2.149
  868SOL    HW2 3504   0.420   2.136   2.161
  869SOL     OW 3505   6.965   3.541   3.543
  869SOL    HW1 3506   0.019   3.493   3.595
  869SOL    HW2 3507   6.919   3.607   3.602
  870SOL     OW 3508   3.549   5.160   2.100
  870SOL    HW1 3509   3.480   5.105   2.051
  870SOL    HW2 3510   3.541   5.143   2.198
  871SOL     OW 3511   4.655   1.438   3.240
  871SOL    HW1 3512   4.637   1.490   3.324
  871SOL    HW2 3513   4.707   1.355   3.262
  872SOL     OW 3514   0.705   2.148   4.802
  872SOL    HW1 3515   0.676   2.227   4.748
  872SOL    HW2 3516   0.678   2.162   4.898
  873SOL     OW 3517   3.968   0.025   5.984
  873SOL    HW1 3518   4.049   0.084   5.982
  873SOL    HW2 3519   3.994   6.952   6.019
  874SOL     OW 3520   4.799   4.121   1.223
  874SOL    HW1 3521   4.883   4.086   1.180
  874SOL    HW2 3522   4.724   4.057   1.206
  875SOL     OW 3523   4.852   5.430   1.461
  875SOL    HW1 3524   4.924   5.490   1.426
  875SOL    HW2 3525   4.765   5.453   1.417
  876SOL     OW 3526   6.889   0.320   0.814
  876SOL    HW1 3527   6.936   0.382   0.752
  876SOL    HW2 3528   6.846   0.373   0.887
  877SOL     OW 3529   2.017   3.412   6.394
  877SOL    HW1 3530   1.977   3.399   6.485
  877SOL    HW2 3531   1.980   3.495   6.353
  878SOL     OW 3532   4.315   6.210   4.729
  878SOL    HW1 3533   4.413   6.220   4.745
  878SOL    HW2 3534   4.291   6.113   4.726
  879SOL     OW 3535   5.877   7.015   0.702
  879SOL    HW1 3536   5.868   0.017   0.799
  879SOL    HW2 3537   5.942   0.062   0.661
  880SOL     OW 3538   2.886   3.499   2.337
  880SOL    HW1 3539   2.968   3.463   2.292
  880SOL    HW2 3540   2.810   3.499   2.272
  881SOL     OW 3541   4.130   1.571   0.607
  881SOL    HW1 3542   4.063   1.609   0.671
  881SOL    HW2 3543   4.178   1.646   0.561
  882SOL     OW 3544   1.389   3.165   4.482
  882SOL    HW1 3545   1.423   3.172   4.576
  882SOL    HW2 3546   1.432   3.235   4.425
  883SOL     OW 3547   2.753   6.974   2.549
  883SOL    HW1 3548   2.697   6.922   2.614
  883SOL    HW2 3549   2.802   0.030   2.597
  884SOL     OW 3550   4.374   3.557   5.627
  884SOL    HW1 3551   4.364   3.579   5.530
  884SOL    HW2 3552   4.467   3.526   5.645
  885SOL     OW 3553   3.722   2.588   6.098
  885SOL    HW1 3554   3.798   2.530   6.128
  885SOL    HW2 3555   3.663   2.536   6.037
  886SOL     OW 3556   3.343   0.703   6.935
  886SOL    HW1 3557   3.419   0.658   6.889
  886SOL    HW2 3558   3.365   0.716   0.015
  887SOL     OW 3559   4.872   1.383   4.362
  887SOL    HW1 3560   4.946   1.317   4.377
  887SOL    HW2 3561   4.893   1.468   4.410
  888SOL     OW 3562   6.746   6.792   3.013
  888SOL    HW1 3563   6.771   6.696   3.023
  888SOL    HW2 3564   6.716   6.828   3.102
  889SOL     OW 3565   0.606   3.416   6.767
  889SOL    HW1 3566   0.623   3.511   6.793
  889SOL    HW2 3567   0.511   3.392   6.786
  890SOL     OW 3568   2.270   5.122   4.108
  890SOL    HW1 3569   2.221   5.209   4.105
  890SOL    HW2 3570   2.369   5.140   4.113
  891SOL     OW 3571   4.562   5.834   1.548
  891SOL    HW1 3572   4.644   5.781   1.526
  891SOL    HW2 3573   4.528   5.878   1.465
  892SOL     OW 3574   3.109   4.343   0.639
  892SOL    HW1 3575   3.082   4.280   0.567
  892SOL    HW2 3576   3.036   4.410   0.653
  893SOL     OW 3577   2.424   6.692   2.550
  893SOL    HW1 3578   2.505   6.682   2.492
  893SOL    HW2 3579   2.402   6.604   2.592
  894SOL     OW 3580   0.849   4.273   1.133
  894SOL    HW1 3581   0.932   4.239   1.088
  894SOL    HW2 3582   0.807   4.344   1.077
  895SOL     OW 3583   0.415   5.568   3.986
  895SOL    HW1 3584   0.356   5.491   4.009
  895SOL    HW2 3585   0.445   5.560   3.891
  896SOL     OW 3586   6.848   6.974   5.965
  896SOL    HW1 3587   6.790   6.923   5.902
  896SOL    HW2 3588   6.841   6.935   6.056
  897SOL     OW 3589   5.337   0.711   6.888
  897SOL    HW1 3590   5.368   0.632   6.942
  897SOL    HW2 3591   5.362   0.795   6.936
  898SOL     OW 3592   3.982   6.055   3.242
  898SOL    HW1 3593   4.055   5.998   3.281
  898SOL    HW2 3594   4.022   6.136   3.199
  899SOL     OW 3595   0.173   5.050   0.082
  899SOL    HW1 3596   0.146   5.054   7.003
  899SOL    HW2 3597   0.106   5.099   0.138
  900SOL     OW 3598   5.005   5.263   0.695
  900SOL    HW1 3599   5.095   5.307   0.707
  900SOL    HW2 3600   5.005   5.211   0.610
  901SOL     OW 3601   1.465   1.069   2.301
  901SOL    HW1 3602   1.450   1.113   2.212
  901SOL    HW2 3603   1.499   1.137   2.366
  902SOL     OW 3604   6.009   3.610   2.033
  902SOL    HW1 3605   5.944   3.553   2.084
  902SOL    HW2 3606   5.977   3.704   2.034
  903SOL     OW 3607   0.253   2.462   0.668
  903SOL    HW1 3608   0.267   2.419   0.579
  903SOL    HW2 3609   0.198   2.545   0.655
  904SOL     OW 3610   2.936   1.529   1.937
  904SOL    HW1 3611   3.002   1.561   2.005
  904SOL    HW2 3612   2.850   1.579   1.947
  905SOL     OW 3613   6.096   2.980   6.266
  905SOL    HW1 3614   6.174   2.985   6.204
  905SOL    HW2 3615   6.061   3.073   6.281
  906SOL     OW 3616   5.775   3.919   6.857
  906SOL    HW1 3617   5.846   3.858   6.822
  906SOL    HW2 3618   5.724   3.871   6.929
  907SOL     OW 3619   5.262   4.233   0.010
  907SOL    HW1 3620   5.271   4.310   0.073
  907SOL    HW2 3621   5.252   4.267   6.933
  908SOL     OW 3622   1.300   4.300   2.418
  908SOL    HW1 3623   1.296   4.258   2.327
  908SOL    HW2 3624   1.207   4.312   2.453
  909SOL     OW 3625   5.217   5.271   6.420
  909SOL    HW1 3626   5.157   5.244   6.346
  909SOL    HW2 3627   5.245   5.366   6.408
  910SOL     OW 3628   2.455   4.015   0.939
  910SOL    HW1 3629   2.393   4.080   0.983
  910SOL    HW2 3630   2.501   3.960   1.008
  911SOL     OW 3631   1.043   5.217   6.356
  911SOL    HW1 3632   0.966   5.244   6.298
  911SOL    HW2 3633   1.041   5.118   6.372
  912SOL     OW 3634   4.862   2.102   3.126
  912SOL    HW1 3635   4.799   2.142   3.193
  912SOL    HW2 3636   4.920   2.035   3.172
  913SOL     OW 3637   5.058   6.868   2.975
  913SOL    HW1 3638   5.127   6.941   2.972
  913SOL    HW2 3639   5.008   6.872   3.061
  914SOL     OW 3640   2.926   0.117   6.819
  914SOL    HW1 3641   2.951   0.021   6.828
  914SOL    HW2 3642   2.857   0.141   6.887
  915SOL     OW 3643   5.414   5.397   0.508
  915SOL    HW1 3644   5.482   5.407   0.580
  915SOL    HW2 3645   5.445   5.328   0.443
  916SOL     OW 3646   1.448   2.165   2.567
  916SOL    HW1 3647   1.402   2.150   2.655
  916SOL    HW2 3648   1.488   2.079   2.535
  917SOL     OW 3649   6.436   6.983   0.839
  917SOL    HW1 3650   6.406   0.020   0.917
  917SOL    HW2 3651   6.463   6.892   0.869
  918SOL     OW 3652   2.344   5.346   0.401
  918SOL    HW1 3653   2.293   5.260   0.411
  918SOL    HW2 3654   2.289   5.410   0.348
  919SOL     OW 3655   5.601   2.230   4.898
  919SOL    HW1 3656   5.673   2.210   4.831
  919SOL    HW2 3657   5.627   2.195   4.988
  920SOL     OW 3658   2.818   5.443   2.410
  920SOL    HW1 3659   2.905   5.490   2.423
  920SOL    HW2 3660   2.772   5.433   2.498
  921SOL     OW 3661   4.874   5.107   5.018
  921SOL    HW1 3662   4.951   5.059   5.060
  921SOL    HW2 3663   4.864   5.197   5.059
  922SOL     OW 3664   3.565   2.874   3.630
  922SOL    HW1 3665   3.652   2.915   3.601
  922SOL    HW2 3666   3.490   2.917   3.580
  923SOL     OW 3667   2.279   3.474   5.275
  923SOL    HW1 3668   2.286   3.547   5.343
  923SOL    HW2 3669   2.345   3.402   5.296
  924SOL     OW 3670   0.346   3.708   2.546
  924SOL    HW1 3671   0.364   3.673   2.454
  924SOL    HW2 3672   0.292   3.641   2.598
  925SOL     OW 3673   6.893   1.797   0.150
  925SOL    HW1 3674   6.970   1.861   0.153
  925SOL    HW2 3675   6.875   1.761   0.241
  926SOL     OW 3676   1.692   1.344   2.061
  926SOL    HW1 3677   1.642   1.418   2.105
  926SOL    HW2 3678   1.657   1.330   1.968
  927SOL     OW 3679   5.919   3.534   3.917
  927SOL    HW1 3680   5.981   3.472   3.964
  927SOL    HW2 3681   5.957   3.627   3.919
  928SOL     OW 3682   3.305   4.624   6.163
  928SOL    HW1 3683   3.285   4.527   6.151
  928SOL    HW2 3684   3.390   4.647   6.116
  929SOL     OW 3685   6.899   0.942   5.180
  929SOL    HW1 3686   6.944   0.942   5.268
  929SOL    HW2 3687   6.840   1.023   5.172
  930SOL     OW 3688   5.738   4.633   6.113
  930SOL    HW1 3689   5.647   4.600   6.138
  930SOL    HW2 3690   5.755   4.721   6.156
  931SOL     OW 3691   6.300   1.739   3.618
  931SOL    HW1 3692   6.329   1.701   3.705
  931SOL    HW2 3693   6.380   1.757   3.561
  932SOL     OW 3694   3.926   0.471   3.465
  932SOL    HW1 3695   3.893   0.412   3.539
  932SOL    HW2 3696   3.999   0.530   3.499
  933SOL     OW 3697   1.299   5.607   1.978
  933SOL    HW1 3698   1.212   5.630   2.022
  933SOL    HW2 3699   1.350   5.542   2.034
  934SOL     OW 3700   1.375   3.786   0.264
  934SOL    HW1 3701   1.292   3.748   0.224
  934SOL    HW2 3702   1.426   3.715   0.311
  935SOL     OW 3703   6.160   3.404   3.998
  935SOL    HW1 3704   6.247   3.441   4.031
  935SOL    HW2 3705   6.178   3.334   3.928
  936SOL     OW 3706   1.616   6.958   5.991
  936SOL    HW1 3707   1.589   6.864   6.013
  936SOL    HW2 3708   1.708   6.958   5.951
  937SOL     OW 3709   3.813   1.705   5.675
  937SOL    HW1 3710   3.792   1.617   5.631
  937SOL    HW2 3711   3.750   1.775   5.641
  938SOL     OW 3712   5.989   5.362   4.280
  938SOL    HW1 3713   5.926   5.375   4.357
  938SOL    HW2 3714   5.998   5.447   4.229
  939SOL     OW 3715   6.993   6.633   6.165
  939SOL    HW1 3716   7.007   6.535   6.184
  939SOL    HW2 3717   0.058   6.670   6.121
  940SOL     OW 3718   2.082   4.723   0.071
  940SOL    HW1 3719   2.046   4.814   0.092
  940SOL    HW2 3720   2.176   4.731   0.038
  941SOL     OW 3721   3.500   0.469   0.372
  941SOL    HW1 3722   3.471   0.481   0.467
  941SOL    HW2 3723   3.482   0.553   0.321
  942SOL     OW 3724   0.200   5.357   0.383
  942SOL    HW1 3725   0.253   5.306   0.315
  942SOL    HW2 3726   0.106   5.369   0.350
  943SOL     OW 3727   3.355   5.607   1.907
  943SOL    HW1 3728   3.262   5.610   1.872
  943SOL    HW2 3729   3.380   5.695   1.946
  944SOL     OW 3730   6.310   6.663   4.124
  944SOL    HW1 3731   6.225   6.626   4.161
  944SOL    HW2 3732   6.386   6.641   4.185
  945SOL     OW 3733   0.879   5.529   0.020
  945SOL    HW1 3734   0.823   5.528   6.954
  945SOL    HW2 3735   0.867   5.617   0.066
  946SOL     OW 3736   5.196   2.655   4.174
  946SOL    HW1 3737   5.278   2.653   4.117
  946SOL    HW2 3738   5.204   2.729   4.241
  947SOL     OW 3739   4.071   3.768   4.002
  947SOL    HW1 3740   4.051   3.812   3.915
  947SOL    HW2 3741   3.989   3.722   4.037
  948SOL     OW 3742   3.962   0.843   2.516
  948SOL    HW1 3743   3.943   0.933   2.479
  948SOL    HW2 3744   3.989   0.781   2.441
  949SOL     OW 3745   2.979   6.936   5.958
  949SOL    HW1 3746   3.064   6.935   5.906
  949SOL    HW2 3747   2.936   6.846   5.952
  950SOL     OW 3748   7.003   0.156   2.340
  950SOL    HW1 3749   0.022   0.180   2.251
  950SOL    HW2 3750   6.976   0.060   2.341
  951SOL     OW 3751   2.366   6.673   3.172
  951SOL    HW1 3752   2.449   6.729   3.168
  951SOL    HW2 3753   2.382   6.594   3.231
  952SOL     OW 3754   3.113   1.028   2.770
  952SOL    HW1 3755   3.088   1.099   2.836
  952SOL    HW2 3756   3.181   1.064   2.706
  953SOL     OW 3757   6.661   4.517   5.924
  953SOL    HW1 3758   6.743   4.478   5.965
  953SOL    HW2 3759   6.661   4.616   5.934
  954SOL     OW 3760   4.330   5.785   2.922
  954SOL    HW1 3761   4.314   5.816   2.829
  954SOL    HW2 3762   4.245   5.749   2.960
  955SOL     OW 3763   1.983   4.696   0.453
  955SOL    HW1 3764   1.887   4.715   0.433
  955SOL    HW2 3765   2.007   4.606   0.416
  956SOL     OW 3766   4.967   0.530   1.072
  956SOL    HW1 3767   4.980   0.625   1.044
  956SOL    HW2 3768   4.883   0.522   1.125
  957SOL     OW 3769   5.962   1.048   3.241
  957SOL    HW1 3770   5.976   1.108   3.163
  957SOL    HW2 3771   5.933   1.102   3.320
  958SOL     OW 3772   5.348   6.991   1.576
  958SOL    HW1 3773   5.251   6.995   1.551
  958SOL    HW2 3774   5.381   0.067   1.598
  959SOL     OW 3775   4.462   6.534   4.188
  959SOL    HW1 3776   4.460   6.535   4.288
  959SOL    HW2 3777   4.443   6.626   4.153
  960SOL     OW 3778   1.588   6.837   6.443
  960SOL    HW1 3779   1.530   6.893   6.385
  960SOL    HW2 3780   1.662   6.798   6.389
  961SOL     OW 3781   3.378   0.079   3.116
  961SOL    HW1 3782   3.341   7.005   3.096
  961SOL    HW2 3783   3.396   0.127   3.030
  962SOL     OW 3784   6.381   0.681   4.613
  962SOL    HW1 3785   6.448   0.607   4.623
  962SOL    HW2 3786   6.411   0.744   4.542
  963SOL     OW 3787   5.454   3.230   1.019
  963SOL    HW1 3788   5.498   3.318   1.002
  963SOL    HW2 3789   5.404   3.234   1.106
  964SOL     OW 3790   4.707   4.986   5.450
  964SOL    HW1 3791   4.751   4.903   5.482
  964SOL    HW2 3792   4.770   5.063   5.457
  965SOL     OW 3793   5.743   2.411   3.502
  965SOL    HW1 3794   5.669   2.361   3.547
  965SOL    HW2 3795   5.827   2.356   3.505
  966SOL     OW 3796   4.396   1.229   4.578
  966SOL    HW1 3797   4.362   1.265   4.492
  966SOL    HW2 3798   4.412   1.130   4.569
  967SOL     OW 3799   4.489   3.710   6.358
  967SOL    HW1 3800   4.553   3.656   6.412
  967SOL    HW2 3801   4.465   3.660   6.275
  968SOL     OW 3802   3.916   0.724   1.488
  968SOL    HW1 3803   3.957   0.678   1.567
  968SOL    HW2 3804   3.818   0.734   1.503
  969SOL     OW 3805   2.940   4.168   6.587
  969SOL    HW1 3806   3.012   4.123   6.533
  969SOL    HW2 3807   2.874   4.100   6.618
  970SOL     OW 3808   5.133   6.570   5.957
  970SOL    HW1 3809   5.157   6.667   5.953
  970SOL    HW2 3810   5.034   6.561   5.970
  971SOL     OW 3811   5.354   3.797   3.381
  971SOL    HW1 3812   5.396   3.730   3.443
  971SOL    HW2 3813   5.319   3.749   3.300
  972SOL     OW 3814   6.956   2.772   0.380
  972SOL    HW1 3815   6.905   2.856   0.402
  972SOL    HW2 3816   6.903   2.716   0.317
  973SOL     OW 3817   0.219   3.012   6.147
  973SOL    HW1 3818   0.265   3.056   6.225
  973SOL    HW2 3819   0.152   3.074   6.108
  974SOL     OW 3820   6.992   5.112   2.748
  974SOL    HW1 3821   0.067   5.078   2.730
  974SOL    HW2 3822   6.926   5.057   2.697
  975SOL     OW 3823   3.216   0.669   2.095
  975SOL    HW1 3824   3.259   0.728   2.163
  975SOL    HW2 3825   3.156   0.723   2.037
  976SOL     OW 3826   6.958   3.510   3.282
  976SOL    HW1 3827   6.968   3.536   3.378
  976SOL    HW2 3828   6.881   3.446   3.273
  977SOL     OW 3829   6.314   0.560   2.245
  977SOL    HW1 3830   6.403   0.514   2.243
  977SOL    HW2 3831   6.323   0.650   2.287
  978SOL     OW 3832   5.438   3.088   2.219
  978SOL    HW1 3833   5.431   3.005   2.163
  978SOL    HW2 3834   5.441   3.168   2.160
  979SOL     OW 3835   0.406   4.286   6.921
  979SOL    HW1 3836   0.388   4.257   7.015
  979SOL    HW2 3837   0.359   4.372   6.903
  980SOL     OW 3838   3.662   1.126   4.533
  980SOL    HW1 3839   3.683   1.031   4.513
  980SOL    HW2 3840   3.648   1.137   4.631
  981SOL     OW 3841   0.085   0.180   5.676
  981SOL    HW1 3842   0.169   0.175   5.621
  981SOL    HW2 3843   0.108   0.195   5.772
  982SOL     OW 3844   5.917   1.104   5.632
  982SOL    HW1 3845   5.850   1.175   5.612
  982SOL    HW2 3846   5.873   1.014   5.629
  983SOL     OW 3847   0.621   4.854   4.050
  983SOL    HW1 3848   0.716   4.868   4.020
  983SOL    HW2 3849   0.617   4.771   4.106
  984SOL     OW 3850   0.571   3.580   3.744
  984SOL    HW1 3851   0.543   3.568   3.649
  984SOL    HW2 3852   0.506   3.534   3.804
  985SOL     OW 3853   6.450   4.940   5.395
  985SOL    HW1 3854   6.456   5.039   5.377
  985SOL    HW2 3855   6.372   4.922   5.455
  986SOL     OW 3856   4.859   5.204   1.686
  986SOL    HW1 3857   4.880   5.258   1.767
  986SOL    HW2 3858   4.858   5.264   1.606
  987SOL     OW 3859   4.586   4.538   4.274
  987SOL    HW1 3860   4.594   4.533   4.174
  987SOL    HW2 3861   4.641   4.465   4.315
  988SOL     OW 3862   2.319   4.558   2.100
  988SOL    HW1 3863   2.319   4.460   2.119
  988SOL    HW2 3864   2.409   4.596   2.123
  989SOL     OW 3865   1.419   2.209   0.710
  989SOL    HW1 3866   1.391   2.233   0.617
  989SOL    HW2 3867   1.338   2.188   0.765
  990SOL     OW 3868   3.707   0.123   4.135
  990SOL    HW1 3869   3.609   0.104   4.143
  990SOL    HW2 3870   3.757   0.037   4.128
  991SOL     OW 3871   6.952   5.580   3.884
  991SOL    HW1 3872   6.906   5.631   3.957
  991SOL    HW2 3873   6.959   5.484   3.911
  992SOL     OW 3874   6.768   2.207   0.145
  992SOL    HW1 3875   6.736   2.120   0.107
  992SOL    HW2 3876   6.689   2.263   0.171
  993SOL     OW 3877   1.430   5.126   0.043
  993SOL    HW1 3878   1.443   5.082   0.132
  993SOL    HW2 3879   1.441   5.225   0.053
  994SOL     OW 3880   3.303   5.852   0.287
  994SOL    HW1 3881   3.315   5.940   0.240
  994SOL    HW2 3882   3.363   5.848   0.367
  995SOL     OW 3883   6.566   4.489   6.189
  995SOL    HW1 3884   6.503   4.564   6.170
  995SOL    HW2 3885   6.658   4.527   6.206
  996SOL     OW 3886   3.846   5.640   4.463
  996SOL    HW1 3887   3.890   5.702   4.398
  996SOL    HW2 3888   3.887   5.652   4.553
  997SOL     OW 3889   1.580   6.595   3.532
  997SOL    HW1 3890   1.580   6.658   3.610
  997SOL    HW2 3891   1.617   6.643   3.451
  998SOL     OW 3892   4.922   0.627   6.143
  998SOL    HW1 3893   4.878   0.558   6.201
  998SOL    HW2 3894   4.881   0.625   6.052
  999SOL     OW 3895   4.813   3.803   2.688
  999SOL    HW1 3896   4.733   3.745   2.699
  999SOL    HW2 3897   4.887   3.750   2.646
 1000SOL     OW 3898   5.117   2.589   1.715
 1000SOL    HW1 3899   5.181   2.616   1.787
 1000SOL    HW2 3900   5.162   2.595   1.626
 1001SOL     OW 3901   2.892   0.431   2.609
 1001SOL    HW1 3902   2.807   0.477   2.581
 1001SOL    HW2 3903   2.928   0.378   2.533
 1002SOL     OW 3904   5.459   2.390   1.263
 1002SOL    HW1 3905   5.402   2.307   1.267
 1002SOL    HW2 3906   5.436   2.442   1.181
 1003SOL     OW 3907   0.671   0.572   3.266
 1003SOL    HW1 3908   0.635   0.625   3.343
 1003SOL    HW2 3909   0.615   0.590   3.184
 1004SOL     OW 3910   5.115   1.333   3.988
 1004SOL    HW1 3911   5.108   1.317   3.889
 1004SOL    HW2 3912   5.049   1.402   4.016
 1005SOL     OW 3913   1.539   4.872   2.296
 1005SOL    HW1 3914   1.512   4.957   2.252
 1005SOL    HW2 3915   1.461   4.833   2.345
 1006SOL     OW 3916   2.379   3.946   1.271
 1006SOL    HW1 3917   2.293   3.896   1.261
 1006SOL    HW2 3918   2.449   3.886   1.310
 1007SOL     OW 3919   4.554   0.936   6.543
 1007SOL    HW1 3920   4.642   0.980   6.523
 1007SOL    HW2 3921   4.480   0.996   6.515
 1008SOL     OW 3922   0.306   4.868   5.541
 1008SOL    HW1 3923   0.330   4.803   5.469
 1008SOL    HW2 3924   0.286   4.957   5.501
 1009SOL     OW 3925   0.025   5.796   5.741
 1009SOL    HW1 3926   0.046   5.770   5.835
 1009SOL    HW2 3927   0.101   5.849   5.702
 1010SOL     OW 3928   2.686   3.217   0.832
 1010SOL    HW1 3929   2.701   3.170   0.919
 1010SOL    HW2 3930   2.730   3.166   0.758
 1011SOL     OW 3931   0.094   5.370   2.460
 1011SOL    HW1 3932   0.099   5.277   2.424
 1011SOL    HW2 3933   0.140   5.432   2.397
 1012SOL     OW 3934   4.808   6.558   3.707
 1012SOL    HW1 3935   4.816   6.460   3.723
 1012SOL    HW2 3936   4.865   6.608   3.772
 1013SOL     OW 3937   0.008   0.089   6.679
 1013SOL    HW1 3938   0.087   0.110   6.738
 1013SOL    HW2 3939   0.035   0.099   6.583
 1014SOL     OW 3940   1.199   4.413   5.040
 1014SOL    HW1 3941   1.247   4.327   5.060
 1014SOL    HW2 3942   1.204   4.472   5.120
 1015SOL     OW 3943   2.953   6.434   6.781
 1015SOL    HW1 3944   2.912   6.480   6.703
 1015SOL    HW2 3945   2.934   6.487   6.864
 1016SOL     OW 3946   6.278   4.085   1.761
 1016SOL    HW1 3947   6.357   4.115   1.708
 1016SOL    HW2 3948   6.236   4.006   1.716
 1017SOL     OW 3949   2.439   1.356   1.638
 1017SOL    HW1 3950   2.375   1.356   1.714
 1017SOL    HW2 3951   2.390   1.370   1.552
 1018SOL     OW 3952   6.502   6.637   4.944
 1018SOL    HW1 3953   6.551   6.721   4.923
 1018SOL    HW2 3954   6.550   6.587   5.016
 1019SOL     OW 3955   6.441   4.397   1.147
 1019SOL    HW1 3956   6.397   4.425   1.062
 1019SOL    HW2 3957   6.538   4.423   1.144
 1020SOL     OW 3958   5.545   1.120   0.915
 1020SOL    HW1 3959   5.640   1.150   0.909
 1020SOL    HW2 3960   5.504   1.120   0.824
 1021SOL     OW 3961   0.526   6.739   1.494
 1021SOL    HW1 3962   0.506   6.746   1.592
 1021SOL    HW2 3963   0.483   6.816   1.446
 1022SOL     OW 3964   2.501   5.631   6.796
 1022SOL    HW1 3965   2.412   5.608   6.836
 1022SOL    HW2 3966   2.513   5.730   6.798
 1023SOL     OW 3967   0.636   0.937   3.411
 1023SOL    HW1 3968   0.706   1.000   3.377
 1023SOL    HW2 3969   0.546   0.982   3.405
 1024SOL     OW 3970   1.824   1.866   4.224
 1024SOL    HW1 3971   1.826   1.929   4.301
 1024SOL    HW2 3972   1.915   1.827   4.209
 1025SOL     OW 3973   4.269   3.967   0.240
 1025SOL    HW1 3974   4.272   3.867   0.244
 1025SOL    HW2 3975   4.323   4.005   0.315
 1026SOL     OW 3976   3.040   2.842   1.774
 1026SOL    HW1 3977   3.060   2.745   1.777
 1026SOL    HW2 3978   3.056   2.877   1.682
 1027SOL     OW 3979   0.610   6.731   0.731
 1027SOL    HW1 3980   0.561   6.786   0.663
 1027SOL    HW2 3981   0.545   6.690   0.794
 1028SOL     OW 3982   1.500   5.932   2.634
 1028SOL    HW1 3983   1.525   5.855   2.692
 1028SOL    HW2 3984   1.442   5.995   2.685
 1029SOL     OW 3985   0.908   1.170   5.986
 1029SOL    HW1 3986   0.821   1.176   5.937
 1029SOL    HW2 3987   0.983   1.166   5.920
 1030SOL     OW 3988   3.643   3.130   1.352
 1030SOL    HW1 3989   3.687   3.216   1.324
 1030SOL    HW2 3990   3.661   3.060   1.284
 1031SOL     OW 3991   3.906   2.678   0.857
 1031SOL    HW1 3992   3.822   2.652   0.809
 1031SOL    HW2 3993   3.920   2.777   0.847
 1032SOL     OW 3994   2.052   1.664   6.521
 1032SOL    HW1 3995   2.052   1.569   6.490
 1032SOL    HW2 3996   1.962   1.687   6.560
 1033SOL     OW 3997   0.451   6.718   2.554
 1033SOL    HW1 3998   0.433   6.716   2.652
 1033SOL    HW2 3999   0.422   6.632   2.513
 1034SOL     OW 4000   2.934   0.549   4.376
 1034SOL    HW1 4001   2.970   0.519   4.464
 1034SOL    HW2 4002   2.968   0.641   4.355
 1035SOL     OW 4003   1.385   1.575   6.599
 1035SOL    HW1 4004   1.333   1.652   6.563
 1035SOL    HW2 4005   1.481   1.584   6.572
 1036SOL     OW 4006   5.098   1.309   1.585
 1036SOL    HW1 4007   5.119   1.329   1.680
 1036SOL    HW2 4008   5.038   1.229   1.580
 1037SOL     OW 4009   1.616   3.158   1.644
 1037SOL    HW1 4010   1.649   3.065   1.659
 1037SOL    HW2 4011   1.656   3.219   1.712
 1038SOL     OW 4012   2.622   5.602   0.089
 1038SOL    HW1 4013   2.565   5.526   0.057
 1038SOL    HW2 4014   2.564   5.681   0.108
 1039SOL     OW 4015   3.715   2.938   2.702
 1039SOL    HW1 4016   3.791   3.002   2.694
 1039SOL    HW2 4017   3.663   2.936   2.616
 1040SOL     OW 4018   3.757   2.147   3.294
 1040SOL    HW1 4019   3.810   2.221   3.254
 1040SOL    HW2 4020   3.800   2.116   3.378
 1041SOL     OW 4021   6.896   5.994   6.509
 1041SOL    HW1 4022   6.974   5.934   6.495
 1041SOL    HW2 4023   6.811   5.943   6.495
 1042SOL     OW 4024   5.421   4.388   3.013
 1042SOL    HW1 4025   5.385   4.388   2.920
 1042SOL    HW2 4026   5.488   4.463   3.023
 1043SOL     OW 4027   2.752   2.285   3.375
 1043SOL    HW1 4028   2.738   2.312   3.279
 1043SOL    HW2 4029   2.823   2.342   3.415
 1044SOL     OW 4030   5.627   4.859   1.638
 1044SOL    HW1 4031   5.623   4.870   1.538
 1044SOL    HW2 4032   5.715   4.891   1.672
 1045SOL     OW 4033   2.007   0.314   2.135
 1045SOL    HW1 4034   1.980   0.223   2.166
 1045SOL    HW2 4035   1.951   0.382   2.182
 1046SOL     OW 4036   2.801   1.870   1.012
 1046SOL    HW1 4037   2.824   1.782   0.971
 1046SOL    HW2 4038   2.762   1.855   1.103
 1047SOL     OW 4039   3.759   6.365   3.463
 1047SOL    HW1 4040   3.672   6.369   3.512
 1047SOL    HW2 4041   3.829   6.325   3.522
 1048SOL     OW 4042   1.314   6.106   2.724
 1048SOL    HW1 4043   1.327   6.136   2.818
 1048SOL    HW2 4044   1.318   6.185   2.663
 1049SOL     OW 4045   4.307   5.936   4.715
 1049SOL    HW1 4046   4.273   5.928   4.808
 1049SOL    HW2 4047   4.402   5.903   4.711
 1050SOL     OW 4048   3.031   5.827   3.150
 1050SOL    HW1 4049   3.028   5.891   3.073
 1050SOL    HW2 4050   2.940   5.789   3.165
 1051SOL     OW 4051   0.842   0.842   6.466
 1051SOL    HW1 4052   0.768   0.852   6.532
 1051SOL    HW2 4053   0.911   0.912   6.483
 1052SOL     OW 4054   3.344   1.199   0.240
 1052SOL    HW1 4055   3.415   1.156   0.296
 1052SOL    HW2 4056   3.254   1.179   0.279
 1053SOL     OW 4057   4.998   2.129   3.839
 1053SOL    HW1 4058   4.974   2.147   3.934
 1053SOL    HW2 4059   5.077   2.185   3.813
 1054SOL     OW 4060   3.744   5.117   5.958
 1054SOL    HW1 4061   3.697   5.055   5.895
 1054SOL    HW2 4062   3.841   5.092   5.962
 1055SOL     OW 4063   4.905   5.849   6.363
 1055SOL    HW1 4064   4.820   5.808   6.332
 1055SOL    HW2 4065   4.982   5.806   6.315
 1056SOL     OW 4066   3.054   3.789   0.240
 1056SOL    HW1 4067   3.087   3.734   0.316
 1056SOL    HW2 4068   2.982   3.850   0.271
 1057SOL     OW 4069   3.100   2.320   0.841
 1057SOL    HW1 4070   3.107   2.363   0.751
 1057SOL    HW2 4071   3.008   2.333   0.877
 1058SOL     OW 4072   2.824   2.229   2.483
 1058SOL    HW1 4073   2.787   2.302   2.425
 1058SOL    HW2 4074   2.920   2.216   2.462
 1059SOL     OW 4075   2.416   6.153   1.517
 1059SOL    HW1 4076   2.459   6.066   1.494
 1059SOL    HW2 4077   2.346   6.137   1.587
 1060SOL     OW 4078   6.250   0.116   5.505
 1060SOL    HW1 4079   6.340   0.152   5.482
 1060SOL    HW2 4080   6.201   0.095   5.421
 1061SOL     OW 4081   6.884   3.792   6.139
 1061SOL    HW1 4082   6.961   3.783   6.202
 1061SOL    HW2 4083   6.822   3.864   6.172
 1062SOL     OW 4084   3.605   6.508   4.518
 1062SOL    HW1 4085   3.698   6.490   4.483
 1062SOL    HW2 4086   3.574   6.428   4.571
 1063SOL     OW 4087   3.404   6.500   5.180
 1063SOL    HW1 4088   3.344   6.541   5.248
 1063SOL    HW2 4089   3.369   6.409   5.155
 1064SOL     OW 4090   1.573   3.536   0.207
 1064SOL    HW1 4091   1.598   3.510   0.300
 1064SOL    HW2 4092   1.644   3.595   0.169
 1065SOL     OW 4093   4.968   0.542   4.567
 1065SOL    HW1 4094   4.881   0.572   4.607
 1065SOL    HW2 4095   4.978   0.444   4.579
 1066SOL     OW 4096   5.492   6.720   1.780
 1066SOL    HW1 4097   5.432   6.691   1.855
 1066SOL    HW2 4098   5.500   6.646   1.713
 1067SOL     OW 4099   2.665   1.511   0.160
 1067SOL    HW1 4100   2.687   1.544   0.252
 1067SOL    HW2 4101   2.741   1.458   0.124
 1068SOL     OW 4102   6.844   3.128   1.700
 1068SOL    HW1 4103   6.759   3.177   1.721
 1068SOL    HW2 4104   6.921   3.190   1.708
 1069SOL     OW 4105   6.507   3.874   1.865
 1069SOL    HW1 4106   6.487   3.969   1.888
 1069SOL    HW2 4107   6.451   3.813   1.921
 1070SOL     OW 4108   1.419   6.748   2.257
 1070SOL    HW1 4109   1.462   6.799   2.332
 1070SOL    HW2 4110   1.474   6.666   2.238
 1071SOL     OW 4111   0.117   3.031   5.260
 1071SOL    HW1 4112   0.211   3.047   5.289
 1071SOL    HW2 4113   0.112   3.035   5.160
 1072SOL     OW 4114   1.392   1.787   2.113
 1072SOL    HW1 4115   1.354   1.854   2.177
 1072SOL    HW2 4116   1.454   1.834   2.049
 1073SOL     OW 4117   4.265   2.343   3.510
 1073SOL    HW1 4118   4.329   2.377   3.442
 1073SOL    HW2 4119   4.171   2.355   3.477
 1074SOL     OW 4120   2.837   4.860   1.892
 1074SOL    HW1 4121   2.800   4.775   1.928
 1074SOL    HW2 4122   2.788   4.937   1.931
 1075SOL     OW 4123   6.053   4.360   5.726
 1075SOL    HW1 4124   5.960   4.335   5.698
 1075SOL    HW2 4125   6.118   4.320   5.662
 1076SOL     OW 4126   2.061   4.600   4.682
 1076SOL    HW1 4127   2.087   4.509   4.713
 1076SOL    HW2 4128   1.966   4.619   4.708
 1077SOL     OW 4129   0.080   0.009   0.018
 1077SOL    HW1 4130   0.016   0.068   6.986
 1077SOL    HW2 4131   0.060   6.930   7.016
 1078SOL     OW 4132   6.064   6.701   4.545
 1078SOL    HW1 4133   5.978   6.681   4.498
 1078SOL    HW2 4134   6.099   6.790   4.515
 1079SOL     OW 4135   1.047   0.099   1.991
 1079SOL    HW1 4136   0.999   0.049   2.063
 1079SOL    HW2 4137   0.993   0.094   1.907
 1080SOL     OW 4138   3.603   6.396   6.573
 1080SOL    HW1 4139   3.612   6.396   6.673
 1080SOL    HW2 4140   3.609   6.302   6.539
 1081SOL     OW 4141   6.816   5.996   4.651
 1081SOL    HW1 4142   6.761   5.913   4.641
 1081SOL    HW2 4143   6.764   6.063   4.705
 1082SOL     OW 4144   4.107   6.993   0.055
 1082SOL    HW1 4145   4.170   6.944   0.116
 1082SOL    HW2 4146   4.151   0.060   0.022
 1083SOL     OW 4147   5.245   4.231   1.575
 1083SOL    HW1 4148   5.235   4.143   1.528
 1083SOL    HW2 4149   5.224   4.305   1.512
 1084SOL     OW 4150   6.487   0.888   4.897
 1084SOL    HW1 4151   6.431   0.809   4.922
 1084SOL    HW2 4152   6.471   0.962   4.961
 1085SOL     OW 4153   1.689   3.751   4.540
 1085SOL    HW1 4154   1.782   3.777   4.566
 1085SOL    HW2 4155   1.638   3.832   4.512
 1086SOL     OW 4156   5.820   5.503   0.905
 1086SOL    HW1 4157   5.805   5.528   1.000
 1086SOL    HW2 4158   5.838   5.405   0.898
 1087SOL     OW 4159   2.837   0.116   5.189
 1087SOL    HW1 4160   2.937   0.119   5.191
 1087SOL    HW2 4161   2.806   0.022   5.178
 1088SOL     OW 4162   6.546   5.155   3.321
 1088SOL    HW1 4163   6.564   5.096   3.400
 1088SOL    HW2 4164   6.501   5.239   3.352
 1089SOL     OW 4165   6.664   4.454   4.324
 1089SOL    HW1 4166   6.575   4.501   4.324
 1089SOL    HW2 4167   6.734   4.516   4.287
 1090SOL     OW 4168   5.305   1.846   5.257
 1090SOL    HW1 4169   5.341   1.773   5.313
 1090SOL    HW2 4170   5.242   1.808   5.188
 1091SOL     OW 4171   1.875   2.526   2.565
 1091SOL    HW1 4172   1.836   2.471   2.639
 1091SOL    HW2 4173   1.804   2.582   2.523
 1092SOL     OW 4174   0.611   5.546   1.055
 1092SOL    HW1 4175   0.531   5.496   1.023
 1092SOL    HW2 4176   0.658   5.588   0.977
 1093SOL     OW 4177   2.043   0.587   2.812
 1093SOL    HW1 4178   1.974   0.517   2.791
 1093SOL    HW2 4179   2.112   0.548   2.873
 1094SOL     OW 4180   0.658   0.507   3.613
 1094SOL    HW1 4181   0.590   0.441   3.644
 1094SOL    HW2 4182   0.617   0.570   3.547
 1095SOL     OW 4183   4.899   3.460   0.663
 1095SOL    HW1 4184   4.977   3.426   0.610
 1095SOL    HW2 4185   4.827   3.490   0.601
 1096SOL     OW 4186   2.913   6.128   1.477
 1096SOL    HW1 4187   2.995   6.098   1.526
 1096SOL    HW2 4188   2.912   6.227   1.470
 1097SOL     OW 4189   3.158   5.269   4.450
 1097SOL    HW1 4190   3.094   5.194   4.430
 1097SOL    HW2 4191   3.221   5.280   4.373
 1098SOL     OW 4192   6.250   4.335   0.846
 1098SOL    HW1 4193   6.174   4.306   0.788
 1098SOL    HW2 4194   6.242   4.433   0.866
 1099SOL     OW 4195   4.347   6.788   5.600
 1099SOL    HW1 4196   4.318   6.876   5.563
 1099SOL    HW2 4197   4.368   6.726   5.524
 1100SOL     OW 4198   3.823   1.641   4.148
 1100SOL    HW1 4199   3.818   1.544   4.175
 1100SOL    HW2 4200   3.748   1.661   4.085
 1101SOL     OW 4201   5.589   3.290   6.336
 1101SOL    HW1 4202   5.492   3.298   6.360
 1101SOL    HW2 4203   5.597   3.261   6.241
 1102SOL     OW 4204   2.942   1.070   3.298
 1102SOL    HW1 4205   2.844   1.061   3.283
 1102SOL    HW2 4206   2.991   1.003   3.241
 1103SOL     OW 4207   2.903   6.834   0.288
 1103SOL    HW1 4208   2.947   6.897   0.225
 1103SOL    HW2 4209   2.966   6.758   0.308
 1104SOL     OW 4210   0.696   3.013   4.154
 1104SOL    HW1 4211   0.769   3.026   4.088
 1104SOL    HW2 4212   0.669   3.102   4.193
 1105SOL     OW 4213   5.018   1.092   5.805
 1105SOL    HW1 4214   5.056   1.097   5.713
 1105SOL    HW2 4215   5.008   1.184   5.842
 1106SOL     OW 4216   0.015   1.671   0.384
 1106SOL    HW1 4217   0.058   1.760   0.390
 1106SOL    HW2 4218   6.933   1.680   0.401
 1107SOL     OW 4219   0.821   1.601   6.624
 1107SOL    HW1 4220   0.897   1.604   6.689
 1107SOL    HW2 4221   0.843   1.539   6.549
 1108SOL     OW 4222   2.696   0.167   3.648
 1108SOL    HW1 4223   2.692   0.267   3.653
 1108SOL    HW2 4224   2.705   0.140   3.552
 1109SOL     OW 4225   4.612   2.172   4.627
 1109SOL    HW1 4226   4.606   2.174   4.727
 1109SOL    HW2 4227   4.522   2.192   4.587
 1110SOL     OW 4228   2.519   0.898   2.160
 1110SOL    HW1 4229   2.548   0.961   2.232
 1110SOL    HW2 4230   2.443   0.937   2.109
 1111SOL     OW 4231   5.813   4.228   6.598
 1111SOL    HW1 4232   5.845   4.299   6.535
 1111SOL    HW2 4233   5.783   4.148   6.546
 1112SOL     OW 4234   5.316   0.230   2.171
 1112SOL    HW1 4235   5.227   0.265   2.141
 1112SOL    HW2 4236   5.375   0.216   2.092
 1113SOL     OW 4237   5.683   4.342   2.513
 1113SOL    HW1 4238   5.699   4.436   2.485
 1113SOL    HW2 4239   5.585   4.328   2.526
 1114SOL     OW 4240   3.485   4.132   5.305
 1114SOL    HW1 4241   3.471   4.122   5.206
 1114SOL    HW2 4242   3.567   4.082   5.333
 1115SOL     OW 4243   2.828   4.288   5.430
 1115SOL    HW1 4244   2.852   4.237   5.512
 1115SOL    HW2 4245   2.911   4.323   5.387
 1116SOL     OW 4246   4.163   6.964   6.588
 1116SOL    HW1 4247   4.108   6.907   6.526
 1116SOL    HW2 4248   4.241   6.911   6.621
 1117SOL     OW 4249   2.172   2.522   1.403
 1117SOL    HW1 4250   2.166   2.463   1.323
 1117SOL    HW2 4251   2.189   2.616   1.374
 1118SOL     OW 4252   3.871   5.000   0.069
 1118SOL    HW1 4253   3.838   4.915   0.110
 1118SOL    HW2 4254   3.802   5.072   0.081
 1119SOL     OW 4255   2.857   5.269   4.300
 1119SOL    HW1 4256   2.856   5.369   4.297
 1119SOL    HW2 4257   2.900   5.235   4.216
 1120SOL     OW 4258   6.727   4.166   1.056
 1120SOL    HW1 4259   6.819   4.134   1.079
 1120SOL    HW2 4260   6.664   4.141   1.130
 1121SOL     OW 4261   6.963   4.585   4.101
 1121SOL    HW1 4262   6.982   4.684   4.099
 1121SOL    HW2 4263   6.938   4.554   4.010
 1122SOL     OW 4264   5.500   2.286   2.004
 1122SOL    HW1 4265   5.561   2.221   2.051
 1122SOL    HW2 4266   5.430   2.317   2.068
 1123SOL     OW 4267   3.751   1.045   3.310
 1123SOL    HW1 4268   3.660   1.040   3.353
 1123SOL    HW2 4269   3.801   0.961   3.328
 1124SOL     OW 4270   2.458   2.599   4.149
 1124SOL    HW1 4271   2.517   2.570   4.073
 1124SOL    HW2 4272   2.427   2.518   4.200
 1125SOL     OW 4273   2.199   3.948   3.535
 1125SOL    HW1 4274   2.207   4.010   3.456
 1125SOL    HW2 4275   2.237   3.993   3.616
 1126SOL     OW 4276   4.019   4.918   4.792
 1126SOL    HW1 4277   4.096   4.874   4.839
 1126SOL    HW2 4278   3.953   4.950   4.860
 1127SOL     OW 4279   6.083   6.809   2.728
 1127SOL    HW1 4280   6.122   6.891   2.768
 1127SOL    HW2 4281   6.053   6.828   2.634
 1128SOL     OW 4282   4.963   1.093   3.931
 1128SOL    HW1 4283   5.009   1.074   4.018
 1128SOL    HW2 4284   5.028   1.136   3.868
 1129SOL     OW 4285   1.207   1.047   0.658
 1129SOL    HW1 4286   1.216   1.122   0.724
 1129SOL    HW2 4287   1.181   1.084   0.569
 1130SOL     OW 4288   1.881   4.662   1.848
 1130SOL    HW1 4289   1.972   4.663   1.891
 1130SOL    HW2 4290   1.892   4.660   1.748
 1131SOL     OW 4291   0.987   5.141   4.057
 1131SOL    HW1 4292   0.963   5.214   4.120
 1131SOL    HW2 4293   1.082   5.113   4.072
 1132SOL     OW 4294   2.393   1.372   2.533
 1132SOL    HW1 4295   2.399   1.386   2.632
 1132SOL    HW2 4296   2.484   1.382   2.492
 1133SOL     OW 4297   0.889   7.004   5.678
 1133SOL    HW1 4298   0.960   0.053   5.654
 1133SOL    HW2 4299   0.913   6.914   5.641
 1134SOL     OW 4300   3.672   6.609   1.385
 1134SOL    HW1 4301   3.753   6.566   1.345
 1134SOL    HW2 4302   3.661   6.700   1.347
 1135SOL     OW 4303   2.026   5.556   3.405
 1135SOL    HW1 4304   2.048   5.556   3.502
 1135SOL    HW2 4305   1.944   5.612   3.389
 1136SOL     OW 4306   1.610   5.415   1.971
 1136SOL    HW1 4307   1.590   5.376   1.882
 1136SOL    HW2 4308   1.533   5.399   2.033
 1137SOL     OW 4309   0.804   5.608   5.215
 1137SOL    HW1 4310   0.761   5.696   5.192
 1137SOL    HW2 4311   0.805   5.550   5.133
 1138SOL     OW 4312   2.019   3.569   4.742
 1138SOL    HW1 4313   2.078   3.506   4.793
 1138SOL    HW2 4314   1.931   3.577   4.790
 1139SOL     OW 4315   2.795   5.627   4.660
 1139SOL    HW1 4316   2.864   5.648   4.729
 1139SOL    HW2 4317   2.802   5.531   4.634
 1140SOL     OW 4318   1.506   2.038   0.964
 1140SOL    HW1 4319   1.517   2.122   1.018
 1140SOL    HW2 4320   1.509   2.060   0.867
 1141SOL     OW 4321   0.076   4.956   6.267
 1141SOL    HW1 4322   0.174   4.977   6.277
 1141SOL    HW2 4323   0.023   5.038   6.287
 1142SOL     OW 4324   2.520   6.349   2.057
 1142SOL    HW1 4325   2.580   6.269   2.063
 1142SOL    HW2 4326   2.447   6.332   1.991
 1143SOL     OW 4327   1.120   4.103   1.568
 1143SOL    HW1 4328   1.129   4.180   1.631
 1143SOL    HW2 4329   1.025   4.073   1.565
 1144SOL     OW 4330   5.631   4.524   0.905
 1144SOL    HW1 4331   5.682   4.517   0.991
 1144SOL    HW2 4332   5.674   4.467   0.836
 1145SOL     OW 4333   6.012   0.318   1.285
 1145SOL    HW1 4334   5.985   0.398   1.230
 1145SOL    HW2 4335   6.107   0.296   1.268
 1146SOL     OW 4336   0.832   1.061   1.171
 1146SOL    HW1 4337   0.894   1.061   1.251
 1146SOL    HW2 4338   0.886   1.074   1.088
 1147SOL     OW 4339   2.470   6.332   1.229
 1147SOL    HW1 4340   2.534   6.330   1.306
 1147SOL    HW2 4341   2.388   6.280   1.253
 1148SOL     OW 4342   4.865   5.486   3.562
 1148SOL    HW1 4343   4.788   5.493   3.500
 1148SOL    HW2 4344   4.849   5.412   3.628
 1149SOL     OW 4345   4.336   3.349   1.573
 1149SOL    HW1 4346   4.297   3.441   1.567
 1149SOL    HW2 4347   4.430   3.354   1.606
 1150SOL     OW 4348   1.804   3.848   0.412
 1150SOL    HW1 4349   1.749   3.898   0.344
 1150SOL    HW2 4350   1.881   3.803   0.366
 1151SOL     OW 4351   6.290   5.447   3.956
 1151SOL    HW1 4352   6.291   5.442   3.856
 1151SOL    HW2 4353   6.246   5.532   3.985
 1152SOL     OW 4354   3.960   6.417   6.298
 1152SOL    HW1 4355   3.977   6.334   6.351
 1152SOL    HW2 4356   4.046   6.469   6.290
 1153SOL     OW 4357   6.024   0.099   1.643
 1153SOL    HW1 4358   5.956   0.044   1.691
 1153SOL    HW2 4359   6.074   0.155   1.710
 1154SOL     OW 4360   1.966   2.442   1.002
 1154SOL    HW1 4361   2.017   2.400   1.077
 1154SOL    HW2 4362   1.994   2.537   0.991
 1155SOL     OW 4363   2.826   6.683   4.517
 1155SOL    HW1 4364   2.797   6.604   4.571
 1155SOL    HW2 4365   2.922   6.673   4.493
 1156SOL     OW 4366   2.550   1.728   3.711
 1156SOL    HW1 4367   2.485   1.794   3.673
 1156SOL    HW2 4368   2.515   1.693   3.799
 1157SOL     OW 4369   3.734   0.802   0.127
 1157SOL    HW1 4370   3.718   0.708   0.099
 1157SOL    HW2 4371   3.680   0.864   0.070
 1158SOL     OW 4372   5.737   4.757   3.344
 1158SOL    HW1 4373   5.665   4.748   3.275
 1158SOL    HW2 4374   5.759   4.854   3.356
 1159SOL     OW 4375   6.157   5.452   1.264
 1159SOL    HW1 4376   6.175   5.547   1.239
 1159SOL    HW2 4377   6.231   5.419   1.322
 1160SOL     OW 4378   5.454   1.815   0.514
 1160SOL    HW1 4379   5.526   1.748   0.499
 1160SOL    HW2 4380   5.380   1.800   0.448
 1161SOL     OW 4381   0.268   5.632   0.817
 1161SOL    HW1 4382   0.305   5.586   0.737
 1161SOL    HW2 4383   0.174   5.659   0.800
 1162SOL     OW 4384   3.058   2.193   4.716
 1162SOL    HW1 4385   3.049   2.239   4.804
 1162SOL    HW2 4386   3.032   2.255   4.642
 1163SOL     OW 4387   5.523   3.278   2.013
 1163SOL    HW1 4388   5.460   3.326   1.952
 1163SOL    HW2 4389   5.551   3.192   1.971
 1164SOL     OW 4390   4.293   1.997   5.585
 1164SOL    HW1 4391   4.217   2.030   5.642
 1164SOL    HW2 4392   4.371   2.059   5.596
 1165SOL     OW 4393   3.921   6.250   3.643
 1165SOL    HW1 4394   4.009   6.263   3.598
 1165SOL    HW2 4395   3.930   6.271   3.741
 1166SOL     OW 4396   3.284   4.324   6.062
 1166SOL    HW1 4397   3.364   4.336   6.121
 1166SOL    HW2 4398   3.313   4.317   5.967
 1167SOL     OW 4399   5.499   4.947   2.510
 1167SOL    HW1 4400   5.598   4.955   2.518
 1167SOL    HW2 4401   5.473   4.947   2.413
 1168SOL     OW 4402   6.353   0.955   3.093
 1168SOL    HW1 4403   6.311   0.900   3.166
 1168SOL    HW2 4404   6.383   0.895   3.019
 1169SOL     OW 4405   5.276   1.009   5.580
 1169SOL    HW1 4406   5.190   0.983   5.535
 1169SOL    HW2 4407   5.344   1.032   5.511
 1170SOL     OW 4408   5.102   6.221   3.970
 1170SOL    HW1 4409   5.061   6.141   3.926
 1170SOL    HW2 4410   5.034   6.294   3.975
 1171SOL     OW 4411   0.792   6.316   1.453
 1171SOL    HW1 4412   0.841   6.401   1.475
 1171SOL    HW2 4413   0.706   6.313   1.504
 1172SOL     OW 4414   6.949   3.529   6.229
 1172SOL    HW1 4415   6.895   3.602   6.188
 1172SOL    HW2 4416   7.014   3.493   6.161
 1173SOL     OW 4417   3.539   1.566   0.689
 1173SOL    HW1 4418   3.523   1.617   0.774
 1173SOL    HW2 4419   3.636   1.574   0.664
 1174SOL     OW 4420   2.876   3.663   0.964
 1174SOL    HW1 4421   2.890   3.753   0.923
 1174SOL    HW2 4422   2.903   3.592   0.899
 1175SOL     OW 4423   3.516   2.884   4.282
 1175SOL    HW1 4424   3.498   2.847   4.191
 1175SOL    HW2 4425   3.582   2.826   4.330
 1176SOL     OW 4426   5.360   3.616   6.107
 1176SOL    HW1 4427   5.344   3.518   6.119
 1176SOL    HW2 4428   5.278   3.666   6.134
 1177SOL     OW 4429   6.747   1.864   4.519
 1177SOL    HW1 4430   6.710   1.782   4.561
 1177SOL    HW2 4431   6.719   1.945   4.571
 1178SOL     OW 4432   3.501   5.247   0.380
 1178SOL    HW1 4433   3.504   5.347   0.386
 1178SOL    HW2 4434   3.407   5.218   0.359
 1179SOL     OW 4435   1.712   5.436   0.177
 1179SOL    HW1 4436   1.744   5.423   0.271
 1179SOL    HW2 4437   1.741   5.525   0.144
 1180SOL     OW 4438   3.264   5.802   0.788
 1180SOL    HW1 4439   3.177   5.820   0.833
 1180SOL    HW2 4440   3.337   5.850   0.837
 1181SOL     OW 4441   0.175   6.474   0.672
 1181SOL    HW1 4442   0.115   6.395   0.686
 1181SOL    HW2 4443   0.242   6.479   0.746
 1182SOL     OW 4444   4.879   4.629   2.626
 1182SOL    HW1 4445   4.880   4.541   2.674
 1182SOL    HW2 4446   4.903   4.702   2.690
 1183SOL     OW 4447   2.423   3.251   5.631
 1183SOL    HW1 4448   2.370   3.168   5.648
 1183SOL    HW2 4449   2.432   3.303   5.717
 1184SOL     OW 4450   0.901   6.834   6.162
 1184SOL    HW1 4451   0.900   6.795   6.070
 1184SOL    HW2 4452   0.815   6.881   6.179
 1185SOL     OW 4453   6.554   1.730   6.651
 1185SOL    HW1 4454   6.547   1.739   6.552
 1185SOL    HW2 4455   6.641   1.687   6.675
 1186SOL     OW 4456   5.470   6.045   4.927
 1186SOL    HW1 4457   5.555   6.091   4.901
 1186SOL    HW2 4458   5.482   5.946   4.921
 1187SOL     OW 4459   5.969   0.605   6.344
 1187SOL    HW1 4460   5.889   0.546   6.353
 1187SOL    HW2 4461   5.939   0.699   6.326
 1188SOL     OW 4462   2.448   6.956   5.999
 1188SOL    HW1 4463   2.398   6.892   6.058
 1188SOL    HW2 4464   2.519   7.003   6.053
 1189SOL     OW 4465   5.651   3.266   3.226
 1189SOL    HW1 4466   5.612   3.202   3.160
 1189SOL    HW2 4467   5.636   3.230   3.319
 1190SOL     OW 4468   1.959   5.836   2.832
 1190SOL    HW1 4469   2.009   5.781   2.766
 1190SOL    HW2 4470   1.912   5.910   2.784
 1191SOL     OW 4471   4.049   5.607   2.653
 1191SOL    HW1 4472   4.131   5.663   2.640
 1191SOL    HW2 4473   4.029   5.599   2.751
 1192SOL     OW 4474   5.441   6.395   3.796
 1192SOL    HW1 4475   5.448   6.331   3.873
 1192SOL    HW2 4476   5.445   6.489   3.830
 1193SOL     OW 4477   6.405   5.300   4.205
 1193SOL    HW1 4478   6.498   5.265   4.190
 1193SOL    HW2 4479   6.368   5.333   4.118
 1194SOL     OW 4480   3.834   0.857   1.222
 1194SOL    HW1 4481   3.927   0.862   1.258
 1194SOL    HW2 4482   3.771   0.838   1.297
 1195SOL     OW 4483   5.071   2.764   3.519
 1195SOL    HW1 4484   5.047   2.784   3.614
 1195SOL    HW2 4485   5.160   2.718   3.516
 1196SOL     OW 4486   6.081   6.653   5.318
 1196SOL    HW1 4487   6.002   6.626   5.264
 1196SOL    HW2 4488   6.052   6.709   5.395
 1197SOL     OW 4489   2.049   6.213   6.938
 1197SOL    HW1 4490   2.083   6.304   6.915
 1197SOL    HW2 4491   1.991   6.219   0.003
 1198SOL     OW 4492   1.647   2.784   0.482
 1198SOL    HW1 4493   1.718   2.791   0.413
 1198SOL    HW2 4494   1.588   2.865   0.479
 1199SOL     OW 4495   5.546   3.966   2.016
 1199SOL    HW1 4496   5.487   3.953   1.937
 1199SOL    HW2 4497   5.530   4.056   2.057
 1200SOL     OW 4498   3.293   3.621   1.916
 1200SOL    HW1 4499   3.280   3.539   1.971
 1200SOL    HW2 4500   3.389   3.648   1.918
 1201SOL     OW 4501   1.660   1.899   4.594
 1201SOL    HW1 4502   1.641   1.846   4.511
 1201SOL    HW2 4503   1.751   1.938   4.589
 1202SOL     OW 4504   0.402   5.147   5.946
 1202SOL    HW1 4505   0.499   5.153   5.921
 1202SOL    HW2 4506   0.394   5.129   6.044
 1203SOL     OW 4507   4.502   5.837   5.987
 1203SOL    HW1 4508   4.602   5.836   5.982
 1203SOL    HW2 4509   4.466   5.758   5.938
 1204SOL     OW 4510   2.184   6.937   2.666
 1204SOL    HW1 4511   2.208   6.923   2.570
 1204SOL    HW2 4512   2.160   6.850   2.708
 1205SOL     OW 4513   5.096   4.501   1.983
 1205SOL    HW1 4514   5.148   4.510   1.898
 1205SOL    HW2 4515   5.070   4.405   1.996
 1206SOL     OW 4516   3.415   3.368   4.893
 1206SOL    HW1 4517   3.424   3.336   4.987
 1206SOL    HW2 4518   3.469   3.451   4.880
 1207SOL     OW 4519   1.641   6.514   1.821
 1207SOL    HW1 4520   1.615   6.434   1.876
 1207SOL    HW2 4521   1.603   6.503   1.729
 1208SOL     OW 4522   3.322   3.972   6.069
 1208SOL    HW1 4523   3.279   4.044   6.124
 1208SOL    HW2 4524   3.349   3.896   6.128
 1209SOL     OW 4525   3.947   6.271   5.205
 1209SOL    HW1 4526   3.996   6.252   5.120
 1209SOL    HW2 4527   3.978   6.359   5.242
 1210SOL     OW 4528   3.476   0.971   3.561
 1210SOL    HW1 4529   3.574   0.960   3.577
 1210SOL    HW2 4530   3.443   1.054   3.606
 1211SOL     OW 4531   1.167   3.390   0.347
 1211SOL    HW1 4532   1.100   3.460   0.371
 1211SOL    HW2 4533   1.203   3.408   0.255
 1212SOL     OW 4534   1.441   6.275   0.128
 1212SOL    HW1 4535   1.466   6.347   0.193
 1212SOL    HW2 4536   1.406   6.317   0.044
 1213SOL     OW 4537   5.434   2.768   1.283
 1213SOL    HW1 4538   5.388   2.724   1.205
 1213SOL    HW2 4539   5.525   2.797   1.255
 1214SOL     OW 4540   0.358   2.574   1.831
 1214SOL    HW1 4541   0.430   2.547   1.895
 1214SOL    HW2 4542   0.269   2.559   1.873
 1215SOL     OW 4543   1.381   5.661   4.359
 1215SOL    HW1 4544   1.313   5.654   4.287
 1215SOL    HW2 4545   1.378   5.752   4.400
 1216SOL     OW 4546   4.412   6.405   0.425
 1216SOL    HW1 4547   4.405   6.386   0.523
 1216SOL    HW2 4548   4.505   6.438   0.405
 1217SOL     OW 4549   3.081   4.092   6.976
 1217SOL    HW1 4550   3.076   4.188   7.003
 1217SOL    HW2 4551   3.136   4.041   0.026
 1218SOL     OW 4552   1.729   4.988   3.526
 1218SOL    HW1 4553   1.702   4.990   3.430
 1218SOL    HW2 4554   1.763   4.897   3.549
 1219SOL     OW 4555   4.584   6.071   2.683
 1219SOL    HW1 4556   4.552   6.028   2.767
 1219SOL    HW2 4557   4.647   6.009   2.636
 1220SOL     OW 4558   0.984   4.606   2.865
 1220SOL    HW1 4559   1.082   4.591   2.879
 1220SOL    HW2 4560   0.952   4.547   2.790
 1221SOL     OW 4561   5.486   3.839   6.009
 1221SOL    HW1 4562   5.441   3.752   6.031
 1221SOL    HW2 4563   5.535   3.873   6.089
 1222SOL     OW 4564   6.719   6.576   6.788
 1222SOL    HW1 4565   6.632   6.577   6.738
 1222SOL    HW2 4566   6.794   6.592   6.725
 1223SOL     OW 4567   3.263   6.111   0.218
 1223SOL    HW1 4568   3.164   6.104   0.220
 1223SOL    HW2 4569   3.290   6.208   0.223
 1224SOL     OW 4570   3.133   0.352   1.920
 1224SOL    HW1 4571   3.121   0.373   2.017
 1224SOL    HW2 4572   3.194   0.419   1.878
 1225SOL     OW 4573   2.641   4.437   6.721
 1225SOL    HW1 4574   2.668   4.420   6.626
 1225SOL    HW2 4575   2.718   4.479   6.770
 1226SOL     OW 4576   2.088   4.381   1.178
 1226SOL    HW1 4577   2.089   4.408   1.082
 1226SOL    HW2 4578   2.105   4.283   1.186
 1227SOL     OW 4579   0.146   3.556   6.515
 1227SOL    HW1 4580   0.107   3.470   6.482
 1227SOL    HW2 4581   0.232   3.574   6.469
 1228SOL     OW 4582   3.732   1.229   5.690
 1228SOL    HW1 4583   3.694   1.140   5.663
 1228SOL    HW2 4584   3.789   1.218   5.771
 1229SOL     OW 4585   3.459   4.385   6.270
 1229SOL    HW1 4586   3.419   4.343   6.351
 1229SOL    HW2 4587   3.487   4.478   6.290
 1230SOL     OW 4588   4.532   6.187   3.386
 1230SOL    HW1 4589   4.622   6.225   3.362
 1230SOL    HW2 4590   4.462   6.227   3.326
 1231SOL     OW 4591   1.927   4.519   4.369
 1231SOL    HW1 4592   2.017   4.519   4.325
 1231SOL    HW2 4593   1.913   4.608   4.414
 1232SOL     OW 4594   1.846   2.439   4.468
 1232SOL    HW1 4595   1.913   2.381   4.514
 1232SOL    HW2 4596   1.773   2.383   4.429
 1233SOL     OW 4597   0.991   3.095   4.714
 1233SOL    HW1 4598   1.067   3.067   4.655
 1233SOL    HW2 4599   1.028   3.145   4.793
 1234SOL     OW 4600   6.291   4.212   4.453
 1234SOL    HW1 4601   6.358   4.186   4.384
 1234SOL    HW2 4602   6.332   4.274   4.519
 1235SOL     OW 4603   6.068   5.899   4.264
 1235SOL    HW1 4604   6.090   5.897   4.166
 1235SOL    HW2 4605   6.146   5.937   4.314
 1236SOL     OW 4606   5.080   0.667   0.199
 1236SOL    HW1 4607   5.167   0.655   0.246
 1236SOL    HW2 4608   5.096   0.678   0.101
 1237SOL     OW 4609   2.966   4.394   6.750
 1237SOL    HW1 4610   2.963   4.298   6.721
 1237SOL    HW2 4611   3.028   4.445   6.690
 1238SOL     OW 4612   1.646   1.491   1.510
 1238SOL    HW1 4613   1.631   1.576   1.459
 1238SOL    HW2 4614   1.589   1.492   1.593
 1239SOL     OW 4615   6.881   6.673   6.591
 1239SOL    HW1 4616   6.961   6.626   6.553
 1239SOL    HW2 4617   6.805   6.667   6.527
 1240SOL     OW 4618   4.230   6.295   2.269
 1240SOL    HW1 4619   4.244   6.252   2.180
 1240SOL    HW2 4620   4.317   6.299   2.318
 1241SOL     OW 4621   6.218   3.196   3.255
 1241SOL    HW1 4622   6.224   3.168   3.351
 1241SOL    HW2 4623   6.208   3.296   3.251
 1242SOL     OW 4624   2.375   3.661   6.520
 1242SOL    HW1 4625   2.287   3.692   6.483
 1242SOL    HW2 4626   2.442   3.657   6.447
 1243SOL     OW 4627   2.675   5.114   5.179
 1243SOL    HW1 4628   2.653   5.191   5.119
 1243SOL    HW2 4629   2.637   5.131   5.270
 1244SOL     OW 4630   0.511   0.700   3.460
 1244SOL    HW1 4631   0.423   0.705   3.415
 1244SOL    HW2 4632   0.559   0.788   3.451
 1245SOL     OW 4633   2.969   3.254   5.869
 1245SOL    HW1 4634   2.881   3.259   5.822
 1245SOL    HW2 4635   2.977   3.330   5.934
 1246SOL     OW 4636   1.021   6.650   2.883
 1246SOL    HW1 4637   0.968   6.662   2.967
 1246SOL    HW2 4638   0.958   6.633   2.807
 1247SOL     OW 4639   1.725   6.670   6.909
 1247SOL    HW1 4640   1.664   6.604   6.865
 1247SOL    HW2 4641   1.763   6.630   6.993
 1248SOL     OW 4642   1.815   5.757   3.662
 1248SOL    HW1 4643   1.895   5.807   3.628
 1248SOL    HW2 4644   1.792   5.684   3.598
 1249SOL     OW 4645   6.029   3.275   3.004
 1249SOL    HW1 4646   6.089   3.206   3.045
 1249SOL    HW2 4647   5.961   3.305   3.071
 1250SOL     OW 4648   0.779   4.597   4.411
 1250SOL    HW1 4649   0.776   4.557   4.502
 1250SOL    HW2 4650   0.821   4.688   4.416
 1251SOL     OW 4651   3.534   0.255   5.347
 1251SOL    HW1 4652   3.456   0.310   5.318
 1251SOL    HW2 4653   3.518   0.159   5.326
 1252SOL     OW 4654   3.480   3.603   6.468
 1252SOL    HW1 4655   3.418   3.645   6.534
 1252SOL    HW2 4656   3.434   3.595   6.379
 1253SOL     OW 4657   4.147   6.090   2.865
 1253SOL    HW1 4658   4.110   5.998   2.855
 1253SOL    HW2 4659   4.123   6.127   2.954
 1254SOL     OW 4660   6.982   1.464   2.627
 1254SOL    HW1 4661   6.961   1.385   2.684
 1254SOL    HW2 4662   7.001   1.543   2.685
 1255SOL     OW 4663   5.930   6.808   0.291
 1255SOL    HW1 4664   6.011   6.756   0.317
 1255SOL    HW2 4665   5.958   6.897   0.254
 1256SOL     OW 4666   4.461   1.271   3.757
 1256SOL    HW1 4667   4.548   1.318   3.744
 1256SOL    HW2 4668   4.388   1.322   3.712
 1257SOL     OW 4669   6.332   1.181   3.929
 1257SOL    HW1 4670   6.364   1.149   3.840
 1257SOL    HW2 4671   6.367   1.121   4.001
 1258SOL     OW 4672   0.081   6.937   3.770
 1258SOL    HW1 4673   0.102   6.921   3.674
 1258SOL    HW2 4674   7.000   6.921   3.786
 1259SOL     OW 4675   4.397   2.221   5.201
 1259SOL    HW1 4676   4.319   2.241   5.261
 1259SOL    HW2 4677   4.425   2.304   5.153
 1260SOL     OW 4678   1.021   1.419   6.439
 1260SOL    HW1 4679   1.087   1.493   6.429
 1260SOL    HW2 4680   0.992   1.388   6.349
 1261SOL     OW 4681   6.263   3.798   0.864
 1261SOL    HW1 4682   6.281   3.897   0.860
 1261SOL    HW2 4683   6.350   3.749   0.867
 1262SOL     OW 4684   5.354   5.900   2.388
 1262SOL    HW1 4685   5.353   5.988   2.436
 1262SOL    HW2 4686   5.300   5.833   2.439
 1263SOL     OW 4687   0.689   2.465   3.596
 1263SOL    HW1 4688   0.720   2.503   3.509
 1263SOL    HW2 4689   0.605   2.510   3.625
 1264SOL     OW 4690   0.500   2.806   5.345
 1264SOL    HW1 4691   0.518   2.746   5.267
 1264SOL    HW2 4692   0.490   2.752   5.428
 1265SOL     OW 4693   5.484   6.370   5.385
 1265SOL    HW1 4694   5.477   6.435   5.309
 1265SOL    HW2 4695   5.525   6.417   5.464
 1266SOL     OW 4696   1.528   1.490   5.032
 1266SOL    HW1 4697   1.565   1.564   5.089
 1266SOL    HW2 4698   1.455   1.525   4.974
 1267SOL     OW 4699   3.781   0.312   3.271
 1267SOL    HW1 4700   3.780   0.237   3.337
 1267SOL    HW2 4701   3.832   0.389   3.310
 1268SOL     OW 4702   4.209   2.578   5.628
 1268SOL    HW1 4703   4.194   2.611   5.721
 1268SOL    HW2 4704   4.241   2.483   5.631
 1269SOL     OW 4705   6.161   1.954   4.225
 1269SOL    HW1 4706   6.094   1.998   4.166
 1269SOL    HW2 4707   6.114   1.912   4.303
 1270SOL     OW 4708   6.373   5.772   2.770
 1270SOL    HW1 4709   6.273   5.773   2.771
 1270SOL    HW2 4710   6.407   5.719   2.848
 1271SOL     OW 4711   1.600   1.569   0.854
 1271SOL    HW1 4712   1.670   1.502   0.880
 1271SOL    HW2 4713   1.510   1.525   0.857
 1272SOL     OW 4714   6.193   3.410   6.058
 1272SOL    HW1 4715   6.214   3.445   6.150
 1272SOL    HW2 4716   6.253   3.333   6.038
 1273SOL     OW 4717   1.283   4.537   4.797
 1273SOL    HW1 4718   1.281   4.469   4.723
 1273SOL    HW2 4719   1.268   4.491   4.885
 1274SOL     OW 4720   0.262   5.196   2.954
 1274SOL    HW1 4721   0.344   5.162   2.907
 1274SOL    HW2 4722   0.198   5.232   2.886
 1275SOL     OW 4723   2.373   1.151   3.267
 1275SOL    HW1 4724   2.336   1.228   3.216
 1275SOL    HW2 4725   2.377   1.174   3.364
 1276SOL     OW 4726   5.813   4.564   4.188
 1276SOL    HW1 4727   5.770   4.555   4.278
 1276SOL    HW2 4728   5.746   4.600   4.123
 1277SOL     OW 4729   0.898   6.066   0.429
 1277SOL    HW1 4730   0.827   6.081   0.497
 1277SOL    HW2 4731   0.983   6.039   0.476
 1278SOL     OW 4732   1.156   6.054   3.278
 1278SOL    HW1 4733   1.192   6.012   3.195
 1278SOL    HW2 4734   1.209   6.135   3.301
 1279SOL     OW 4735   2.768   2.816   1.619
 1279SOL    HW1 4736   2.847   2.867   1.653
 1279SOL    HW2 4737   2.771   2.814   1.519
 1280SOL     OW 4738   1.781   2.213   3.712
 1280SOL    HW1 4739   1.796   2.269   3.793
 1280SOL    HW2 4740   1.862   2.218   3.653
 1281SOL     OW 4741   4.792   6.018   4.672
 1281SOL    HW1 4742   4.848   5.983   4.597
 1281SOL    HW2 4743   4.846   6.018   4.756
 1282SOL     OW 4744   0.065   2.921   1.094
 1282SOL    HW1 4745   0.066   2.826   1.122
 1282SOL    HW2 4746   6.987   2.951   1.080
 1283SOL     OW 4747   6.687   3.220   4.852
 1283SOL    HW1 4748   6.708   3.285   4.925
 1283SOL    HW2 4749   6.606   3.251   4.803
 1284SOL     OW 4750   4.108   2.070   1.865
 1284SOL    HW1 4751   4.205   2.065   1.842
 1284SOL    HW2 4752   4.091   2.020   1.950
 1285SOL     OW 4753   4.221   0.832   5.279
 1285SOL    HW1 4754   4.170   0.765   5.332
 1285SOL    HW2 4755   4.297   0.787   5.232
 1286SOL     OW 4756   5.481   2.031   1.500
 1286SOL    HW1 4757   5.551   2.081   1.551
 1286SOL    HW2 4758   5.512   1.937   1.484
 1287SOL     OW 4759   6.845   5.028   4.404
 1287SOL    HW1 4760   6.834   4.997   4.310
 1287SOL    HW2 4761   6.804   4.961   4.466
 1288SOL     OW 4762   4.604   4.600   0.042
 1288SOL    HW1 4763   4.620   4.630   6.964
 1288SOL    HW2 4764   4.608   4.500   0.046
 1289SOL     OW 4765   0.016   6.915   1.695
 1289SOL    HW1 4766   0.002   6.998   1.640
 1289SOL    HW2 4767   0.088   6.859   1.653
 1290SOL     OW 4768   1.442   6.487   5.480
 1290SOL    HW1 4769   1.398   6.474   5.569
 1290SOL    HW2 4770   1.379   6.462   5.407
 1291SOL     OW 4771   6.469   4.837   3.283
 1291SOL    HW1 4772   6.397   4.806   3.221
 1291SOL    HW2 4773   6.521   4.911   3.239
 1292SOL     OW 4774   0.881   6.811   1.892
 1292SOL    HW1 4775   0.833   6.866   1.960
 1292SOL    HW2 4776   0.917   6.870   1.821
 1293SOL     OW 4777   4.634   1.338   0.126
 1293SOL    HW1 4778   4.666   1.254   0.169
 1293SOL    HW2 4779   4.536   1.330   0.107
 1294SOL     OW 4780   2.047   4.304   4.774
 1294SOL    HW1 4781   2.079   4.209   4.774
 1294SOL    HW2 4782   1.959   4.309   4.821
 1295SOL     OW 4783   6.535   4.479   0.769
 1295SOL    HW1 4784   6.466   4.521   0.827
 1295SOL    HW2 4785   6.578   4.403   0.817
 1296SOL     OW 4786   5.151   0.193   5.967
 1296SOL    HW1 4787   5.160   0.292   5.958
 1296SOL    HW2 4788   5.206   0.148   5.896
 1297SOL     OW 4789   0.572   0.524   1.756
 1297SOL    HW1 4790   0.547   0.597   1.692
 1297SOL    HW2 4791   0.539   0.547   1.847
 1298SOL     OW 4792   4.878   0.168   2.432
 1298SOL    HW1 4793   4.846   0.097   2.495
 1298SOL    HW2 4794   4.885   0.129   2.340
 1299SOL     OW 4795   0.863   3.493   4.435
 1299SOL    HW1 4796   0.876   3.472   4.532
 1299SOL    HW2 4797   0.902   3.583   4.415
 1300SOL     OW 4798   1.014   4.984   1.623
 1300SOL    HW1 4799   0.916   4.990   1.603
 1300SOL    HW2 4800   1.059   4.928   1.554
 1301SOL     OW 4801   0.421   0.107   0.548
 1301SOL    HW1 4802   0.514   0.094   0.513
 1301SOL    HW2 4803   0.376   0.179   0.495
 1302SOL     OW 4804   5.816   0.018   5.197
 1302SOL    HW1 4805   5.866   7.008   5.115
 1302SOL    HW2 4806   5.789   0.114   5.190
 1303SOL     OW 4807   3.499   6.594   1.763
 1303SOL    HW1 4808   3.464   6.535   1.689
 1303SOL    HW2 4809   3.571   6.653   1.727
 1304SOL     OW 4810   0.802   0.777   0.679
 1304SOL    HW1 4811   0.821   0.854   0.618
 1304SOL    HW2 4812   0.858   0.698   0.652
 1305SOL     OW 4813   4.630   3.150   6.324
 1305SOL    HW1 4814   4.582   3.114   6.404
 1305SOL    HW2 4815   4.581   3.230   6.289
 1306SOL     OW 4816   2.922   5.701   3.849
 1306SOL    HW1 4817   2.924   5.700   3.949
 1306SOL    HW2 4818   2.973   5.623   3.813
 1307SOL     OW 4819   2.550   2.489   3.356
 1307SOL    HW1 4820   2.640   2.449   3.369
 1307SOL    HW2 4821   2.480   2.422   3.379
 1308SOL     OW 4822   0.671   4.412   6.270
 1308SOL    HW1 4823   0.678   4.382   6.365
 1308SOL    HW2 4824   0.736   4.486   6.253
 1309SOL     OW 4825   5.609   4.849   6.689
 1309SOL    HW1 4826   5.701   4.830   6.724
 1309SOL    HW2 4827   5.589   4.788   6.613
 1310SOL     OW 4828   1.322   3.891   3.092
 1310SOL    HW1 4829   1.290   3.955   3.162
 1310SOL    HW2 4830   1.319   3.798   3.127
 1311SOL     OW 4831   6.088   5.296   0.694
 1311SOL    HW1 4832   6.187   5.283   0.687
 1311SOL    HW2 4833   6.053   5.240   0.769
 1312SOL     OW 4834   2.599   1.030   5.968
 1312SOL    HW1 4835   2.674   1.068   5.912
 1312SOL    HW2 4836   2.568   0.944   5.927
 1313SOL     OW 4837   6.737   6.196   2.358
 1313SOL    HW1 4838   6.706   6.177   2.264
 1313SOL    HW2 4839   6.817   6.141   2.378
 1314SOL     OW 4840   2.327   1.755   4.886
 1314SOL    HW1 4841   2.370   1.669   4.911
 1314SOL    HW2 4842   2.269   1.786   4.962
 1315SOL     OW 4843   6.059   1.532   3.261
 1315SOL    HW1 4844   6.047   1.604   3.330
 1315SOL    HW2 4845   5.970   1.495   3.236
 1316SOL     OW 4846   4.801   0.126   6.532
 1316SOL    HW1 4847   4.792   0.075   6.617
 1316SOL    HW2 4848   4.800   0.224   6.553
 1317SOL     OW 4849   3.528   3.540   5.633
 1317SOL    HW1 4850   3.623   3.515   5.617
 1317SOL    HW2 4851   3.485   3.472   5.692
 1318SOL     OW 4852   1.727   2.009   6.157
 1318SOL    HW1 4853   1.735   2.096   6.108
 1318SOL    HW2 4854   1.753   2.022   6.253
 1319SOL     OW 4855   6.720   6.979   0.988
 1319SOL    HW1 4856   6.741   6.889   1.027
 1319SOL    HW2 4857   6.764   0.033   1.042
 1320SOL     OW 4858   3.411   3.382   5.815
 1320SOL    HW1 4859   3.389   3.285   5.809
 1320SOL    HW2 4860   3.342   3.429   5.869
 1321SOL     OW 4861   6.383   2.749   0.463
 1321SOL    HW1 4862   6.305   2.691   0.485
 1321SOL    HW2 4863   6.366   2.841   0.498
 1322SOL     OW 4864   3.680   2.111   0.382
 1322SOL    HW1 4865   3.728   2.103   0.295
 1322SOL    HW2 4866   3.623   2.030   0.396
 1323SOL     OW 4867   3.636   6.892   0.609
 1323SOL    HW1 4868   3.613   6.824   0.539
 1323SOL    HW2 4869   3.591   6.978   0.587
 1324SOL     OW 4870   2.030   3.783   0.265
 1324SOL    HW1 4871   2.112   3.832   0.295
 1324SOL    HW2 4872   2.033   3.770   0.166
 1325SOL     OW 4873   2.825   5.882   5.219
 1325SOL    HW1 4874   2.903   5.887   5.156
 1325SOL    HW2 4875   2.795   5.787   5.227
 1326SOL     OW 4876   4.656   2.243   4.161
 1326SOL    HW1 4877   4.746   2.202   4.169
 1326SOL    HW2 4878   4.586   2.173   4.173
 1327SOL     OW 4879   5.152   5.554   1.914
 1327SOL    HW1 4880   5.155   5.654   1.906
 1327SOL    HW2 4881   5.138   5.528   2.009
 1328SOL     OW 4882   2.030   2.655   5.040
 1328SOL    HW1 4883   2.074   2.572   5.005
 1328SOL    HW2 4884   2.100   2.725   5.057
 1329SOL     OW 4885   1.261   2.838   3.640
 1329SOL    HW1 4886   1.251   2.753   3.690
 1329SOL    HW2 4887   1.229   2.825   3.546
 1330SOL     OW 4888   6.272   2.938   2.136
 1330SOL    HW1 4889   6.303   2.959   2.228
 1330SOL    HW2 4890   6.239   2.844   2.132
 1331SOL     OW 4891   4.437   1.564   3.798
 1331SOL    HW1 4892   4.425   1.657   3.762
 1331SOL    HW2 4893   4.368   1.503   3.759
 1332SOL     OW 4894   1.549   5.967   0.202
 1332SOL    HW1 4895   1.553   5.957   0.301
 1332SOL    HW2 4896   1.549   6.064   0.178
 1333SOL     OW 4897   3.433   4.152   3.276
 1333SOL    HW1 4898   3.460   4.195   3.361
 1333SOL    HW2 4899   3.439   4.218   3.201
 1334SOL     OW 4900   6.592   3.287   1.712
 1334SOL    HW1 4901   6.550   3.213   1.658
 1334SOL    HW2 4902   6.530   3.313   1.786
 1335SOL     OW 4903   1.336   3.938   2.826
 1335SOL    HW1 4904   1.327   3.922   2.924
 1335SOL    HW2 4905   1.339   4.036   2.807
 1336SOL     OW 4906   2.352   0.285   5.753
 1336SOL    HW1 4907   2.433   0.258   5.700
 1336SOL    HW2 4908   2.289   0.335   5.694
 1337SOL     OW 4909   6.633   1.111   3.080
 1337SOL    HW1 4910   6.725   1.096   3.044
 1337SOL    HW2 4911   6.586   1.023   3.089
 1338SOL     OW 4912   6.590   4.320   4.953
 1338SOL    HW1 4913   6.635   4.386   4.893
 1338SOL    HW2 4914   6.494   4.344   4.962
 1339SOL     OW 4915   6.967   0.235   6.969
 1339SOL    HW1 4916   6.951   0.278   6.880
 1339SOL    HW2 4917   7.000   0.303   0.017
 1340SOL     OW 4918   4.150   2.647   1.268
 1340SOL    HW1 4919   4.135   2.574   1.202
 1340SOL    HW2 4920   4.229   2.624   1.325
 1341SOL     OW 4921   4.881   5.990   6.933
 1341SOL    HW1 4922   4.907   5.943   6.849
 1341SOL    HW2 4923   4.878   5.924   7.009
 1342SOL     OW 4924   2.132   6.694   1.712
 1342SOL    HW1 4925   2.042   6.668   1.677
 1342SOL    HW2 4926   2.126   6.783   1.757
 1343SOL     OW 4927   6.121   5.936   3.450
 1343SOL    HW1 4928   6.091   5.895   3.537
 1343SOL    HW2 4929   6.207   5.895   3.422
 1344SOL     OW 4930   0.605   0.839   4.619
 1344SOL    HW1 4931   0.704   0.830   4.613
 1344SOL    HW2 4932   0.579   0.870   4.710
 1345SOL     OW 4933   0.161   6.620   0.160
 1345SOL    HW1 4934   0.096   6.695   0.146
 1345SOL    HW2 4935   0.141   6.574   0.246
 1346SOL     OW 4936   3.159   5.466   4.948
 1346SOL    HW1 4937   3.125   5.422   5.031
 1346SOL    HW2 4938   3.259   5.464   4.949
 1347SOL     OW 4939   1.239   6.849   6.555
 1347SOL    HW1 4940   1.218   6.946   6.573
 1347SOL    HW2 4941   1.235   6.832   6.457
 1348SOL     OW 4942   0.767   6.337   5.568
 1348SOL    HW1 4943   0.669   6.355   5.579
 1348SOL    HW2 4944   0.797   6.365   5.477
 1349SOL     OW 4945   4.650   2.746   3.744
 1349SOL    HW1 4946   4.620   2.667   3.690
 1349SOL    HW2 4947   4.667   2.717   3.838
 1350SOL     OW 4948   4.286   4.036   6.722
 1350SOL    HW1 4949   4.300   4.037   6.821
 1350SOL    HW2 4950   4.295   4.129   6.686
 1351SOL     OW 4951   0.258   2.457   5.000
 1351SOL    HW1 4952   0.294   2.398   4.928
 1351SOL    HW2 4953   0.194   2.523   4.961
 1352SOL     OW 4954   6.930   0.457   2.355
 1352SOL    HW1 4955   6.936   0.365   2.315
 1352SOL    HW2 4956   6.834   0.479   2.374
 1353SOL     OW 4957   0.828   0.958   0.479
 1353SOL    HW1 4958   0.813   1.057   0.482
 1353SOL    HW2 4959   0.903   0.938   0.415
 1354SOL     OW 4960   4.975   4.822   2.818
 1354SOL    HW1 4961   4.942   4.890   2.884
 1354SOL    HW2 4962   5.054   4.773   2.856
 1355SOL     OW 4963   5.654   3.237   6.058
 1355SOL    HW1 4964   5.744   3.271   6.085
 1355SOL    HW2 4965   5.659   3.139   6.038
 1356SOL     OW 4966   3.052   3.003   0.404
 1356SOL    HW1 4967   3.126   3.013   0.470
 1356SOL    HW2 4968   3.002   3.089   0.396
 1357SOL     OW 4969   0.898   3.546   4.854
 1357SOL    HW1 4970   0.823   3.497   4.811
 1357SOL    HW2 4971   0.882   3.552   4.952
 1358SOL     OW 4972   2.013   0.026   0.086
 1358SOL    HW1 4973   2.087   6.986   0.050
 1358SOL    HW2 4974   1.963   6.992   0.156
 1359SOL     OW 4975   6.853   4.565   2.044
 1359SOL    HW1 4976   6.907   4.502   2.099
 1359SOL    HW2 4977   6.762   4.527   2.029
 1360SOL     OW 4978   2.232   2.667   0.027
 1360SOL    HW1 4979   2.212   2.721   0.109
 1360SOL    HW2 4980   2.270   2.727   6.973
 1361SOL     OW 4981   0.359   4.713   5.327
 1361SOL    HW1 4982   0.438   4.653   5.310
 1361SOL    HW2 4983   0.275   4.661   5.315
 1362SOL     OW 4984   3.260   3.208   3.012
 1362SOL    HW1 4985   3.343   3.256   3.041
 1362SOL    HW2 4986   3.256   3.205   2.912
 1363SOL     OW 4987   0.888   6.246   4.276
 1363SOL    HW1 4988   0.909   6.154   4.245
 1363SOL    HW2 4989   0.830   6.292   4.209
 1364SOL     OW 4990   4.548   4.380   0.757
 1364SOL    HW1 4991   4.452   4.354   0.764
 1364SOL    HW2 4992   4.604   4.316   0.811
 1365SOL     OW 4993   0.088   3.215   6.736
 1365SOL    HW1 4994   0.019   3.283   6.763
 1365SOL    HW2 4995   0.079   3.134   6.795
 1366SOL     OW 4996   3.496   6.952   5.047
 1366SOL    HW1 4997   3.489   6.985   4.953
 1366SOL    HW2 4998   3.464   6.857   5.051
 1367SOL     OW 4999   2.244   1.247   2.343
 1367SOL    HW1 5000   2.182   1.176   2.373
 1367SOL    HW2 5001   2.270   1.305   2.420
 1368SOL     OW 5002   5.471   6.668   3.335
 1368SOL    HW1 5003   5.475   6.608   3.415
 1368SOL    HW2 5004   5.380   6.711   3.331
 1369SOL     OW 5005   0.826   0.625   2.856
 1369SOL    HW1 5006   0.880   0.693   2.904
 1369SOL    HW2 5007   0.851   0.534   2.889
 1370SOL     OW 5008   2.091   0.640   1.504
 1370SOL    HW1 5009   2.183   0.650   1.542
 1370SOL    HW2 5010   2.098   0.626   1.405
 1371SOL     OW 5011   4.030   0.433   0.059
 1371SOL    HW1 5012   3.934   0.405   0.058
 1371SOL    HW2 5013   4.070   0.414   0.148
 1372SOL     OW 5014   2.912   2.144   2.192
 1372SOL    HW1 5015   2.966   2.172   2.272
 1372SOL    HW2 5016   2.871   2.225   2.149
 1373SOL     OW 5017   1.340   5.906   0.916
 1373SOL    HW1 5018   1.352   5.959   0.832
 1373SOL    HW2 5019   1.284   5.958   0.981
 1374SOL     OW 5020   4.794   2.983   0.390
 1374SOL    HW1 5021   4.806   2.949   0.484
 1374SOL    HW2 5022   4.781   3.083   0.393
 1375SOL     OW 5023   0.606   3.899   5.318
 1375SOL    HW1 5024   0.542   3.931   5.388
 1375SOL    HW2 5025   0.629   3.974   5.257
 1376SOL     OW 5026   4.547   1.408   2.397
 1376SOL    HW1 5027   4.459   1.366   2.373
 1376SOL    HW2 5028   4.532   1.504   2.422
 1377SOL     OW 5029   1.064   5.608   4.828
 1377SOL    HW1 5030   0.986   5.638   4.883
 1377SOL    HW2 5031   1.067   5.508   4.826
 1378SOL     OW 5032   1.718   2.428   6.761
 1378SOL    HW1 5033   1.721   2.517   6.806
 1378SOL    HW2 5034   1.653   2.369   6.809
 1379SOL     OW 5035   4.125   6.168   1.010
 1379SOL    HW1 5036   4.072   6.252   1.010
 1379SOL    HW2 5037   4.102   6.114   0.929
 1380SOL     OW 5038   6.453   6.362   3.051
 1380SOL    HW1 5039   6.510   6.292   3.007
 1380SOL    HW2 5040   6.436   6.436   2.987
 1381SOL     OW 5041   6.390   0.291   1.446
 1381SOL    HW1 5042   6.311   0.234   1.470
 1381SOL    HW2 5043   6.461   0.235   1.406
 1382SOL     OW 5044   6.665   4.838   6.523
 1382SOL    HW1 5045   6.568   4.846   6.499
 1382SOL    HW2 5046   6.700   4.927   6.552
 1383SOL     OW 5047   2.615   0.055   0.459
 1383SOL    HW1 5048   2.704   0.086   0.425
 1383SOL    HW2 5049   2.594   6.982   0.420
 1384SOL     OW 5050   2.627   2.052   2.374
 1384SOL    HW1 5051   2.716   2.084   2.407
 1384SOL    HW2 5052   2.568   2.032   2.453
 1385SOL     OW 5053   5.643   2.743   3.670
 1385SOL    HW1 5054   5.546   2.766   3.674
 1385SOL    HW2 5055   5.656   2.647   3.696
 1386SOL     OW 5056   2.295   2.408   3.689
 1386SOL    HW1 5057   2.308   2.321   3.737
 1386SOL    HW2 5058   2.219   2.457   3.732
 1387SOL     OW 5059   2.385   0.784   4.834
 1387SOL    HW1 5060   2.479   0.778   4.802
 1387SOL    HW2 5061   2.361   0.879   4.853
 1388SOL     OW 5062   6.179   1.195   4.840
 1388SOL    HW1 5063   6.230   1.142   4.772
 1388SOL    HW2 5064   6.177   1.291   4.813
 1389SOL     OW 5065   6.419   1.046   4.158
 1389SOL    HW1 5066   6.511   1.083   4.163
 1389SOL    HW2 5067   6.421   0.954   4.118
 1390SOL     OW 5068   4.368   2.152   2.049
 1390SOL    HW1 5069   4.384   2.236   1.998
 1390SOL    HW2 5070   4.299   2.169   2.119
 1391SOL     OW 5071   5.692   1.485   4.828
 1391SOL    HW1 5072   5.643   1.571   4.844
 1391SOL    HW2 5073   5.760   1.471   4.899
 1392SOL     OW 5074   4.750   6.226   5.811
 1392SOL    HW1 5075   4.717   6.319   5.827
 1392SOL    HW2 5076   4.694   6.162   5.862
 1393SOL     OW 5077   4.726   0.365   6.856
 1393SOL    HW1 5078   4.686   0.318   6.935
 1393SOL    HW2 5079   4.822   0.384   6.875
 1394SOL     OW 5080   4.682   0.282   3.554
 1394SOL    HW1 5081   4.609   0.318   3.497
 1394SOL    HW2 5082   4.690   0.183   3.541
 1395SOL     OW 5083   1.305   5.171   2.425
 1395SOL    HW1 5084   1.352   5.158   2.338
 1395SOL    HW2 5085   1.369   5.153   2.500
 1396SOL     OW 5086   1.586   0.894   3.594
 1396SOL    HW1 5087   1.568   0.796   3.589
 1396SOL    HW2 5088   1.580   0.934   3.503
 1397SOL     OW 5089   0.580   5.105   5.026
 1397SOL    HW1 5090   0.551   5.058   4.943
 1397SOL    HW2 5091   0.547   5.054   5.106
 1398SOL     OW 5092   1.893   6.862   6.855
 1398SOL    HW1 5093   1.815   6.802   6.842
 1398SOL    HW2 5094   1.862   6.955   6.874
 1399SOL     OW 5095   3.947   6.710   0.406
 1399SOL    HW1 5096   4.046   6.695   0.401
 1399SOL    HW2 5097   3.907   6.645   0.471
 1400SOL     OW 5098   0.445   1.432   5.118
 1400SOL    HW1 5099   0.463   1.366   5.045
 1400SOL    HW2 5100   0.384   1.391   5.186
 1401SOL     OW 5101   5.208   0.066   2.912
 1401SOL    HW1 5102   5.280   0.083   2.979
 1401SOL    HW2 5103   5.241   0.088   2.821
 1402SOL     OW 5104   6.978   4.439   2.243
 1402SOL    HW1 5105   0.025   4.512   2.269
 1402SOL    HW2 5106   0.007   4.351   2.250
 1403SOL     OW 5107   3.342   3.267   6.517
 1403SOL    HW1 5108   3.291   3.292   6.434
 1403SOL    HW2 5109   3.428   3.223   6.491
 1404SOL     OW 5110   4.317   6.430   0.683
 1404SOL    HW1 5111   4.229   6.429   0.730
 1404SOL    HW2 5112   4.389   6.398   0.744
 1405SOL     OW 5113   0.838   3.701   0.694
 1405SOL    HW1 5114   0.894   3.654   0.762
 1405SOL    HW2 5115   0.808   3.789   0.732
 1406SOL     OW 5116   2.069   2.964   0.386
 1406SOL    HW1 5117   2.132   2.960   0.308
 1406SOL    HW2 5118   2.111   3.014   0.461
 1407SOL     OW 5119   0.924   2.987   1.512
 1407SOL    HW1 5120   0.856   3.055   1.542
 1407SOL    HW2 5121   1.015   3.017   1.541
 1408SOL     OW 5122   5.200   6.573   0.963
 1408SOL    HW1 5123   5.191   6.646   0.896
 1408SOL    HW2 5124   5.119   6.570   1.021
 1409SOL     OW 5125   6.359   1.314   5.539
 1409SOL    HW1 5126   6.311   1.395   5.571
 1409SOL    HW2 5127   6.313   1.232   5.574
 1410SOL     OW 5128   3.058   0.250   0.167
 1410SOL    HW1 5129   3.016   0.213   0.249
 1410SOL    HW2 5130   3.133   0.310   0.192
 1411SOL     OW 5131   3.695   5.108   6.403
 1411SOL    HW1 5132   3.792   5.114   6.424
 1411SOL    HW2 5133   3.659   5.199   6.383
 1412SOL     OW 5134   2.230   2.041   0.486
 1412SOL    HW1 5135   2.296   2.031   0.412
 1412SOL    HW2 5136   2.235   1.961   0.546
 1413SOL     OW 5137   2.188   1.991   5.454
 1413SOL    HW1 5138   2.284   1.967   5.463
 1413SOL    HW2 5139   2.134   1.909   5.436
 1414SOL     OW 5140   1.028   4.869   2.066
 1414SOL    HW1 5141   1.065   4.846   1.976
 1414SOL    HW2 5142   0.978   4.790   2.102
 1415SOL     OW 5143   2.887   1.945   4.677
 1415SOL    HW1 5144   2.950   2.016   4.709
 1415SOL    HW2 5145   2.907   1.924   4.582
 1416SOL     OW 5146   4.221   0.528   4.815
 1416SOL    HW1 5147   4.178   0.462   4.877
 1416SOL    HW2 5148   4.308   0.559   4.854
 1417SOL     OW 5149   3.596   3.406   4.461
 1417SOL    HW1 5150   3.596   3.308   4.444
 1417SOL    HW2 5151   3.501   3.438   4.471
 1418SOL     OW 5152   3.760   3.776   6.028
 1418SOL    HW1 5153   3.845   3.770   6.080
 1418SOL    HW2 5154   3.752   3.868   5.988
 1419SOL     OW 5155   1.438   6.225   2.163
 1419SOL    HW1 5156   1.426   6.141   2.217
 1419SOL    HW2 5157   1.381   6.298   2.201
 1420SOL     OW 5158   2.960   6.409   2.430
 1420SOL    HW1 5159   2.956   6.449   2.338
 1420SOL    HW2 5160   2.868   6.408   2.470
 1421SOL     OW 5161   1.948   5.371   6.463
 1421SOL    HW1 5162   1.860   5.385   6.416
 1421SOL    HW2 5163   2.021   5.368   6.395
 1422SOL     OW 5164   1.745   3.491   6.468
 1422SOL    HW1 5165   1.675   3.523   6.405
 1422SOL    HW2 5166   1.713   3.409   6.515
 1423SOL     OW 5167   3.739   0.622   5.200
 1423SOL    HW1 5168   3.664   0.657   5.146
 1423SOL    HW2 5169   3.716   0.627   5.297
 1424SOL     OW 5170   6.272   2.493   0.701
 1424SOL    HW1 5171   6.335   2.430   0.655
 1424SOL    HW2 5172   6.195   2.513   0.640
 1425SOL     OW 5173   5.580   6.901   3.861
 1425SOL    HW1 5174   5.514   6.965   3.821
 1425SOL    HW2 5175   5.632   6.947   3.933
 1426SOL     OW 5176   4.348   0.149   6.999
 1426SOL    HW1 5177   4.392   0.087   6.934
 1426SOL    HW2 5178   4.314   0.229   6.950
 1427SOL     OW 5179   1.837   0.398   4.112
 1427SOL    HW1 5180   1.784   0.402   4.197
 1427SOL    HW2 5181   1.782   0.436   4.037
 1428SOL     OW 5182   1.716   3.536   4.049
 1428SOL    HW1 5183   1.643   3.541   4.117
 1428SOL    HW2 5184   1.743   3.628   4.022
 1429SOL     OW 5185   6.231   0.309   2.165
 1429SOL    HW1 5186   6.217   0.406   2.184
 1429SOL    HW2 5187   6.172   0.254   2.225
 1430SOL     OW 5188   2.150   3.801   4.349
 1430SOL    HW1 5189   2.194   3.864   4.286
 1430SOL    HW2 5190   2.096   3.734   4.298
 1431SOL     OW 5191   3.417   1.692   0.020
 1431SOL    HW1 5192   3.511   1.672   0.049
 1431SOL    HW2 5193   3.409   1.790   0.002
 1432SOL     OW 5194   4.050   0.284   2.468
 1432SOL    HW1 5195   4.089   0.202   2.509
 1432SOL    HW2 5196   4.086   0.296   2.376
 1433SOL     OW 5197   3.083   1.445   3.938
 1433SOL    HW1 5198   3.014   1.516   3.930
 1433SOL    HW2 5199   3.143   1.465   4.016
 1434SOL     OW 5200   5.574   4.307   0.613
 1434SOL    HW1 5201   5.672   4.319   0.629
 1434SOL    HW2 5202   5.560   4.233   0.547
 1435SOL     OW 5203   1.638   0.041   3.994
 1435SOL    HW1 5204   1.713   0.067   4.055
 1435SOL    HW2 5205   1.567   7.012   4.047
 1436SOL     OW 5206   5.790   0.836   0.484
 1436SOL    HW1 5207   5.755   0.763   0.425
 1436SOL    HW2 5208   5.862   0.886   0.436
 1437SOL     OW 5209   3.946   0.917   0.802
 1437SOL    HW1 5210   4.005   0.995   0.779
 1437SOL    HW2 5211   4.000   0.846   0.846
 1438SOL     OW 5212   2.198   6.798   2.153
 1438SOL    HW1 5213   2.238   6.847   2.076
 1438SOL    HW2 5214   2.101   6.819   2.158
 1439SOL     OW 5215   0.281   5.273   6.813
 1439SOL    HW1 5216   0.209   5.211   6.781
 1439SOL    HW2 5217   0.363   5.221   6.836
 1440SOL     OW 5218   3.900   3.132   2.613
 1440SOL    HW1 5219   3.992   3.169   2.598
 1440SOL    HW2 5220   3.858   3.111   2.525
 1441SOL     OW 5221   6.349   2.305   5.179
 1441SOL    HW1 5222   6.343   2.211   5.145
 1441SOL    HW2 5223   6.384   2.364   5.107
 1442SOL     OW 5224   5.182   0.176   0.229
 1442SOL    HW1 5225   5.176   0.242   0.304
 1442SOL    HW2 5226   5.200   0.085   0.267
 1443SOL     OW 5227   1.729   2.532   3.630
 1443SOL    HW1 5228   1.656   2.466   3.609
 1443SOL    HW2 5229   1.689   2.613   3.674
 1444SOL     OW 5230   5.122   0.078   5.176
 1444SOL    HW1 5231   5.145   7.008   5.132
 1444SOL    HW2 5232   5.206   0.123   5.206
 1445SOL     OW 5233   6.760   1.745   0.395
 1445SOL    HW1 5234   6.663   1.726   0.380
 1445SOL    HW2 5235   6.770   1.834   0.441
 1446SOL     OW 5236   3.741   6.701   1.027
 1446SOL    HW1 5237   3.759   6.749   1.113
 1446SOL    HW2 5238   3.656   6.733   0.987
 1447SOL     OW 5239   6.359   1.509   4.974
 1447SOL    HW1 5240   6.411   1.564   4.909
 1447SOL    HW2 5241   6.261   1.522   4.959
 1448SOL     OW 5242   5.394   0.436   6.917
 1448SOL    HW1 5243   5.326   0.367   6.938
 1448SOL    HW2 5244   5.445   0.460   7.001
 1449SOL     OW 5245   4.532   6.144   0.914
 1449SOL    HW1 5246   4.632   6.138   0.924
 1449SOL    HW2 5247   4.508   6.129   0.818
 1450SOL     OW 5248   5.888   2.113   3.613
 1450SOL    HW1 5249   5.915   2.021   3.641
 1450SOL    HW2 5250   5.967   2.160   3.574
 1451SOL     OW 5251   1.783   6.691   1.966
 1451SOL    HW1 5252   1.773   6.601   1.923
 1451SOL    HW2 5253   1.744   6.761   1.905
 1452SOL     OW 5254   3.689   0.584   5.466
 1452SOL    HW1 5255   3.595   0.610   5.487
 1452SOL    HW2 5256   3.750   0.619   5.537
 1453SOL     OW 5257   4.393   4.705   4.263
 1453SOL    HW1 5258   4.380   4.750   4.351
 1453SOL    HW2 5259   4.448   4.622   4.275
 1454SOL     OW 5260   4.957   4.709   0.817
 1454SOL    HW1 5261   4.882   4.646   0.794
 1454SOL    HW2 5262   5.025   4.661   0.872
 1455SOL     OW 5263   2.810   1.921   1.696
 1455SOL    HW1 5264   2.840   1.947   1.605
 1455SOL    HW2 5265   2.794   2.002   1.751
 1456SOL     OW 5266   6.293   5.282   4.793
 1456SOL    HW1 5267   6.347   5.272   4.709
 1456SOL    HW2 5268   6.197   5.298   4.770
 1457SOL     OW 5269   2.273   0.141   3.516
 1457SOL    HW1 5270   2.338   0.094   3.457
 1457SOL    HW2 5271   2.191   0.084   3.528
 1458SOL     OW 5272   0.250   5.920   0.419
 1458SOL    HW1 5273   0.163   5.873   0.403
 1458SOL    HW2 5274   0.236   5.994   0.484
 1459SOL     OW 5275   2.368   6.963   0.917
 1459SOL    HW1 5276   2.330   6.885   0.868
 1459SOL    HW2 5277   2.468   6.964   0.907
 1460SOL     OW 5278   0.848   6.872   6.738
 1460SOL    HW1 5279   0.873   6.867   6.835
 1460SOL    HW2 5280   0.930   6.885   6.682
 1461SOL     OW 5281   4.582   5.351   2.401
 1461SOL    HW1 5282   4.505   5.413   2.385
 1461SOL    HW2 5283   4.570   5.268   2.347
 1462SOL     OW 5284   5.065   0.346   5.211
 1462SOL    HW1 5285   5.058   0.246   5.211
 1462SOL    HW2 5286   5.131   0.375   5.142
 1463SOL     OW 5287   0.439   1.783   5.767
 1463SOL    HW1 5288   0.456   1.740   5.856
 1463SOL    HW2 5289   0.468   1.878   5.769
 1464SOL     OW 5290   0.524   1.066   1.588
 1464SOL    HW1 5291   0.555   1.000   1.520
 1464SOL    HW2 5292   0.599   1.088   1.651
 1465SOL     OW 5293   0.600   0.503   4.193
 1465SOL    HW1 5294   0.597   0.442   4.272
 1465SOL    HW2 5295   0.583   0.597   4.223
 1466SOL     OW 5296   5.518   5.144   4.685
 1466SOL    HW1 5297   5.441   5.135   4.621
 1466SOL    HW2 5298   5.603   5.149   4.633
 1467SOL     OW 5299   5.785   3.722   3.458
 1467SOL    HW1 5300   5.798   3.783   3.536
 1467SOL    HW2 5301   5.742   3.637   3.488
 1468SOL     OW 5302   5.404   6.904   2.150
 1468SOL    HW1 5303   5.467   6.966   2.198
 1468SOL    HW2 5304   5.456   6.835   2.100
 1469SOL     OW 5305   0.960   1.097   2.295
 1469SOL    HW1 5306   0.964   1.022   2.228
 1469SOL    HW2 5307   0.929   1.061   2.383
 1470SOL     OW 5308   6.935   1.060   2.992
 1470SOL    HW1 5309   0.016   1.069   3.008
 1470SOL    HW2 5310   6.902   0.974   3.031
 1471SOL     OW 5311   6.349   0.505   1.286
 1471SOL    HW1 5312   6.284   0.574   1.318
 1471SOL    HW2 5313   6.367   0.440   1.359
 1472SOL     OW 5314   4.518   5.394   5.067
 1472SOL    HW1 5315   4.488   5.313   5.016
 1472SOL    HW2 5316   4.546   5.465   5.002
 1473SOL     OW 5317   6.048   3.874   2.983
 1473SOL    HW1 5318   6.021   3.971   2.990
 1473SOL    HW2 5319   6.146   3.868   2.965
 1474SOL     OW 5320   4.754   5.023   3.877
 1474SOL    HW1 5321   4.826   5.029   3.946
 1474SOL    HW2 5322   4.782   4.960   3.805
 1475SOL     OW 5323   6.237   0.456   3.953
 1475SOL    HW1 5324   6.241   0.357   3.967
 1475SOL    HW2 5325   6.166   0.495   4.012
 1476SOL     OW 5326   6.816   2.737   1.283
 1476SOL    HW1 5327   6.908   2.710   1.254
 1476SOL    HW2 5328   6.815   2.754   1.381
 1477SOL     OW 5329   2.601   5.964   3.393
 1477SOL    HW1 5330   2.516   5.926   3.429
 1477SOL    HW2 5331   2.667   5.891   3.377
 1478SOL     OW 5332   6.896   4.497   1.445
 1478SOL    HW1 5333   6.837   4.565   1.402
 1478SOL    HW2 5334   6.956   4.541   1.511
 1479SOL     OW 5335   1.018   4.773   0.285
 1479SOL    HW1 5336   0.986   4.695   0.339
 1479SOL    HW2 5337   1.114   4.759   0.262
 1480SOL     OW 5338   2.766   1.015   0.177
 1480SOL    HW1 5339   2.840   0.963   0.135
 1480SOL    HW2 5340   2.685   1.011   0.119
 1481SOL     OW 5341   0.115   2.527   5.910
 1481SOL    HW1 5342   0.083   2.509   5.817
 1481SOL    HW2 5343   0.038   2.555   5.967
 1482SOL     OW 5344   5.099   0.605   6.799
 1482SOL    HW1 5345   5.113   0.587   6.702
 1482SOL    HW2 5346   5.185   0.637   6.839
 1483SOL     OW 5347   6.305   2.096   6.329
 1483SOL    HW1 5348   6.394   2.107   6.284
 1483SOL    HW2 5349   6.306   2.145   6.416
 1484SOL     OW 5350   6.366   0.134   3.341
 1484SOL    HW1 5351   6.342   0.057   3.282
 1484SOL    HW2 5352   6.444   0.108   3.399
 1485SOL     OW 5353   5.934   2.343   4.095
 1485SOL    HW1 5354   5.871   2.266   4.085
 1485SOL    HW2 5355   5.907   2.416   4.033
 1486SOL     OW 5356   5.233   2.346   2.091
 1486SOL    HW1 5357   5.169   2.348   2.168
 1486SOL    HW2 5358   5.181   2.338   2.006
 1487SOL     OW 5359   6.429   1.230   6.104
 1487SOL    HW1 5360   6.338   1.197   6.128
 1487SOL    HW2 5361   6.422   1.302   6.036
 1488SOL     OW 5362   4.763   1.754   3.710
 1488SOL    HW1 5363   4.715   1.773   3.624
 1488SOL    HW2 5364   4.731   1.818   3.780
 1489SOL     OW 5365   4.057   5.444   4.390
 1489SOL    HW1 5366   4.022   5.354   4.415
 1489SOL    HW2 5367   3.983   5.512   4.398
 1490SOL     OW 5368   2.488   2.737   1.386
 1490SOL    HW1 5369   2.403   2.767   1.429
 1490SOL    HW2 5370   2.505   2.641   1.408
 1491SOL     OW 5371   6.725   2.124   5.384
 1491SOL    HW1 5372   6.786   2.190   5.340
 1491SOL    HW2 5373   6.631   2.160   5.382
 1492SOL     OW 5374   5.532   2.730   2.192
 1492SOL    HW1 5375   5.586   2.659   2.146
 1492SOL    HW2 5376   5.591   2.807   2.214
 1493SOL     OW 5377   5.977   1.708   5.147
 1493SOL    HW1 5378   5.986   1.799   5.186
 1493SOL    HW2 5379   6.065   1.660   5.154
 1494SOL     OW 5380   5.664   1.933   4.741
 1494SOL    HW1 5381   5.756   1.965   4.764
 1494SOL    HW2 5382   5.663   1.897   4.647
 1495SOL     OW 5383   0.939   3.263   2.656
 1495SOL    HW1 5384   1.033   3.272   2.688
 1495SOL    HW2 5385   0.927   3.173   2.614
 1496SOL     OW 5386   0.609   0.649   2.688
 1496SOL    HW1 5387   0.691   0.661   2.745
 1496SOL    HW2 5388   0.529   0.682   2.737
 1497SOL     OW 5389   5.180   4.429   5.939
 1497SOL    HW1 5390   5.136   4.443   6.028
 1497SOL    HW2 5391   5.183   4.516   5.889
 1498SOL     OW 5392   2.194   5.541   0.225
 1498SOL    HW1 5393   2.233   5.484   0.152
 1498SOL    HW2 5394   2.165   5.629   0.187
 1499SOL     OW 5395   1.018   4.236   4.729
 1499SOL    HW1 5396   1.017   4.328   4.768
 1499SOL    HW2 5397   0.924   4.201   4.726
 1500SOL     OW 5398   4.338   6.621   5.370
 1500SOL    HW1 5399   4.299   6.660   5.287
 1500SOL    HW2 5400   4.408   6.554   5.346
 1501SOL     OW 5401   4.072   0.421   0.346
 1501SOL    HW1 5402   4.083   0.323   0.336
 1501SOL    HW2 5403   4.140   0.456   0.411
 1502SOL     OW 5404   0.124   6.095   6.826
 1502SOL    HW1 5405   0.142   6.010   6.875
 1502SOL    HW2 5406   0.048   6.143   6.870
 1503SOL     OW 5407   3.211   4.513   5.529
 1503SOL    HW1 5408   3.299   4.512   5.482
 1503SOL    HW2 5409   3.139   4.536   5.464
 1504SOL     OW 5410   2.672   6.758   4.259
 1504SOL    HW1 5411   2.607   6.833   4.268
 1504SOL    HW2 5412   2.704   6.731   4.350
 1505SOL     OW 5413   4.778   6.289   2.074
 1505SOL    HW1 5414   4.804   6.300   2.169
 1505SOL    HW2 5415   4.754   6.378   2.035
 1506SOL     OW 5416   0.981   6.680   3.314
 1506SOL    HW1 5417   0.998   6.614   3.388
 1506SOL    HW2 5418   0.926   6.636   3.243
 1507SOL     OW 5419   2.492   2.404   6.385
 1507SOL    HW1 5420   2.404   2.437   6.352
 1507SOL    HW2 5421   2.480   2.316   6.430
 1508SOL     OW 5422   4.313   6.813   0.527
 1508SOL    HW1 5423   4.281   6.897   0.485
 1508SOL    HW2 5424   4.250   6.738   0.505
 1509SOL     OW 5425   5.472   1.631   0.201
 1509SOL    HW1 5426   5.412   1.586   0.267
 1509SOL    HW2 5427   5.467   1.584   0.113
 1510SOL     OW 5428   0.243   2.109   3.207
 1510SOL    HW1 5429   0.176   2.068   3.145
 1510SOL    HW2 5430   0.195   2.167   3.274
 1511SOL     OW 5431   1.416   2.823   0.888
 1511SOL    HW1 5432   1.443   2.889   0.957
 1511SOL    HW2 5433   1.369   2.746   0.931
 1512SOL     OW 5434   6.204   0.984   2.412
 1512SOL    HW1 5435   6.167   1.068   2.374
 1512SOL    HW2 5436   6.256   1.004   2.495
 1513SOL     OW 5437   3.563   1.164   2.157
 1513SOL    HW1 5438   3.622   1.096   2.113
 1513SOL    HW2 5439   3.563   1.248   2.103
 1514SOL     OW 5440   4.767   1.083   6.479
 1514SOL    HW1 5441   4.856   1.116   6.510
 1514SOL    HW2 5442   4.777   1.035   6.392
 1515SOL     OW 5443   5.966   5.382   5.224
 1515SOL    HW1 5444   6.066   5.379   5.226
 1515SOL    HW2 5445   5.930   5.350   5.312
 1516SOL     OW 5446   0.439   0.930   0.526
 1516SOL    HW1 5447   0.537   0.931   0.507
 1516SOL    HW2 5448   0.388   0.947   0.442
 1517SOL     OW 5449   3.332   5.235   3.573
 1517SOL    HW1 5450   3.366   5.141   3.577
 1517SOL    HW2 5451   3.385   5.292   3.636
 1518SOL     OW 5452   0.847   5.025   0.848
 1518SOL    HW1 5453   0.901   5.070   0.920
 1518SOL    HW2 5454   0.908   4.994   0.776
 1519SOL     OW 5455   0.199   4.313   1.111
 1519SOL    HW1 5456   0.118   4.358   1.150
 1519SOL    HW2 5457   0.227   4.238   1.170
 1520SOL     OW 5458   1.537   2.745   2.683
 1520SOL    HW1 5459   1.510   2.657   2.719
 1520SOL    HW2 5460   1.533   2.814   2.755
 1521SOL     OW 5461   2.529   4.186   5.298
 1521SOL    HW1 5462   2.501   4.095   5.268
 1521SOL    HW2 5463   2.618   4.180   5.344
 1522SOL     OW 5464   0.988   2.490   6.421
 1522SOL    HW1 5465   1.072   2.528   6.383
 1522SOL    HW2 5466   0.941   2.437   6.350
 1523SOL     OW 5467   6.414   1.114   1.016
 1523SOL    HW1 5468   6.379   1.075   0.931
 1523SOL    HW2 5469   6.514   1.111   1.016
 1524SOL     OW 5470   6.320   0.808   2.641
 1524SOL    HW1 5471   6.358   0.896   2.613
 1524SOL    HW2 5472   6.347   0.789   2.736
 1525SOL     OW 5473   4.526   1.176   5.881
 1525SOL    HW1 5474   4.488   1.210   5.967
 1525SOL    HW2 5475   4.520   1.248   5.812
 1526SOL     OW 5476   6.558   1.596   0.020
 1526SOL    HW1 5477   6.517   1.661   6.972
 1526SOL    HW2 5478   6.498   1.586   0.099
 1527SOL     OW 5479   3.181   1.581   5.526
 1527SOL    HW1 5480   3.165   1.667   5.478
 1527SOL    HW2 5481   3.256   1.592   5.591
 1528SOL     OW 5482   5.008   5.470   4.159
 1528SOL    HW1 5483   4.944   5.548   4.158
 1528SOL    HW2 5484   4.975   5.402   4.224
 1529SOL     OW 5485   2.674   0.887   5.200
 1529SOL    HW1 5486   2.578   0.881   5.224
 1529SOL    HW2 5487   2.692   0.977   5.159
 1530SOL     OW 5488   3.219   0.020   1.628
 1530SOL    HW1 5489   3.159   6.957   1.627
 1530SOL    HW2 5490   3.311   7.010   1.600
 1531SOL     OW 5491   5.472   0.404   6.223
 1531SOL    HW1 5492   5.375   0.419   6.244
 1531SOL    HW2 5493   5.483   0.316   6.175
 1532SOL     OW 5494   3.287   2.502   5.336
 1532SOL    HW1 5495   3.255   2.423   5.283
 1532SOL    HW2 5496   3.223   2.521   5.409
 1533SOL     OW 5497   5.076   2.961   6.724
 1533SOL    HW1 5498   5.016   2.929   6.651
 1533SOL    HW2 5499   5.161   2.907   6.723
 1534SOL     OW 5500   6.549   6.694   2.368
 1534SOL    HW1 5501   6.641   6.663   2.344
 1534SOL    HW2 5502   6.528   6.778   2.319
 1535SOL     OW 5503   4.873   4.495   4.433
 1535SOL    HW1 5504   4.873   4.562   4.360
 1535SOL    HW2 5505   4.838   4.408   4.398
 1536SOL     OW 5506   3.077   5.191   3.435
 1536SOL    HW1 5507   3.087   5.093   3.419
 1536SOL    HW2 5508   3.144   5.221   3.504
 1537SOL     OW 5509   2.586   5.407   4.247
 1537SOL    HW1 5510   2.573   5.467   4.168
 1537SOL    HW2 5511   2.595   5.312   4.216
 1538SOL     OW 5512   3.482   4.993   6.290
 1538SOL    HW1 5513   3.566   5.026   6.334
 1538SOL    HW2 5514   3.447   4.914   6.341
 1539SOL     OW 5515   3.787   5.670   1.841
 1539SOL    HW1 5516   3.712   5.607   1.857
 1539SOL    HW2 5517   3.767   5.758   1.884
 1540SOL     OW 5518   5.777   0.299   5.197
 1540SOL    HW1 5519   5.846   0.313   5.127
 1540SOL    HW2 5520   5.691   0.271   5.155
 1541SOL     OW 5521   4.587   1.712   1.332
 1541SOL    HW1 5522   4.526   1.653   1.278
 1541SOL    HW2 5523   4.675   1.721   1.285
 1542SOL     OW 5524   1.201   6.052   1.122
 1542SOL    HW1 5525   1.160   5.972   1.167
 1542SOL    HW2 5526   1.192   6.132   1.181
 1543SOL     OW 5527   3.392   3.850   3.170
 1543SOL    HW1 5528   3.441   3.906   3.237
 1543SOL    HW2 5529   3.323   3.795   3.218
 1544SOL     OW 5530   3.463   3.827   2.698
 1544SOL    HW1 5531   3.404   3.883   2.756
 1544SOL    HW2 5532   3.480   3.739   2.743
 1545SOL     OW 5533   0.003   0.740   4.080
 1545SOL    HW1 5534   6.974   0.767   4.165
 1545SOL    HW2 5535   6.952   0.726   4.008
 1546SOL     OW 5536   6.295   6.671   6.505
 1546SOL    HW1 5537   6.359   6.744   6.483
 1546SOL    HW2 5538   6.314   6.591   6.447
 1547SOL     OW 5539   3.102   5.915   6.885
 1547SOL    HW1 5540   3.150   6.003   6.888
 1547SOL    HW2 5541   3.004   5.931   6.897
 1548SOL     OW 5542   5.550   3.883   4.152
 1548SOL    HW1 5543   5.516   3.931   4.233
 1548SOL    HW2 5544   5.608   3.807   4.181
 1549SOL     OW 5545   6.733   2.561   0.663
 1549SOL    HW1 5546   6.723   2.563   0.762
 1549SOL    HW2 5547   6.708   2.650   0.625
 1550SOL     OW 5548   2.266   5.415   2.537
 1550SOL    HW1 5549   2.306   5.490   2.485
 1550SOL    HW2 5550   2.319   5.400   2.621
 1551SOL     OW 5551   0.526   3.769   0.958
 1551SOL    HW1 5552   0.539   3.671   0.943
 1551SOL    HW2 5553   0.564   3.820   0.880
 1552SOL     OW 5554   0.800   6.531   1.675
 1552SOL    HW1 5555   0.740   6.478   1.735
 1552SOL    HW2 5556   0.791   6.628   1.697
 1553SOL     OW 5557   5.526   1.038   6.177
 1553SOL    HW1 5558   5.582   0.958   6.197
 1553SOL    HW2 5559   5.571   1.094   6.108
 1554SOL     OW 5560   2.877   2.330   1.432
 1554SOL    HW1 5561   2.914   2.300   1.519
 1554SOL    HW2 5562   2.929   2.409   1.398
 1555SOL     OW 5563   3.988   0.689   6.986
 1555SOL    HW1 5564   4.016   0.767   0.026
 1555SOL    HW2 5565   4.019   0.604   0.012
 1556SOL     OW 5566   4.290   2.306   6.690
 1556SOL    HW1 5567   4.256   2.393   6.724
 1556SOL    HW2 5568   4.388   2.299   6.709
 1557SOL     OW 5569   1.743   3.477   0.621
 1557SOL    HW1 5570   1.841   3.457   0.619
 1557SOL    HW2 5571   1.717   3.506   0.713
 1558SOL     OW 5572   4.889   2.750   6.280
 1558SOL    HW1 5573   4.918   2.697   6.360
 1558SOL    HW2 5574   4.911   2.846   6.295
 1559SOL     OW 5575   3.070   6.015   2.967
 1559SOL    HW1 5576   3.167   5.992   2.978
 1559SOL    HW2 5577   3.061   6.096   2.909
 1560SOL     OW 5578   3.784   2.579   1.132
 1560SOL    HW1 5579   3.759   2.491   1.091
 1560SOL    HW2 5580   3.826   2.637   1.062
 1561SOL     OW 5581   5.611   6.295   1.066
 1561SOL    HW1 5582   5.615   6.287   0.966
 1561SOL    HW2 5583   5.538   6.235   1.101
 1562SOL     OW 5584   3.629   0.323   1.987
 1562SOL    HW1 5585   3.591   0.299   1.898
 1562SOL    HW2 5586   3.577   0.400   2.026
 1563SOL     OW 5587   1.882   2.362   3.929
 1563SOL    HW1 5588   1.980   2.360   3.913
 1563SOL    HW2 5589   1.861   2.315   4.015
 1564SOL     OW 5590   0.724   1.139   2.853
 1564SOL    HW1 5591   0.801   1.164   2.911
 1564SOL    HW2 5592   0.748   1.156   2.757
 1565SOL     OW 5593   4.069   1.466   4.658
 1565SOL    HW1 5594   4.168   1.478   4.662
 1565SOL    HW2 5595   4.029   1.538   4.600
 1566SOL     OW 5596   6.473   4.050   3.840
 1566SOL    HW1 5597   6.565   4.076   3.868
 1566SOL    HW2 5598   6.410   4.127   3.855
 1567SOL     OW 5599   5.343   0.394   5.093
 1567SOL    HW1 5600   5.352   0.407   5.192
 1567SOL    HW2 5601   5.310   0.479   5.052
 1568SOL     OW 5602   2.894   4.762   1.608
 1568SOL    HW1 5603   2.866   4.791   1.700
 1568SOL    HW2 5604   2.990   4.732   1.610
 1569SOL     OW 5605   2.843   0.629   2.329
 1569SOL    HW1 5606   2.766   0.631   2.393
 1569SOL    HW2 5607   2.928   0.649   2.378
 1570SOL     OW 5608   2.878   6.208   6.163
 1570SOL    HW1 5609   2.887   6.109   6.178
 1570SOL    HW2 5610   2.841   6.251   6.245
 1571SOL     OW 5611   6.797   3.550   4.277
 1571SOL    HW1 5612   6.768   3.457   4.255
 1571SOL    HW2 5613   6.720   3.612   4.266
 1572SOL     OW 5614   2.624   5.915   2.829
 1572SOL    HW1 5615   2.608   5.827   2.874
 1572SOL    HW2 5616   2.645   5.984   2.898
 1573SOL     OW 5617   4.939   6.232   0.030
 1573SOL    HW1 5618   4.973   6.222   0.124
 1573SOL    HW2 5619   4.943   6.144   7.001
 1574SOL     OW 5620   0.378   4.296   2.781
 1574SOL    HW1 5621   0.393   4.198   2.798
 1574SOL    HW2 5622   0.288   4.309   2.741
 1575SOL     OW 5623   6.888   2.573   6.996
 1575SOL    HW1 5624   6.946   2.492   7.004
 1575SOL    HW2 5625   6.802   2.548   6.952
 1576SOL     OW 5626   1.936   6.054   1.614
 1576SOL    HW1 5627   1.883   6.044   1.529
 1576SOL    HW2 5628   1.990   6.137   1.610
 1577SOL     OW 5629   3.613   5.801   4.454
 1577SOL    HW1 5630   3.655   5.872   4.511
 1577SOL    HW2 5631   3.671   5.720   4.453
 1578SOL     OW 5632   5.394   1.154   1.973
 1578SOL    HW1 5633   5.444   1.161   1.887
 1578SOL    HW2 5634   5.434   1.218   2.039
 1579SOL     OW 5635   1.290   2.700   1.784
 1579SOL    HW1 5636   1.343   2.730   1.705
 1579SOL    HW2 5637   1.217   2.765   1.803
 1580SOL     OW 5638   3.266   3.473   2.591
 1580SOL    HW1 5639   3.219   3.553   2.629
 1580SOL    HW2 5640   3.200   3.399   2.578
 1581SOL     OW 5641   6.251   4.320   5.291
 1581SOL    HW1 5642   6.291   4.344   5.202
 1581SOL    HW2 5643   6.166   4.372   5.304
 1582SOL     OW 5644   4.964   5.722   5.101
 1582SOL    HW1 5645   5.005   5.805   5.138
 1582SOL    HW2 5646   5.036   5.663   5.062
 1583SOL     OW 5647   1.388   5.389   5.057
 1583SOL    HW1 5648   1.451   5.337   5.115
 1583SOL    HW2 5649   1.437   5.420   4.975
 1584SOL     OW 5650   6.980   3.708   0.359
 1584SOL    HW1 5651   6.972   3.717   0.260
 1584SOL    HW2 5652   6.889   3.698   0.398
 1585SOL     OW 5653   4.429   6.346   3.824
 1585SOL    HW1 5654   4.511   6.347   3.881
 1585SOL    HW2 5655   4.362   6.282   3.863
 1586SOL     OW 5656   3.072   6.181   2.721
 1586SOL    HW1 5657   3.084   6.209   2.626
 1586SOL    HW2 5658   2.986   6.219   2.757
 1587SOL     OW 5659   3.180   6.257   6.647
 1587SOL    HW1 5660   3.103   6.207   6.685
 1587SOL    HW2 5661   3.254   6.194   6.624
 1588SOL     OW 5662   6.813   1.864   3.798
 1588SOL    HW1 5663   6.798   1.778   3.750
 1588SOL    HW2 5664   6.797   1.940   3.735
 1589SOL     OW 5665   6.618   3.739   4.345
 1589SOL    HW1 5666   6.566   3.824   4.346
 1589SOL    HW2 5667   6.646   3.717   4.438
 1590SOL     OW 5668   6.544   1.682   3.451
 1590SOL    HW1 5669   6.642   1.666   3.438
 1590SOL    HW2 5670   6.492   1.612   3.402
 1591SOL     OW 5671   1.583   5.749   0.951
 1591SOL    HW1 5672   1.569   5.691   1.031
 1591SOL    HW2 5673   1.510   5.816   0.946
 1592SOL     OW 5674   0.354   3.399   6.087
 1592SOL    HW1 5675   0.346   3.347   6.171
 1592SOL    HW2 5676   0.362   3.337   6.009
 1593SOL     OW 5677   3.557   6.725   0.190
 1593SOL    HW1 5678   3.642   6.675   0.206
 1593SOL    HW2 5679   3.533   6.722   0.093
 1594SOL     OW 5680   5.554   0.728   2.491
 1594SOL    HW1 5681   5.556   0.823   2.462
 1594SOL    HW2 5682   5.466   0.707   2.532
 1595SOL     OW 5683   0.534   3.075   6.984
 1595SOL    HW1 5684   0.618   3.099   6.935
 1595SOL    HW2 5685   0.534   3.119   0.057
 1596SOL     OW 5686   5.285   4.693   2.425
 1596SOL    HW1 5687   5.258   4.648   2.510
 1596SOL    HW2 5688   5.244   4.784   2.420
 1597SOL     OW 5689   3.294   5.735   0.053
 1597SOL    HW1 5690   3.219   5.778   0.003
 1597SOL    HW2 5691   3.296   5.770   0.146
 1598SOL     OW 5692   0.763   4.760   6.490
 1598SOL    HW1 5693   0.811   4.711   6.417
 1598SOL    HW2 5694   0.770   4.708   6.575
 1599SOL     OW 5695   4.312   5.321   3.088
 1599SOL    HW1 5696   4.376   5.378   3.037
 1599SOL    HW2 5697   4.233   5.375   3.116
 1600SOL     OW 5698   3.882   0.486   1.952
 1600SOL    HW1 5699   3.818   0.409   1.965
 1600SOL    HW2 5700   3.884   0.512   1.856
 1601SOL     OW 5701   6.559   1.309   4.795
 1601SOL    HW1 5702   6.544   1.385   4.858
 1601SOL    HW2 5703   6.608   1.236   4.842
 1602SOL     OW 5704   4.178   5.988   4.141
 1602SOL    HW1 5705   4.099   6.044   4.168
 1602SOL    HW2 5706   4.193   5.916   4.209
 1603SOL     OW 5707   2.855   4.751   2.792
 1603SOL    HW1 5708   2.814   4.704   2.713
 1603SOL    HW2 5709   2.798   4.738   2.872
 1604SOL     OW 5710   4.576   4.741   2.759
 1604SOL    HW1 5711   4.596   4.766   2.854
 1604SOL    HW2 5712   4.651   4.686   2.722
 1605SOL     OW 5713   4.687   4.869   0.693
 1605SOL    HW1 5714   4.724   4.884   0.601
 1605SOL    HW2 5715   4.726   4.936   0.755
 1606SOL     OW 5716   3.229   5.855   4.482
 1606SOL    HW1 5717   3.282   5.938   4.497
 1606SOL    HW2 5718   3.204   5.848   4.385
 1607SOL     OW 5719   4.429   4.855   3.773
 1607SOL    HW1 5720   4.428   4.843   3.873
 1607SOL    HW2 5721   4.468   4.944   3.751
 1608SOL     OW 5722   5.456   1.877   3.656
 1608SOL    HW1 5723   5.508   1.808   3.707
 1608SOL    HW2 5724   5.375   1.835   3.616
 1609SOL     OW 5725   2.240   6.476   1.564
 1609SOL    HW1 5726   2.320   6.514   1.516
 1609SOL    HW2 5727   2.198   6.546   1.622
 1610SOL     OW 5728   5.636   0.044   0.949
 1610SOL    HW1 5729   5.611   6.975   0.905
 1610SOL    HW2 5730   5.736   0.048   0.960
 1611SOL     OW 5731   1.295   4.220   0.290
 1611SOL    HW1 5732   1.264   4.145   0.348
 1611SOL    HW2 5733   1.364   4.185   0.225
 1612SOL     OW 5734   4.674   0.348   2.441
 1612SOL    HW1 5735   4.650   0.343   2.344
 1612SOL    HW2 5736   4.754   0.291   2.459
 1613SOL     OW 5737   6.743   5.333   2.409
 1613SOL    HW1 5738   6.820   5.366   2.464
 1613SOL    HW2 5739   6.662   5.326   2.467
 1614SOL     OW 5740   6.166   1.550   5.964
 1614SOL    HW1 5741   6.147   1.621   5.896
 1614SOL    HW2 5742   6.260   1.517   5.953
 1615SOL     OW 5743   6.848   3.693   5.896
 1615SOL    HW1 5744   6.822   3.764   5.830
 1615SOL    HW2 5745   6.855   3.733   5.987
 1616SOL     OW 5746   1.112   6.983   4.062
 1616SOL    HW1 5747   1.097   6.978   4.161
 1616SOL    HW2 5748   1.053   6.916   4.017
 1617SOL     OW 5749   6.486   5.660   3.595
 1617SOL    HW1 5750   6.482   5.757   3.572
 1617SOL    HW2 5751   6.543   5.646   3.676
 1618SOL     OW 5752   3.367   5.381   3.334
 1618SOL    HW1 5753   3.310   5.463   3.326
 1618SOL    HW2 5754   3.370   5.351   3.429
 1619SOL     OW 5755   0.820   4.425   6.671
 1619SOL    HW1 5756   0.870   4.511   6.666
 1619SOL    HW2 5757   0.882   4.348   6.654
 1620SOL     OW 5758   3.515   5.881   4.204
 1620SOL    HW1 5759   3.417   5.861   4.213
 1620SOL    HW2 5760   3.562   5.857   4.289
 1621SOL     OW 5761   4.713   5.432   0.524
 1621SOL    HW1 5762   4.754   5.449   0.614
 1621SOL    HW2 5763   4.655   5.351   0.528
 1622SOL     OW 5764   6.168   4.002   4.619
 1622SOL    HW1 5765   6.180   3.931   4.550
 1622SOL    HW2 5766   6.206   4.088   4.585
 1623SOL     OW 5767   0.314   1.874   2.895
 1623SOL    HW1 5768   0.354   1.941   2.958
 1623SOL    HW2 5769   0.373   1.794   2.890
 1624SOL     OW 5770   4.091   2.857   0.606
 1624SOL    HW1 5771   4.120   2.897   0.519
 1624SOL    HW2 5772   4.028   2.920   0.652
 1625SOL     OW 5773   0.598   6.660   1.117
 1625SOL    HW1 5774   0.638   6.733   1.063
 1625SOL    HW2 5775   0.646   6.574   1.098
 1626SOL     OW 5776   2.704   1.655   2.004
 1626SOL    HW1 5777   2.710   1.740   2.058
 1626SOL    HW2 5778   2.650   1.672   1.922
 1627SOL     OW 5779   4.069   2.067   5.749
 1627SOL    HW1 5780   4.089   1.985   5.803
 1627SOL    HW2 5781   3.977   2.060   5.710
 1628SOL     OW 5782   5.558   6.807   0.842
 1628SOL    HW1 5783   5.608   6.721   0.857
 1628SOL    HW2 5784   5.504   6.800   0.758
 1629SOL     OW 5785   1.703   0.052   3.515
 1629SOL    HW1 5786   1.746   6.980   3.533
 1629SOL    HW2 5787   1.765   0.125   3.543
 1630SOL     OW 5788   0.421   3.580   6.468
 1630SOL    HW1 5789   0.491   3.511   6.489
 1630SOL    HW2 5790   0.454   3.670   6.497
 1631SOL     OW 5791   6.696   3.708   0.488
 1631SOL    HW1 5792   6.613   3.695   0.432
 1631SOL    HW2 5793   6.672   3.697   0.585
 1632SOL     OW 5794   6.346   5.562   2.599
 1632SOL    HW1 5795   6.371   5.646   2.648
 1632SOL    HW2 5796   6.288   5.585   2.520
 1633SOL     OW 5797   5.292   3.812   5.153
 1633SOL    HW1 5798   5.199   3.780   5.138
 1633SOL    HW2 5799   5.348   3.738   5.190
 1634SOL     OW 5800   6.784   1.885   5.276
 1634SOL    HW1 5801   6.848   1.893   5.200
 1634SOL    HW2 5802   6.774   1.974   5.320
 1635SOL     OW 5803   3.182   6.491   3.628
 1635SOL    HW1 5804   3.205   6.492   3.530
 1635SOL    HW2 5805   3.139   6.405   3.652
 1636SOL     OW 5806   5.969   6.184   1.379
 1636SOL    HW1 5807   5.956   6.220   1.286
 1636SOL    HW2 5808   6.011   6.254   1.437
 1637SOL     OW 5809   0.832   0.985   3.184
 1637SOL    HW1 5810   0.835   1.071   3.235
 1637SOL    HW2 5811   0.902   0.987   3.112
 1638SOL     OW 5812   5.412   2.584   2.401
 1638SOL    HW1 5813   5.424   2.637   2.318
 1638SOL    HW2 5814   5.364   2.640   2.470
 1639SOL     OW 5815   4.799   2.103   2.613
 1639SOL    HW1 5816   4.736   2.174   2.582
 1639SOL    HW2 5817   4.747   2.021   2.637
 1640SOL     OW 5818   5.753   0.587   6.540
 1640SOL    HW1 5819   5.699   0.565   6.621
 1640SOL    HW2 5820   5.778   0.684   6.543
 1641SOL     OW 5821   5.902   2.122   3.077
 1641SOL    HW1 5822   5.882   2.136   3.174
 1641SOL    HW2 5823   5.823   2.078   3.033
 1642SOL     OW 5824   6.853   3.158   6.429
 1642SOL    HW1 5825   6.782   3.214   6.473
 1642SOL    HW2 5826   6.818   3.066   6.415
 1643SOL     OW 5827   2.110   5.606   4.308
 1643SOL    HW1 5828   2.127   5.516   4.349
 1643SOL    HW2 5829   2.044   5.596   4.233
 1644SOL     OW 5830   6.470   2.269   1.753
 1644SOL    HW1 5831   6.502   2.240   1.662
 1644SOL    HW2 5832   6.538   2.245   1.822
 1645SOL     OW 5833   2.123   0.639   5.436
 1645SOL    HW1 5834   2.122   0.698   5.517
 1645SOL    HW2 5835   2.116   0.695   5.354
 1646SOL     OW 5836   1.527   4.912   0.588
 1646SOL    HW1 5837   1.512   4.904   0.687
 1646SOL    HW2 5838   1.451   4.869   0.539
 1647SOL     OW 5839   5.325   3.101   4.472
 1647SOL    HW1 5840   5.310   3.006   4.444
 1647SOL    HW2 5841   5.368   3.151   4.397
 1648SOL     OW 5842   5.731   6.350   1.389
 1648SOL    HW1 5843   5.691   6.441   1.396
 1648SOL    HW2 5844   5.786   6.344   1.306
 1649SOL     OW 5845   3.615   1.664   3.114
 1649SOL    HW1 5846   3.628   1.583   3.171
 1649SOL    HW2 5847   3.521   1.696   3.123
 1650SOL     OW 5848   2.911   3.709   5.632
 1650SOL    HW1 5849   2.921   3.767   5.712
 1650SOL    HW2 5850   2.859   3.757   5.562
 1651SOL     OW 5851   1.202   2.552   3.754
 1651SOL    HW1 5852   1.255   2.469   3.774
 1651SOL    HW2 5853   1.124   2.528   3.697
 1652SOL     OW 5854   0.669   3.064   1.697
 1652SOL    HW1 5855   0.606   3.117   1.640
 1652SOL    HW2 5856   0.731   3.126   1.745
 1653SOL     OW 5857   0.404   4.737   2.403
 1653SOL    HW1 5858   0.501   4.711   2.399
 1653SOL    HW2 5859   0.395   4.820   2.458
 1654SOL     OW 5860   0.282   3.110   2.312
 1654SOL    HW1 5861   0.258   3.159   2.396
 1654SOL    HW2 5862   0.203   3.112   2.249
 1655SOL     OW 5863   7.017   0.460   5.580
 1655SOL    HW1 5864   6.924   0.497   5.571
 1655SOL    HW2 5865   7.012   0.367   5.615
 1656SOL     OW 5866   2.285   4.521   3.092
 1656SOL    HW1 5867   2.238   4.453   3.147
 1656SOL    HW2 5868   2.250   4.612   3.115
 1657SOL     OW 5869   0.187   6.699   6.013
 1657SOL    HW1 5870   0.266   6.638   6.005
 1657SOL    HW2 5871   0.144   6.710   5.924
 1658SOL     OW 5872   5.339   6.414   5.957
 1658SOL    HW1 5873   5.269   6.485   5.955
 1658SOL    HW2 5874   5.410   6.438   6.023
 1659SOL     OW 5875   3.609   6.999   5.589
 1659SOL    HW1 5876   3.672   6.983   5.513
 1659SOL    HW2 5877   3.606   6.917   5.647
 1660SOL     OW 5878   2.271   0.717   2.012
 1660SOL    HW1 5879   2.205   0.670   1.952
 1660SOL    HW2 5880   2.284   0.811   1.980
 1661SOL     OW 5881   5.177   4.292   2.352
 1661SOL    HW1 5882   5.120   4.374   2.352
 1661SOL    HW2 5883   5.123   4.213   2.382
 1662SOL     OW 5884   0.579   2.144   3.772
 1662SOL    HW1 5885   0.654   2.086   3.739
 1662SOL    HW2 5886   0.500   2.086   3.791
 1663SOL     OW 5887   5.146   4.557   0.955
 1663SOL    HW1 5888   5.229   4.576   1.007
 1663SOL    HW2 5889   5.111   4.467   0.981
 1664SOL     OW 5890   0.842   0.233   6.539
 1664SOL    HW1 5891   0.928   0.281   6.552
 1664SOL    HW2 5892   0.769   0.299   6.522
 1665SOL     OW 5893   3.070   4.346   6.985
 1665SOL    HW1 5894   3.164   4.375   7.006
 1665SOL    HW2 5895   3.047   4.372   6.891
 1666SOL     OW 5896   4.606   6.456   5.854
 1666SOL    HW1 5897   4.575   6.549   5.835
 1666SOL    HW2 5898   4.543   6.413   5.920
 1667SOL     OW 5899   6.844   6.203   0.996
 1667SOL    HW1 5900   6.921   6.267   0.994
 1667SOL    HW2 5901   6.796   6.211   1.084
 1668SOL     OW 5902   5.929   3.726   2.385
 1668SOL    HW1 5903   5.982   3.798   2.341
 1668SOL    HW2 5904   5.972   3.702   2.472
 1669SOL     OW 5905   6.806   3.391   5.465
 1669SOL    HW1 5906   6.719   3.427   5.497
 1669SOL    HW2 5907   6.864   3.467   5.436
 1670SOL     OW 5908   2.404   4.438   5.823
 1670SOL    HW1 5909   2.470   4.501   5.782
 1670SOL    HW2 5910   2.393   4.358   5.765
 1671SOL     OW 5911   6.030   2.010   1.074
 1671SOL    HW1 5912   6.086   1.927   1.081
 1671SOL    HW2 5913   6.041   2.064   1.157
 1672SOL     OW 5914   0.734   2.784   1.126
 1672SOL    HW1 5915   0.635   2.785   1.143
 1672SOL    HW2 5916   0.752   2.732   1.043
 1673SOL     OW 5917   1.469   0.858   4.632
 1673SOL    HW1 5918   1.564   0.830   4.621
 1673SOL    HW2 5919   1.416   0.826   4.554
 1674SOL     OW 5920   4.924   1.891   2.914
 1674SOL    HW1 5921   4.870   1.874   2.832
 1674SOL    HW2 5922   4.862   1.902   2.992
 1675SOL     OW 5923   5.118   0.609   1.806
 1675SOL    HW1 5924   5.101   0.519   1.766
 1675SOL    HW2 5925   5.142   0.598   1.902
 1676SOL     OW 5926   1.078   2.725   3.254
 1676SOL    HW1 5927   1.067   2.692   3.160
 1676SOL    HW2 5928   1.172   2.758   3.267
 1677SOL     OW 5929   3.377   2.957   3.457
 1677SOL    HW1 5930   3.438   2.960   3.378
 1677SOL    HW2 5931   3.284   2.979   3.427
 1678SOL     OW 5932   1.168   0.341   0.768
 1678SOL    HW1 5933   1.215   0.252   0.765
 1678SOL    HW2 5934   1.203   0.400   0.696
 1679SOL     OW 5935   6.781   1.585   6.690
 1679SOL    HW1 5936   6.834   1.550   6.613
 1679SOL    HW2 5937   6.829   1.564   6.775
 1680SOL     OW 5938   5.594   2.609   3.314
 1680SOL    HW1 5939   5.530   2.602   3.238
 1680SOL    HW2 5940   5.575   2.537   3.381
 1681SOL     OW 5941   3.038   6.024   5.049
 1681SOL    HW1 5942   2.986   6.033   4.963
 1681SOL    HW2 5943   3.132   5.997   5.028
 1682SOL     OW 5944   3.782   0.188   3.882
 1682SOL    HW1 5945   3.770   0.172   3.980
 1682SOL    HW2 5946   3.878   0.173   3.857
 1683SOL     OW 5947   6.323   3.488   2.987
 1683SOL    HW1 5948   6.290   3.410   2.934
 1683SOL    HW2 5949   6.284   3.485   3.079
 1684SOL     OW 5950   2.405   5.267   2.302
 1684SOL    HW1 5951   2.445   5.313   2.223
 1684SOL    HW2 5952   2.310   5.242   2.282
 1685SOL     OW 5953   0.319   1.062   5.855
 1685SOL    HW1 5954   0.245   1.056   5.788
 1685SOL    HW2 5955   0.370   1.147   5.840
 1686SOL     OW 5956   4.675   5.144   3.007
 1686SOL    HW1 5957   4.599   5.081   3.015
 1686SOL    HW2 5958   4.731   5.120   2.928
 1687SOL     OW 5959   4.973   4.869   1.212
 1687SOL    HW1 5960   4.946   4.789   1.159
 1687SOL    HW2 5961   4.905   4.942   1.199
 1688SOL     OW 5962   0.915   0.065   2.740
 1688SOL    HW1 5963   0.971   0.145   2.715
 1688SOL    HW2 5964   0.890   0.015   2.657
 1689SOL     OW 5965   4.332   0.781   1.652
 1689SOL    HW1 5966   4.315   0.876   1.678
 1689SOL    HW2 5967   4.343   0.725   1.734
 1690SOL     OW 5968   0.118   4.813   3.783
 1690SOL    HW1 5969   0.135   4.746   3.855
 1690SOL    HW2 5970   0.026   4.801   3.747
 1691SOL     OW 5971   4.478   2.498   5.119
 1691SOL    HW1 5972   4.505   2.585   5.077
 1691SOL    HW2 5973   4.384   2.476   5.093
 1692SOL     OW 5974   4.923   5.231   1.298
 1692SOL    HW1 5975   4.914   5.330   1.312
 1692SOL    HW2 5976   4.937   5.186   1.387
 1693SOL     OW 5977   5.674   6.795   5.963
 1693SOL    HW1 5978   5.599   6.803   6.027
 1693SOL    HW2 5979   5.657   6.852   5.883
 1694SOL     OW 5980   4.740   1.752   6.206
 1694SOL    HW1 5981   4.687   1.785   6.128
 1694SOL    HW2 5982   4.837   1.749   6.181
 1695SOL     OW 5983   3.277   0.803   6.501
 1695SOL    HW1 5984   3.200   0.853   6.461
 1695SOL    HW2 5985   3.242   0.734   6.564
 1696SOL     OW 5986   4.566   6.123   0.459
 1696SOL    HW1 5987   4.493   6.190   0.443
 1696SOL    HW2 5988   4.541   6.036   0.418
 1697SOL     OW 5989   4.712   2.737   2.085
 1697SOL    HW1 5990   4.805   2.700   2.083
 1697SOL    HW2 5991   4.714   2.833   2.055
 1698SOL     OW 5992   4.045   1.254   1.406
 1698SOL    HW1 5993   4.073   1.168   1.364
 1698SOL    HW2 5994   4.099   1.270   1.488
 1699SOL     OW 5995   2.348   0.308   0.041
 1699SOL    HW1 5996   2.427   0.351   7.016
 1699SOL    HW2 5997   2.264   0.342   7.015
 1700SOL     OW 5998   5.419   2.599   3.093
 1700SOL    HW1 5999   5.388   2.509   3.061
 1700SOL    HW2 6000   5.343   2.663   3.092
 1701SOL     OW 6001   6.874   6.061   5.037
 1701SOL    HW1 6002   6.836   6.122   4.968
 1701SOL    HW2 6003   6.809   6.053   5.113
 1702SOL     OW 6004   2.412   2.401   6.957
 1702SOL    HW1 6005   2.377   2.440   0.026
 1702SOL    HW2 6006   2.336   2.386   6.894
 1703SOL     OW 6007   1.247   1.570   2.017
 1703SOL    HW1 6008   1.290   1.494   2.065
 1703SOL    HW2 6009   1.309   1.648   2.014
 1704SOL     OW 6010   3.333   2.177   0.908
 1704SOL    HW1 6011   3.247   2.225   0.887
 1704SOL    HW2 6012   3.390   2.235   0.966
 1705SOL     OW 6013   4.528   2.625   0.482
 1705SOL    HW1 6014   4.613   2.605   0.433
 1705SOL    HW2 6015   4.540   2.604   0.579
 1706SOL     OW 6016   6.016   2.367   6.340
 1706SOL    HW1 6017   5.941   2.335   6.399
 1706SOL    HW2 6018   6.051   2.453   6.376
 1707SOL     OW 6019   4.315   1.334   2.248
 1707SOL    HW1 6020   4.234   1.277   2.260
 1707SOL    HW2 6021   4.329   1.352   2.151
 1708SOL     OW 6022   2.913   4.755   2.224
 1708SOL    HW1 6023   2.873   4.709   2.145
 1708SOL    HW2 6024   2.996   4.804   2.196
 1709SOL     OW 6025   5.018   5.257   1.000
 1709SOL    HW1 6026   4.968   5.316   1.064
 1709SOL    HW2 6027   4.967   5.250   0.914
 1710SOL     OW 6028   4.782   4.339   2.499
 1710SOL    HW1 6029   4.733   4.347   2.412
 1710SOL    HW2 6030   4.817   4.246   2.509
 1711SOL     OW 6031   3.713   5.134   6.821
 1711SOL    HW1 6032   3.746   5.210   6.876
 1711SOL    HW2 6033   3.790   5.077   6.793
 1712SOL     OW 6034   0.809   1.571   1.994
 1712SOL    HW1 6035   0.887   1.512   1.971
 1712SOL    HW2 6036   0.730   1.543   1.940
 1713SOL     OW 6037   3.495   1.489   2.791
 1713SOL    HW1 6038   3.447   1.493   2.879
 1713SOL    HW2 6039   3.545   1.403   2.785
 1714SOL     OW 6040   3.086   3.889   0.901
 1714SOL    HW1 6041   3.096   3.884   1.000
 1714SOL    HW2 6042   3.164   3.845   0.857
 1715SOL     OW 6043   1.731   6.053   1.868
 1715SOL    HW1 6044   1.790   6.042   1.788
 1715SOL    HW2 6045   1.784   6.037   1.951
 1716SOL     OW 6046   3.762   1.222   3.114
 1716SOL    HW1 6047   3.752   1.172   3.200
 1716SOL    HW2 6048   3.841   1.185   3.063
 1717SOL     OW 6049   3.338   5.629   4.581
 1717SOL    HW1 6050   3.409   5.579   4.532
 1717SOL    HW2 6051   3.303   5.703   4.523
 1718SOL     OW 6052   1.863   2.875   1.393
 1718SOL    HW1 6053   1.873   2.968   1.359
 1718SOL    HW2 6054   1.788   2.829   1.346
 1719SOL     OW 6055   1.064   5.252   2.351
 1719SOL    HW1 6056   1.149   5.213   2.387
 1719SOL    HW2 6057   1.026   5.191   2.281
 1720SOL     OW 6058   0.814   3.431   5.436
 1720SOL    HW1 6059   0.893   3.490   5.447
 1720SOL    HW2 6060   0.831   3.343   5.482
 1721SOL     OW 6061   2.186   2.720   0.300
 1721SOL    HW1 6062   2.133   2.742   0.381
 1721SOL    HW2 6063   2.274   2.768   0.302
 1722SOL     OW 6064   2.567   2.392   4.455
 1722SOL    HW1 6065   2.618   2.420   4.536
 1722SOL    HW2 6066   2.471   2.418   4.465
 1723SOL     OW 6067   6.147   4.249   1.469
 1723SOL    HW1 6068   6.246   4.260   1.463
 1723SOL    HW2 6069   6.107   4.330   1.512
 1724SOL     OW 6070   6.150   2.408   1.085
 1724SOL    HW1 6071   6.146   2.341   1.159
 1724SOL    HW2 6072   6.241   2.408   1.044
 1725SOL     OW 6073   1.839   6.338   6.269
 1725SOL    HW1 6074   1.833   6.244   6.235
 1725SOL    HW2 6075   1.808   6.401   6.198
 1726SOL     OW 6076   5.536   4.096   2.895
 1726SOL    HW1 6077   5.459   4.157   2.875
 1726SOL    HW2 6078   5.616   4.125   2.842
 1727SOL     OW 6079   3.145   4.047   3.138
 1727SOL    HW1 6080   3.231   4.036   3.189
 1727SOL    HW2 6081   3.071   4.002   3.189
 1728SOL     OW 6082   5.612   2.660   4.269
 1728SOL    HW1 6083   5.587   2.744   4.319
 1728SOL    HW2 6084   5.604   2.582   4.330
 1729SOL     OW 6085   1.424   2.960   2.908
 1729SOL    HW1 6086   1.421   2.868   2.948
 1729SOL    HW2 6087   1.332   2.995   2.897
 1730SOL     OW 6088   2.062   6.228   4.375
 1730SOL    HW1 6089   2.113   6.147   4.346
 1730SOL    HW2 6090   1.980   6.200   4.424
 1731SOL     OW 6091   5.578   5.270   3.570
 1731SOL    HW1 6092   5.568   5.171   3.578
 1731SOL    HW2 6093   5.669   5.297   3.599
 1732SOL     OW 6094   2.878   3.760   5.312
 1732SOL    HW1 6095   2.920   3.746   5.222
 1732SOL    HW2 6096   2.799   3.821   5.303
 1733SOL     OW 6097   2.223   2.935   6.046
 1733SOL    HW1 6098   2.236   3.028   6.012
 1733SOL    HW2 6099   2.283   2.920   6.124
 1734SOL     OW 6100   6.423   2.969   0.986
 1734SOL    HW1 6101   6.437   3.055   1.035
 1734SOL    HW2 6102   6.437   2.892   1.049
 1735SOL     OW 6103   3.837   5.478   6.124
 1735SOL    HW1 6104   3.881   5.562   6.157
 1735SOL    HW2 6105   3.786   5.436   6.198
 1736SOL     OW 6106   5.265   2.416   6.532
 1736SOL    HW1 6107   5.317   2.410   6.447
 1736SOL    HW2 6108   5.169   2.397   6.515
 1737SOL     OW 6109   3.513   1.363   5.888
 1737SOL    HW1 6110   3.592   1.418   5.914
 1737SOL    HW2 6111   3.519   1.340   5.791
 1738SOL     OW 6112   2.117   3.330   3.120
 1738SOL    HW1 6113   2.112   3.271   3.040
 1738SOL    HW2 6114   2.156   3.279   3.197
 1739SOL     OW 6115   5.378   6.942   3.113
 1739SOL    HW1 6116   5.446   7.005   3.151
 1739SOL    HW2 6117   5.409   6.910   3.024
 1740SOL     OW 6118   5.950   3.185   4.852
 1740SOL    HW1 6119   5.851   3.175   4.862
 1740SOL    HW2 6120   5.994   3.167   4.940
 1741SOL     OW 6121   0.466   1.817   4.947
 1741SOL    HW1 6122   0.427   1.907   4.924
 1741SOL    HW2 6123   0.515   1.781   4.867
 1742SOL     OW 6124   6.487   6.518   6.662
 1742SOL    HW1 6125   6.529   6.444   6.609
 1742SOL    HW2 6126   6.400   6.545   6.620
 1743SOL     OW 6127   1.801   1.723   2.189
 1743SOL    HW1 6128   1.864   1.646   2.201
 1743SOL    HW2 6129   1.853   1.808   2.185
 1744SOL     OW 6130   3.694   2.072   5.430
 1744SOL    HW1 6131   3.596   2.090   5.423
 1744SOL    HW2 6132   3.734   2.066   5.339
 1745SOL     OW 6133   6.055   6.305   0.976
 1745SOL    HW1 6134   6.012   6.288   0.887
 1745SOL    HW2 6135   5.985   6.336   1.041
 1746SOL     OW 6136   2.588   4.709   3.383
 1746SOL    HW1 6137   2.595   4.637   3.314
 1746SOL    HW2 6138   2.651   4.784   3.359
 1747SOL     OW 6139   3.916   6.839   2.588
 1747SOL    HW1 6140   3.925   6.747   2.626
 1747SOL    HW2 6141   3.822   6.851   2.554
 1748SOL     OW 6142   0.036   2.401   4.386
 1748SOL    HW1 6143   0.119   2.414   4.332
 1748SOL    HW2 6144   6.993   2.335   4.340
 1749SOL     OW 6145   6.954   5.446   1.526
 1749SOL    HW1 6146   6.927   5.536   1.490
 1749SOL    HW2 6147   6.884   5.414   1.591
 1750SOL     OW 6148   3.166   0.941   6.919
 1750SOL    HW1 6149   3.226   0.864   6.899
 1750SOL    HW2 6150   3.218   1.026   6.917
 1751SOL     OW 6151   5.487   3.329   4.721
 1751SOL    HW1 6152   5.418   3.364   4.658
 1751SOL    HW2 6153   5.442   3.297   4.805
 1752SOL     OW 6154   0.196   0.915   2.122
 1752SOL    HW1 6155   0.113   0.867   2.151
 1752SOL    HW2 6156   0.201   0.915   2.022
 1753SOL     OW 6157   6.768   1.311   1.368
 1753SOL    HW1 6158   6.737   1.350   1.282
 1753SOL    HW2 6159   6.796   1.216   1.354
 1754SOL     OW 6160   2.991   5.503   3.519
 1754SOL    HW1 6161   2.968   5.420   3.468
 1754SOL    HW2 6162   2.952   5.583   3.473
 1755SOL     OW 6163   6.728   0.396   5.752
 1755SOL    HW1 6164   6.780   0.315   5.723
 1755SOL    HW2 6165   6.685   0.438   5.672
 1756SOL     OW 6166   4.706   5.960   0.701
 1756SOL    HW1 6167   4.794   5.953   0.653
 1756SOL    HW2 6168   4.653   6.036   0.662
 1757SOL     OW 6169   2.742   4.812   5.219
 1757SOL    HW1 6170   2.728   4.902   5.178
 1757SOL    HW2 6171   2.811   4.761   5.168
 1758SOL     OW 6172   1.499   5.944   4.082
 1758SOL    HW1 6173   1.523   5.870   4.145
 1758SOL    HW2 6174   1.569   5.953   4.012
 1759SOL     OW 6175   1.184   5.902   0.269
 1759SOL    HW1 6176   1.174   5.897   0.169
 1759SOL    HW2 6177   1.217   5.993   0.295
 1760SOL     OW 6178   6.837   1.543   4.328
 1760SOL    HW1 6179   6.912   1.610   4.331
 1760SOL    HW2 6180   6.860   1.465   4.386
 1761SOL     OW 6181   5.120   1.044   2.645
 1761SOL    HW1 6182   5.178   1.119   2.679
 1761SOL    HW2 6183   5.034   1.043   2.696
 1762SOL     OW 6184   0.335   1.504   5.660
 1762SOL    HW1 6185   0.305   1.589   5.702
 1762SOL    HW2 6186   0.255   1.448   5.638
 1763SOL     OW 6187   1.215   4.967   3.723
 1763SOL    HW1 6188   1.249   4.886   3.772
 1763SOL    HW2 6189   1.287   5.036   3.719
 1764SOL     OW 6190   1.319   6.373   3.504
 1764SOL    HW1 6191   1.394   6.374   3.438
 1764SOL    HW2 6192   1.355   6.363   3.597
 1765SOL     OW 6193   5.894   4.128   2.170
 1765SOL    HW1 6194   5.847   4.152   2.085
 1765SOL    HW2 6195   5.834   4.147   2.248
 1766SOL     OW 6196   4.345   4.729   4.009
 1766SOL    HW1 6197   4.358   4.743   4.107
 1766SOL    HW2 6198   4.254   4.691   3.993
 1767SOL     OW 6199   0.204   4.786   1.843
 1767SOL    HW1 6200   0.148   4.759   1.764
 1767SOL    HW2 6201   0.144   4.796   1.923
 1768SOL     OW 6202   5.599   4.668   2.385
 1768SOL    HW1 6203   5.632   4.697   2.296
 1768SOL    HW2 6204   5.500   4.682   2.390
 1769SOL     OW 6205   5.287   0.243   0.982
 1769SOL    HW1 6206   5.368   0.295   1.009
 1769SOL    HW2 6207   5.308   0.145   0.981
 1770SOL     OW 6208   1.893   4.906   0.663
 1770SOL    HW1 6209   1.913   4.925   0.567
 1770SOL    HW2 6210   1.922   4.984   0.719
 1771SOL     OW 6211   2.228   3.208   6.060
 1771SOL    HW1 6212   2.205   3.262   5.979
 1771SOL    HW2 6213   2.327   3.207   6.074
 1772SOL     OW 6214   2.228   4.102   2.322
 1772SOL    HW1 6215   2.139   4.147   2.327
 1772SOL    HW2 6216   2.220   4.007   2.351
 1773SOL     OW 6217   2.290   6.029   5.881
 1773SOL    HW1 6218   2.382   6.056   5.912
 1773SOL    HW2 6219   2.282   5.929   5.885
 1774SOL     OW 6220   5.325   5.683   1.166
 1774SOL    HW1 6221   5.276   5.733   1.237
 1774SOL    HW2 6222   5.279   5.595   1.149
 1775SOL     OW 6223   2.005   4.997   0.933
 1775SOL    HW1 6224   2.042   5.037   1.017
 1775SOL    HW2 6225   2.071   4.931   0.896
 1776SOL     OW 6226   4.481   2.793   5.676
 1776SOL    HW1 6227   4.495   2.759   5.768
 1776SOL    HW2 6228   4.559   2.849   5.648
 1777SOL     OW 6229   4.353   6.014   7.006
 1777SOL    HW1 6230   4.451   6.009   6.988
 1777SOL    HW2 6231   4.334   6.091   0.050
 1778SOL     OW 6232   6.177   6.950   4.482
 1778SOL    HW1 6233   6.226   6.934   4.568
 1778SOL    HW2 6234   6.241   6.985   4.414
 1779SOL     OW 6235   5.695   0.635   4.168
 1779SOL    HW1 6236   5.774   0.671   4.119
 1779SOL    HW2 6237   5.612   0.683   4.138
 1780SOL     OW 6238   2.055   5.548   5.632
 1780SOL    HW1 6239   2.125   5.610   5.667
 1780SOL    HW2 6240   1.966   5.593   5.635
 1781SOL     OW 6241   4.064   0.724   5.492
 1781SOL    HW1 6242   4.136   0.731   5.561
 1781SOL    HW2 6243   4.029   0.630   5.491
 1782SOL     OW 6244   5.420   1.333   2.288
 1782SOL    HW1 6245   5.344   1.354   2.350
 1782SOL    HW2 6246   5.408   1.382   2.202
 1783SOL     OW 6247   2.027   4.196   6.939
 1783SOL    HW1 6248   1.952   4.154   6.990
 1783SOL    HW2 6249   2.055   4.280   6.985
 1784SOL     OW 6250   2.923   0.175   1.758
 1784SOL    HW1 6251   2.984   0.237   1.808
 1784SOL    HW2 6252   2.942   0.081   1.784
 1785SOL     OW 6253   1.576   6.818   4.592
 1785SOL    HW1 6254   1.659   6.873   4.591
 1785SOL    HW2 6255   1.579   6.751   4.517
 1786SOL     OW 6256   0.891   6.057   1.628
 1786SOL    HW1 6257   0.857   6.135   1.575
 1786SOL    HW2 6258   0.845   6.054   1.717
 1787SOL     OW 6259   2.050   3.371   5.479
 1787SOL    HW1 6260   2.145   3.338   5.480
 1787SOL    HW2 6261   2.004   3.336   5.397
 1788SOL     OW 6262   4.099   3.303   0.858
 1788SOL    HW1 6263   4.167   3.243   0.900
 1788SOL    HW2 6264   4.119   3.398   0.880
 1789SOL     OW 6265   6.305   3.119   2.467
 1789SOL    HW1 6266   6.240   3.195   2.457
 1789SOL    HW2 6267   6.395   3.156   2.493
 1790SOL     OW 6268   1.711   2.287   4.719
 1790SOL    HW1 6269   1.619   2.321   4.699
 1790SOL    HW2 6270   1.708   2.187   4.726
 1791SOL     OW 6271   5.099   0.363   3.812
 1791SOL    HW1 6272   5.124   0.449   3.858
 1791SOL    HW2 6273   5.013   0.329   3.849
 1792SOL     OW 6274   0.234   2.691   6.591
 1792SOL    HW1 6275   0.217   2.670   6.495
 1792SOL    HW2 6276   0.206   2.785   6.610
 1793SOL     OW 6277   6.606   1.256   5.426
 1793SOL    HW1 6278   6.517   1.286   5.458
 1793SOL    HW2 6279   6.602   1.159   5.401
 1794SOL     OW 6280   0.260   0.791   6.466
 1794SOL    HW1 6281   0.279   0.815   6.561
 1794SOL    HW2 6282   0.337   0.740   6.428
 1795SOL     OW 6283   5.390   4.649   0.998
 1795SOL    HW1 6284   5.433   4.567   1.038
 1795SOL    HW2 6285   5.438   4.731   1.031
 1796SOL     OW 6286   6.665   0.392   0.616
 1796SOL    HW1 6287   6.612   0.329   0.673
 1796SOL    HW2 6288   6.756   0.353   0.601
 1797SOL     OW 6289   2.880   5.358   5.563
 1797SOL    HW1 6290   2.922   5.446   5.585
 1797SOL    HW2 6291   2.952   5.294   5.534
 1798SOL     OW 6292   2.024   3.797   5.416
 1798SOL    HW1 6293   2.094   3.766   5.351
 1798SOL    HW2 6294   2.043   3.891   5.444
 1799SOL     OW 6295   2.924   1.599   1.495
 1799SOL    HW1 6296   2.850   1.651   1.538
 1799SOL    HW2 6297   2.968   1.541   1.563
 1800SOL     OW 6298   6.131   3.117   5.528
 1800SOL    HW1 6299   6.220   3.114   5.482
 1800SOL    HW2 6300   6.143   3.150   5.621
 1801SOL     OW 6301   0.363   0.496   3.144
 1801SOL    HW1 6302   0.453   0.525   3.114
 1801SOL    HW2 6303   0.372   0.426   3.215
 1802SOL     OW 6304   6.420   4.833   3.962
 1802SOL    HW1 6305   6.337   4.825   4.018
 1802SOL    HW2 6306   6.482   4.758   3.985
 1803SOL     OW 6307   6.966   0.270   3.745
 1803SOL    HW1 6308   6.948   0.317   3.831
 1803SOL    HW2 6309   6.879   0.241   3.704
 1804SOL     OW 6310   2.083   2.501   5.836
 1804SOL    HW1 6311   2.008   2.567   5.845
 1804SOL    HW2 6312   2.158   2.528   5.896
 1805SOL     OW 6313   6.482   4.794   0.645
 1805SOL    HW1 6314   6.426   4.724   0.602
 1805SOL    HW2 6315   6.554   4.824   0.583
 1806SOL     OW 6316   0.104   1.687   0.725
 1806SOL    HW1 6317   0.025   1.736   0.764
 1806SOL    HW2 6318   0.167   1.752   0.684
 1807SOL     OW 6319   6.336   2.612   2.928
 1807SOL    HW1 6320   6.262   2.642   2.867
 1807SOL    HW2 6321   6.396   2.549   2.879
 1808SOL     OW 6322   5.677   1.352   6.224
 1808SOL    HW1 6323   5.659   1.405   6.307
 1808SOL    HW2 6324   5.743   1.401   6.167
 1809SOL     OW 6325   5.520   0.382   5.442
 1809SOL    HW1 6326   5.481   0.426   5.522
 1809SOL    HW2 6327   5.584   0.444   5.397
 1810SOL     OW 6328   1.461   0.713   4.281
 1810SOL    HW1 6329   1.557   0.738   4.296
 1810SOL    HW2 6330   1.450   0.678   4.188
 1811SOL     OW 6331   3.674   6.209   1.981
 1811SOL    HW1 6332   3.714   6.297   2.007
 1811SOL    HW2 6333   3.648   6.212   1.884
 1812SOL     OW 6334   4.135   6.749   6.874
 1812SOL    HW1 6335   4.149   6.844   6.901
 1812SOL    HW2 6336   4.038   6.731   6.864
 1813SOL     OW 6337   4.889   4.068   2.234
 1813SOL    HW1 6338   4.939   3.982   2.243
 1813SOL    HW2 6339   4.842   4.088   2.320
 1814SOL     OW 6340   6.460   5.857   0.591
 1814SOL    HW1 6341   6.426   5.793   0.659
 1814SOL    HW2 6342   6.395   5.864   0.515
 1815SOL     OW 6343   4.578   5.807   1.141
 1815SOL    HW1 6344   4.613   5.841   1.054
 1815SOL    HW2 6345   4.510   5.735   1.124
 1816SOL     OW 6346   4.371   4.890   5.427
 1816SOL    HW1 6347   4.282   4.932   5.409
 1816SOL    HW2 6348   4.423   4.946   5.491
 1817SOL     OW 6349   0.593   2.724   3.553
 1817SOL    HW1 6350   0.618   2.746   3.647
 1817SOL    HW2 6351   0.563   2.808   3.507
 1818SOL     OW 6352   2.719   1.341   0.573
 1818SOL    HW1 6353   2.667   1.363   0.656
 1818SOL    HW2 6354   2.690   1.251   0.539
 1819SOL     OW 6355   1.683   3.965   1.833
 1819SOL    HW1 6356   1.592   3.955   1.792
 1819SOL    HW2 6357   1.727   4.047   1.797
 1820SOL     OW 6358   3.793   0.375   4.190
 1820SOL    HW1 6359   3.845   0.373   4.275
 1820SOL    HW2 6360   3.771   0.282   4.162
 1821SOL     OW 6361   3.213   1.523   2.558
 1821SOL    HW1 6362   3.122   1.541   2.519
 1821SOL    HW2 6363   3.272   1.484   2.487
 1822SOL     OW 6364   1.146   4.012   3.386
 1822SOL    HW1 6365   1.212   3.948   3.427
 1822SOL    HW2 6366   1.088   4.050   3.458
 1823SOL     OW 6367   4.435   6.596   2.992
 1823SOL    HW1 6368   4.429   6.596   3.091
 1823SOL    HW2 6369   4.411   6.506   2.957
 1824SOL     OW 6370   4.342   3.086   1.733
 1824SOL    HW1 6371   4.322   3.161   1.670
 1824SOL    HW2 6372   4.434   3.098   1.770
 1825SOL     OW 6373   0.987   3.176   5.855
 1825SOL    HW1 6374   0.935   3.193   5.939
 1825SOL    HW2 6375   0.945   3.102   5.804
 1826SOL     OW 6376   3.477   2.423   1.429
 1826SOL    HW1 6377   3.466   2.442   1.527
 1826SOL    HW2 6378   3.539   2.489   1.388
 1827SOL     OW 6379   5.577   4.817   0.784
 1827SOL    HW1 6380   5.589   4.746   0.854
 1827SOL    HW2 6381   5.561   4.905   0.829
 1828SOL     OW 6382   1.414   4.117   4.752
 1828SOL    HW1 6383   1.332   4.131   4.696
 1828SOL    HW2 6384   1.441   4.204   4.793
 1829SOL     OW 6385   3.625   6.464   2.163
 1829SOL    HW1 6386   3.616   6.370   2.194
 1829SOL    HW2 6387   3.635   6.525   2.242
 1830SOL     OW 6388   4.316   1.184   6.091
 1830SOL    HW1 6389   4.326   1.105   6.152
 1830SOL    HW2 6390   4.276   1.260   6.142
 1831SOL     OW 6391   3.508   4.568   0.473
 1831SOL    HW1 6392   3.605   4.553   0.494
 1831SOL    HW2 6393   3.463   4.480   0.458
 1832SOL     OW 6394   2.493   3.147   6.118
 1832SOL    HW1 6395   2.563   3.163   6.188
 1832SOL    HW2 6396   2.537   3.128   6.030
 1833SOL     OW 6397   6.097   0.806   6.943
 1833SOL    HW1 6398   6.136   0.750   6.870
 1833SOL    HW2 6399   6.168   0.828   7.010
 1834SOL     OW 6400   0.582   3.495   6.191
 1834SOL    HW1 6401   0.491   3.484   6.151
 1834SOL    HW2 6402   0.593   3.589   6.222
 1835SOL     OW 6403   6.732   6.189   1.236
 1835SOL    HW1 6404   6.664   6.117   1.251
 1835SOL    HW2 6405   6.816   6.166   1.285
 1836SOL     OW 6406   5.424   1.679   2.983
 1836SOL    HW1 6407   5.358   1.736   2.935
 1836SOL    HW2 6408   5.375   1.616   3.044
 1837SOL     OW 6409   2.722   2.307   0.039
 1837SOL    HW1 6410   2.780   2.380   0.003
 1837SOL    HW2 6411   2.770   2.260   0.113
 1838SOL     OW 6412   4.876   1.378   0.975
 1838SOL    HW1 6413   4.859   1.289   0.934
 1838SOL    HW2 6414   4.886   1.447   0.903
 1839SOL     OW 6415   6.042   0.540   0.467
 1839SOL    HW1 6416   6.140   0.542   0.490
 1839SOL    HW2 6417   6.009   0.633   0.455
 1840SOL     OW 6418   4.634   6.370   4.010
 1840SOL    HW1 6419   4.589   6.426   4.080
 1840SOL    HW2 6420   4.653   6.279   4.046
 1841SOL     OW 6421   1.613   0.619   1.515
 1841SOL    HW1 6422   1.620   0.640   1.612
 1841SOL    HW2 6423   1.687   0.557   1.488
 1842SOL     OW 6424   0.546   5.164   1.473
 1842SOL    HW1 6425   0.578   5.259   1.483
 1842SOL    HW2 6426   0.477   5.160   1.400
 1843SOL     OW 6427   2.666   0.847   6.931
 1843SOL    HW1 6428   2.737   0.811   6.871
 1843SOL    HW2 6429   2.645   0.780   7.002
 1844SOL     OW 6430   5.697   2.648   6.487
 1844SOL    HW1 6431   5.699   2.726   6.550
 1844SOL    HW2 6432   5.754   2.574   6.523
 1845SOL     OW 6433   0.940   2.722   3.498
 1845SOL    HW1 6434   0.972   2.706   3.405
 1845SOL    HW2 6435   0.956   2.641   3.553
 1846SOL     OW 6436   2.868   1.340   1.360
 1846SOL    HW1 6437   2.871   1.440   1.353
 1846SOL    HW2 6438   2.777   1.311   1.388
 1847SOL     OW 6439   2.204   5.576   6.324
 1847SOL    HW1 6440   2.174   5.610   6.413
 1847SOL    HW2 6441   2.247   5.651   6.273
 1848SOL     OW 6442   3.798   6.643   3.500
 1848SOL    HW1 6443   3.831   6.723   3.449
 1848SOL    HW2 6444   3.811   6.561   3.445
 1849SOL     OW 6445   4.565   2.393   2.433
 1849SOL    HW1 6446   4.610   2.340   2.361
 1849SOL    HW2 6447   4.571   2.491   2.412
 1850SOL     OW 6448   4.188   2.006   1.104
 1850SOL    HW1 6449   4.198   2.091   1.156
 1850SOL    HW2 6450   4.186   1.928   1.167
 1851SOL     OW 6451   0.050   5.011   4.724
 1851SOL    HW1 6452   0.123   4.996   4.657
 1851SOL    HW2 6453   0.071   5.091   4.780
 1852SOL     OW 6454   0.792   0.118   3.387
 1852SOL    HW1 6455   0.770   0.194   3.327
 1852SOL    HW2 6456   0.801   0.034   3.333
 1853SOL     OW 6457   0.649   2.411   5.771
 1853SOL    HW1 6458   0.730   2.436   5.717
 1853SOL    HW2 6459   0.628   2.486   5.834
 1854SOL     OW 6460   0.313   0.073   3.310
 1854SOL    HW1 6461   0.364   0.040   3.231
 1854SOL    HW2 6462   0.345   0.164   3.334
 1855SOL     OW 6463   5.477   2.429   4.995
 1855SOL    HW1 6464   5.524   2.345   4.968
 1855SOL    HW2 6465   5.408   2.409   5.064
 1856SOL     OW 6466   4.602   3.395   0.093
 1856SOL    HW1 6467   4.698   3.367   0.093
 1856SOL    HW2 6468   4.554   3.352   0.170
 1857SOL     OW 6469   3.904   0.826   6.587
 1857SOL    HW1 6470   3.889   0.871   6.675
 1857SOL    HW2 6471   4.002   0.823   6.567
 1858SOL     OW 6472   5.428   2.110   4.619
 1858SOL    HW1 6473   5.384   2.171   4.685
 1858SOL    HW2 6474   5.500   2.057   4.664
 1859SOL     OW 6475   0.126   1.175   3.844
 1859SOL    HW1 6476   0.175   1.133   3.920
 1859SOL    HW2 6477   0.166   1.145   3.757
 1860SOL     OW 6478   2.743   1.336   6.557
 1860SOL    HW1 6479   2.679   1.408   6.583
 1860SOL    HW2 6480   2.731   1.257   6.618
 1861SOL     OW 6481   6.117   6.626   4.845
 1861SOL    HW1 6482   6.143   6.700   4.907
 1861SOL    HW2 6483   6.059   6.662   4.772
 1862SOL     OW 6484   3.384   6.167   5.598
 1862SOL    HW1 6485   3.285   6.148   5.599
 1862SOL    HW2 6486   3.432   6.096   5.650
 1863SOL     OW 6487   6.649   1.478   0.899
 1863SOL    HW1 6488   6.673   1.489   0.803
 1863SOL    HW2 6489   6.550   1.485   0.910
 1864SOL     OW 6490   3.143   6.150   1.604
 1864SOL    HW1 6491   3.132   6.243   1.567
 1864SOL    HW2 6492   3.156   6.155   1.703
 1865SOL     OW 6493   6.247   2.472   5.788
 1865SOL    HW1 6494   6.297   2.417   5.721
 1865SOL    HW2 6495   6.220   2.559   5.747
 1866SOL     OW 6496   0.711   5.724   3.236
 1866SOL    HW1 6497   0.684   5.654   3.171
 1866SOL    HW2 6498   0.630   5.764   3.279
 1867SOL     OW 6499   0.740   1.853   1.617
 1867SOL    HW1 6500   0.824   1.895   1.651
 1867SOL    HW2 6501   0.752   1.754   1.611
 1868SOL     OW 6502   5.701   3.519   6.471
 1868SOL    HW1 6503   5.687   3.424   6.444
 1868SOL    HW2 6504   5.647   3.579   6.412
 1869SOL     OW 6505   5.262   0.582   5.325
 1869SOL    HW1 6506   5.341   0.643   5.336
 1869SOL    HW2 6507   5.178   0.634   5.342
 1870SOL     OW 6508   5.982   0.369   6.175
 1870SOL    HW1 6509   5.898   0.389   6.226
 1870SOL    HW2 6510   6.059   0.366   6.238
 1871SOL     OW 6511   0.801   6.290   0.114
 1871SOL    HW1 6512   0.886   6.286   0.168
 1871SOL    HW2 6513   0.769   6.198   0.095
 1872SOL     OW 6514   2.251   2.822   1.500
 1872SOL    HW1 6515   2.212   2.773   1.578
 1872SOL    HW2 6516   2.240   2.920   1.513
 1873SOL     OW 6517   6.281   1.262   1.334
 1873SOL    HW1 6518   6.270   1.309   1.422
 1873SOL    HW2 6519   6.261   1.165   1.346
 1874SOL     OW 6520   1.268   5.565   6.897
 1874SOL    HW1 6521   1.188   5.604   6.851
 1874SOL    HW2 6522   1.255   5.570   6.996
 1875SOL     OW 6523   0.155   6.080   1.965
 1875SOL    HW1 6524   0.057   6.094   1.951
 1875SOL    HW2 6525   0.175   6.089   2.063
 1876SOL     OW 6526   0.299   4.871   0.736
 1876SOL    HW1 6527   0.376   4.935   0.734
 1876SOL    HW2 6528   0.259   4.863   0.644
 1877SOL     OW 6529   1.427   1.860   2.491
 1877SOL    HW1 6530   1.524   1.834   2.496
 1877SOL    HW2 6531   1.374   1.802   2.553
 1878SOL     OW 6532   5.185   3.944   4.269
 1878SOL    HW1 6533   5.088   3.969   4.265
 1878SOL    HW2 6534   5.241   4.024   4.244
 1879SOL     OW 6535   4.606   6.212   4.656
 1879SOL    HW1 6536   4.653   6.292   4.619
 1879SOL    HW2 6537   4.669   6.134   4.658
 1880SOL     OW 6538   0.697   1.466   4.540
 1880SOL    HW1 6539   0.738   1.375   4.530
 1880SOL    HW2 6540   0.743   1.530   4.478
 1881SOL     OW 6541   2.146   0.806   3.824
 1881SOL    HW1 6542   2.151   0.906   3.826
 1881SOL    HW2 6543   2.229   0.769   3.783
 1882SOL     OW 6544   2.591   5.403   0.469
 1882SOL    HW1 6545   2.494   5.391   0.447
 1882SOL    HW2 6546   2.645   5.405   0.384
 1883SOL     OW 6547   2.446   2.595   2.377
 1883SOL    HW1 6548   2.432   2.619   2.281
 1883SOL    HW2 6549   2.400   2.663   2.434
 1884SOL     OW 6550   4.952   1.016   0.489
 1884SOL    HW1 6551   4.892   1.015   0.569
 1884SOL    HW2 6552   5.004   0.930   0.485
 1885SOL     OW 6553   0.125   1.961   0.466
 1885SOL    HW1 6554   0.165   2.042   0.423
 1885SOL    HW2 6555   0.193   1.918   0.525
 1886SOL     OW 6556   3.566   2.677   5.742
 1886SOL    HW1 6557   3.573   2.773   5.769
 1886SOL    HW2 6558   3.470   2.649   5.746
 1887SOL     OW 6559   0.771   6.257   5.012
 1887SOL    HW1 6560   0.825   6.340   5.029
 1887SOL    HW2 6561   0.829   6.177   5.025
 1888SOL     OW 6562   1.873   2.278   5.537
 1888SOL    HW1 6563   1.838   2.304   5.627
 1888SOL    HW2 6564   1.961   2.324   5.521
 1889SOL     OW 6565   2.832   3.239   0.312
 1889SOL    HW1 6566   2.834   3.200   0.219
 1889SOL    HW2 6567   2.795   3.331   0.309
 1890SOL     OW 6568   6.181   6.005   6.587
 1890SOL    HW1 6569   6.240   6.036   6.662
 1890SOL    HW2 6570   6.147   5.913   6.607
 1891SOL     OW 6571   5.565   3.909   6.641
 1891SOL    HW1 6572   5.638   3.936   6.704
 1891SOL    HW2 6573   5.483   3.963   6.659
 1892SOL     OW 6574   4.127   0.011   2.553
 1892SOL    HW1 6575   4.182   6.980   2.484
 1892SOL    HW2 6576   4.062   6.964   2.594
 1893SOL     OW 6577   3.001   1.183   5.705
 1893SOL    HW1 6578   3.024   1.086   5.700
 1893SOL    HW2 6579   2.911   1.195   5.747
 1894SOL     OW 6580   4.904   3.909   1.481
 1894SOL    HW1 6581   4.895   3.899   1.580
 1894SOL    HW2 6582   4.828   3.963   1.446
 1895SOL     OW 6583   4.274   6.100   3.704
 1895SOL    HW1 6584   4.300   6.139   3.792
 1895SOL    HW2 6585   4.272   6.172   3.635
 1896SOL     OW 6586   6.129   1.735   5.772
 1896SOL    HW1 6587   6.118   1.753   5.674
 1896SOL    HW2 6588   6.172   1.815   5.815
 1897SOL     OW 6589   5.972   4.703   3.491
 1897SOL    HW1 6590   5.885   4.695   3.443
 1897SOL    HW2 6591   6.037   4.636   3.454
 1898SOL     OW 6592   5.929   6.495   6.865
 1898SOL    HW1 6593   5.994   6.545   6.808
 1898SOL    HW2 6594   5.898   6.554   6.940
 1899SOL     OW 6595   1.591   2.104   3.399
 1899SOL    HW1 6596   1.640   2.172   3.345
 1899SOL    HW2 6597   1.649   2.023   3.411
 1900SOL     OW 6598   2.600   6.354   1.565
 1900SOL    HW1 6599   2.578   6.413   1.643
 1900SOL    HW2 6600   2.528   6.285   1.555
 1901SOL     OW 6601   1.218   0.716   6.014
 1901SOL    HW1 6602   1.139   0.656   6.010
 1901SOL    HW2 6603   1.242   0.747   5.922
 1902SOL     OW 6604   1.179   2.562   5.062
 1902SOL    HW1 6605   1.183   2.582   5.160
 1902SOL    HW2 6606   1.092   2.518   5.041
 1903SOL     OW 6607   6.886   4.436   3.879
 1903SOL    HW1 6608   6.819   4.492   3.830
 1903SOL    HW2 6609   6.898   4.349   3.833
 1904SOL     OW 6610   0.603   0.441   3.950
 1904SOL    HW1 6611   0.554   0.356   3.937
 1904SOL    HW2 6612   0.634   0.448   4.045
 1905SOL     OW 6613   6.232   2.931   4.431
 1905SOL    HW1 6614   6.201   2.926   4.526
 1905SOL    HW2 6615   6.176   2.998   4.381
 1906SOL     OW 6616   3.174   6.434   5.994
 1906SOL    HW1 6617   3.246   6.453   6.061
 1906SOL    HW2 6618   3.086   6.461   6.032
 1907SOL     OW 6619   4.731   5.943   3.882
 1907SOL    HW1 6620   4.709   6.008   3.809
 1907SOL    HW2 6621   4.830   5.930   3.885
 1908SOL     OW 6622   5.176   6.385   0.504
 1908SOL    HW1 6623   5.214   6.409   0.593
 1908SOL    HW2 6624   5.168   6.467   0.448
 1909SOL     OW 6625   4.617   5.293   3.870
 1909SOL    HW1 6626   4.576   5.240   3.796
 1909SOL    HW2 6627   4.579   5.386   3.870
 1910SOL     OW 6628   5.012   3.381   4.944
 1910SOL    HW1 6629   4.936   3.441   4.967
 1910SOL    HW2 6630   5.097   3.433   4.943
 1911SOL     OW 6631   0.092   3.552   5.751
 1911SOL    HW1 6632   0.134   3.586   5.667
 1911SOL    HW2 6633   0.020   3.616   5.779
 1912SOL     OW 6634   2.725   5.740   3.119
 1912SOL    HW1 6635   2.634   5.708   3.091
 1912SOL    HW2 6636   2.727   5.839   3.117
 1913SOL     OW 6637   1.761   4.814   5.147
 1913SOL    HW1 6638   1.782   4.758   5.067
 1913SOL    HW2 6639   1.793   4.767   5.230
 1914SOL     OW 6640   4.395   1.272   5.487
 1914SOL    HW1 6641   4.389   1.185   5.536
 1914SOL    HW2 6642   4.366   1.259   5.392
 1915SOL     OW 6643   2.793   0.615   5.187
 1915SOL    HW1 6644   2.855   0.650   5.257
 1915SOL    HW2 6645   2.716   0.679   5.176
 1916SOL     OW 6646   4.072   6.221   2.654
 1916SOL    HW1 6647   4.152   6.268   2.617
 1916SOL    HW2 6648   4.100   6.162   2.729
 1917SOL     OW 6649   3.336   3.511   4.449
 1917SOL    HW1 6650   3.370   3.604   4.445
 1917SOL    HW2 6651   3.273   3.495   4.372
 1918SOL     OW 6652   6.619   6.963   5.374
 1918SOL    HW1 6653   6.524   6.932   5.368
 1918SOL    HW2 6654   6.674   6.895   5.423
 1919SOL     OW 6655   6.576   0.371   2.242
 1919SOL    HW1 6656   6.587   0.319   2.157
 1919SOL    HW2 6657   6.589   0.311   2.320
 1920SOL     OW 6658   6.667   6.353   5.070
 1920SOL    HW1 6659   6.596   6.294   5.108
 1920SOL    HW2 6660   6.674   6.437   5.123
 1921SOL     OW 6661   1.484   0.179   6.580
 1921SOL    HW1 6662   1.401   0.145   6.624
 1921SOL    HW2 6663   1.556   0.110   6.586
 1922SOL     OW 6664   4.091   4.091   0.866
 1922SOL    HW1 6665   4.170   4.149   0.846
 1922SOL    HW2 6666   4.114   3.995   0.845
 1923SOL     OW 6667   1.813   2.852   0.283
 1923SOL    HW1 6668   1.794   2.893   0.193
 1923SOL    HW2 6669   1.905   2.877   0.312
 1924SOL     OW 6670   0.343   4.540   1.206
 1924SOL    HW1 6671   0.262   4.595   1.185
 1924SOL    HW2 6672   0.330   4.447   1.173
 1925SOL     OW 6673   3.735   4.208   0.184
 1925SOL    HW1 6674   3.710   4.239   0.276
 1925SOL    HW2 6675   3.823   4.249   0.158
 1926SOL     OW 6676   0.457   0.328   3.629
 1926SOL    HW1 6677   0.360   0.351   3.639
 1926SOL    HW2 6678   0.476   0.242   3.677
 1927SOL     OW 6679   4.528   3.572   0.683
 1927SOL    HW1 6680   4.485   3.661   0.690
 1927SOL    HW2 6681   4.501   3.515   0.761
 1928SOL     OW 6682   0.113   5.698   5.172
 1928SOL    HW1 6683   0.080   5.605   5.190
 1928SOL    HW2 6684   0.065   5.735   5.093
 1929SOL     OW 6685   1.534   5.702   3.360
 1929SOL    HW1 6686   1.519   5.741   3.451
 1929SOL    HW2 6687   1.603   5.756   3.312
 1930SOL     OW 6688   6.804   5.061   6.859
 1930SOL    HW1 6689   6.781   4.965   6.874
 1930SOL    HW2 6690   6.778   5.087   6.767
 1931SOL     OW 6691   0.594   1.756   5.190
 1931SOL    HW1 6692   0.537   1.745   5.272
 1931SOL    HW2 6693   0.536   1.767   5.110
 1932SOL     OW 6694   6.070   2.897   2.921
 1932SOL    HW1 6695   6.128   2.967   2.880
 1932SOL    HW2 6696   5.974   2.925   2.914
 1933SOL     OW 6697   2.197   4.654   0.633
 1933SOL    HW1 6698   2.194   4.556   0.654
 1933SOL    HW2 6699   2.111   4.680   0.588
 1934SOL     OW 6700   6.985   6.767   4.213
 1934SOL    HW1 6701   6.940   6.826   4.279
 1934SOL    HW2 6702   0.039   6.818   4.164
 1935SOL     OW 6703   2.249   0.742   3.481
 1935SOL    HW1 6704   2.265   0.703   3.572
 1935SOL    HW2 6705   2.196   0.827   3.491
 1936SOL     OW 6706   6.873   6.486   5.418
 1936SOL    HW1 6707   6.778   6.457   5.404
 1936SOL    HW2 6708   6.921   6.416   5.471
 1937SOL     OW 6709   4.071   0.872   2.773
 1937SOL    HW1 6710   4.031   0.873   2.681
 1937SOL    HW2 6711   4.169   0.858   2.766
 1938SOL     OW 6712   4.927   1.001   4.481
 1938SOL    HW1 6713   4.856   1.044   4.536
 1938SOL    HW2 6714   4.986   1.071   4.441
 1939SOL     OW 6715   2.962   0.674   4.048
 1939SOL    HW1 6716   2.985   0.752   3.989
 1939SOL    HW2 6717   2.998   0.590   4.008
 1940SOL     OW 6718   6.465   5.142   6.490
 1940SOL    HW1 6719   6.390   5.198   6.455
 1940SOL    HW2 6720   6.493   5.175   6.580
 1941SOL     OW 6721   5.743   4.861   2.920
 1941SOL    HW1 6722   5.785   4.939   2.965
 1941SOL    HW2 6723   5.644   4.875   2.913
 1942SOL     OW 6724   6.654   4.403   3.394
 1942SOL    HW1 6725   6.665   4.404   3.493
 1942SOL    HW2 6726   6.744   4.413   3.351
 1943SOL     OW 6727   3.054   5.563   2.461
 1943SOL    HW1 6728   3.107   5.543   2.379
 1943SOL    HW2 6729   3.096   5.639   2.510
 1944SOL     OW 6730   6.708   0.016   2.089
 1944SOL    HW1 6731   6.740   7.006   1.998
 1944SOL    HW2 6732   6.660   6.955   2.131
 1945SOL     OW 6733   3.235   4.957   3.799
 1945SOL    HW1 6734   3.284   4.971   3.886
 1945SOL    HW2 6735   3.302   4.944   3.726
 1946SOL     OW 6736   1.777   6.502   0.112
 1946SOL    HW1 6737   1.716   6.550   0.175
 1946SOL    HW2 6738   1.832   6.436   0.162
 1947SOL     OW 6739   5.365   0.058   3.837
 1947SOL    HW1 6740   5.283   0.053   3.894
 1947SOL    HW2 6741   5.338   0.064   3.741
 1948SOL     OW 6742   0.115   4.080   5.254
 1948SOL    HW1 6743   0.213   4.090   5.274
 1948SOL    HW2 6744   0.084   3.991   5.286
 1949SOL     OW 6745   4.924   3.924   6.453
 1949SOL    HW1 6746   4.969   4.010   6.427
 1949SOL    HW2 6747   4.992   3.853   6.467
 1950SOL     OW 6748   3.082   4.935   0.867
 1950SOL    HW1 6749   2.989   4.908   0.844
 1950SOL    HW2 6750   3.096   5.032   0.845
 1951SOL     OW 6751   6.616   3.361   0.233
 1951SOL    HW1 6752   6.577   3.446   0.269
 1951SOL    HW2 6753   6.580   3.283   0.285
 1952SOL     OW 6754   3.584   2.872   5.140
 1952SOL    HW1 6755   3.654   2.927   5.186
 1952SOL    HW2 6756   3.542   2.809   5.206
 1953SOL     OW 6757   0.185   2.538   4.614
 1953SOL    HW1 6758   0.122   2.545   4.692
 1953SOL    HW2 6759   0.137   2.500   4.535
 1954SOL     OW 6760   2.367   2.313   3.451
 1954SOL    HW1 6761   2.328   2.230   3.411
 1954SOL    HW2 6762   2.305   2.347   3.523
 1955SOL     OW 6763   5.998   5.554   1.894
 1955SOL    HW1 6764   5.903   5.546   1.926
 1955SOL    HW2 6765   6.013   5.490   1.819
 1956SOL     OW 6766   5.459   6.383   1.988
 1956SOL    HW1 6767   5.470   6.451   2.060
 1956SOL    HW2 6768   5.398   6.310   2.019
 1957SOL     OW 6769   0.916   6.740   5.613
 1957SOL    HW1 6770   0.871   6.714   5.527
 1957SOL    HW2 6771   0.991   6.676   5.632
 1958SOL     OW 6772   4.561   3.204   5.758
 1958SOL    HW1 6773   4.583   3.108   5.741
 1958SOL    HW2 6774   4.462   3.213   5.770
 1959SOL     OW 6775   2.299   1.987   0.231
 1959SOL    HW1 6776   2.349   2.031   0.157
 1959SOL    HW2 6777   2.258   1.902   0.199
 1960SOL     OW 6778   5.264   6.183   2.760
 1960SOL    HW1 6779   5.272   6.084   2.775
 1960SOL    HW2 6780   5.355   6.222   2.749
 1961SOL     OW 6781   6.143   5.069   5.479
 1961SOL    HW1 6782   6.175   4.997   5.541
 1961SOL    HW2 6783   6.125   5.029   5.388
 1962SOL     OW 6784   6.845   6.857   3.704
 1962SOL    HW1 6785   6.753   6.872   3.742
 1962SOL    HW2 6786   6.856   6.914   3.622
 1963SOL     OW 6787   2.610   0.244   3.204
 1963SOL    HW1 6788   2.619   0.326   3.148
 1963SOL    HW2 6789   2.547   0.262   3.279
 1964SOL     OW 6790   5.860   4.499   2.089
 1964SOL    HW1 6791   5.889   4.507   2.185
 1964SOL    HW2 6792   5.760   4.492   2.086
 1965SOL     OW 6793   2.096   5.455   3.674
 1965SOL    HW1 6794   2.122   5.434   3.768
 1965SOL    HW2 6795   2.033   5.384   3.641
 1966SOL     OW 6796   6.217   6.384   6.582
 1966SOL    HW1 6797   6.159   6.332   6.520
 1966SOL    HW2 6798   6.212   6.344   6.674
 1967SOL     OW 6799   4.857   3.550   4.538
 1967SOL    HW1 6800   4.828   3.609   4.614
 1967SOL    HW2 6801   4.884   3.461   4.574
 1968SOL     OW 6802   3.769   5.571   5.440
 1968SOL    HW1 6803   3.827   5.581   5.359
 1968SOL    HW2 6804   3.758   5.660   5.484
 1969SOL     OW 6805   6.965   2.081   1.378
 1969SOL    HW1 6806   6.953   2.141   1.299
 1969SOL    HW2 6807   6.876   2.045   1.406
 1970SOL     OW 6808   1.955   6.693   3.301
 1970SOL    HW1 6809   2.041   6.710   3.348
 1970SOL    HW2 6810   1.892   6.644   3.362
 1971SOL     OW 6811   0.515   0.942   6.178
 1971SOL    HW1 6812   0.517   0.899   6.088
 1971SOL    HW2 6813   0.420   0.964   6.202
 1972SOL     OW 6814   1.721   5.905   3.892
 1972SOL    HW1 6815   1.770   5.986   3.924
 1972SOL    HW2 6816   1.753   5.881   3.800
 1973SOL     OW 6817   2.467   2.768   6.675
 1973SOL    HW1 6818   2.494   2.695   6.738
 1973SOL    HW2 6819   2.550   2.808   6.635
 1974SOL     OW 6820   5.655   6.828   4.637
 1974SOL    HW1 6821   5.719   6.795   4.707
 1974SOL    HW2 6822   5.684   6.918   4.605
 1975SOL     OW 6823   3.185   0.522   3.625
 1975SOL    HW1 6824   3.189   0.584   3.703
 1975SOL    HW2 6825   3.200   0.428   3.656
 1976SOL     OW 6826   6.660   4.342   0.058
 1976SOL    HW1 6827   6.743   4.286   0.055
 1976SOL    HW2 6828   6.630   4.352   0.153
 1977SOL     OW 6829   2.895   2.449   5.257
 1977SOL    HW1 6830   2.942   2.501   5.328
 1977SOL    HW2 6831   2.962   2.407   5.196
 1978SOL     OW 6832   7.012   1.760   4.866
 1978SOL    HW1 6833   7.015   1.833   4.798
 1978SOL    HW2 6834   6.990   1.673   4.821
 1979SOL     OW 6835   5.682   4.509   3.008
 1979SOL    HW1 6836   5.659   4.459   3.091
 1979SOL    HW2 6837   5.782   4.515   3.000
 1980SOL     OW 6838   3.437   0.874   1.259
 1980SOL    HW1 6839   3.443   0.927   1.174
 1980SOL    HW2 6840   3.501   0.911   1.326
 1981SOL     OW 6841   4.932   3.433   1.719
 1981SOL    HW1 6842   4.892   3.349   1.755
 1981SOL    HW2 6843   4.981   3.412   1.634
 1982SOL     OW 6844   5.845   0.052   5.574
 1982SOL    HW1 6845   5.767   0.106   5.542
 1982SOL    HW2 6846   5.826   6.971   5.560
 1983SOL     OW 6847   0.612   4.464   2.205
 1983SOL    HW1 6848   0.686   4.416   2.158
 1983SOL    HW2 6849   0.583   4.542   2.150
 1984SOL     OW 6850   4.340   0.991   5.569
 1984SOL    HW1 6851   4.332   0.970   5.667
 1984SOL    HW2 6852   4.338   0.905   5.517
 1985SOL     OW 6853   1.841   6.587   1.291
 1985SOL    HW1 6854   1.934   6.556   1.273
 1985SOL    HW2 6855   1.831   6.681   1.260
 1986SOL     OW 6856   0.364   2.029   6.676
 1986SOL    HW1 6857   0.296   2.090   6.715
 1986SOL    HW2 6858   0.412   2.075   6.601
 1987SOL     OW 6859   2.924   4.408   0.357
 1987SOL    HW1 6860   2.994   4.338   0.343
 1987SOL    HW2 6861   2.939   4.452   0.445
 1988SOL     OW 6862   4.723   3.247   0.442
 1988SOL    HW1 6863   4.669   3.217   0.520
 1988SOL    HW2 6864   4.695   3.339   0.416
 1989SOL     OW 6865   2.732   1.053   4.170
 1989SOL    HW1 6866   2.638   1.088   4.175
 1989SOL    HW2 6867   2.795   1.129   4.162
 1990SOL     OW 6868   2.334   1.360   2.847
 1990SOL    HW1 6869   2.316   1.454   2.874
 1990SOL    HW2 6870   2.248   1.314   2.825
 1991SOL     OW 6871   5.046   5.078   3.642
 1991SOL    HW1 6872   4.999   5.009   3.586
 1991SOL    HW2 6873   4.978   5.140   3.682
 1992SOL     OW 6874   2.209   6.432   5.276
 1992SOL    HW1 6875   2.153   6.350   5.272
 1992SOL    HW2 6876   2.163   6.501   5.331
 1993SOL     OW 6877   3.377   3.170   4.400
 1993SOL    HW1 6878   3.462   3.135   4.438
 1993SOL    HW2 6879   3.300   3.122   4.441
 1994SOL     OW 6880   5.922   2.620   2.098
 1994SOL    HW1 6881   5.981   2.598   2.176
 1994SOL    HW2 6882   5.848   2.554   2.092
 1995SOL     OW 6883   4.342   2.631   1.472
 1995SOL    HW1 6884   4.347   2.664   1.566
 1995SOL    HW2 6885   4.366   2.534   1.469
 1996SOL     OW 6886   2.689   3.887   5.601
 1996SOL    HW1 6887   2.654   3.863   5.691
 1996SOL    HW2 6888   2.628   3.849   5.531
 1997SOL     OW 6889   5.935   0.050   4.065
 1997SOL    HW1 6890   5.849   0.090   4.096
 1997SOL    HW2 6891   5.981   0.113   4.002
 1998SOL     OW 6892   3.119   4.966   4.764
 1998SOL    HW1 6893   3.098   4.931   4.856
 1998SOL    HW2 6894   3.114   5.066   4.764
 1999SOL     OW 6895   1.854   0.712   1.993
 1999SOL    HW1 6896   1.914   0.646   1.949
 1999SOL    HW2 6897   1.860   0.702   2.093
 2000SOL     OW 6898   3.695   1.574   4.681
 2000SOL    HW1 6899   3.770   1.602   4.621
 2000SOL    HW2 6900   3.608   1.581   4.631
 2001SOL     OW 6901   2.517   3.389   0.124
 2001SOL    HW1 6902   2.575   3.328   0.070
 2001SOL    HW2 6903   2.572   3.441   0.188
 2002SOL     OW 6904   1.496   5.438   4.829
 2002SOL    HW1 6905   1.583   5.487   4.829
 2002SOL    HW2 6906   1.422   5.502   4.807
 2003SOL     OW 6907   6.269   4.952   3.456
 2003SOL    HW1 6908   6.268   4.984   3.551
 2003SOL    HW2 6909   6.360   4.918   3.433
 2004SOL     OW 6910   3.276   0.401   6.566
 2004SOL    HW1 6911   3.248   0.321   6.617
 2004SOL    HW2 6912   3.216   0.414   6.487
 2005SOL     OW 6913   2.762   6.506   5.310
 2005SOL    HW1 6914   2.837   6.558   5.352
 2005SOL    HW2 6915   2.797   6.419   5.277
 2006SOL     OW 6916   4.493   5.568   3.333
 2006SOL    HW1 6917   4.403   5.589   3.297
 2006SOL    HW2 6918   4.511   5.470   3.323
 2007SOL     OW 6919   6.482   5.296   0.340
 2007SOL    HW1 6920   6.468   5.362   0.414
 2007SOL    HW2 6921   6.479   5.343   0.252
 2008SOL     OW 6922   6.920   6.506   4.482
 2008SOL    HW1 6923   6.928   6.453   4.566
 2008SOL    HW2 6924   7.010   6.516   4.440
 2009SOL     OW 6925   0.451   0.391   0.647
 2009SOL    HW1 6926   0.522   0.336   0.692
 2009SOL    HW2 6927   0.494   0.460   0.588
 2010SOL     OW 6928   0.741   6.858   0.935
 2010SOL    HW1 6929   0.840   6.864   0.920
 2010SOL    HW2 6930   0.700   6.801   0.864
 2011SOL     OW 6931   6.808   2.405   4.536
 2011SOL    HW1 6932   6.802   2.495   4.578
 2011SOL    HW2 6933   6.863   2.411   4.452
 2012SOL     OW 6934   0.255   3.583   0.823
 2012SOL    HW1 6935   0.244   3.624   0.733
 2012SOL    HW2 6936   0.342   3.533   0.827
 2013SOL     OW 6937   4.745   0.997   2.416
 2013SOL    HW1 6938   4.719   0.996   2.319
 2013SOL    HW2 6939   4.812   1.071   2.431
 2014SOL     OW 6940   2.382   5.261   3.466
 2014SOL    HW1 6941   2.452   5.197   3.498
 2014SOL    HW2 6942   2.392   5.274   3.367
 2015SOL     OW 6943   3.060   6.741   6.971
 2015SOL    HW1 6944   3.069   6.710   0.049
 2015SOL    HW2 6945   3.139   6.709   6.918
 2016SOL     OW 6946   6.132   4.793   3.702
 2016SOL    HW1 6947   6.071   4.757   3.630
 2016SOL    HW2 6948   6.130   4.893   3.700
 2017SOL     OW 6949   2.292   5.342   1.862
 2017SOL    HW1 6950   2.196   5.316   1.857
 2017SOL    HW2 6951   2.332   5.343   1.770
 2018SOL     OW 6952   0.503   4.178   6.458
 2018SOL    HW1 6953   0.458   4.171   6.369
 2018SOL    HW2 6954   0.541   4.270   6.469
 2019SOL     OW 6955   5.690   1.689   3.081
 2019SOL    HW1 6956   5.591   1.671   3.085
 2019SOL    HW2 6957   5.739   1.607   3.112
 2020SOL     OW 6958   1.426   5.518   2.909
 2020SOL    HW1 6959   1.379   5.559   2.988
 2020SOL    HW2 6960   1.481   5.441   2.940
 2021SOL     OW 6961   1.639   6.683   1.441
 2021SOL    HW1 6962   1.586   6.762   1.411
 2021SOL    HW2 6963   1.699   6.653   1.367
 2022SOL     OW 6964   2.780   4.428   1.275
 2022SOL    HW1 6965   2.804   4.406   1.180
 2022SOL    HW2 6966   2.801   4.524   1.293
 2023SOL     OW 6967   6.323   1.555   6.450
 2023SOL    HW1 6968   6.341   1.649   6.422
 2023SOL    HW2 6969   6.232   1.549   6.491
 2024SOL     OW 6970   6.049   0.278   2.703
 2024SOL    HW1 6971   5.957   0.315   2.718
 2024SOL    HW2 6972   6.112   0.320   2.769
 2025SOL     OW 6973   6.587   0.752   0.664
 2025SOL    HW1 6974   6.653   0.767   0.591
 2025SOL    HW2 6975   6.502   0.716   0.626
 2026SOL     OW 6976   1.403   1.897   5.492
 2026SOL    HW1 6977   1.480   1.958   5.512
 2026SOL    HW2 6978   1.349   1.935   5.417
 2027SOL     OW 6979   0.396   1.522   2.618
 2027SOL    HW1 6980   0.466   1.511   2.548
 2027SOL    HW2 6981   0.308   1.540   2.575
 2028SOL     OW 6982   3.585   3.977   5.578
 2028SOL    HW1 6983   3.558   3.891   5.535
 2028SOL    HW2 6984   3.666   3.961   5.635
 2029SOL     OW 6985   1.506   0.398   0.439
 2029SOL    HW1 6986   1.494   0.480   0.384
 2029SOL    HW2 6987   1.579   0.342   0.400
 2030SOL     OW 6988   1.072   1.262   2.808
 2030SOL    HW1 6989   1.030   1.352   2.802
 2030SOL    HW2 6990   1.087   1.226   2.716
 2031SOL     OW 6991   4.622   0.120   2.921
 2031SOL    HW1 6992   4.693   0.160   2.864
 2031SOL    HW2 6993   4.661   0.098   3.011
 2032SOL     OW 6994   5.607   6.612   1.379
 2032SOL    HW1 6995   5.545   6.666   1.323
 2032SOL    HW2 6996   5.557   6.570   1.455
 2033SOL     OW 6997   6.845   5.338   6.544
 2033SOL    HW1 6998   6.914   5.376   6.606
 2033SOL    HW2 6999   6.757   5.331   6.592
 2034SOL     OW 7000   2.692   0.027   3.348
 2034SOL    HW1 7001   2.681   0.115   3.301
 2034SOL    HW2 7002   2.777   7.000   3.318
 2035SOL     OW 7003   1.266   2.944   1.539
 2035SOL    HW1 7004   1.296   3.035   1.510
 2035SOL    HW2 7005   1.247   2.945   1.638
 2036SOL     OW 7006   1.042   4.365   0.304
 2036SOL    HW1 7007   0.974   4.336   0.237
 2036SOL    HW2 7008   1.129   4.319   0.286
 2037SOL     OW 7009   6.918   0.943   6.279
 2037SOL    HW1 7010   6.944   0.846   6.284
 2037SOL    HW2 7011   6.918   0.973   6.184
 2038SOL     OW 7012   0.601   0.021   4.826
 2038SOL    HW1 7013   0.583   0.100   4.767
 2038SOL    HW2 7014   0.639   6.963   4.771
 2039SOL     OW 7015   1.421   4.943   1.848
 2039SOL    HW1 7016   1.499   4.970   1.791
 2039SOL    HW2 7017   1.427   4.846   1.869
 2040SOL     OW 7018   3.137   3.417   4.207
 2040SOL    HW1 7019   3.098   3.326   4.222
 2040SOL    HW2 7020   3.193   3.416   4.124
 2041SOL     OW 7021   6.284   3.585   6.506
 2041SOL    HW1 7022   6.271   3.505   6.565
 2041SOL    HW2 7023   6.323   3.660   6.559
 2042SOL     OW 7024   3.232   5.323   0.416
 2042SOL    HW1 7025   3.181   5.403   0.446
 2042SOL    HW2 7026   3.281   5.344   0.331
 2043SOL     OW 7027   4.430   4.485   2.360
 2043SOL    HW1 7028   4.387   4.405   2.317
 2043SOL    HW2 7029   4.405   4.487   2.457
 2044SOL     OW 7030   6.439   0.513   1.973
 2044SOL    HW1 7031   6.436   0.413   1.981
 2044SOL    HW2 7032   6.370   0.554   2.033
 2045SOL     OW 7033   2.168   5.332   6.213
 2045SOL    HW1 7034   2.170   5.428   6.240
 2045SOL    HW2 7035   2.250   5.311   6.159
 2046SOL     OW 7036   6.018   0.322   4.566
 2046SOL    HW1 7037   5.937   0.342   4.511
 2046SOL    HW2 7038   6.040   0.401   4.623
 2047SOL     OW 7039   5.525   2.506   6.933
 2047SOL    HW1 7040   5.596   2.470   6.993
 2047SOL    HW2 7041   5.435   2.495   6.976
 2048SOL     OW 7042   3.987   6.861   5.565
 2048SOL    HW1 7043   3.990   6.830   5.470
 2048SOL    HW2 7044   4.031   6.951   5.572
 2049SOL     OW 7045   4.829   6.074   0.369
 2049SOL    HW1 7046   4.731   6.086   0.379
 2049SOL    HW2 7047   4.847   5.997   0.307
 2050SOL     OW 7048   5.338   1.253   4.118
 2050SOL    HW1 7049   5.262   1.294   4.066
 2050SOL    HW2 7050   5.353   1.306   4.201
 2051SOL     OW 7051   1.942   5.250   0.653
 2051SOL    HW1 7052   1.982   5.241   0.562
 2051SOL    HW2 7053   1.858   5.196   0.658
 2052SOL     OW 7054   1.349   2.869   0.615
 2052SOL    HW1 7055   1.274   2.935   0.628
 2052SOL    HW2 7056   1.377   2.832   0.703
 2053SOL     OW 7057   5.126   0.795   0.642
 2053SOL    HW1 7058   5.156   0.860   0.712
 2053SOL    HW2 7059   5.039   0.755   0.668
 2054SOL     OW 7060   6.787   3.420   1.605
 2054SOL    HW1 7061   6.708   3.370   1.641
 2054SOL    HW2 7062   6.856   3.429   1.676
 2055SOL     OW 7063   6.492   2.167   4.004
 2055SOL    HW1 7064   6.561   2.110   4.048
 2055SOL    HW2 7065   6.406   2.161   4.056
 2056SOL     OW 7066   1.167   0.550   2.715
 2056SOL    HW1 7067   1.223   0.569   2.635
 2056SOL    HW2 7068   1.217   0.577   2.798
 2057SOL     OW 7069   6.732   2.691   4.057
 2057SOL    HW1 7070   6.799   2.764   4.043
 2057SOL    HW2 7071   6.759   2.636   4.136
 2058SOL     OW 7072   0.258   2.174   1.413
 2058SOL    HW1 7073   0.171   2.157   1.459
 2058SOL    HW2 7074   0.333   2.150   1.474
 2059SOL     OW 7075   1.514   1.045   6.646
 2059SOL    HW1 7076   1.505   1.000   6.558
 2059SOL    HW2 7077   1.465   1.132   6.645
 2060SOL     OW 7078   0.628   5.176   2.157
 2060SOL    HW1 7079   0.571   5.204   2.234
 2060SOL    HW2 7080   0.570   5.147   2.081
 2061SOL     OW 7081   0.322   1.575   1.151
 2061SOL    HW1 7082   0.269   1.531   1.078
 2061SOL    HW2 7083   0.332   1.672   1.132
 2062SOL     OW 7084   4.403   0.139   3.133
 2062SOL    HW1 7085   4.500   0.145   3.108
 2062SOL    HW2 7086   4.349   0.121   3.051
 2063SOL     OW 7087   2.793   1.863   0.463
 2063SOL    HW1 7088   2.849   1.946   0.468
 2063SOL    HW2 7089   2.719   1.877   0.397
 2064SOL     OW 7090   0.768   2.516   0.397
 2064SOL    HW1 7091   0.721   2.597   0.361
 2064SOL    HW2 7092   0.716   2.434   0.373
 2065SOL     OW 7093   5.907   2.895   2.105
 2065SOL    HW1 7094   5.833   2.902   2.172
 2065SOL    HW2 7095   5.923   2.798   2.084
 2066SOL     OW 7096   2.206   6.675   3.451
 2066SOL    HW1 7097   2.204   6.721   3.540
 2066SOL    HW2 7098   2.299   6.648   3.429
 2067SOL     OW 7099   0.071   0.195   1.122
 2067SOL    HW1 7100   0.142   0.251   1.080
 2067SOL    HW2 7101   0.109   0.147   1.201
 2068SOL     OW 7102   1.886   1.490   5.315
 2068SOL    HW1 7103   1.909   1.536   5.401
 2068SOL    HW2 7104   1.919   1.544   5.238
 2069SOL     OW 7105   0.559   1.981   1.778
 2069SOL    HW1 7106   0.590   1.908   1.717
 2069SOL    HW2 7107   0.543   1.944   1.870
 2070SOL     OW 7108   0.859   1.365   3.074
 2070SOL    HW1 7109   0.829   1.320   3.158
 2070SOL    HW2 7110   0.907   1.449   3.098
 2071SOL     OW 7111   1.444   6.106   4.880
 2071SOL    HW1 7112   1.478   6.163   4.955
 2071SOL    HW2 7113   1.368   6.151   4.835
 2072SOL     OW 7114   4.894   4.888   2.270
 2072SOL    HW1 7115   4.912   4.798   2.230
 2072SOL    HW2 7116   4.802   4.889   2.310
 2073SOL     OW 7117   3.261   6.668   5.347
 2073SOL    HW1 7118   3.233   6.744   5.287
 2073SOL    HW2 7119   3.208   6.672   5.432
 2074SOL     OW 7120   6.419   1.943   1.715
 2074SOL    HW1 7121   6.323   1.928   1.690
 2074SOL    HW2 7122   6.431   1.926   1.812
 2075SOL     OW 7123   4.131   3.567   5.780
 2075SOL    HW1 7124   4.154   3.587   5.875
 2075SOL    HW2 7125   4.214   3.546   5.729
 2076SOL     OW 7126   4.806   0.555   1.452
 2076SOL    HW1 7127   4.777   0.520   1.363
 2076SOL    HW2 7128   4.833   0.651   1.442
 2077SOL     OW 7129   5.243   1.790   3.494
 2077SOL    HW1 7130   5.203   1.882   3.492
 2077SOL    HW2 7131   5.175   1.724   3.462
 2078SOL     OW 7132   4.231   5.744   5.476
 2078SOL    HW1 7133   4.295   5.785   5.541
 2078SOL    HW2 7134   4.152   5.805   5.465
 2079SOL     OW 7135   5.669   1.312   3.391
 2079SOL    HW1 7136   5.600   1.294   3.461
 2079SOL    HW2 7137   5.742   1.244   3.399
 2080SOL     OW 7138   3.103   2.171   4.354
 2080SOL    HW1 7139   3.047   2.224   4.417
 2080SOL    HW2 7140   3.200   2.187   4.373
 2081SOL     OW 7141   0.552   6.303   5.197
 2081SOL    HW1 7142   0.467   6.253   5.215
 2081SOL    HW2 7143   0.621   6.239   5.163
 2082SOL     OW 7144   5.214   0.248   1.858
 2082SOL    HW1 7145   5.293   0.289   1.813
 2082SOL    HW2 7146   5.235   0.153   1.881
 2083SOL     OW 7147   3.169   5.272   5.641
 2083SOL    HW1 7148   3.186   5.196   5.705
 2083SOL    HW2 7149   3.137   5.235   5.554
 2084SOL     OW 7150   6.911   3.335   2.843
 2084SOL    HW1 7151   6.977   3.325   2.917
 2084SOL    HW2 7152   6.824   3.293   2.870
 2085SOL     OW 7153   5.770   6.303   6.525
 2085SOL    HW1 7154   5.862   6.334   6.547
 2085SOL    HW2 7155   5.740   6.345   6.439
 2086SOL     OW 7156   2.763   4.711   1.015
 2086SOL    HW1 7157   2.814   4.665   1.088
 2086SOL    HW2 7158   2.667   4.719   1.042
 2087SOL     OW 7159   5.708   6.207   3.772
 2087SOL    HW1 7160   5.686   6.143   3.699
 2087SOL    HW2 7161   5.626   6.225   3.827
 2088SOL     OW 7162   2.688   6.931   0.693
 2088SOL    HW1 7163   2.784   6.924   0.666
 2088SOL    HW2 7164   2.642   6.998   0.637
 2089SOL     OW 7165   2.925   0.541   6.507
 2089SOL    HW1 7166   2.908   0.453   6.463
 2089SOL    HW2 7167   2.936   0.527   6.605
 2090SOL     OW 7168   3.475   2.892   4.011
 2090SOL    HW1 7169   3.526   2.972   3.977
 2090SOL    HW2 7170   3.388   2.922   4.050
 2091SOL     OW 7171   2.159   4.890   0.377
 2091SOL    HW1 7172   2.122   4.804   0.411
 2091SOL    HW2 7173   2.097   4.928   0.308
 2092SOL     OW 7174   6.437   6.507   0.779
 2092SOL    HW1 7175   6.461   6.599   0.810
 2092SOL    HW2 7176   6.509   6.443   0.805
 2093SOL     OW 7177   1.422   2.350   1.631
 2093SOL    HW1 7178   1.341   2.308   1.672
 2093SOL    HW2 7179   1.470   2.403   1.701
 2094SOL     OW 7180   5.521   0.316   2.322
 2094SOL    HW1 7181   5.429   0.305   2.285
 2094SOL    HW2 7182   5.561   0.401   2.288
 2095SOL     OW 7183   6.908   5.103   5.157
 2095SOL    HW1 7184   6.942   5.060   5.240
 2095SOL    HW2 7185   6.808   5.099   5.156
 2096SOL     OW 7186   5.121   3.650   3.059
 2096SOL    HW1 7187   5.131   3.612   2.967
 2096SOL    HW2 7188   5.201   3.626   3.114
 2097SOL     OW 7189   6.707   3.066   6.745
 2097SOL    HW1 7190   6.655   3.150   6.764
 2097SOL    HW2 7191   6.694   3.002   6.820
 2098SOL     OW 7192   4.707   0.355   4.262
 2098SOL    HW1 7193   4.800   0.330   4.288
 2098SOL    HW2 7194   4.705   0.451   4.233
 2099SOL     OW 7195   2.846   1.587   4.221
 2099SOL    HW1 7196   2.867   1.601   4.124
 2099SOL    HW2 7197   2.825   1.675   4.264
 2100SOL     OW 7198   3.416   3.927   6.628
 2100SOL    HW1 7199   3.323   3.956   6.652
 2100SOL    HW2 7200   3.460   3.889   6.709
 2101SOL     OW 7201   6.727   0.622   3.342
 2101SOL    HW1 7202   6.636   0.644   3.378
 2101SOL    HW2 7203   6.726   0.529   3.305
 2102SOL     OW 7204   0.033   4.766   2.094
 2102SOL    HW1 7205   6.969   4.718   2.127
 2102SOL    HW2 7206   0.032   4.860   2.129
 2103SOL     OW 7207   2.817   3.668   6.936
 2103SOL    HW1 7208   2.782   3.611   6.862
 2103SOL    HW2 7209   2.908   3.703   6.912
 2104SOL     OW 7210   1.273   3.674   5.054
 2104SOL    HW1 7211   1.289   3.604   5.125
 2104SOL    HW2 7212   1.251   3.629   4.968
 2105SOL     OW 7213   6.006   5.869   1.716
 2105SOL    HW1 7214   5.981   5.856   1.812
 2105SOL    HW2 7215   6.017   5.967   1.698
 2106SOL     OW 7216   5.197   5.962   6.770
 2106SOL    HW1 7217   5.231   5.940   6.862
 2106SOL    HW2 7218   5.247   5.909   6.702
 2107SOL     OW 7219   3.551   4.252   6.544
 2107SOL    HW1 7220   3.544   4.239   6.643
 2107SOL    HW2 7221   3.566   4.163   6.500
 2108SOL     OW 7222   5.421   4.684   5.921
 2108SOL    HW1 7223   5.401   4.774   5.961
 2108SOL    HW2 7224   5.352   4.663   5.851
 2109SOL     OW 7225   5.432   6.591   2.708
 2109SOL    HW1 7226   5.510   6.557   2.760
 2109SOL    HW2 7227   5.347   6.570   2.756
 2110SOL     OW 7228   2.472   4.875   5.344
 2110SOL    HW1 7229   2.555   4.835   5.304
 2110SOL    HW2 7230   2.405   4.803   5.360
 2111SOL     OW 7231   1.373   2.953   6.572
 2111SOL    HW1 7232   1.346   2.885   6.640
 2111SOL    HW2 7233   1.379   2.909   6.482
 2112SOL     OW 7234   5.162   3.492   1.162
 2112SOL    HW1 7235   5.246   3.540   1.136
 2112SOL    HW2 7236   5.098   3.491   1.084
 2113SOL     OW 7237   0.189   1.162   3.035
 2113SOL    HW1 7238   0.255   1.154   3.110
 2113SOL    HW2 7239   0.236   1.191   2.952
 2114SOL     OW 7240   1.865   3.865   6.849
 2114SOL    HW1 7241   1.779   3.879   6.899
 2114SOL    HW2 7242   1.848   3.810   6.768
 2115SOL     OW 7243   2.527   4.942   2.172
 2115SOL    HW1 7244   2.563   4.999   2.099
 2115SOL    HW2 7245   2.518   4.996   2.256
 2116SOL     OW 7246   0.052   4.201   3.253
 2116SOL    HW1 7247   0.115   4.235   3.323
 2116SOL    HW2 7248   0.103   4.157   3.179
 2117SOL     OW 7249   6.673   4.847   0.458
 2117SOL    HW1 7250   6.657   4.937   0.418
 2117SOL    HW2 7251   6.755   4.849   0.515
 2118SOL     OW 7252   6.746   3.960   2.236
 2118SOL    HW1 7253   6.755   3.897   2.159
 2118SOL    HW2 7254   6.729   4.052   2.201
 2119SOL     OW 7255   3.151   5.800   1.065
 2119SOL    HW1 7256   3.243   5.838   1.069
 2119SOL    HW2 7257   3.155   5.701   1.077
 2120SOL     OW 7258   0.253   5.485   2.277
 2120SOL    HW1 7259   0.288   5.577   2.258
 2120SOL    HW2 7260   0.215   5.446   2.193
 2121SOL     OW 7261   0.652   4.275   4.845
 2121SOL    HW1 7262   0.679   4.182   4.866
 2121SOL    HW2 7263   0.553   4.278   4.828
 2122SOL     OW 7264   4.440   4.433   5.359
 2122SOL    HW1 7265   4.520   4.374   5.366
 2122SOL    HW2 7266   4.398   4.420   5.269
 2123SOL     OW 7267   5.331   4.590   3.256
 2123SOL    HW1 7268   5.247   4.641   3.271
 2123SOL    HW2 7269   5.408   4.653   3.249
 2124SOL     OW 7270   2.405   1.311   0.928
 2124SOL    HW1 7271   2.439   1.219   0.947
 2124SOL    HW2 7272   2.463   1.353   0.858
 2125SOL     OW 7273   2.448   6.923   1.281
 2125SOL    HW1 7274   2.524   6.904   1.343
 2125SOL    HW2 7275   2.481   6.976   1.203
 2126SOL     OW 7276   2.768   0.841   2.024
 2126SOL    HW1 7277   2.803   0.747   2.031
 2126SOL    HW2 7278   2.673   0.843   2.055
 2127SOL     OW 7279   5.664   3.166   4.863
 2127SOL    HW1 7280   5.604   3.195   4.788
 2127SOL    HW2 7281   5.611   3.161   4.948
 2128SOL     OW 7282   0.638   4.992   4.307
 2128SOL    HW1 7283   0.728   4.960   4.277
 2128SOL    HW2 7284   0.574   4.986   4.230
 2129SOL     OW 7285   3.805   2.066   5.676
 2129SOL    HW1 7286   3.764   2.072   5.585
 2129SOL    HW2 7287   3.732   2.058   5.744
 2130SOL     OW 7288   4.160   6.286   3.534
 2130SOL    HW1 7289   4.158   6.331   3.444
 2130SOL    HW2 7290   4.190   6.352   3.603
 2131SOL     OW 7291   6.008   2.080   6.967
 2131SOL    HW1 7292   6.083   2.145   6.970
 2131SOL    HW2 7293   5.924   2.124   6.998
 2132SOL     OW 7294   2.408   2.882   0.360
 2132SOL    HW1 7295   2.450   2.795   0.383
 2132SOL    HW2 7296   2.470   2.957   0.384
 2133SOL     OW 7297   3.171   3.585   5.897
 2133SOL    HW1 7298   3.145   3.679   5.917
 2133SOL    HW2 7299   3.210   3.579   5.805
 2134SOL     OW 7300   0.903   6.637   1.206
 2134SOL    HW1 7301   0.869   6.570   1.141
 2134SOL    HW2 7302   0.972   6.694   1.162
 2135SOL     OW 7303   6.745   4.276   4.517
 2135SOL    HW1 7304   6.708   4.332   4.443
 2135SOL    HW2 7305   6.842   4.260   4.500
 2136SOL     OW 7306   1.473   5.008   0.880
 2136SOL    HW1 7307   1.565   5.023   0.918
 2136SOL    HW2 7308   1.405   5.047   0.942
 2137SOL     OW 7309   1.632   5.898   4.465
 2137SOL    HW1 7310   1.570   5.886   4.542
 2137SOL    HW2 7311   1.698   5.823   4.464
 2138SOL     OW 7312   5.215   1.472   2.112
 2138SOL    HW1 7313   5.163   1.525   2.179
 2138SOL    HW2 7314   5.299   1.521   2.089
 2139SOL     OW 7315   2.684   0.240   5.400
 2139SOL    HW1 7316   2.633   0.215   5.483
 2139SOL    HW2 7317   2.716   0.156   5.355
 2140SOL     OW 7318   2.363   1.505   4.986
 2140SOL    HW1 7319   2.447   1.521   5.038
 2140SOL    HW2 7320   2.297   1.458   5.044
 2141SOL     OW 7321   6.625   3.632   2.690
 2141SOL    HW1 7322   6.609   3.575   2.770
 2141SOL    HW2 7323   6.574   3.595   2.612
 2142SOL     OW 7324   1.464   2.515   2.868
 2142SOL    HW1 7325   1.454   2.426   2.912
 2142SOL    HW2 7326   1.380   2.538   2.819
 2143SOL     OW 7327   1.285   4.353   6.674
 2143SOL    HW1 7328   1.253   4.264   6.643
 2143SOL    HW2 7329   1.210   4.400   6.721
 2144SOL     OW 7330   6.123   4.397   3.685
 2144SOL    HW1 7331   6.158   4.456   3.612
 2144SOL    HW2 7332   6.045   4.345   3.651
 2145SOL     OW 7333   4.449   0.316   3.422
 2145SOL    HW1 7334   4.391   0.262   3.362
 2145SOL    HW2 7335   4.419   0.411   3.420
 2146SOL     OW 7336   2.374   2.980   0.083
 2146SOL    HW1 7337   2.399   2.974   0.179
 2146SOL    HW2 7338   2.424   2.911   0.031
 2147SOL     OW 7339   5.934   0.002   4.372
 2147SOL    HW1 7340   5.948   6.997   4.276
 2147SOL    HW2 7341   6.017   6.999   4.425
 2148SOL     OW 7342   0.648   3.360   5.966
 2148SOL    HW1 7343   0.679   3.441   5.917
 2148SOL    HW2 7344   0.630   3.384   6.061
 2149SOL     OW 7345   0.743   0.245   0.277
 2149SOL    HW1 7346   0.714   0.165   0.329
 2149SOL    HW2 7347   0.814   0.294   0.327
 2150SOL     OW 7348   2.330   2.355   1.570
 2150SOL    HW1 7349   2.268   2.411   1.515
 2150SOL    HW2 7350   2.281   2.275   1.605
 2151SOL     OW 7351   1.137   5.396   0.412
 2151SOL    HW1 7352   1.148   5.482   0.462
 2151SOL    HW2 7353   1.183   5.403   0.324
 2152SOL     OW 7354   5.226   5.711   4.514
 2152SOL    HW1 7355   5.262   5.718   4.421
 2152SOL    HW2 7356   5.151   5.645   4.517
 2153SOL     OW 7357   4.837   1.229   3.391
 2153SOL    HW1 7358   4.803   1.200   3.481
 2153SOL    HW2 7359   4.910   1.295   3.403
 2154SOL     OW 7360   3.516   0.096   3.340
 2154SOL    HW1 7361   3.469   0.089   3.252
 2154SOL    HW2 7362   3.614   0.077   3.327
 2155SOL     OW 7363   4.451   0.569   0.981
 2155SOL    HW1 7364   4.414   0.602   1.068
 2155SOL    HW2 7365   4.379   0.521   0.931
 2156SOL     OW 7366   5.090   1.536   4.840
 2156SOL    HW1 7367   5.036   1.610   4.800
 2156SOL    HW2 7368   5.099   1.551   4.939
 2157SOL     OW 7369   3.545   6.188   4.036
 2157SOL    HW1 7370   3.639   6.153   4.035
 2157SOL    HW2 7371   3.486   6.126   3.984
 2158SOL     OW 7372   3.660   0.245   0.345
 2158SOL    HW1 7373   3.623   0.337   0.329
 2158SOL    HW2 7374   3.651   0.190   0.262
 2159SOL     OW 7375   0.671   1.178   5.838
 2159SOL    HW1 7376   0.588   1.221   5.875
 2159SOL    HW2 7377   0.649   1.084   5.811
 2160SOL     OW 7378   5.666   6.852   0.521
 2160SOL    HW1 7379   5.720   6.917   0.574
 2160SOL    HW2 7380   5.644   6.893   0.432
 2161SOL     OW 7381   1.676   2.565   1.617
 2161SOL    HW1 7382   1.774   2.583   1.620
 2161SOL    HW2 7383   1.639   2.595   1.529
 2162SOL     OW 7384   1.490   6.510   1.569
 2162SOL    HW1 7385   1.395   6.525   1.541
 2162SOL    HW2 7386   1.545   6.589   1.543
 2163SOL     OW 7387   1.738   2.746   3.010
 2163SOL    HW1 7388   1.828   2.758   2.969
 2163SOL    HW2 7389   1.712   2.829   3.058
 2164SOL     OW 7390   2.170   3.122   2.687
 2164SOL    HW1 7391   2.245   3.075   2.733
 2164SOL    HW2 7392   2.159   3.085   2.595
 2165SOL     OW 7393   6.905   1.608   3.461
 2165SOL    HW1 7394   6.858   1.626   3.547
 2165SOL    HW2 7395   6.991   1.560   3.479
 2166SOL     OW 7396   0.195   4.097   2.530
 2166SOL    HW1 7397   0.155   4.038   2.460
 2166SOL    HW2 7398   0.227   4.182   2.488
 2167SOL     OW 7399   2.241   1.966   3.124
 2167SOL    HW1 7400   2.192   1.902   3.183
 2167SOL    HW2 7401   2.256   1.924   3.035
 2168SOL     OW 7402   1.304   1.802   3.047
 2168SOL    HW1 7403   1.350   1.725   3.001
 2168SOL    HW2 7404   1.237   1.766   3.112
 2169SOL     OW 7405   0.700   0.158   1.509
 2169SOL    HW1 7406   0.791   0.196   1.525
 2169SOL    HW2 7407   0.676   0.169   1.412
 2170SOL     OW 7408   1.149   3.791   5.365
 2170SOL    HW1 7409   1.091   3.720   5.404
 2170SOL    HW2 7410   1.206   3.752   5.293
 2171SOL     OW 7411   6.777   5.504   1.750
 2171SOL    HW1 7412   6.784   5.459   1.839
 2171SOL    HW2 7413   6.756   5.601   1.762
 2172SOL     OW 7414   1.518   1.654   5.504
 2172SOL    HW1 7415   1.449   1.602   5.556
 2172SOL    HW2 7416   1.488   1.749   5.495
 2173SOL     OW 7417   5.822   0.907   4.970
 2173SOL    HW1 7418   5.798   0.880   5.063
 2173SOL    HW2 7419   5.885   0.985   4.973
 2174SOL     OW 7420   5.684   0.259   5.954
 2174SOL    HW1 7421   5.610   0.217   6.006
 2174SOL    HW2 7422   5.772   0.221   5.983
 2175SOL     OW 7423   2.579   3.813   5.347
 2175SOL    HW1 7424   2.569   3.716   5.369
 2175SOL    HW2 7425   2.492   3.849   5.314
 2176SOL     OW 7426   5.230   2.398   2.735
 2176SOL    HW1 7427   5.150   2.338   2.740
 2176SOL    HW2 7428   5.292   2.378   2.811
 2177SOL     OW 7429   0.609   0.409   4.489
 2177SOL    HW1 7430   0.609   0.322   4.538
 2177SOL    HW2 7431   0.557   0.477   4.541
 2178SOL     OW 7432   0.641   2.133   2.712
 2178SOL    HW1 7433   0.608   2.129   2.618
 2178SOL    HW2 7434   0.664   2.228   2.735
 2179SOL     OW 7435   1.638   4.485   6.189
 2179SOL    HW1 7436   1.655   4.489   6.288
 2179SOL    HW2 7437   1.573   4.412   6.170
 2180SOL     OW 7438   0.759   6.185   2.666
 2180SOL    HW1 7439   0.859   6.185   2.666
 2180SOL    HW2 7440   0.726   6.150   2.754
 2181SOL     OW 7441   2.950   4.885   4.442
 2181SOL    HW1 7442   2.879   4.955   4.453
 2181SOL    HW2 7443   2.953   4.828   4.524
 2182SOL     OW 7444   6.828   6.520   2.958
 2182SOL    HW1 7445   6.806   6.549   2.865
 2182SOL    HW2 7446   6.786   6.431   2.976
 2183SOL     OW 7447   3.548   3.095   6.416
 2183SOL    HW1 7448   3.536   2.998   6.436
 2183SOL    HW2 7449   3.586   3.105   6.324
 2184SOL     OW 7450   6.440   1.791   6.878
 2184SOL    HW1 7451   6.342   1.797   6.858
 2184SOL    HW2 7452   6.490   1.769   6.795
 2185SOL     OW 7453   1.226   0.122   6.709
 2185SOL    HW1 7454   1.161   0.198   6.694
 2185SOL    HW2 7455   1.234   0.104   6.807
 2186SOL     OW 7456   0.257   5.572   5.548
 2186SOL    HW1 7457   0.233   5.531   5.459
 2186SOL    HW2 7458   0.174   5.606   5.592
 2187SOL     OW 7459   0.726   5.809   2.612
 2187SOL    HW1 7460   0.810   5.831   2.660
 2187SOL    HW2 7461   0.720   5.710   2.598
 2188SOL     OW 7462   2.464   0.409   0.976
 2188SOL    HW1 7463   2.497   0.501   0.955
 2188SOL    HW2 7464   2.484   0.348   0.899
 2189SOL     OW 7465   1.923   1.544   1.452
 2189SOL    HW1 7466   1.833   1.525   1.490
 2189SOL    HW2 7467   1.944   1.641   1.462
 2190SOL     OW 7468   6.442   4.133   2.001
 2190SOL    HW1 7469   6.409   4.149   1.908
 2190SOL    HW2 7470   6.527   4.185   2.016
 2191SOL     OW 7471   2.742   0.179   0.018
 2191SOL    HW1 7472   2.724   0.249   0.088
 2191SOL    HW2 7473   2.753   0.090   0.062
 2192SOL     OW 7474   4.830   1.895   1.729
 2192SOL    HW1 7475   4.756   1.839   1.693
 2192SOL    HW2 7476   4.807   1.992   1.719
 2193SOL     OW 7477   1.933   6.806   5.749
 2193SOL    HW1 7478   1.891   6.798   5.658
 2193SOL    HW2 7479   1.935   6.901   5.777
 2194SOL     OW 7480   0.950   4.176   6.062
 2194SOL    HW1 7481   0.957   4.125   5.975
 2194SOL    HW2 7482   0.856   4.205   6.076
 2195SOL     OW 7483   0.368   3.520   4.830
 2195SOL    HW1 7484   0.450   3.464   4.847
 2195SOL    HW2 7485   0.287   3.462   4.829
 2196SOL     OW 7486   2.654   0.467   6.626
 2196SOL    HW1 7487   2.739   0.518   6.613
 2196SOL    HW2 7488   2.670   0.391   6.690
 2197SOL     OW 7489   3.515   5.526   5.761
 2197SOL    HW1 7490   3.582   5.595   5.788
 2197SOL    HW2 7491   3.531   5.442   5.813
 2198SOL     OW 7492   0.640   0.588   6.994
 2198SOL    HW1 7493   0.685   0.677   6.999
 2198SOL    HW2 7494   0.670   0.531   0.053
 2199SOL     OW 7495   3.775   6.579   4.956
 2199SOL    HW1 7496   3.735   6.493   4.987
 2199SOL    HW2 7497   3.704   6.636   4.913
 2200SOL     OW 7498   2.381   1.948   4.034
 2200SOL    HW1 7499   2.474   1.923   4.062
 2200SOL    HW2 7500   2.338   1.870   3.988
 2201SOL     OW 7501   6.250   4.080   5.034
 2201SOL    HW1 7502   6.189   4.130   4.974
 2201SOL    HW2 7503   6.260   4.129   5.121
 2202SOL     OW 7504   3.680   6.740   1.631
 2202SOL    HW1 7505   3.675   6.674   1.556
 2202SOL    HW2 7506   3.724   6.823   1.599
 2203SOL     OW 7507   2.151   4.495   0.928
 2203SOL    HW1 7508   2.203   4.441   0.863
 2203SOL    HW2 7509   2.063   4.520   0.887
 2204SOL     OW 7510   5.650   3.341   0.789
 2204SOL    HW1 7511   5.658   3.354   0.690
 2204SOL    HW2 7512   5.705   3.262   0.816
 2205SOL     OW 7513   0.336   5.497   0.576
 2205SOL    HW1 7514   0.291   5.447   0.501
 2205SOL    HW2 7515   0.431   5.515   0.551
 2206SOL     OW 7516   3.770   2.327   5.762
 2206SOL    HW1 7517   3.842   2.390   5.734
 2206SOL    HW2 7518   3.804   2.233   5.752
 2207SOL     OW 7519   4.475   5.793   0.811
 2207SOL    HW1 7520   4.388   5.818   0.768
 2207SOL    HW2 7521   4.550   5.825   0.753
 2208SOL     OW 7522   6.665   6.497   3.741
 2208SOL    HW1 7523   6.724   6.426   3.778
 2208SOL    HW2 7524   6.712   6.546   3.667
 2209SOL     OW 7525   2.669   5.702   4.033
 2209SOL    HW1 7526   2.636   5.777   3.976
 2209SOL    HW2 7527   2.596   5.634   4.043
 2210SOL     OW 7528   4.508   0.199   1.227
 2210SOL    HW1 7529   4.433   0.162   1.172
 2210SOL    HW2 7530   4.593   0.196   1.175
 2211SOL     OW 7531   0.440   2.085   0.790
 2211SOL    HW1 7532   0.501   2.010   0.815
 2211SOL    HW2 7533   0.442   2.099   0.691
 2212SOL     OW 7534   3.224   5.876   6.641
 2212SOL    HW1 7535   3.177   5.875   6.729
 2212SOL    HW2 7536   3.160   5.856   6.568
 2213SOL     OW 7537   3.436   1.680   4.602
 2213SOL    HW1 7538   3.407   1.772   4.626
 2213SOL    HW2 7539   3.359   1.617   4.612
 2214SOL     OW 7540   4.501   3.798   6.737
 2214SOL    HW1 7541   4.500   3.710   6.786
 2214SOL    HW2 7542   4.520   3.871   6.802
 2215SOL     OW 7543   3.876   6.945   0.197
 2215SOL    HW1 7544   3.880   6.849   0.227
 2215SOL    HW2 7545   3.947   6.961   0.129
 2216SOL     OW 7546   0.537   6.913   6.406
 2216SOL    HW1 7547   0.633   6.937   6.392
 2216SOL    HW2 7548   0.509   6.845   6.338
 2217SOL     OW 7549   4.527   0.724   3.717
 2217SOL    HW1 7550   4.468   0.693   3.643
 2217SOL    HW2 7551   4.519   0.824   3.727
 2218SOL     OW 7552   0.958   6.164   5.591
 2218SOL    HW1 7553   0.868   6.206   5.576
 2218SOL    HW2 7554   0.957   6.069   5.559
 2219SOL     OW 7555   5.943   1.107   0.727
 2219SOL    HW1 7556   5.904   1.147   0.809
 2219SOL    HW2 7557   5.956   1.009   0.740
 2220SOL     OW 7558   0.426   5.879   4.885
 2220SOL    HW1 7559   0.361   5.843   4.818
 2220SOL    HW2 7560   0.410   5.976   4.898
 2221SOL     OW 7561   6.763   1.617   3.688
 2221SOL    HW1 7562   6.671   1.601   3.721
 2221SOL    HW2 7563   6.807   1.529   3.669
 2222SOL     OW 7564   5.098   6.653   2.329
 2222SOL    HW1 7565   5.140   6.578   2.381
 2222SOL    HW2 7566   5.018   6.620   2.280
 2223SOL     OW 7567   0.482   6.387   5.626
 2223SOL    HW1 7568   0.479   6.454   5.701
 2223SOL    HW2 7569   0.414   6.411   5.557
 2224SOL     OW 7570   6.090   3.940   0.478
 2224SOL    HW1 7571   6.052   3.979   0.562
 2224SOL    HW2 7572   6.156   4.005   0.439
 2225SOL     OW 7573   6.661   6.306   2.859
 2225SOL    HW1 7574   6.654   6.329   2.762
 2225SOL    HW2 7575   6.699   6.214   2.868
 2226SOL     OW 7576   2.305   5.124   0.692
 2226SOL    HW1 7577   2.250   5.167   0.620
 2226SOL    HW2 7578   2.257   5.044   0.728
 2227SOL     OW 7579   3.617   2.116   1.704
 2227SOL    HW1 7580   3.682   2.146   1.634
 2227SOL    HW2 7581   3.626   2.174   1.785
 2228SOL     OW 7582   5.655   5.288   6.746
 2228SOL    HW1 7583   5.706   5.361   6.701
 2228SOL    HW2 7584   5.642   5.311   6.842
 2229SOL     OW 7585   3.483   3.506   3.287
 2229SOL    HW1 7586   3.509   3.411   3.271
 2229SOL    HW2 7587   3.422   3.537   3.214
 2230SOL     OW 7588   5.588   0.314   0.139
 2230SOL    HW1 7589   5.578   0.216   0.125
 2230SOL    HW2 7590   5.575   0.335   0.236
 2231SOL     OW 7591   1.508   6.927   6.673
 2231SOL    HW1 7592   1.558   6.892   6.594
 2231SOL    HW2 7593   1.410   6.920   6.657
 2232SOL     OW 7594   1.012   0.699   4.807
 2232SOL    HW1 7595   1.087   0.760   4.830
 2232SOL    HW2 7596   1.029   0.608   4.845
 2233SOL     OW 7597   2.923   4.331   1.047
 2233SOL    HW1 7598   2.914   4.232   1.045
 2233SOL    HW2 7599   3.015   4.356   1.076
 2234SOL     OW 7600   4.940   1.582   1.694
 2234SOL    HW1 7601   4.878   1.640   1.641
 2234SOL    HW2 7602   5.011   1.545   1.634
 2235SOL     OW 7603   1.174   1.645   3.262
 2235SOL    HW1 7604   1.170   1.693   3.349
 2235SOL    HW2 7605   1.232   1.564   3.271
 2236SOL     OW 7606   1.936   4.697   5.309
 2236SOL    HW1 7607   1.999   4.716   5.234
 2236SOL    HW2 7608   1.936   4.774   5.373
 2237SOL     OW 7609   6.653   5.217   5.967
 2237SOL    HW1 7610   6.697   5.254   6.049
 2237SOL    HW2 7611   6.561   5.254   5.958
 2238SOL     OW 7612   5.654   4.246   1.971
 2238SOL    HW1 7613   5.591   4.212   1.901
 2238SOL    HW2 7614   5.611   4.321   2.021
 2239SOL     OW 7615   4.410   6.594   3.271
 2239SOL    HW1 7616   4.371   6.616   3.360
 2239SOL    HW2 7617   4.510   6.593   3.278
 2240SOL     OW 7618   4.891   4.954   3.080
 2240SOL    HW1 7619   4.836   5.031   3.047
 2240SOL    HW2 7620   4.969   4.989   3.131
 2241SOL     OW 7621   0.585   1.391   1.393
 2241SOL    HW1 7622   0.512   1.339   1.348
 2241SOL    HW2 7623   0.552   1.424   1.481
 2242SOL     OW 7624   4.918   2.708   3.178
 2242SOL    HW1 7625   4.829   2.729   3.217
 2242SOL    HW2 7626   4.921   2.612   3.150
 2243SOL     OW 7627   1.923   6.664   0.408
 2243SOL    HW1 7628   1.990   6.622   0.469
 2243SOL    HW2 7629   1.843   6.605   0.401
 2244SOL     OW 7630   2.647   1.042   0.438
 2244SOL    HW1 7631   2.552   1.073   0.446
 2244SOL    HW2 7632   2.665   1.013   0.345
 2245SOL     OW 7633   0.326   0.374   0.172
 2245SOL    HW1 7634   0.398   0.424   0.219
 2245SOL    HW2 7635   0.315   0.284   0.214
 2246SOL     OW 7636   2.773   1.120   5.053
 2246SOL    HW1 7637   2.847   1.156   5.111
 2246SOL    HW2 7638   2.811   1.090   4.965
 2247SOL     OW 7639   2.880   3.672   2.577
 2247SOL    HW1 7640   2.860   3.647   2.671
 2247SOL    HW2 7641   2.865   3.594   2.517
 2248SOL     OW 7642   4.931   4.055   5.190
 2248SOL    HW1 7643   4.850   4.099   5.152
 2248SOL    HW2 7644   4.903   3.978   5.248
 2249SOL     OW 7645   1.853   6.144   3.143
 2249SOL    HW1 7646   1.786   6.103   3.082
 2249SOL    HW2 7647   1.851   6.097   3.231
 2250SOL     OW 7648   4.601   5.630   6.229
 2250SOL    HW1 7649   4.554   5.600   6.313
 2250SOL    HW2 7650   4.588   5.729   6.218
 2251SOL     OW 7651   5.579   6.433   5.632
 2251SOL    HW1 7652   5.563   6.351   5.686
 2251SOL    HW2 7653   5.657   6.483   5.669
 2252SOL     OW 7654   4.433   1.643   2.880
 2252SOL    HW1 7655   4.468   1.648   2.974
 2252SOL    HW2 7656   4.380   1.559   2.869
 2253SOL     OW 7657   0.366   3.458   1.379
 2253SOL    HW1 7658   0.453   3.495   1.410
 2253SOL    HW2 7659   0.351   3.484   1.283
 2254SOL     OW 7660   3.700   3.520   2.667
 2254SOL    HW1 7661   3.721   3.443   2.728
 2254SOL    HW2 7662   3.601   3.535   2.666
 2255SOL     OW 7663   3.331   3.604   6.231
 2255SOL    HW1 7664   3.392   3.618   6.153
 2255SOL    HW2 7665   3.291   3.513   6.227
 2256SOL     OW 7666   4.639   0.097   2.011
 2256SOL    HW1 7667   4.627   0.082   2.109
 2256SOL    HW2 7668   4.550   0.089   1.965
 2257SOL     OW 7669   0.663   1.032   4.962
 2257SOL    HW1 7670   0.703   1.092   4.893
 2257SOL    HW2 7671   0.638   1.085   5.043
 2258SOL     OW 7672   2.257   5.787   3.948
 2258SOL    HW1 7673   2.241   5.691   3.927
 2258SOL    HW2 7674   2.351   5.812   3.923
 2259SOL     OW 7675   5.891   2.122   4.537
 2259SOL    HW1 7676   5.891   2.071   4.451
 2259SOL    HW2 7677   5.931   2.212   4.522
 2260SOL     OW 7678   0.901   4.020   1.263
 2260SOL    HW1 7679   0.998   4.023   1.241
 2260SOL    HW2 7680   0.853   4.088   1.208
 2261SOL     OW 7681   5.451   4.057   0.092
 2261SOL    HW1 7682   5.377   4.118   0.065
 2261SOL    HW2 7683   5.539   4.093   0.059
 2262SOL     OW 7684   6.610   0.542   4.681
 2262SOL    HW1 7685   6.681   0.479   4.647
 2262SOL    HW2 7686   6.654   0.616   4.732
 2263SOL     OW 7687   2.381   4.343   6.609
 2263SOL    HW1 7688   2.305   4.352   6.674
 2263SOL    HW2 7689   2.456   4.403   6.638
 2264SOL     OW 7690   2.240   6.818   5.637
 2264SOL    HW1 7691   2.268   6.900   5.686
 2264SOL    HW2 7692   2.179   6.844   5.561
 2265SOL     OW 7693   0.367   6.151   4.824
 2265SOL    HW1 7694   0.430   6.228   4.838
 2265SOL    HW2 7695   0.397   6.098   4.745
 2266SOL     OW 7696   4.004   2.283   6.562
 2266SOL    HW1 7697   3.945   2.209   6.594
 2266SOL    HW2 7698   4.098   2.264   6.589
 2267SOL     OW 7699   4.944   2.466   4.347
 2267SOL    HW1 7700   5.014   2.443   4.279
 2267SOL    HW2 7701   4.860   2.416   4.325
 2268SOL     OW 7702   0.600   5.747   5.060
 2268SOL    HW1 7703   0.559   5.675   5.117
 2268SOL    HW2 7704   0.528   5.787   5.003
 2269SOL     OW 7705   1.973   2.322   5.145
 2269SOL    HW1 7706   2.051   2.373   5.107
 2269SOL    HW2 7707   1.906   2.387   5.182
 2270SOL     OW 7708   4.920   2.083   5.907
 2270SOL    HW1 7709   4.975   2.007   5.939
 2270SOL    HW2 7710   4.976   2.144   5.851
 2271SOL     OW 7711   5.083   5.201   5.900
 2271SOL    HW1 7712   5.090   5.229   5.805
 2271SOL    HW2 7713   4.994   5.228   5.937
 2272SOL     OW 7714   5.615   1.026   5.800
 2272SOL    HW1 7715   5.668   1.082   5.863
 2272SOL    HW2 7716   5.677   0.966   5.749
 2273SOL     OW 7717   1.066   2.606   2.998
 2273SOL    HW1 7718   1.118   2.678   2.952
 2273SOL    HW2 7719   1.053   2.529   2.936
 2274SOL     OW 7720   0.286   1.777   6.459
 2274SOL    HW1 7721   0.354   1.830   6.407
 2274SOL    HW2 7722   0.333   1.723   6.529
 2275SOL     OW 7723   5.980   4.811   2.826
 2275SOL    HW1 7724   5.890   4.842   2.857
 2275SOL    HW2 7725   6.049   4.881   2.849
 2276SOL     OW 7726   1.252   2.623   1.001
 2276SOL    HW1 7727   1.204   2.538   1.023
 2276SOL    HW2 7728   1.198   2.701   1.033
 2277SOL     OW 7729   3.799   3.509   3.494
 2277SOL    HW1 7730   3.881   3.528   3.440
 2277SOL    HW2 7731   3.771   3.592   3.543
 2278SOL     OW 7732   0.229   2.257   3.979
 2278SOL    HW1 7733   0.264   2.323   3.913
 2278SOL    HW2 7734   0.276   2.170   3.967
 2279SOL     OW 7735   0.842   6.058   5.296
 2279SOL    HW1 7736   0.766   6.040   5.357
 2279SOL    HW2 7737   0.833   6.003   5.213
 2280SOL     OW 7738   4.754   1.677   5.039
 2280SOL    HW1 7739   4.849   1.709   5.037
 2280SOL    HW2 7740   4.694   1.745   4.998
 2281SOL     OW 7741   5.342   0.053   2.677
 2281SOL    HW1 7742   5.357   0.112   2.598
 2281SOL    HW2 7743   5.400   6.989   2.670
 2282SOL     OW 7744   4.189   6.161   5.309
 2282SOL    HW1 7745   4.137   6.236   5.348
 2282SOL    HW2 7746   4.270   6.144   5.365
 2283SOL     OW 7747   0.238   0.365   3.875
 2283SOL    HW1 7748   0.183   0.385   3.794
 2283SOL    HW2 7749   0.254   0.266   3.881
 2284SOL     OW 7750   1.538   3.009   6.832
 2284SOL    HW1 7751   1.563   3.002   6.735
 2284SOL    HW2 7752   1.527   3.105   6.857
 2285SOL     OW 7753   1.660   4.494   6.512
 2285SOL    HW1 7754   1.757   4.521   6.511
 2285SOL    HW2 7755   1.645   4.428   6.585
 2286SOL     OW 7756   4.480   5.539   3.951
 2286SOL    HW1 7757   4.491   5.634   3.922
 2286SOL    HW2 7758   4.384   5.519   3.967
 2287SOL     OW 7759   2.100   0.988   3.465
 2287SOL    HW1 7760   2.144   1.077   3.472
 2287SOL    HW2 7761   2.008   0.993   3.504
 2288SOL     OW 7762   0.007   6.601   3.138
 2288SOL    HW1 7763   6.997   6.533   3.069
 2288SOL    HW2 7764   0.106   6.616   3.134
 2289SOL     OW 7765   0.765   5.266   1.778
 2289SOL    HW1 7766   0.854   5.241   1.816
 2289SOL    HW2 7767   0.774   5.286   1.681
 2290SOL     OW 7768   0.311   6.050   0.728
 2290SOL    HW1 7769   0.359   6.135   0.706
 2290SOL    HW2 7770   0.377   5.982   0.761
 2291SOL     OW 7771   2.384   2.018   6.347
 2291SOL    HW1 7772   2.308   1.988   6.404
 2291SOL    HW2 7773   2.461   2.046   6.405
 2292SOL     OW 7774   1.186   1.101   4.776
 2292SOL    HW1 7775   1.261   1.123   4.837
 2292SOL    HW2 7776   1.182   1.002   4.762
 2293SOL     OW 7777   5.767   4.998   2.506
 2293SOL    HW1 7778   5.780   4.907   2.545
 2293SOL    HW2 7779   5.800   4.999   2.412
 2294SOL     OW 7780   3.715   6.565   6.356
 2294SOL    HW1 7781   3.662   6.499   6.410
 2294SOL    HW2 7782   3.799   6.521   6.324
 2295SOL     OW 7783   0.856   2.379   1.255
 2295SOL    HW1 7784   0.954   2.393   1.263
 2295SOL    HW2 7785   0.807   2.446   1.310
 2296SOL     OW 7786   3.237   6.418   6.884
 2296SOL    HW1 7787   3.205   6.379   6.798
 2296SOL    HW2 7788   3.248   6.517   6.875
 2297SOL     OW 7789   4.631   5.757   5.723
 2297SOL    HW1 7790   4.645   5.815   5.643
 2297SOL    HW2 7791   4.535   5.728   5.727
 2298SOL     OW 7792   4.183   3.032   0.327
 2298SOL    HW1 7793   4.181   3.101   0.255
 2298SOL    HW2 7794   4.191   2.941   0.286
 2299SOL     OW 7795   4.904   5.842   0.147
 2299SOL    HW1 7796   4.837   5.769   0.140
 2299SOL    HW2 7797   4.996   5.803   0.156
 2300SOL     OW 7798   1.718   5.140   1.337
 2300SOL    HW1 7799   1.675   5.228   1.320
 2300SOL    HW2 7800   1.817   5.148   1.332
 2301SOL     OW 7801   4.083   3.491   2.547
 2301SOL    HW1 7802   4.102   3.589   2.561
 2301SOL    HW2 7803   4.080   3.445   2.636
 2302SOL     OW 7804   3.124   5.662   2.863
 2302SOL    HW1 7805   3.107   5.575   2.909
 2302SOL    HW2 7806   3.221   5.686   2.871
 2303SOL     OW 7807   1.207   2.767   4.679
 2303SOL    HW1 7808   1.202   2.841   4.612
 2303SOL    HW2 7809   1.114   2.740   4.706
 2304SOL     OW 7810   2.457   0.824   4.030
 2304SOL    HW1 7811   2.447   0.725   4.030
 2304SOL    HW2 7812   2.554   0.848   4.039
 2305SOL     OW 7813   3.736   5.189   1.903
 2305SOL    HW1 7814   3.676   5.187   1.983
 2305SOL    HW2 7815   3.685   5.161   1.822
 2306SOL     OW 7816   1.171   3.758   0.835
 2306SOL    HW1 7817   1.205   3.723   0.748
 2306SOL    HW2 7818   1.093   3.703   0.864
 2307SOL     OW 7819   0.545   2.596   2.825
 2307SOL    HW1 7820   0.602   2.519   2.855
 2307SOL    HW2 7821   0.448   2.574   2.842
 2308SOL     OW 7822   0.053   0.187   0.509
 2308SOL    HW1 7823   0.080   0.223   0.598
 2308SOL    HW2 7824   0.133   0.182   0.449
 2309SOL     OW 7825   3.417   5.550   6.131
 2309SOL    HW1 7826   3.488   5.568   6.199
 2309SOL    HW2 7827   3.400   5.451   6.126
 2310SOL     OW 7828   5.763   0.720   1.988
 2310SOL    HW1 7829   5.793   0.815   1.978
 2310SOL    HW2 7830   5.663   0.717   1.983
 2311SOL     OW 7831   3.351   0.373   2.807
 2311SOL    HW1 7832   3.387   0.280   2.818
 2311SOL    HW2 7833   3.268   0.370   2.751
 2312SOL     OW 7834   3.640   1.254   2.768
 2312SOL    HW1 7835   3.719   1.240   2.708
 2312SOL    HW2 7836   3.665   1.230   2.862
 2313SOL     OW 7837   5.192   3.916   1.879
 2313SOL    HW1 7838   5.103   3.878   1.904
 2313SOL    HW2 7839   5.194   4.014   1.900
 2314SOL     OW 7840   6.502   0.324   2.838
 2314SOL    HW1 7841   6.446   0.380   2.899
 2314SOL    HW2 7842   6.544   0.383   2.769
 2315SOL     OW 7843   4.470   5.053   5.605
 2315SOL    HW1 7844   4.570   5.053   5.595
 2315SOL    HW2 7845   4.438   5.147   5.616
 2316SOL     OW 7846   3.118   1.465   5.805
 2316SOL    HW1 7847   3.045   1.475   5.738
 2316SOL    HW2 7848   3.079   1.469   5.897
 2317SOL     OW 7849   6.250   5.498   3.680
 2317SOL    HW1 7850   6.303   5.570   3.636
 2317SOL    HW2 7851   6.155   5.528   3.690
 2318SOL     OW 7852   1.881   4.648   4.953
 2318SOL    HW1 7853   1.978   4.627   4.964
 2318SOL    HW2 7854   1.828   4.563   4.951
 2319SOL     OW 7855   2.552   5.163   4.116
 2319SOL    HW1 7856   2.591   5.071   4.129
 2319SOL    HW2 7857   2.611   5.215   4.054
 2320SOL     OW 7858   1.437   3.351   5.069
 2320SOL    HW1 7859   1.513   3.287   5.066
 2320SOL    HW2 7860   1.395   3.356   4.979
 2321SOL     OW 7861   2.799   5.325   6.160
 2321SOL    HW1 7862   2.788   5.273   6.076
 2321SOL    HW2 7863   2.729   5.297   6.226
 2322SOL     OW 7864   1.170   3.700   2.148
 2322SOL    HW1 7865   1.162   3.608   2.109
 2322SOL    HW2 7866   1.256   3.708   2.198
 2323SOL     OW 7867   2.013   5.101   1.747
 2323SOL    HW1 7868   2.008   5.027   1.814
 2323SOL    HW2 7869   2.079   5.078   1.676
 2324SOL     OW 7870   0.006   5.631   1.785
 2324SOL    HW1 7871   6.968   5.577   1.720
 2324SOL    HW2 7872   6.987   5.617   1.877
 2325SOL     OW 7873   6.970   5.411   2.166
 2325SOL    HW1 7874   6.940   5.494   2.213
 2325SOL    HW2 7875   0.030   5.433   2.106
 2326SOL     OW 7876   1.084   0.621   6.609
 2326SOL    HW1 7877   1.110   0.660   6.521
 2326SOL    HW2 7878   1.151   0.649   6.679
 2327SOL     OW 7879   6.443   0.558   2.562
 2327SOL    HW1 7880   6.518   0.532   2.623
 2327SOL    HW2 7881   6.398   0.640   2.598
 2328SOL     OW 7882   1.751   2.421   2.297
 2328SOL    HW1 7883   1.705   2.494   2.347
 2328SOL    HW2 7884   1.825   2.383   2.353
 2329SOL     OW 7885   0.627   5.766   3.696
 2329SOL    HW1 7886   0.629   5.708   3.778
 2329SOL    HW2 7887   0.718   5.800   3.677
 2330SOL     OW 7888   6.369   2.840   6.869
 2330SOL    HW1 7889   6.294   2.880   6.922
 2330SOL    HW2 7890   6.456   2.871   6.907
 2331SOL     OW 7891   3.811   5.777   0.016
 2331SOL    HW1 7892   3.722   5.731   0.010
 2331SOL    HW2 7893   3.877   5.717   0.061
 2332SOL     OW 7894   5.115   6.719   6.387
 2332SOL    HW1 7895   5.162   6.673   6.313
 2332SOL    HW2 7896   5.042   6.661   6.423
 2333SOL     OW 7897   0.155   5.034   2.539
 2333SOL    HW1 7898   0.254   5.040   2.528
 2333SOL    HW2 7899   0.114   4.996   2.456
 2334SOL     OW 7900   2.460   0.788   5.848
 2334SOL    HW1 7901   2.397   0.711   5.863
 2334SOL    HW2 7902   2.554   0.755   5.855
 2335SOL     OW 7903   5.913   1.575   3.649
 2335SOL    HW1 7904   5.938   1.488   3.606
 2335SOL    HW2 7905   5.925   1.567   3.748
 2336SOL     OW 7906   2.295   1.775   2.615
 2336SOL    HW1 7907   2.319   1.801   2.521
 2336SOL    HW2 7908   2.204   1.733   2.615
 2337SOL     OW 7909   3.813   1.853   1.406
 2337SOL    HW1 7910   3.836   1.875   1.501
 2337SOL    HW2 7911   3.833   1.932   1.348
 2338SOL     OW 7912   0.517   4.049   4.220
 2338SOL    HW1 7913   0.424   4.081   4.203
 2338SOL    HW2 7914   0.563   4.112   4.283
 2339SOL     OW 7915   3.272   3.029   2.350
 2339SOL    HW1 7916   3.189   3.002   2.300
 2339SOL    HW2 7917   3.307   3.115   2.314
 2340SOL     OW 7918   1.020   4.933   6.404
 2340SOL    HW1 7919   0.934   4.900   6.443
 2340SOL    HW2 7920   1.081   4.856   6.389
 2341SOL     OW 7921   2.547   4.531   3.186
 2341SOL    HW1 7922   2.454   4.531   3.149
 2341SOL    HW2 7923   2.595   4.449   3.157
 2342SOL     OW 7924   3.379   6.677   4.174
 2342SOL    HW1 7925   3.289   6.679   4.130
 2342SOL    HW2 7926   3.434   6.753   4.140
 2343SOL     OW 7927   1.589   6.291   2.461
 2343SOL    HW1 7928   1.543   6.221   2.408
 2343SOL    HW2 7929   1.626   6.361   2.400
 2344SOL     OW 7930   6.335   4.612   0.953
 2344SOL    HW1 7931   6.298   4.640   1.042
 2344SOL    HW2 7932   6.292   4.666   0.881
 2345SOL     OW 7933   2.864   6.039   4.694
 2345SOL    HW1 7934   2.887   6.136   4.686
 2345SOL    HW2 7935   2.795   6.026   4.766
 2346SOL     OW 7936   4.035   3.837   6.118
 2346SOL    HW1 7937   4.023   3.884   6.205
 2346SOL    HW2 7938   4.066   3.903   6.049
 2347SOL     OW 7939   1.203   2.258   1.760
 2347SOL    HW1 7940   1.118   2.255   1.707
 2347SOL    HW2 7941   1.215   2.170   1.808
 2348SOL     OW 7942   1.301   5.267   3.139
 2348SOL    HW1 7943   1.364   5.317   3.197
 2348SOL    HW2 7944   1.217   5.247   3.190
 2349SOL     OW 7945   0.575   4.448   6.541
 2349SOL    HW1 7946   0.497   4.506   6.564
 2349SOL    HW2 7947   0.655   4.478   6.593
 2350SOL     OW 7948   6.381   4.684   6.074
 2350SOL    HW1 7949   6.431   4.755   6.026
 2350SOL    HW2 7950   6.322   4.634   6.010
 2351SOL     OW 7951   2.722   4.718   3.050
 2351SOL    HW1 7952   2.652   4.782   3.084
 2351SOL    HW2 7953   2.700   4.625   3.080
 2352SOL     OW 7954   0.031   3.187   3.305
 2352SOL    HW1 7955   0.016   3.088   3.305
 2352SOL    HW2 7956   6.976   3.231   3.359
 2353SOL     OW 7957   4.346   5.507   5.476
 2353SOL    HW1 7958   4.426   5.480   5.423
 2353SOL    HW2 7959   4.327   5.604   5.461
 2354SOL     OW 7960   2.506   1.730   4.384
 2354SOL    HW1 7961   2.558   1.669   4.444
 2354SOL    HW2 7962   2.567   1.801   4.348
 2355SOL     OW 7963   2.069   5.979   4.588
 2355SOL    HW1 7964   2.148   6.037   4.573
 2355SOL    HW2 7965   1.987   6.022   4.549
 2356SOL     OW 7966   0.383   3.083   6.729
 2356SOL    HW1 7967   0.425   3.098   6.819
 2356SOL    HW2 7968   0.313   3.152   6.714
 2357SOL     OW 7969   3.316   0.832   2.574
 2357SOL    HW1 7970   3.257   0.774   2.630
 2357SOL    HW2 7971   3.381   0.880   2.632
 2358SOL     OW 7972   3.580   4.656   6.267
 2358SOL    HW1 7973   3.529   4.718   6.326
 2358SOL    HW2 7974   3.584   4.693   6.174
 2359SOL     OW 7975   1.233   0.388   5.330
 2359SOL    HW1 7976   1.133   0.383   5.323
 2359SOL    HW2 7977   1.258   0.403   5.426
 2360SOL     OW 7978   6.301   3.362   0.798
 2360SOL    HW1 7979   6.289   3.267   0.826
 2360SOL    HW2 7980   6.242   3.421   0.853
 2361SOL     OW 7981   3.174   1.710   5.924
 2361SOL    HW1 7982   3.102   1.776   5.905
 2361SOL    HW2 7983   3.170   1.635   5.858
 2362SOL     OW 7984   3.447   4.980   3.596
 2362SOL    HW1 7985   3.543   5.004   3.603
 2362SOL    HW2 7986   3.427   4.947   3.503
 2363SOL     OW 7987   3.773   1.673   3.473
 2363SOL    HW1 7988   3.679   1.670   3.509
 2363SOL    HW2 7989   3.822   1.749   3.516
 2364SOL     OW 7990   0.993   2.344   1.568
 2364SOL    HW1 7991   1.040   2.431   1.583
 2364SOL    HW2 7992   0.894   2.358   1.574
 2365SOL     OW 7993   5.993   2.195   0.296
 2365SOL    HW1 7994   6.087   2.189   0.263
 2365SOL    HW2 7995   5.990   2.253   0.377
 2366SOL     OW 7996   3.728   5.395   0.922
 2366SOL    HW1 7997   3.628   5.402   0.928
 2366SOL    HW2 7998   3.765   5.371   1.012
 2367SOL     OW 7999   1.916   3.188   6.594
 2367SOL    HW1 8000   1.933   3.111   6.657
 2367SOL    HW2 8001   1.841   3.163   6.532
 2368SOL     OW 8002   6.025   6.851   3.691
 2368SOL    HW1 8003   5.927   6.833   3.698
 2368SOL    HW2 8004   6.074   6.790   3.753
 2369SOL     OW 8005   2.064   0.015   3.845
 2369SOL    HW1 8006   2.140   0.072   3.874
 2369SOL    HW2 8007   1.981   0.070   3.838
 2370SOL     OW 8008   5.703   2.840   6.663
 2370SOL    HW1 8009   5.796   2.835   6.700
 2370SOL    HW2 8010   5.688   2.931   6.624
 2371SOL     OW 8011   2.583   0.037   1.626
 2371SOL    HW1 8012   2.579   0.065   1.722
 2371SOL    HW2 8013   2.491   0.013   1.594
 2372SOL     OW 8014   0.019   2.692   2.305
 2372SOL    HW1 8015   0.010   2.732   2.396
 2372SOL    HW2 8016   7.001   2.598   2.306
 2373SOL     OW 8017   2.062   3.308   5.804
 2373SOL    HW1 8018   2.088   3.339   5.713
 2373SOL    HW2 8019   1.974   3.260   5.799
 2374SOL     OW 8020   6.364   1.882   4.629
 2374SOL    HW1 8021   6.330   1.808   4.570
 2374SOL    HW2 8022   6.377   1.965   4.574
 2375SOL     OW 8023   3.425   5.908   5.457
 2375SOL    HW1 8024   3.470   5.944   5.375
 2375SOL    HW2 8025   3.485   5.843   5.502
 2376SOL     OW 8026   6.214   3.119   3.580
 2376SOL    HW1 8027   6.302   3.082   3.613
 2376SOL    HW2 8028   6.143   3.049   3.591
 2377SOL     OW 8029   3.046   3.118   3.967
 2377SOL    HW1 8030   3.136   3.087   3.999
 2377SOL    HW2 8031   3.030   3.084   3.875
 2378SOL     OW 8032   5.263   2.508   0.022
 2378SOL    HW1 8033   5.241   2.429   6.982
 2378SOL    HW2 8034   5.198   2.513   0.098
 2379SOL     OW 8035   6.283   0.563   0.986
 2379SOL    HW1 8036   6.318   0.473   0.961
 2379SOL    HW2 8037   6.310   0.584   1.080
 2380SOL     OW 8038   6.124   2.675   0.930
 2380SOL    HW1 8039   6.119   2.589   0.980
 2380SOL    HW2 8040   6.194   2.668   0.859
 2381SOL     OW 8041   1.794   5.869   3.058
 2381SOL    HW1 8042   1.711   5.906   3.016
 2381SOL    HW2 8043   1.863   5.855   2.987
 2382SOL     OW 8044   2.110   3.093   4.690
 2382SOL    HW1 8045   2.189   3.067   4.634
 2382SOL    HW2 8046   2.086   3.017   4.750
 2383SOL     OW 8047   6.615   6.222   1.530
 2383SOL    HW1 8048   6.630   6.180   1.619
 2383SOL    HW2 8049   6.605   6.150   1.461
 2384SOL     OW 8050   4.785   2.176   1.927
 2384SOL    HW1 8051   4.707   2.128   1.967
 2384SOL    HW2 8052   4.764   2.198   1.831
 2385SOL     OW 8053   0.218   1.091   6.930
 2385SOL    HW1 8054   0.158   1.113   7.008
 2385SOL    HW2 8055   0.301   1.146   6.936
 2386SOL     OW 8056   5.285   5.804   5.193
 2386SOL    HW1 8057   5.211   5.872   5.201
 2386SOL    HW2 8058   5.309   5.770   5.284
 2387SOL     OW 8059   2.255   0.945   4.181
 2387SOL    HW1 8060   2.325   0.904   4.122
 2387SOL    HW2 8061   2.181   0.982   4.124
 2388SOL     OW 8062   6.651   2.789   3.320
 2388SOL    HW1 8063   6.590   2.768   3.396
 2388SOL    HW2 8064   6.598   2.795   3.235
 2389SOL     OW 8065   4.221   4.661   3.255
 2389SOL    HW1 8066   4.180   4.639   3.344
 2389SOL    HW2 8067   4.150   4.700   3.195
 2390SOL     OW 8068   3.920   3.967   3.026
 2390SOL    HW1 8069   3.904   3.989   2.930
 2390SOL    HW2 8070   3.833   3.962   3.074
 2391SOL     OW 8071   4.624   5.042   6.235
 2391SOL    HW1 8072   4.670   4.953   6.244
 2391SOL    HW2 8073   4.602   5.059   6.139
 2392SOL     OW 8074   2.911   0.377   6.751
 2392SOL    HW1 8075   2.986   0.392   6.815
 2392SOL    HW2 8076   2.883   0.281   6.754
 2393SOL     OW 8077   4.276   4.836   6.107
 2393SOL    HW1 8078   4.365   4.827   6.061
 2393SOL    HW2 8079   4.227   4.749   6.102
 2394SOL     OW 8080   0.202   4.389   4.714
 2394SOL    HW1 8081   0.240   4.478   4.691
 2394SOL    HW2 8082   0.262   4.343   4.780
 2395SOL     OW 8083   4.214   6.691   5.878
 2395SOL    HW1 8084   4.291   6.627   5.888
 2395SOL    HW2 8085   4.219   6.736   5.789
 2396SOL     OW 8086   4.100   4.607   0.605
 2396SOL    HW1 8087   4.182   4.650   0.644
 2396SOL    HW2 8088   4.030   4.597   0.676
 2397SOL     OW 8089   0.744   4.468   4.655
 2397SOL    HW1 8090   0.794   4.412   4.721
 2397SOL    HW2 8091   0.657   4.424   4.634
 2398SOL     OW 8092   4.768   4.577   6.045
 2398SOL    HW1 8093   4.786   4.484   6.077
 2398SOL    HW2 8094   4.760   4.577   5.945
 2399SOL     OW 8095   4.314   1.741   1.832
 2399SOL    HW1 8096   4.391   1.677   1.833
 2399SOL    HW2 8097   4.277   1.751   1.924
 2400SOL     OW 8098   2.534   4.742   1.154
 2400SOL    HW1 8099   2.457   4.681   1.136
 2400SOL    HW2 8100   2.549   4.749   1.252
 2401SOL     OW 8101   6.755   6.140   6.158
 2401SOL    HW1 8102   6.800   6.051   6.164
 2401SOL    HW2 8103   6.663   6.134   6.196
 2402SOL     OW 8104   0.640   6.864   4.405
 2402SOL    HW1 8105   0.679   6.800   4.339
 2402SOL    HW2 8106   0.565   6.819   4.455
 2403SOL     OW 8107   0.654   2.645   5.111
 2403SOL    HW1 8108   0.640   2.672   5.016
 2403SOL    HW2 8109   0.610   2.557   5.129
 2404SOL     OW 8110   1.771   0.554   0.932
 2404SOL    HW1 8111   1.804   0.579   1.023
 2404SOL    HW2 8112   1.840   0.577   0.864
 2405SOL     OW 8113   3.153   4.028   2.325
 2405SOL    HW1 8114   3.114   3.979   2.403
 2405SOL    HW2 8115   3.239   4.071   2.352
 2406SOL     OW 8116   4.277   1.811   0.648
 2406SOL    HW1 8117   4.225   1.799   0.732
 2406SOL    HW2 8118   4.325   1.899   0.651
 2407SOL     OW 8119   5.826   1.110   3.523
 2407SOL    HW1 8120   5.786   1.020   3.509
 2407SOL    HW2 8121   5.864   1.116   3.615
 2408SOL     OW 8122   4.609   4.501   1.874
 2408SOL    HW1 8123   4.656   4.460   1.795
 2408SOL    HW2 8124   4.570   4.428   1.930
 2409SOL     OW 8125   2.182   3.651   0.689
 2409SOL    HW1 8126   2.239   3.628   0.768
 2409SOL    HW2 8127   2.116   3.579   0.673
 2410SOL     OW 8128   3.138   3.313   3.507
 2410SOL    HW1 8129   3.222   3.348   3.548
 2410SOL    HW2 8130   3.140   3.326   3.408
 2411SOL     OW 8131   5.561   6.899   4.973
 2411SOL    HW1 8132   5.494   6.930   4.905
 2411SOL    HW2 8133   5.652   6.929   4.947
 2412SOL     OW 8134   4.999   3.770   1.216
 2412SOL    HW1 8135   5.009   3.801   1.310
 2412SOL    HW2 8136   5.004   3.670   1.212
 2413SOL     OW 8137   5.160   0.575   2.088
 2413SOL    HW1 8138   5.118   0.484   2.093
 2413SOL    HW2 8139   5.148   0.622   2.176
 2414SOL     OW 8140   4.918   3.224   3.873
 2414SOL    HW1 8141   4.906   3.130   3.842
 2414SOL    HW2 8142   4.982   3.271   3.813
 2415SOL     OW 8143   4.707   0.870   3.082
 2415SOL    HW1 8144   4.743   0.838   2.995
 2415SOL    HW2 8145   4.771   0.934   3.124
 2416SOL     OW 8146   5.221   1.500   6.062
 2416SOL    HW1 8147   5.279   1.504   6.143
 2416SOL    HW2 8148   5.250   1.571   5.997
 2417SOL     OW 8149   3.070   3.123   4.649
 2417SOL    HW1 8150   3.123   3.203   4.677
 2417SOL    HW2 8151   3.114   3.040   4.685
 2418SOL     OW 8152   3.615   2.913   3.293
 2418SOL    HW1 8153   3.674   2.922   3.373
 2418SOL    HW2 8154   3.667   2.875   3.217
 2419SOL     OW 8155   0.299   0.094   2.964
 2419SOL    HW1 8156   0.312   0.191   2.941
 2419SOL    HW2 8157   0.257   0.047   2.887
 2420SOL     OW 8158   2.382   7.013   2.007
 2420SOL    HW1 8159   2.297   0.050   1.999
 2420SOL    HW2 8160   2.459   0.050   1.972
 2421SOL     OW 8161   2.371   2.178   4.813
 2421SOL    HW1 8162   2.372   2.153   4.716
 2421SOL    HW2 8163   2.367   2.096   4.869
 2422SOL     OW 8164   4.979   1.520   1.162
 2422SOL    HW1 8165   5.076   1.528   1.138
 2422SOL    HW2 8166   4.933   1.463   1.095
 2423SOL     OW 8167   2.505   5.723   2.508
 2423SOL    HW1 8168   2.499   5.685   2.416
 2423SOL    HW2 8169   2.563   5.805   2.506
 2424SOL     OW 8170   6.270   0.979   0.358
 2424SOL    HW1 8171   6.304   0.968   0.452
 2424SOL    HW2 8172   6.278   1.075   0.332
 2425SOL     OW 8173   6.984   0.103   3.998
 2425SOL    HW1 8174   0.065   0.122   3.994
 2425SOL    HW2 8175   6.944   0.117   3.907
 2426SOL     OW 8176   2.721   4.632   4.320
 2426SOL    HW1 8177   2.751   4.642   4.415
 2426SOL    HW2 8178   2.788   4.673   4.259
 2427SOL     OW 8179   6.458   6.962   5.928
 2427SOL    HW1 8180   6.521   6.896   5.886
 2427SOL    HW2 8181   6.510   0.021   5.967
 2428SOL     OW 8182   0.564   0.761   0.816
 2428SOL    HW1 8183   0.646   0.760   0.760
 2428SOL    HW2 8184   0.483   0.756   0.757
 2429SOL     OW 8185   5.273   6.187   2.035
 2429SOL    HW1 8186   5.239   6.113   2.093
 2429SOL    HW2 8187   5.220   6.190   1.950
 2430SOL     OW 8188   6.164   0.993   2.829
 2430SOL    HW1 8189   6.151   0.957   2.736
 2430SOL    HW2 8190   6.080   0.981   2.881
 2431SOL     OW 8191   3.927   0.741   2.072
 2431SOL    HW1 8192   4.012   0.764   2.025
 2431SOL    HW2 8193   3.917   0.641   2.074
 2432SOL     OW 8194   3.085   6.341   1.917
 2432SOL    HW1 8195   3.133   6.428   1.926
 2432SOL    HW2 8196   3.152   6.268   1.903
 2433SOL     OW 8197   4.252   0.032   0.424
 2433SOL    HW1 8198   4.325   0.081   0.377
 2433SOL    HW2 8199   4.195   0.097   0.475
 2434SOL     OW 8200   4.297   2.214   5.856
 2434SOL    HW1 8201   4.205   2.175   5.852
 2434SOL    HW2 8202   4.356   2.154   5.910
 2435SOL     OW 8203   5.861   5.501   4.994
 2435SOL    HW1 8204   5.941   5.561   4.983
 2435SOL    HW2 8205   5.863   5.460   5.085
 2436SOL     OW 8206   2.756   5.366   0.242
 2436SOL    HW1 8207   2.707   5.337   0.160
 2436SOL    HW2 8208   2.817   5.442   0.219
 2437SOL     OW 8209   6.854   0.206   5.969
 2437SOL    HW1 8210   6.847   0.106   5.969
 2437SOL    HW2 8211   6.764   0.245   5.950
 2438SOL     OW 8212   2.774   2.807   1.353
 2438SOL    HW1 8213   2.719   2.739   1.305
 2438SOL    HW2 8214   2.740   2.898   1.331
 2439SOL     OW 8215   6.048   4.519   5.317
 2439SOL    HW1 8216   5.980   4.453   5.348
 2439SOL    HW2 8217   6.026   4.550   5.225
 2440SOL     OW 8218   5.946   5.263   6.260
 2440SOL    HW1 8219   6.003   5.187   6.292
 2440SOL    HW2 8220   5.931   5.328   6.335
 2441SOL     OW 8221   5.846   2.409   1.100
 2441SOL    HW1 8222   5.795   2.324   1.091
 2441SOL    HW2 8223   5.944   2.390   1.096
 2442SOL     OW 8224   6.884   3.802   4.518
 2442SOL    HW1 8225   6.900   3.824   4.422
 2442SOL    HW2 8226   6.846   3.882   4.564
 2443SOL     OW 8227   3.249   4.894   5.950
 2443SOL    HW1 8228   3.226   4.970   5.889
 2443SOL    HW2 8229   3.282   4.817   5.896
 2444SOL     OW 8230   2.810   3.470   5.591
 2444SOL    HW1 8231   2.862   3.551   5.619
 2444SOL    HW2 8232   2.845   3.438   5.503
 2445SOL     OW 8233   0.673   0.393   1.041
 2445SOL    HW1 8234   0.612   0.421   1.116
 2445SOL    HW2 8235   0.706   0.474   0.993
 2446SOL     OW 8236   6.074   4.104   6.202
 2446SOL    HW1 8237   6.120   4.039   6.142
 2446SOL    HW2 8238   6.127   4.188   6.209
 2447SOL     OW 8239   0.559   2.269   0.012
 2447SOL    HW1 8240   0.616   2.304   6.955
 2447SOL    HW2 8241   0.537   2.173   7.012
 2448SOL     OW 8242   0.907   0.139   4.688
 2448SOL    HW1 8243   0.858   0.052   4.701
 2448SOL    HW2 8244   0.902   0.165   4.591
 2449SOL     OW 8245   0.405   2.682   4.694
 2449SOL    HW1 8246   0.345   2.614   4.653
 2449SOL    HW2 8247   0.351   2.745   4.750
 2450SOL     OW 8248   2.160   3.400   2.636
 2450SOL    HW1 8249   2.201   3.309   2.631
 2450SOL    HW2 8250   2.155   3.430   2.731
 2451SOL     OW 8251   2.817   6.526   4.205
 2451SOL    HW1 8252   2.761   6.498   4.128
 2451SOL    HW2 8253   2.804   6.624   4.222
 2452SOL     OW 8254   1.211   2.384   4.448
 2452SOL    HW1 8255   1.284   2.323   4.418
 2452SOL    HW2 8256   1.233   2.419   4.539
 2453SOL     OW 8257   6.932   3.559   1.023
 2453SOL    HW1 8258   7.004   3.620   1.058
 2453SOL    HW2 8259   6.929   3.477   1.080
 2454SOL     OW 8260   2.111   0.604   2.394
 2454SOL    HW1 8261   2.129   0.508   2.415
 2454SOL    HW2 8262   2.192   0.645   2.354
 2455SOL     OW 8263   5.243   4.292   0.500
 2455SOL    HW1 8264   5.242   4.245   0.411
 2455SOL    HW2 8265   5.277   4.230   0.570
 2456SOL     OW 8266   3.083   6.276   1.061
 2456SOL    HW1 8267   3.094   6.235   0.970
 2456SOL    HW2 8268   3.010   6.229   1.110
 2457SOL     OW 8269   5.843   6.399   1.138
 2457SOL    HW1 8270   5.840   6.496   1.112
 2457SOL    HW2 8271   5.762   6.352   1.103
 2458SOL     OW 8272   0.476   5.740   3.456
 2458SOL    HW1 8273   0.496   5.741   3.554
 2458SOL    HW2 8274   0.420   5.660   3.434
 2459SOL     OW 8275   1.398   0.850   0.604
 2459SOL    HW1 8276   1.326   0.918   0.617
 2459SOL    HW2 8277   1.380   0.771   0.664
 2460SOL     OW 8278   3.558   5.131   1.390
 2460SOL    HW1 8279   3.542   5.143   1.292
 2460SOL    HW2 8280   3.540   5.036   1.415
 2461SOL     OW 8281   5.147   0.945   3.208
 2461SOL    HW1 8282   5.165   0.865   3.151
 2461SOL    HW2 8283   5.228   1.003   3.210
 2462SOL     OW 8284   2.676   4.897   6.393
 2462SOL    HW1 8285   2.729   4.817   6.422
 2462SOL    HW2 8286   2.589   4.867   6.354
 2463SOL     OW 8287   0.276   1.733   4.599
 2463SOL    HW1 8288   0.189   1.686   4.613
 2463SOL    HW2 8289   0.351   1.668   4.612
 2464SOL     OW 8290   1.057   3.454   1.268
 2464SOL    HW1 8291   1.101   3.407   1.344
 2464SOL    HW2 8292   0.978   3.506   1.303
 2465SOL     OW 8293   6.090   4.893   3.226
 2465SOL    HW1 8294   5.992   4.897   3.245
 2465SOL    HW2 8295   6.142   4.917   3.308
 2466SOL     OW 8296   3.365   1.684   1.968
 2466SOL    HW1 8297   3.446   1.739   1.987
 2466SOL    HW2 8298   3.392   1.592   1.940
 2467SOL     OW 8299   6.606   1.370   5.755
 2467SOL    HW1 8300   6.641   1.306   5.686
 2467SOL    HW2 8301   6.606   1.463   5.718
 2468SOL     OW 8302   0.193   3.923   0.289
 2468SOL    HW1 8303   0.112   3.876   0.324
 2468SOL    HW2 8304   0.217   3.999   0.350
 2469SOL     OW 8305   3.183   3.454   5.330
 2469SOL    HW1 8306   3.250   3.468   5.403
 2469SOL    HW2 8307   3.228   3.457   5.241
 2470SOL     OW 8308   5.571   2.652   0.350
 2470SOL    HW1 8309   5.572   2.734   0.292
 2470SOL    HW2 8310   5.476   2.629   0.373
 2471SOL     OW 8311   0.142   0.321   3.562
 2471SOL    HW1 8312   0.069   0.305   3.628
 2471SOL    HW2 8313   0.123   0.270   3.478
 2472SOL     OW 8314   5.333   1.320   3.433
 2472SOL    HW1 8315   5.352   1.417   3.419
 2472SOL    HW2 8316   5.397   1.282   3.500
 2473SOL     OW 8317   0.380   0.169   5.561
 2473SOL    HW1 8318   0.475   0.137   5.553
 2473SOL    HW2 8319   0.374   0.235   5.637
 2474SOL     OW 8320   6.088   5.726   5.028
 2474SOL    HW1 8321   6.066   5.777   4.945
 2474SOL    HW2 8322   6.163   5.662   5.009
 2475SOL     OW 8323   4.631   2.378   6.392
 2475SOL    HW1 8324   4.695   2.326   6.335
 2475SOL    HW2 8325   4.547   2.395   6.340
 2476SOL     OW 8326   0.709   1.794   3.545
 2476SOL    HW1 8327   0.751   1.785   3.455
 2476SOL    HW2 8328   0.729   1.885   3.582
 2477SOL     OW 8329   4.602   5.008   2.661
 2477SOL    HW1 8330   4.573   4.925   2.710
 2477SOL    HW2 8331   4.533   5.079   2.673
 2478SOL     OW 8332   6.540   6.901   3.518
 2478SOL    HW1 8333   6.506   6.807   3.526
 2478SOL    HW2 8334   6.565   6.935   3.608
 2479SOL     OW 8335   0.684   2.699   0.021
 2479SOL    HW1 8336   0.627   2.753   6.974
 2479SOL    HW2 8337   0.707   2.755   0.100
 2480SOL     OW 8338   0.859   4.625   2.066
 2480SOL    HW1 8339   0.888   4.621   1.970
 2480SOL    HW2 8340   0.771   4.673   2.072
 2481SOL     OW 8341   3.908   4.826   2.573
 2481SOL    HW1 8342   3.819   4.855   2.537
 2481SOL    HW2 8343   3.962   4.907   2.598
 2482SOL     OW 8344   4.639   2.368   3.869
 2482SOL    HW1 8345   4.652   2.465   3.889
 2482SOL    HW2 8346   4.659   2.314   3.951
 2483SOL     OW 8347   0.776   2.834   6.634
 2483SOL    HW1 8348   0.680   2.820   6.658
 2483SOL    HW2 8349   0.791   2.930   6.611
 2484SOL     OW 8350   3.717   3.073   6.202
 2484SOL    HW1 8351   3.769   2.992   6.175
 2484SOL    HW2 8352   3.731   3.146   6.135
 2485SOL     OW 8353   1.075   5.844   1.227
 2485SOL    HW1 8354   1.001   5.818   1.288
 2485SOL    HW2 8355   1.152   5.780   1.239
 2486SOL     OW 8356   0.750   5.270   3.049
 2486SOL    HW1 8357   0.719   5.253   2.955
 2486SOL    HW2 8358   0.692   5.221   3.113
 2487SOL     OW 8359   3.135   1.101   1.088
 2487SOL    HW1 8360   3.201   1.105   1.013
 2487SOL    HW2 8361   3.146   1.182   1.146
 2488SOL     OW 8362   3.179   6.525   6.554
 2488SOL    HW1 8363   3.270   6.540   6.516
 2488SOL    HW2 8364   3.167   6.428   6.572
 2489SOL     OW 8365   6.478   6.097   4.712
 2489SOL    HW1 8366   6.409   6.154   4.669
 2489SOL    HW2 8367   6.454   6.000   4.701
 2490SOL     OW 8368   5.364   3.372   1.792
 2490SOL    HW1 8369   5.328   3.465   1.802
 2490SOL    HW2 8370   5.421   3.367   1.710
 2491SOL     OW 8371   7.012   4.346   2.824
 2491SOL    HW1 8372   6.931   4.357   2.881
 2491SOL    HW2 8373   0.029   4.253   2.833
 2492SOL     OW 8374   4.253   1.887   5.928
 2492SOL    HW1 8375   4.166   1.843   5.908
 2492SOL    HW2 8376   4.268   1.887   6.027
 2493SOL     OW 8377   6.304   1.053   4.623
 2493SOL    HW1 8378   6.400   1.080   4.631
 2493SOL    HW2 8379   6.289   1.007   4.536
 2494SOL     OW 8380   4.273   4.296   1.212
 2494SOL    HW1 8381   4.234   4.386   1.231
 2494SOL    HW2 8382   4.370   4.305   1.191
 2495SOL     OW 8383   6.539   0.850   3.573
 2495SOL    HW1 8384   6.566   0.819   3.664
 2495SOL    HW2 8385   6.609   0.912   3.537
 2496SOL     OW 8386   1.810   5.742   6.705
 2496SOL    HW1 8387   1.907   5.749   6.730
 2496SOL    HW2 8388   1.775   5.833   6.683
 2497SOL     OW 8389   5.467   0.616   0.105
 2497SOL    HW1 8390   5.397   0.614   0.177
 2497SOL    HW2 8391   5.557   0.609   0.147
 2498SOL     OW 8392   0.691   2.941   4.858
 2498SOL    HW1 8393   0.705   3.021   4.799
 2498SOL    HW2 8394   0.765   2.937   4.926
 2499SOL     OW 8395   4.985   0.396   6.907
 2499SOL    HW1 8396   5.019   0.479   6.861
 2499SOL    HW2 8397   5.052   0.323   6.896
 2500SOL     OW 8398   4.442   3.468   6.509
 2500SOL    HW1 8399   4.462   3.426   6.421
 2500SOL    HW2 8400   4.358   3.522   6.502
 2501SOL     OW 8401   6.336   5.052   0.979
 2501SOL    HW1 8402   6.362   4.985   1.048
 2501SOL    HW2 8403   6.402   5.048   0.903
 2502SOL     OW 8404   1.385   6.575   3.095
 2502SOL    HW1 8405   1.351   6.666   3.074
 2502SOL    HW2 8406   1.483   6.581   3.116
 2503SOL     OW 8407   5.059   7.012   4.456
 2503SOL    HW1 8408   5.028   6.958   4.378
 2503SOL    HW2 8409   4.995   7.000   4.532
 2504SOL     OW 8410   2.053   4.229   3.012
 2504SOL    HW1 8411   2.082   4.138   3.044
 2504SOL    HW2 8412   2.078   4.240   2.916
 2505SOL     OW 8413   5.065   4.447   4.626
 2505SOL    HW1 8414   5.029   4.402   4.707
 2505SOL    HW2 8415   4.989   4.473   4.566
 2506SOL     OW 8416   0.637   1.933   0.905
 2506SOL    HW1 8417   0.624   1.846   0.953
 2506SOL    HW2 8418   0.645   2.007   0.972
 2507SOL     OW 8419   6.600   6.303   0.889
 2507SOL    HW1 8420   6.690   6.259   0.891
 2507SOL    HW2 8421   6.568   6.316   0.983
 2508SOL     OW 8422   2.328   2.208   1.923
 2508SOL    HW1 8423   2.380   2.292   1.938
 2508SOL    HW2 8424   2.391   2.135   1.896
 2509SOL     OW 8425   5.179   0.878   3.498
 2509SOL    HW1 8426   5.142   0.794   3.539
 2509SOL    HW2 8427   5.142   0.889   3.406
 2510SOL     OW 8428   3.800   5.967   1.948
 2510SOL    HW1 8429   3.729   5.918   1.998
 2510SOL    HW2 8430   3.779   6.064   1.945
 2511SOL     OW 8431   0.789   6.726   3.634
 2511SOL    HW1 8432   0.843   6.702   3.715
 2511SOL    HW2 8433   0.817   6.816   3.601
 2512SOL     OW 8434   5.329   2.857   4.356
 2512SOL    HW1 8435   5.341   2.767   4.399
 2512SOL    HW2 8436   5.419   2.897   4.340
 2513SOL     OW 8437   0.313   4.827   1.298
 2513SOL    HW1 8438   0.277   4.847   1.207
 2513SOL    HW2 8439   0.412   4.815   1.293
 2514SOL     OW 8440   0.618   2.672   3.117
 2514SOL    HW1 8441   0.614   2.669   3.017
 2514SOL    HW2 8442   0.675   2.749   3.146
 2515SOL     OW 8443   0.837   4.825   0.094
 2515SOL    HW1 8444   0.909   4.821   0.163
 2515SOL    HW2 8445   0.877   4.852   0.006
 2516SOL     OW 8446   5.245   6.073   4.413
 2516SOL    HW1 8447   5.303   6.155   4.413
 2516SOL    HW2 8448   5.162   6.091   4.360
 2517SOL     OW 8449   2.584   5.436   0.734
 2517SOL    HW1 8450   2.593   5.425   0.635
 2517SOL    HW2 8451   2.500   5.486   0.756
 2518SOL     OW 8452   2.180   3.043   6.453
 2518SOL    HW1 8453   2.120   3.117   6.482
 2518SOL    HW2 8454   2.157   2.960   6.503
 2519SOL     OW 8455   5.228   4.047   5.288
 2519SOL    HW1 8456   5.141   4.038   5.337
 2519SOL    HW2 8457   5.236   3.971   5.223
 2520SOL     OW 8458   3.200   5.479   1.573
 2520SOL    HW1 8459   3.197   5.551   1.642
 2520SOL    HW2 8460   3.295   5.454   1.555
 2521SOL     OW 8461   5.929   6.884   6.007
 2521SOL    HW1 8462   5.844   6.839   5.978
 2521SOL    HW2 8463   6.006   6.821   5.995
 2522SOL     OW 8464   2.208   4.484   4.298
 2522SOL    HW1 8465   2.263   4.519   4.222
 2522SOL    HW2 8466   2.267   4.436   4.363
 2523SOL     OW 8467   0.498   2.689   5.592
 2523SOL    HW1 8468   0.399   2.677   5.589
 2523SOL    HW2 8469   0.527   2.705   5.687
 2524SOL     OW 8470   1.070   6.906   5.323
 2524SOL    HW1 8471   1.034   6.999   5.323
 2524SOL    HW2 8472   1.156   6.904   5.272
 2525SOL     OW 8473   1.811   4.008   2.809
 2525SOL    HW1 8474   1.792   4.083   2.746
 2525SOL    HW2 8475   1.892   3.957   2.778
 2526SOL     OW 8476   0.950   2.383   5.103
 2526SOL    HW1 8477   0.888   2.311   5.069
 2526SOL    HW2 8478   1.001   2.349   5.182
 2527SOL     OW 8479   6.605   6.948   3.800
 2527SOL    HW1 8480   6.591   0.015   3.851
 2527SOL    HW2 8481   6.529   6.885   3.818
 2528SOL     OW 8482   5.960   5.178   0.472
 2528SOL    HW1 8483   6.020   5.098   0.465
 2528SOL    HW2 8484   6.009   5.254   0.513
 2529SOL     OW 8485   5.315   3.990   4.945
 2529SOL    HW1 8486   5.232   4.040   4.968
 2529SOL    HW2 8487   5.332   3.920   5.014
 2530SOL     OW 8488   1.270   6.437   3.785
 2530SOL    HW1 8489   1.321   6.469   3.865
 2530SOL    HW2 8490   1.255   6.514   3.723
 2531SOL     OW 8491   5.049   1.234   0.293
 2531SOL    HW1 8492   5.009   1.194   0.375
 2531SOL    HW2 8493   5.045   1.167   0.218
 2532SOL     OW 8494   0.855   4.645   6.258
 2532SOL    HW1 8495   0.950   4.648   6.288
 2532SOL    HW2 8496   0.852   4.648   6.158
 2533SOL     OW 8497   5.978   6.745   5.568
 2533SOL    HW1 8498   5.884   6.725   5.596
 2533SOL    HW2 8499   6.014   6.821   5.622
 2534SOL     OW 8500   0.077   1.666   2.782
 2534SOL    HW1 8501   0.173   1.644   2.796
 2534SOL    HW2 8502   0.041   1.713   2.863
 2535SOL     OW 8503   2.056   1.311   3.015
 2535SOL    HW1 8504   1.958   1.333   3.015
 2535SOL    HW2 8505   2.082   1.280   2.923
 2536SOL     OW 8506   0.364   0.596   3.909
 2536SOL    HW1 8507   0.307   0.515   3.915
 2536SOL    HW2 8508   0.460   0.570   3.911
 2537SOL     OW 8509   3.650   5.781   2.099
 2537SOL    HW1 8510   3.668   5.685   2.119
 2537SOL    HW2 8511   3.567   5.788   2.044
 2538SOL     OW 8512   1.323   4.328   4.426
 2538SOL    HW1 8513   1.269   4.366   4.352
 2538SOL    HW2 8514   1.408   4.289   4.390
 2539SOL     OW 8515   2.585   1.146   5.585
 2539SOL    HW1 8516   2.575   1.047   5.578
 2539SOL    HW2 8517   2.672   1.174   5.543
 2540SOL     OW 8518   5.259   1.812   2.668
 2540SOL    HW1 8519   5.242   1.781   2.761
 2540SOL    HW2 8520   5.290   1.907   2.669
 2541SOL     OW 8521   0.274   0.641   6.154
 2541SOL    HW1 8522   0.337   0.624   6.230
 2541SOL    HW2 8523   0.320   0.694   6.083
 2542SOL     OW 8524   3.831   2.081   3.551
 2542SOL    HW1 8525   3.860   2.141   3.626
 2542SOL    HW2 8526   3.878   1.993   3.560
 2543SOL     OW 8527   7.009   1.755   4.245
 2543SOL    HW1 8528   0.017   1.721   4.155
 2543SOL    HW2 8529   0.066   1.813   4.280
 2544SOL     OW 8530   6.888   6.167   1.898
 2544SOL    HW1 8531   6.916   6.260   1.873
 2544SOL    HW2 8532   6.826   6.171   1.976
 2545SOL     OW 8533   6.156   1.770   0.253
 2545SOL    HW1 8534   6.243   1.809   0.283
 2545SOL    HW2 8535   6.132   1.808   0.164
 2546SOL     OW 8536   6.442   3.393   1.932
 2546SOL    HW1 8537   6.491   3.423   2.013
 2546SOL    HW2 8538   6.349   3.367   1.957
 2547SOL     OW 8539   5.610   4.250   1.185
 2547SOL    HW1 8540   5.587   4.153   1.174
 2547SOL    HW2 8541   5.527   4.301   1.210
 2548SOL     OW 8542   5.990   0.541   5.968
 2548SOL    HW1 8543   6.008   0.482   5.889
 2548SOL    HW2 8544   6.003   0.489   6.052
 2549SOL     OW 8545   2.843   4.153   0.668
 2549SOL    HW1 8546   2.776   4.080   0.677
 2549SOL    HW2 8547   2.818   4.229   0.727
 2550SOL     OW 8548   3.768   6.151   0.253
 2550SOL    HW1 8549   3.746   6.113   0.163
 2550SOL    HW2 8550   3.710   6.107   0.322
 2551SOL     OW 8551   3.815   5.033   1.131
 2551SOL    HW1 8552   3.782   4.945   1.163
 2551SOL    HW2 8553   3.833   5.028   1.032
 2552SOL     OW 8554   2.135   4.624   1.921
 2552SOL    HW1 8555   2.179   4.691   1.862
 2552SOL    HW2 8556   2.196   4.601   1.996
 2553SOL     OW 8557   4.863   1.445   0.420
 2553SOL    HW1 8558   4.841   1.515   0.353
 2553SOL    HW2 8559   4.886   1.359   0.373
 2554SOL     OW 8560   1.474   5.441   0.899
 2554SOL    HW1 8561   1.546   5.441   0.829
 2554SOL    HW2 8562   1.395   5.389   0.867
 2555SOL     OW 8563   6.320   0.241   5.145
 2555SOL    HW1 8564   6.239   0.299   5.150
 2555SOL    HW2 8565   6.294   0.150   5.111
 2556SOL     OW 8566   4.109   6.877   0.719
 2556SOL    HW1 8567   4.038   6.919   0.662
 2556SOL    HW2 8568   4.193   6.868   0.666
 2557SOL     OW 8569   2.966   0.828   0.078
 2557SOL    HW1 8570   3.034   0.876   0.022
 2557SOL    HW2 8571   2.988   0.730   0.078
 2558SOL     OW 8572   5.301   2.237   1.653
 2558SOL    HW1 8573   5.341   2.319   1.611
 2558SOL    HW2 8574   5.281   2.170   1.582
 2559SOL     OW 8575   0.314   5.210   3.219
 2559SOL    HW1 8576   0.311   5.197   3.120
 2559SOL    HW2 8577   0.346   5.302   3.240
 2560SOL     OW 8578   5.055   2.188   2.746
 2560SOL    HW1 8579   5.037   2.205   2.843
 2560SOL    HW2 8580   4.977   2.142   2.705
 2561SOL     OW 8581   3.359   7.013   4.337
 2561SOL    HW1 8582   3.369   0.038   4.246
 2561SOL    HW2 8583   3.449   6.996   4.377
 2562SOL     OW 8584   1.667   6.952   4.912
 2562SOL    HW1 8585   1.751   6.996   4.943
 2562SOL    HW2 8586   1.687   6.859   4.880
 2563SOL     OW 8587   3.429   2.581   6.606
 2563SOL    HW1 8588   3.476   2.600   6.692
 2563SOL    HW2 8589   3.331   2.596   6.616
 2564SOL     OW 8590   1.168   2.017   0.406
 2564SOL    HW1 8591   1.082   2.053   0.443
 2564SOL    HW2 8592   1.154   1.986   0.312
 2565SOL     OW 8593   0.951   0.567   0.600
 2565SOL    HW1 8594   0.927   0.471   0.617
 2565SOL    HW2 8595   1.049   0.580   0.618
 2566SOL     OW 8596   2.753   0.698   1.046
 2566SOL    HW1 8597   2.793   0.646   1.121
 2566SOL    HW2 8598   2.700   0.775   1.082
 2567SOL     OW 8599   1.348   0.659   6.426
 2567SOL    HW1 8600   1.442   0.672   6.396
 2567SOL    HW2 8601   1.293   0.738   6.400
 2568SOL     OW 8602   2.045   5.678   1.270
 2568SOL    HW1 8603   2.117   5.700   1.335
 2568SOL    HW2 8604   1.974   5.624   1.315
 2569SOL     OW 8605   1.653   0.231   0.302
 2569SOL    HW1 8606   1.751   0.248   0.300
 2569SOL    HW2 8607   1.635   0.142   0.343
 2570SOL     OW 8608   0.436   6.031   4.577
 2570SOL    HW1 8609   0.363   6.010   4.511
 2570SOL    HW2 8610   0.517   6.061   4.528
 2571SOL     OW 8611   3.283   4.019   3.717
 2571SOL    HW1 8612   3.282   4.066   3.805
 2571SOL    HW2 8613   3.201   3.962   3.708
 2572SOL     OW 8614   1.965   5.287   2.332
 2572SOL    HW1 8615   1.989   5.269   2.428
 2572SOL    HW2 8616   2.019   5.364   2.298
 2573SOL     OW 8617   0.185   1.760   3.375
 2573SOL    HW1 8618   0.104   1.809   3.409
 2573SOL    HW2 8619   0.240   1.729   3.452
 2574SOL     OW 8620   0.840   3.463   2.001
 2574SOL    HW1 8621   0.876   3.470   1.908
 2574SOL    HW2 8622   0.873   3.380   2.044
 2575SOL     OW 8623   5.069   3.443   6.482
 2575SOL    HW1 8624   5.048   3.345   6.484
 2575SOL    HW2 8625   5.009   3.488   6.416
 2576SOL     OW 8626   1.706   6.807   3.331
 2576SOL    HW1 8627   1.649   6.880   3.294
 2576SOL    HW2 8628   1.786   6.847   3.377
 2577SOL     OW 8629   1.714   5.491   1.406
 2577SOL    HW1 8630   1.620   5.474   1.438
 2577SOL    HW2 8631   1.778   5.476   1.481
 2578SOL     OW 8632   4.459   1.931   4.476
 2578SOL    HW1 8633   4.413   1.858   4.426
 2578SOL    HW2 8634   4.427   1.932   4.571
 2579SOL     OW 8635   0.056   1.272   6.477
 2579SOL    HW1 8636   0.150   1.246   6.455
 2579SOL    HW2 8637   0.045   1.279   6.576
 2580SOL     OW 8638   1.276   1.262   6.138
 2580SOL    HW1 8639   1.268   1.179   6.082
 2580SOL    HW2 8640   1.245   1.341   6.085
 2581SOL     OW 8641   6.248   6.765   5.035
 2581SOL    HW1 8642   6.322   6.727   4.980
 2581SOL    HW2 8643   6.264   6.745   5.131
 2582SOL     OW 8644   0.672   5.392   2.430
 2582SOL    HW1 8645   0.665   5.464   2.499
 2582SOL    HW2 8646   0.724   5.426   2.351
 2583SOL     OW 8647   2.284   1.126   6.686
 2583SOL    HW1 8648   2.354   1.057   6.709
 2583SOL    HW2 8649   2.213   1.084   6.629
 2584SOL     OW 8650   5.154   6.828   2.693
 2584SOL    HW1 8651   5.143   6.878   2.779
 2584SOL    HW2 8652   5.199   6.886   2.625
 2585SOL     OW 8653   4.292   1.409   1.981
 2585SOL    HW1 8654   4.220   1.478   1.991
 2585SOL    HW2 8655   4.366   1.446   1.925
 2586SOL     OW 8656   6.643   1.188   4.151
 2586SOL    HW1 8657   6.661   1.185   4.053
 2586SOL    HW2 8658   6.728   1.168   4.201
 2587SOL     OW 8659   6.819   6.058   2.839
 2587SOL    HW1 8660   6.835   6.027   2.746
 2587SOL    HW2 8661   6.784   5.982   2.894
 2588SOL     OW 8662   5.023   0.342   2.108
 2588SOL    HW1 8663   4.993   0.302   2.195
 2588SOL    HW2 8664   5.014   0.274   2.035
 2589SOL     OW 8665   5.231   6.041   0.619
 2589SOL    HW1 8666   5.330   6.053   0.627
 2589SOL    HW2 8667   5.211   5.984   0.540
 2590SOL     OW 8668   3.330   6.490   2.981
 2590SOL    HW1 8669   3.240   6.451   3.003
 2590SOL    HW2 8670   3.400   6.420   2.991
 2591SOL     OW 8671   6.141   6.813   1.293
 2591SOL    HW1 8672   6.156   6.894   1.351
 2591SOL    HW2 8673   6.047   6.814   1.259
 2592SOL     OW 8674   3.186   4.675   1.579
 2592SOL    HW1 8675   3.213   4.722   1.495
 2592SOL    HW2 8676   3.237   4.590   1.588
 2593SOL     OW 8677   3.457   0.124   2.858
 2593SOL    HW1 8678   3.415   0.062   2.792
 2593SOL    HW2 8679   3.556   0.129   2.841
 2594SOL     OW 8680   1.557   6.487   6.801
 2594SOL    HW1 8681   1.537   6.544   6.722
 2594SOL    HW2 8682   1.472   6.452   6.840
 2595SOL     OW 8683   6.484   2.998   4.135
 2595SOL    HW1 8684   6.423   3.076   4.150
 2595SOL    HW2 8685   6.429   2.915   4.125
 2596SOL     OW 8686   4.098   2.377   1.468
 2596SOL    HW1 8687   4.139   2.287   1.484
 2596SOL    HW2 8688   4.080   2.421   1.556
 2597SOL     OW 8689   2.051   2.145   6.469
 2597SOL    HW1 8690   2.093   2.054   6.473
 2597SOL    HW2 8691   2.039   2.181   6.561
 2598SOL     OW 8692   6.271   1.542   2.708
 2598SOL    HW1 8693   6.338   1.468   2.700
 2598SOL    HW2 8694   6.179   1.504   2.708
 2599SOL     OW 8695   4.443   4.720   6.373
 2599SOL    HW1 8696   4.355   4.766   6.377
 2599SOL    HW2 8697   4.507   4.774   6.318
 2600SOL     OW 8698   6.730   3.053   4.050
 2600SOL    HW1 8699   6.639   3.041   4.089
 2600SOL    HW2 8700   6.745   3.150   4.030
 2601SOL     OW 8701   3.697   3.745   5.084
 2601SOL    HW1 8702   3.690   3.826   5.142
 2601SOL    HW2 8703   3.783   3.747   5.034
 2602SOL     OW 8704   6.336   6.006   5.597
 2602SOL    HW1 8705   6.363   5.925   5.545
 2602SOL    HW2 8706   6.267   6.058   5.547
 2603SOL     OW 8707   1.986   2.503   6.999
 2603SOL    HW1 8708   2.024   2.412   6.979
 2603SOL    HW2 8709   2.060   2.571   6.996
 2604SOL     OW 8710   6.136   1.298   0.721
 2604SOL    HW1 8711   6.127   1.331   0.628
 2604SOL    HW2 8712   6.074   1.220   0.736
 2605SOL     OW 8713   5.091   3.691   3.956
 2605SOL    HW1 8714   5.017   3.634   3.992
 2605SOL    HW2 8715   5.154   3.715   4.029
 2606SOL     OW 8716   6.713   4.642   1.335
 2606SOL    HW1 8717   6.699   4.611   1.241
 2606SOL    HW2 8718   6.633   4.694   1.365
 2607SOL     OW 8719   0.921   1.760   4.611
 2607SOL    HW1 8720   0.978   1.720   4.540
 2607SOL    HW2 8721   0.977   1.777   4.692
 2608SOL     OW 8722   5.406   0.024   0.642
 2608SOL    HW1 8723   5.366   0.054   0.728
 2608SOL    HW2 8724   5.501   0.054   0.637
 2609SOL     OW 8725   0.642   2.792   3.808
 2609SOL    HW1 8726   0.662   2.887   3.831
 2609SOL    HW2 8727   0.699   2.731   3.863
 2610SOL     OW 8728   5.653   5.300   4.936
 2610SOL    HW1 8729   5.700   5.213   4.922
 2610SOL    HW2 8730   5.718   5.375   4.925
 2611SOL     OW 8731   3.228   5.550   2.219
 2611SOL    HW1 8732   3.322   5.573   2.242
 2611SOL    HW2 8733   3.189   5.623   2.162
 2612SOL     OW 8734   6.531   6.935   4.894
 2612SOL    HW1 8735   6.594   6.945   4.816
 2612SOL    HW2 8736   6.585   6.928   4.978
 2613SOL     OW 8737   3.162   0.793   0.285
 2613SOL    HW1 8738   3.120   0.799   0.375
 2613SOL    HW2 8739   3.107   0.846   0.219
 2614SOL     OW 8740   6.335   6.051   6.819
 2614SOL    HW1 8741   6.294   5.986   6.883
 2614SOL    HW2 8742   6.398   6.111   6.868
 2615SOL     OW 8743   5.357   5.080   2.043
 2615SOL    HW1 8744   5.376   5.170   2.005
 2615SOL    HW2 8745   5.321   5.020   1.971
 2616SOL     OW 8746   4.079   3.763   2.313
 2616SOL    HW1 8747   4.123   3.673   2.313
 2616SOL    HW2 8748   4.075   3.798   2.407
 2617SOL     OW 8749   2.912   0.459   0.682
 2617SOL    HW1 8750   2.891   0.551   0.717
 2617SOL    HW2 8751   2.857   0.392   0.730
 2618SOL     OW 8752   0.968   0.369   0.392
 2618SOL    HW1 8753   1.047   0.338   0.340
 2618SOL    HW2 8754   0.980   0.466   0.415
 2619SOL     OW 8755   5.545   1.841   1.191
 2619SOL    HW1 8756   5.533   1.832   1.289
 2619SOL    HW2 8757   5.640   1.820   1.166
 2620SOL     OW 8758   1.270   5.252   3.890
 2620SOL    HW1 8759   1.361   5.288   3.911
 2620SOL    HW2 8760   1.250   5.175   3.950
 2621SOL     OW 8761   0.710   5.605   3.945
 2621SOL    HW1 8762   0.722   5.511   3.913
 2621SOL    HW2 8763   0.781   5.626   4.013
 2622SOL     OW 8764   2.606   3.026   5.889
 2622SOL    HW1 8765   2.546   2.946   5.886
 2622SOL    HW2 8766   2.633   3.052   5.796
 2623SOL     OW 8767   3.681   0.961   6.377
 2623SOL    HW1 8768   3.666   0.935   6.473
 2623SOL    HW2 8769   3.619   0.909   6.319
 2624SOL     OW 8770   6.806   2.261   3.825
 2624SOL    HW1 8771   6.878   2.301   3.881
 2624SOL    HW2 8772   6.717   2.278   3.868
 2625SOL     OW 8773   4.536   0.269   5.559
 2625SOL    HW1 8774   4.470   0.256   5.485
 2625SOL    HW2 8775   4.627   0.239   5.530
 2626SOL     OW 8776   2.630   0.068   2.287
 2626SOL    HW1 8777   2.665   0.025   2.370
 2626SOL    HW2 8778   2.616   7.016   2.217
 2627SOL     OW 8779   0.517   1.298   4.870
 2627SOL    HW1 8780   0.604   1.347   4.878
 2627SOL    HW2 8781   0.498   1.277   4.774
 2628SOL     OW 8782   3.786   6.005   6.133
 2628SOL    HW1 8783   3.874   6.017   6.088
 2628SOL    HW2 8784   3.751   6.094   6.162
 2629SOL     OW 8785   2.856   3.784   1.323
 2629SOL    HW1 8786   2.921   3.745   1.258
 2629SOL    HW2 8787   2.904   3.812   1.406
 2630SOL     OW 8788   2.693   2.420   2.326
 2630SOL    HW1 8789   2.723   2.460   2.239
 2630SOL    HW2 8790   2.612   2.468   2.359
 2631SOL     OW 8791   4.520   6.659   4.839
 2631SOL    HW1 8792   4.519   6.589   4.911
 2631SOL    HW2 8793   4.572   6.626   4.761
 2632SOL     OW 8794   5.754   1.477   1.155
 2632SOL    HW1 8795   5.828   1.413   1.137
 2632SOL    HW2 8796   5.738   1.481   1.254
 2633SOL     OW 8797   6.932   2.586   6.102
 2633SOL    HW1 8798   6.883   2.506   6.136
 2633SOL    HW2 8799   6.990   2.623   6.175
 2634SOL     OW 8800   3.089   5.035   1.153
 2634SOL    HW1 8801   3.034   5.096   1.096
 2634SOL    HW2 8802   3.120   4.957   1.098
 2635SOL     OW 8803   5.888   4.406   3.528
 2635SOL    HW1 8804   5.970   4.431   3.475
 2635SOL    HW2 8805   5.887   4.457   3.614
 2636SOL     OW 8806   5.733   0.266   4.717
 2636SOL    HW1 8807   5.681   0.350   4.704
 2636SOL    HW2 8808   5.756   0.255   4.813
 2637SOL     OW 8809   4.869   6.392   2.710
 2637SOL    HW1 8810   4.947   6.448   2.684
 2637SOL    HW2 8811   4.900   6.318   2.769
 2638SOL     OW 8812   5.450   5.710   0.571
 2638SOL    HW1 8813   5.404   5.622   0.557
 2638SOL    HW2 8814   5.526   5.697   0.635
 2639SOL     OW 8815   6.659   6.468   0.074
 2639SOL    HW1 8816   6.715   6.525   0.013
 2639SOL    HW2 8817   6.570   6.452   0.032
 2640SOL     OW 8818   5.968   0.055   6.383
 2640SOL    HW1 8819   5.908   0.132   6.402
 2640SOL    HW2 8820   5.925   7.011   6.316
 2641SOL     OW 8821   5.520   5.142   0.412
 2641SOL    HW1 8822   5.590   5.102   0.471
 2641SOL    HW2 8823   5.440   5.083   0.409
 2642SOL     OW 8824   6.497   0.370   3.494
 2642SOL    HW1 8825   6.506   0.439   3.422
 2642SOL    HW2 8826   6.416   0.314   3.477
 2643SOL     OW 8827   1.073   0.902   1.868
 2643SOL    HW1 8828   1.028   0.869   1.785
 2643SOL    HW2 8829   1.170   0.881   1.864
 2644SOL     OW 8830   0.139   5.737   5.984
 2644SOL    HW1 8831   0.157   5.790   6.067
 2644SOL    HW2 8832   0.120   5.642   6.007
 2645SOL     OW 8833   5.910   5.255   5.849
 2645SOL    HW1 8834   5.859   5.237   5.933
 2645SOL    HW2 8835   6.008   5.243   5.865
 2646SOL     OW 8836   6.496   6.205   6.950
 2646SOL    HW1 8837   6.477   6.301   6.969
 2646SOL    HW2 8838   6.562   6.198   6.875
 2647SOL     OW 8839   3.384   3.080   0.399
 2647SOL    HW1 8840   3.484   3.086   0.393
 2647SOL    HW2 8841   3.352   3.128   0.480
 2648SOL     OW 8842   3.778   0.840   3.030
 2648SOL    HW1 8843   3.819   0.839   3.121
 2648SOL    HW2 8844   3.823   0.909   2.973
 2649SOL     OW 8845   3.455   2.709   5.306
 2649SOL    HW1 8846   3.543   2.682   5.346
 2649SOL    HW2 8847   3.403   2.627   5.280
 2650SOL     OW 8848   0.138   6.718   2.296
 2650SOL    HW1 8849   0.193   6.647   2.252
 2650SOL    HW2 8850   0.113   6.688   2.388
 2651SOL     OW 8851   0.779   0.119   3.791
 2651SOL    HW1 8852   0.837   0.185   3.742
 2651SOL    HW2 8853   0.702   0.093   3.733
 2652SOL     OW 8854   3.253   3.198   2.738
 2652SOL    HW1 8855   3.191   3.131   2.699
 2652SOL    HW2 8856   3.317   3.229   2.667
 2653SOL     OW 8857   6.192   5.284   0.143
 2653SOL    HW1 8858   6.282   5.286   0.100
 2653SOL    HW2 8859   6.145   5.200   0.119
 2654SOL     OW 8860   5.467   1.678   6.302
 2654SOL    HW1 8861   5.419   1.696   6.388
 2654SOL    HW2 8862   5.548   1.736   6.296
 2655SOL     OW 8863   4.768   5.306   5.196
 2655SOL    HW1 8864   4.757   5.406   5.200
 2655SOL    HW2 8865   4.681   5.263   5.221
 2656SOL     OW 8866   5.163   3.562   4.333
 2656SOL    HW1 8867   5.193   3.618   4.256
 2656SOL    HW2 8868   5.081   3.510   4.307
 2657SOL     OW 8869   2.470   2.366   5.456
 2657SOL    HW1 8870   2.389   2.355   5.399
 2657SOL    HW2 8871   2.442   2.370   5.552
 2658SOL     OW 8872   5.754   4.387   5.740
 2658SOL    HW1 8873   5.705   4.469   5.709
 2658SOL    HW2 8874   5.796   4.404   5.829
 2659SOL     OW 8875   6.667   1.574   3.052
 2659SOL    HW1 8876   6.581   1.602   3.010
 2659SOL    HW2 8877   6.740   1.638   3.025
 2660SOL     OW 8878   6.432   1.969   2.622
 2660SOL    HW1 8879   6.400   2.040   2.684
 2660SOL    HW2 8880   6.355   1.936   2.567
 2661SOL     OW 8881   3.926   6.630   1.860
 2661SOL    HW1 8882   3.960   6.671   1.775
 2661SOL    HW2 8883   3.830   6.654   1.873
 2662SOL     OW 8884   3.921   6.905   3.667
 2662SOL    HW1 8885   3.972   6.828   3.706
 2662SOL    HW2 8886   3.843   6.869   3.614
 2663SOL     OW 8887   1.000   4.411   3.066
 2663SOL    HW1 8888   0.933   4.405   3.140
 2663SOL    HW2 8889   0.969   4.478   2.999
 2664SOL     OW 8890   4.090   3.771   1.924
 2664SOL    HW1 8891   4.102   3.844   1.856
 2664SOL    HW2 8892   4.050   3.810   2.007
 2665SOL     OW 8893   4.612   0.921   4.516
 2665SOL    HW1 8894   4.650   1.007   4.551
 2665SOL    HW2 8895   4.592   0.860   4.593
 2666SOL     OW 8896   5.058   6.099   1.825
 2666SOL    HW1 8897   4.963   6.096   1.857
 2666SOL    HW2 8898   5.060   6.130   1.730
 2667SOL     OW 8899   1.496   5.028   3.685
 2667SOL    HW1 8900   1.524   4.943   3.731
 2667SOL    HW2 8901   1.531   5.027   3.591
 2668SOL     OW 8902   6.069   2.427   5.551
 2668SOL    HW1 8903   6.039   2.513   5.510
 2668SOL    HW2 8904   6.024   2.415   5.640
 2669SOL     OW 8905   3.958   5.465   5.818
 2669SOL    HW1 8906   3.962   5.423   5.727
 2669SOL    HW2 8907   3.882   5.426   5.869
 2670SOL     OW 8908   1.809   0.120   5.882
 2670SOL    HW1 8909   1.866   0.199   5.858
 2670SOL    HW2 8910   1.715   0.136   5.852
 2671SOL     OW 8911   3.391   3.871   5.800
 2671SOL    HW1 8912   3.376   3.907   5.893
 2671SOL    HW2 8913   3.467   3.919   5.758
 2672SOL     OW 8914   1.013   4.026   0.626
 2672SOL    HW1 8915   1.007   4.002   0.723
 2672SOL    HW2 8916   1.095   4.081   0.611
 2673SOL     OW 8917   4.395   2.170   3.828
 2673SOL    HW1 8918   4.452   2.251   3.842
 2673SOL    HW2 8919   4.393   2.146   3.731
 2674SOL     OW 8920   5.834   5.496   5.473
 2674SOL    HW1 8921   5.861   5.402   5.493
 2674SOL    HW2 8922   5.915   5.548   5.443
 2675SOL     OW 8923   0.203   3.465   5.108
 2675SOL    HW1 8924   0.276   3.403   5.136
 2675SOL    HW2 8925   0.166   3.434   5.020
 2676SOL     OW 8926   4.157   0.409   2.230
 2676SOL    HW1 8927   4.226   0.439   2.297
 2676SOL    HW2 8928   4.131   0.486   2.172
 2677SOL     OW 8929   2.716   4.769   2.407
 2677SOL    HW1 8930   2.650   4.695   2.391
 2677SOL    HW2 8931   2.791   4.761   2.341
 2678SOL     OW 8932   0.317   6.385   6.444
 2678SOL    HW1 8933   0.251   6.312   6.462
 2678SOL    HW2 8934   0.363   6.410   6.529
 2679SOL     OW 8935   2.882   4.680   1.330
 2679SOL    HW1 8936   2.847   4.697   1.422
 2679SOL    HW2 8937   2.891   4.767   1.281
 2680SOL     OW 8938   1.284   2.011   1.879
 2680SOL    HW1 8939   1.223   1.974   1.810
 2680SOL    HW2 8940   1.355   1.943   1.900
 2681SOL     OW 8941   1.375   1.232   2.722
 2681SOL    HW1 8942   1.406   1.141   2.696
 2681SOL    HW2 8943   1.303   1.262   2.660
 2682SOL     OW 8944   6.742   2.453   3.109
 2682SOL    HW1 8945   6.659   2.405   3.079
 2682SOL    HW2 8946   6.726   2.493   3.200
 2683SOL     OW 8947   1.332   6.993   1.862
 2683SOL    HW1 8948   1.399   0.014   1.926
 2683SOL    HW2 8949   1.239   7.014   1.895
 2684SOL     OW 8950   2.773   6.015   3.063
 2684SOL    HW1 8951   2.872   6.008   3.078
 2684SOL    HW2 8952   2.734   6.079   3.128
 2685SOL     OW 8953   5.978   5.991   5.016
 2685SOL    HW1 8954   5.966   5.930   5.094
 2685SOL    HW2 8955   5.919   5.962   4.941
 2686SOL     OW 8956   1.176   2.996   4.484
 2686SOL    HW1 8957   1.249   3.064   4.484
 2686SOL    HW2 8958   1.099   3.029   4.430
 2687SOL     OW 8959   4.980   4.688   3.141
 2687SOL    HW1 8960   4.923   4.766   3.114
 2687SOL    HW2 8961   5.066   4.690   3.089
 2688SOL     OW 8962   3.515   5.266   5.872
 2688SOL    HW1 8963   3.589   5.228   5.927
 2688SOL    HW2 8964   3.505   5.213   5.788
 2689SOL     OW 8965   0.159   2.860   4.205
 2689SOL    HW1 8966   0.171   2.822   4.296
 2689SOL    HW2 8967   0.248   2.875   4.163
 2690SOL     OW 8968   2.883   3.421   3.035
 2690SOL    HW1 8969   2.847   3.475   3.110
 2690SOL    HW2 8970   2.912   3.332   3.070
 2691SOL     OW 8971   1.356   5.881   1.434
 2691SOL    HW1 8972   1.266   5.918   1.456
 2691SOL    HW2 8973   1.396   5.840   1.516
 2692SOL     OW 8974   6.789   5.318   3.401
 2692SOL    HW1 8975   6.870   5.346   3.349
 2692SOL    HW2 8976   6.756   5.230   3.367
 2693SOL     OW 8977   1.911   3.722   3.680
 2693SOL    HW1 8978   1.992   3.684   3.635
 2693SOL    HW2 8979   1.856   3.648   3.718
 2694SOL     OW 8980   2.388   0.467   2.672
 2694SOL    HW1 8981   2.376   0.560   2.706
 2694SOL    HW2 8982   2.300   0.432   2.640
 2695SOL     OW 8983   4.048   2.201   2.994
 2695SOL    HW1 8984   4.000   2.278   2.952
 2695SOL    HW2 8985   4.057   2.127   2.928
 2696SOL     OW 8986   4.164   3.571   4.906
 2696SOL    HW1 8987   4.125   3.483   4.932
 2696SOL    HW2 8988   4.228   3.558   4.830
 2697SOL     OW 8989   2.385   2.286   4.214
 2697SOL    HW1 8990   2.313   2.217   4.202
 2697SOL    HW2 8991   2.363   2.343   4.294
 2698SOL     OW 8992   2.055   3.427   6.730
 2698SOL    HW1 8993   2.151   3.414   6.708
 2698SOL    HW2 8994   2.001   3.352   6.691
 2699SOL     OW 8995   3.425   5.859   1.991
 2699SOL    HW1 8996   3.449   5.915   1.912
 2699SOL    HW2 8997   3.383   5.917   2.061
 2700SOL     OW 8998   1.118   3.432   3.001
 2700SOL    HW1 8999   1.201   3.376   2.998
 2700SOL    HW2 9000   1.067   3.411   3.084
 2701SOL     OW 9001   3.196   0.183   5.921
 2701SOL    HW1 9002   3.239   0.097   5.892
 2701SOL    HW2 9003   3.105   0.189   5.881
 2702SOL     OW 9004   6.883   0.263   2.882
 2702SOL    HW1 9005   6.830   0.347   2.869
 2702SOL    HW2 9006   6.943   0.249   2.804
 2703SOL     OW 9007   1.401   1.473   3.341
 2703SOL    HW1 9008   1.382   1.421   3.424
 2703SOL    HW2 9009   1.490   1.519   3.349
 2704SOL     OW 9010   1.556   5.898   0.461
 2704SOL    HW1 9011   1.637   5.855   0.501
 2704SOL    HW2 9012   1.509   5.953   0.531
 2705SOL     OW 9013   0.432   4.284   2.324
 2705SOL    HW1 9014   0.483   4.219   2.380
 2705SOL    HW2 9015   0.495   4.352   2.287
 2706SOL     OW 9016   6.781   1.930   1.933
 2706SOL    HW1 9017   6.687   1.962   1.949
 2706SOL    HW2 9018   6.807   1.949   1.838
 2707SOL     OW 9019   2.406   1.632   6.083
 2707SOL    HW1 9020   2.323   1.679   6.113
 2707SOL    HW2 9021   2.381   1.549   6.032
 2708SOL     OW 9022   2.011   3.348   0.951
 2708SOL    HW1 9023   2.068   3.355   1.032
 2708SOL    HW2 9024   2.009   3.253   0.920
 2709SOL     OW 9025   4.288   6.769   1.862
 2709SOL    HW1 9026   4.309   6.691   1.803
 2709SOL    HW2 9027   4.241   6.736   1.944
 2710SOL     OW 9028   6.191   4.107   2.435
 2710SOL    HW1 9029   6.186   4.018   2.390
 2710SOL    HW2 9030   6.132   4.172   2.387
 2711SOL     OW 9031   1.321   6.598   1.893
 2711SOL    HW1 9032   1.263   6.668   1.936
 2711SOL    HW2 9033   1.281   6.569   1.807
 2712SOL     OW 9034   3.177   5.294   1.247
 2712SOL    HW1 9035   3.156   5.208   1.200
 2712SOL    HW2 9036   3.222   5.274   1.334
 2713SOL     OW 9037   2.028   2.849   4.811
 2713SOL    HW1 9038   2.013   2.770   4.752
 2713SOL    HW2 9039   1.941   2.889   4.838
 2714SOL     OW 9040   5.292   6.722   5.395
 2714SOL    HW1 9041   5.206   6.699   5.348
 2714SOL    HW2 9042   5.288   6.688   5.489
 2715SOL     OW 9043   6.689   0.555   0.012
 2715SOL    HW1 9044   6.690   0.457   0.028
 2715SOL    HW2 9045   6.690   0.573   6.931
 2716SOL     OW 9046   0.554   6.551   2.921
 2716SOL    HW1 9047   0.485   6.621   2.906
 2716SOL    HW2 9048   0.535   6.472   2.862
 2717SOL     OW 9049   1.325   0.693   2.948
 2717SOL    HW1 9050   1.387   0.664   3.021
 2717SOL    HW2 9051   1.334   0.791   2.934
 2718SOL     OW 9052   1.212   4.524   3.180
 2718SOL    HW1 9053   1.228   4.473   3.264
 2718SOL    HW2 9054   1.129   4.492   3.136
 2719SOL     OW 9055   4.109   4.740   2.766
 2719SOL    HW1 9056   4.045   4.708   2.696
 2719SOL    HW2 9057   4.067   4.728   2.856
 2720SOL     OW 9058   0.421   5.815   4.105
 2720SOL    HW1 9059   0.406   5.720   4.078
 2720SOL    HW2 9060   0.490   5.856   4.046
 2721SOL     OW 9061   4.912   6.896   4.936
 2721SOL    HW1 9062   4.995   6.869   4.985
 2721SOL    HW2 9063   4.863   6.965   4.988
 2722SOL     OW 9064   1.533   5.647   1.190
 2722SOL    HW1 9065   1.452   5.683   1.236
 2722SOL    HW2 9066   1.609   5.711   1.201
 2723SOL     OW 9067   1.471   1.310   5.389
 2723SOL    HW1 9068   1.561   1.339   5.424
 2723SOL    HW2 9069   1.407   1.303   5.465
 2724SOL     OW 9070   3.170   5.548   6.427
 2724SOL    HW1 9071   3.113   5.479   6.471
 2724SOL    HW2 9072   3.162   5.540   6.327
 2725SOL     OW 9073   3.086   4.902   3.392
 2725SOL    HW1 9074   3.042   4.848   3.463
 2725SOL    HW2 9075   3.065   4.862   3.302
 2726SOL     OW 9076   4.790   6.068   2.335
 2726SOL    HW1 9077   4.881   6.026   2.331
 2726SOL    HW2 9078   4.799   6.161   2.370
 2727SOL     OW 9079   1.982   5.299   3.298
 2727SOL    HW1 9080   2.058   5.259   3.247
 2727SOL    HW2 9081   2.009   5.388   3.334
 2728SOL     OW 9082   3.776   0.273   5.490
 2728SOL    HW1 9083   3.686   0.273   5.446
 2728SOL    HW2 9084   3.845   0.242   5.425
 2729SOL     OW 9085   6.561   5.029   2.506
 2729SOL    HW1 9086   6.655   5.006   2.530
 2729SOL    HW2 9087   6.541   4.999   2.413
 2730SOL     OW 9088   1.280   4.212   1.025
 2730SOL    HW1 9089   1.223   4.266   1.087
 2730SOL    HW2 9090   1.372   4.250   1.023
 2731SOL     OW 9091   2.892   3.706   1.701
 2731SOL    HW1 9092   2.922   3.669   1.613
 2731SOL    HW2 9093   2.945   3.664   1.775
 2732SOL     OW 9094   5.450   2.465   3.748
 2732SOL    HW1 9095   5.460   2.415   3.662
 2732SOL    HW2 9096   5.475   2.405   3.824
 2733SOL     OW 9097   1.726   0.900   5.589
 2733SOL    HW1 9098   1.726   0.963   5.511
 2733SOL    HW2 9099   1.635   0.898   5.630
 2734SOL     OW 9100   2.438   6.165   3.747
 2734SOL    HW1 9101   2.391   6.244   3.786
 2734SOL    HW2 9102   2.537   6.180   3.749
 2735SOL     OW 9103   2.170   4.948   1.566
 2735SOL    HW1 9104   2.255   4.963   1.617
 2735SOL    HW2 9105   2.159   4.851   1.547
 2736SOL     OW 9106   3.407   6.823   6.599
 2736SOL    HW1 9107   3.353   6.891   6.549
 2736SOL    HW2 9108   3.494   6.864   6.626
 2737SOL     OW 9109   4.181   3.696   5.441
 2737SOL    HW1 9110   4.217   3.652   5.358
 2737SOL    HW2 9111   4.099   3.648   5.471
 2738SOL     OW 9112   6.357   4.409   4.101
 2738SOL    HW1 9113   6.401   4.483   4.049
 2738SOL    HW2 9114   6.258   4.415   4.089
 2739SOL     OW 9115   5.580   3.574   0.911
 2739SOL    HW1 9116   5.633   3.582   0.996
 2739SOL    HW2 9117   5.616   3.498   0.857
 2740SOL     OW 9118   6.894   2.954   3.016
 2740SOL    HW1 9119   6.922   2.863   3.046
 2740SOL    HW2 9120   6.805   2.948   2.971
 2741SOL     OW 9121   1.161   2.333   5.800
 2741SOL    HW1 9122   1.252   2.354   5.764
 2741SOL    HW2 9123   1.094   2.339   5.726
 2742SOL     OW 9124   2.410   6.378   5.694
 2742SOL    HW1 9125   2.369   6.292   5.662
 2742SOL    HW2 9126   2.509   6.366   5.700
 2743SOL     OW 9127   5.919   4.711   0.884
 2743SOL    HW1 9128   5.844   4.755   0.933
 2743SOL    HW2 9129   5.917   4.613   0.901
 2744SOL     OW 9130   4.223   0.354   6.904
 2744SOL    HW1 9131   4.154   0.389   6.967
 2744SOL    HW2 9132   4.178   0.312   6.826
 2745SOL     OW 9133   2.437   5.938   1.195
 2745SOL    HW1 9134   2.480   5.891   1.272
 2745SOL    HW2 9135   2.342   5.958   1.217
 2746SOL     OW 9136   1.195   2.576   6.210
 2746SOL    HW1 9137   1.260   2.524   6.266
 2746SOL    HW2 9138   1.228   2.581   6.116
 2747SOL     OW 9139   5.385   5.510   3.920
 2747SOL    HW1 9140   5.354   5.415   3.909
 2747SOL    HW2 9141   5.330   5.570   3.862
 2748SOL     OW 9142   3.983   1.224   4.499
 2748SOL    HW1 9143   3.993   1.136   4.545
 2748SOL    HW2 9144   3.966   1.296   4.567
 2749SOL     OW 9145   5.016   4.513   3.631
 2749SOL    HW1 9146   4.977   4.523   3.539
 2749SOL    HW2 9147   5.072   4.593   3.652
 2750SOL     OW 9148   0.060   6.084   1.584
 2750SOL    HW1 9149   0.016   6.032   1.658
 2750SOL    HW2 9150   0.102   6.166   1.622
 2751SOL     OW 9151   1.475   7.016   0.733
 2751SOL    HW1 9152   1.516   0.089   0.716
 2751SOL    HW2 9153   1.529   6.946   0.686
 2752SOL     OW 9154   6.560   6.333   5.818
 2752SOL    HW1 9155   6.476   6.373   5.782
 2752SOL    HW2 9156   6.609   6.287   5.745
 2753SOL     OW 9157   2.708   5.707   5.006
 2753SOL    HW1 9158   2.799   5.695   4.966
 2753SOL    HW2 9159   2.711   5.682   5.103
 2754SOL     OW 9160   0.979   6.012   4.152
 2754SOL    HW1 9161   1.072   5.976   4.160
 2754SOL    HW2 9162   0.913   5.938   4.160
 2755SOL     OW 9163   3.773   5.973   2.272
 2755SOL    HW1 9164   3.732   5.902   2.215
 2755SOL    HW2 9165   3.870   5.983   2.250
 2756SOL     OW 9166   0.011   3.654   5.455
 2756SOL    HW1 9167   0.106   3.662   5.425
 2756SOL    HW2 9168   6.969   3.703   5.390
 2757SOL     OW 9169   4.730   3.558   6.766
 2757SOL    HW1 9170   4.705   3.570   6.671
 2757SOL    HW2 9171   4.648   3.543   6.821
 2758SOL     OW 9172   0.020   6.789   2.025
 2758SOL    HW1 9173   7.016   6.756   2.117
 2758SOL    HW2 9174   6.968   6.754   1.960
 2759SOL     OW 9175   3.716   3.497   5.242
 2759SOL    HW1 9176   3.689   3.579   5.192
 2759SOL    HW2 9177   3.755   3.523   5.330
 2760SOL     OW 9178   5.847   6.129   2.729
 2760SOL    HW1 9179   5.754   6.094   2.724
 2760SOL    HW2 9180   5.906   6.075   2.669
 2761SOL     OW 9181   1.496   3.274   3.301
 2761SOL    HW1 9182   1.541   3.316   3.222
 2761SOL    HW2 9183   1.556   3.205   3.341
 2762SOL     OW 9184   3.299   1.992   0.714
 2762SOL    HW1 9185   3.364   2.013   0.641
 2762SOL    HW2 9186   3.292   2.070   0.776
 2763SOL     OW 9187   6.397   1.618   4.247
 2763SOL    HW1 9188   6.488   1.660   4.254
 2763SOL    HW2 9189   6.408   1.520   4.228
 2764SOL     OW 9190   0.084   3.276   3.040
 2764SOL    HW1 9191   0.168   3.330   3.052
 2764SOL    HW2 9192   0.052   3.244   3.129
 2765SOL     OW 9193   5.561   6.690   6.362
 2765SOL    HW1 9194   5.505   6.747   6.302
 2765SOL    HW2 9195   5.639   6.744   6.395
 2766SOL     OW 9196   4.320   6.838   0.156
 2766SOL    HW1 9197   4.256   6.761   0.153
 2766SOL    HW2 9198   4.375   6.833   0.239
 2767SOL     OW 9199   0.597   5.428   6.610
 2767SOL    HW1 9200   0.555   5.409   6.521
 2767SOL    HW2 9201   0.692   5.456   6.597
 2768SOL     OW 9202   4.182   0.214   1.835
 2768SOL    HW1 9203   4.113   0.143   1.820
 2768SOL    HW2 9204   4.254   0.177   1.894
 2769SOL     OW 9205   0.675   4.978   5.464
 2769SOL    HW1 9206   0.627   4.938   5.542
 2769SOL    HW2 9207   0.766   4.935   5.456
 2770SOL     OW 9208   2.401   6.360   0.356
 2770SOL    HW1 9209   2.372   6.316   0.441
 2770SOL    HW2 9210   2.492   6.328   0.331
 2771SOL     OW 9211   4.421   0.251   5.291
 2771SOL    HW1 9212   4.365   0.308   5.352
 2771SOL    HW2 9213   4.363   0.182   5.248
 2772SOL     OW 9214   4.852   1.063   3.634
 2772SOL    HW1 9215   4.861   0.964   3.639
 2772SOL    HW2 9216   4.758   1.086   3.608
 2773SOL     OW 9217   5.839   2.117   4.808
 2773SOL    HW1 9218   5.889   2.201   4.832
 2773SOL    HW2 9219   5.823   2.114   4.710
 2774SOL     OW 9220   5.876   1.669   4.228
 2774SOL    HW1 9221   5.845   1.604   4.298
 2774SOL    HW2 9222   5.865   1.627   4.138
 2775SOL     OW 9223   6.950   3.521   4.025
 2775SOL    HW1 9224   6.934   3.581   4.103
 2775SOL    HW2 9225   6.984   3.574   3.948
 2776SOL     OW 9226   4.983   4.751   6.048
 2776SOL    HW1 9227   5.053   4.742   6.119
 2776SOL    HW2 9228   4.922   4.672   6.053
 2777SOL     OW 9229   2.197   2.355   6.808
 2777SOL    HW1 9230   2.198   2.439   6.753
 2777SOL    HW2 9231   2.124   2.295   6.775
 2778SOL     OW 9232   2.518   0.885   6.238
 2778SOL    HW1 9233   2.569   0.906   6.155
 2778SOL    HW2 9234   2.539   0.792   6.268
 2779SOL     OW 9235   4.976   1.047   1.535
 2779SOL    HW1 9236   4.995   0.957   1.574
 2779SOL    HW2 9237   4.899   1.040   1.471
 2780SOL     OW 9238   0.089   1.392   5.096
 2780SOL    HW1 9239   0.175   1.340   5.097
 2780SOL    HW2 9240   0.106   1.483   5.060
 2781SOL     OW 9241   5.776   0.843   3.373
 2781SOL    HW1 9242   5.841   0.782   3.325
 2781SOL    HW2 9243   5.754   0.804   3.462
 2782SOL     OW 9244   5.376   0.795   6.031
 2782SOL    HW1 9245   5.466   0.789   6.074
 2782SOL    HW2 9246   5.305   0.799   6.101
 2783SOL     OW 9247   5.791   3.661   1.805
 2783SOL    HW1 9248   5.861   3.730   1.821
 2783SOL    HW2 9249   5.834   3.573   1.784
 2784SOL     OW 9250   0.485   3.082   0.844
 2784SOL    HW1 9251   0.454   3.000   0.892
 2784SOL    HW2 9252   0.413   3.152   0.849
 2785SOL     OW 9253   6.114   3.283   2.376
 2785SOL    HW1 9254   6.043   3.273   2.445
 2785SOL    HW2 9255   6.088   3.233   2.294
 2786SOL     OW 9256   1.097   6.404   6.716
 2786SOL    HW1 9257   1.048   6.453   6.645
 2786SOL    HW2 9258   1.033   6.376   6.788
 2787SOL     OW 9259   0.522   5.843   6.918
 2787SOL    HW1 9260   0.440   5.826   6.862
 2787SOL    HW2 9261   0.494   5.856   7.013
 2788SOL     OW 9262   2.529   0.132   6.452
 2788SOL    HW1 9263   2.507   0.223   6.486
 2788SOL    HW2 9264   2.599   0.091   6.511
 2789SOL     OW 9265   0.962   2.410   4.746
 2789SOL    HW1 9266   0.869   2.387   4.714
 2789SOL    HW2 9267   0.977   2.508   4.736
 2790SOL     OW 9268   0.727   5.364   1.492
 2790SOL    HW1 9269   0.811   5.317   1.465
 2790SOL    HW2 9270   0.727   5.457   1.455
 2791SOL     OW 9271   1.369   2.956   4.070
 2791SOL    HW1 9272   1.448   3.004   4.107
 2791SOL    HW2 9273   1.346   2.994   3.981
 2792SOL     OW 9274   3.857   1.704   6.072
 2792SOL    HW1 9275   3.890   1.659   6.155
 2792SOL    HW2 9276   3.789   1.773   6.096
 2793SOL     OW 9277   3.938   3.924   0.396
 2793SOL    HW1 9278   3.899   3.837   0.367
 2793SOL    HW2 9279   3.967   3.976   0.315
 2794SOL     OW 9280   1.805   2.368   0.247
 2794SOL    HW1 9281   1.790   2.454   0.198
 2794SOL    HW2 9282   1.829   2.296   0.182
 2795SOL     OW 9283   1.698   6.084   0.855
 2795SOL    HW1 9284   1.634   6.108   0.928
 2795SOL    HW2 9285   1.757   6.010   0.886
 2796SOL     OW 9286   1.969   6.300   6.672
 2796SOL    HW1 9287   1.966   6.256   6.762
 2796SOL    HW2 9288   1.875   6.319   6.641
 2797SOL     OW 9289   5.440   4.885   2.996
 2797SOL    HW1 9290   5.429   4.863   2.899
 2797SOL    HW2 9291   5.399   4.974   3.015
 2798SOL     OW 9292   5.471   0.897   1.856
 2798SOL    HW1 9293   5.501   0.980   1.903
 2798SOL    HW2 9294   5.500   0.901   1.760
 2799SOL     OW 9295   3.613   6.682   4.739
 2799SOL    HW1 9296   3.527   6.690   4.790
 2799SOL    HW2 9297   3.597   6.632   4.654
 2800SOL     OW 9298   4.737   0.502   6.331
 2800SOL    HW1 9299   4.767   0.424   6.276
 2800SOL    HW2 9300   4.775   0.494   6.423
 2801SOL     OW 9301   0.290   4.530   4.191
 2801SOL    HW1 9302   0.300   4.542   4.289
 2801SOL    HW2 9303   0.361   4.467   4.158
 2802SOL     OW 9304   1.629   5.204   4.785
 2802SOL    HW1 9305   1.719   5.246   4.773
 2802SOL    HW2 9306   1.560   5.276   4.796
 2803SOL     OW 9307   3.482   2.525   6.293
 2803SOL    HW1 9308   3.572   2.521   6.335
 2803SOL    HW2 9309   3.412   2.537   6.364
 2804SOL     OW 9310   6.916   2.714   3.311
 2804SOL    HW1 9311   6.938   2.770   3.391
 2804SOL    HW2 9312   6.817   2.707   3.302
 2805SOL     OW 9313   3.657   4.178   0.967
 2805SOL    HW1 9314   3.574   4.175   0.911
 2805SOL    HW2 9315   3.737   4.180   0.907
 2806SOL     OW 9316   0.444   3.121   5.283
 2806SOL    HW1 9317   0.391   3.147   5.365
 2806SOL    HW2 9318   0.530   3.080   5.311
 2807SOL     OW 9319   4.452   0.988   3.787
 2807SOL    HW1 9320   4.417   0.975   3.880
 2807SOL    HW2 9321   4.460   1.086   3.768
 2808SOL     OW 9322   0.765   5.431   5.746
 2808SOL    HW1 9323   0.811   5.445   5.658
 2808SOL    HW2 9324   0.777   5.513   5.802
 2809SOL     OW 9325   0.077   5.762   2.040
 2809SOL    HW1 9326   0.128   5.785   2.123
 2809SOL    HW2 9327   0.137   5.717   1.974
 2810SOL     OW 9328   1.559   6.837   2.963
 2810SOL    HW1 9329   1.595   6.773   3.031
 2810SOL    HW2 9330   1.634   6.870   2.905
 2811SOL     OW 9331   1.301   1.253   0.830
 2811SOL    HW1 9332   1.287   1.253   0.929
 2811SOL    HW2 9333   1.392   1.215   0.810
 2812SOL     OW 9334   1.321   2.238   0.417
 2812SOL    HW1 9335   1.404   2.223   0.363
 2812SOL    HW2 9336   1.274   2.151   0.432
 2813SOL     OW 9337   0.656   3.446   1.719
 2813SOL    HW1 9338   0.657   3.537   1.678
 2813SOL    HW2 9339   0.722   3.387   1.672
 2814SOL     OW 9340   2.519   4.193   6.863
 2814SOL    HW1 9341   2.543   4.110   6.813
 2814SOL    HW2 9342   2.527   4.272   6.802
 2815SOL     OW 9343   6.519   5.337   4.602
 2815SOL    HW1 9344   6.588   5.274   4.566
 2815SOL    HW2 9345   6.439   5.337   4.542
 2816SOL     OW 9346   0.796   5.726   4.814
 2816SOL    HW1 9347   0.756   5.713   4.724
 2816SOL    HW2 9348   0.743   5.675   4.882
 2817SOL     OW 9349   3.043   0.746   2.523
 2817SOL    HW1 9350   3.130   0.790   2.499
 2817SOL    HW2 9351   2.969   0.812   2.515
 2818SOL     OW 9352   1.904   0.637   0.522
 2818SOL    HW1 9353   1.944   0.728   0.525
 2818SOL    HW2 9354   1.935   0.584   0.600
 2819SOL     OW 9355   0.862   0.329   6.821
 2819SOL    HW1 9356   0.816   0.297   6.904
 2819SOL    HW2 9357   0.860   0.257   6.752
 2820SOL     OW 9358   1.522   2.080   0.164
 2820SOL    HW1 9359   1.529   2.058   0.067
 2820SOL    HW2 9360   1.534   2.178   0.177
 2821SOL     OW 9361   3.181   3.366   6.277
 2821SOL    HW1 9362   3.246   3.295   6.248
 2821SOL    HW2 9363   3.117   3.385   6.202
 2822SOL     OW 9364   4.749   2.484   0.379
 2822SOL    HW1 9365   4.748   2.437   0.291
 2822SOL    HW2 9366   4.844   2.500   0.407
 2823SOL     OW 9367   4.791   3.667   1.801
 2823SOL    HW1 9368   4.704   3.658   1.752
 2823SOL    HW2 9369   4.846   3.585   1.786
 2824SOL     OW 9370   1.085   4.675   4.661
 2824SOL    HW1 9371   1.164   4.664   4.722
 2824SOL    HW2 9372   1.030   4.591   4.662
 2825SOL     OW 9373   5.406   1.425   6.255
 2825SOL    HW1 9374   5.432   1.519   6.274
 2825SOL    HW2 9375   5.481   1.378   6.208
 2826SOL     OW 9376   2.673   2.914   6.571
 2826SOL    HW1 9377   2.620   2.996   6.550
 2826SOL    HW2 9378   2.729   2.889   6.492
 2827SOL     OW 9379   5.900   1.721   6.567
 2827SOL    HW1 9380   5.829   1.775   6.613
 2827SOL    HW2 9381   5.890   1.731   6.468
 2828SOL     OW 9382   1.655   3.588   1.561
 2828SOL    HW1 9383   1.689   3.497   1.534
 2828SOL    HW2 9384   1.728   3.655   1.551
 2829SOL     OW 9385   3.591   3.587   2.004
 2829SOL    HW1 9386   3.579   3.488   2.008
 2829SOL    HW2 9387   3.686   3.609   2.025
 2830SOL     OW 9388   3.070   5.860   4.725
 2830SOL    HW1 9389   3.129   5.856   4.644
 2830SOL    HW2 9390   2.990   5.916   4.704
 2831SOL     OW 9391   0.142   1.865   1.471
 2831SOL    HW1 9392   0.101   1.953   1.449
 2831SOL    HW2 9393   0.076   1.792   1.452
 2832SOL     OW 9394   0.801   3.866   2.746
 2832SOL    HW1 9395   0.882   3.865   2.804
 2832SOL    HW2 9396   0.812   3.800   2.672
 2833SOL     OW 9397   0.458   2.823   2.570
 2833SOL    HW1 9398   0.530   2.840   2.503
 2833SOL    HW2 9399   0.492   2.845   2.662
 2834SOL     OW 9400   3.778   6.885   4.043
 2834SOL    HW1 9401   3.705   6.817   4.029
 2834SOL    HW2 9402   3.850   6.870   3.975
 2835SOL     OW 9403   6.671   0.662   6.774
 2835SOL    HW1 9404   6.711   0.666   6.683
 2835SOL    HW2 9405   6.572   0.650   6.767
 2836SOL     OW 9406   3.272   5.630   3.218
 2836SOL    HW1 9407   3.181   5.672   3.226
 2836SOL    HW2 9408   3.339   5.700   3.197
 2837SOL     OW 9409   5.019   4.174   1.758
 2837SOL    HW1 9410   5.097   4.221   1.717
 2837SOL    HW2 9411   5.020   4.078   1.731
 2838SOL     OW 9412   6.585   4.024   5.951
 2838SOL    HW1 9413   6.567   4.008   5.854
 2838SOL    HW2 9414   6.639   4.107   5.962
 2839SOL     OW 9415   6.069   3.320   5.296
 2839SOL    HW1 9416   6.024   3.402   5.332
 2839SOL    HW2 9417   6.112   3.270   5.371
 2840SOL     OW 9418   6.287   6.478   4.534
 2840SOL    HW1 9419   6.256   6.568   4.504
 2840SOL    HW2 9420   6.355   6.489   4.607
 2841SOL     OW 9421   5.775   4.107   2.408
 2841SOL    HW1 9422   5.739   4.198   2.433
 2841SOL    HW2 9423   5.838   4.076   2.479
 2842SOL     OW 9424   0.957   6.970   3.639
 2842SOL    HW1 9425   0.921   0.027   3.696
 2842SOL    HW2 9426   1.057   6.975   3.637
 2843SOL     OW 9427   2.472   2.512   3.101
 2843SOL    HW1 9428   2.520   2.519   3.188
 2843SOL    HW2 9429   2.428   2.600   3.080
 2844SOL     OW 9430   5.293   3.633   0.718
 2844SOL    HW1 9431   5.270   3.700   0.788
 2844SOL    HW2 9432   5.220   3.565   0.711
 2845SOL     OW 9433   2.661   1.692   1.604
 2845SOL    HW1 9434   2.587   1.721   1.543
 2845SOL    HW2 9435   2.711   1.773   1.636
 2846SOL     OW 9436   6.391   0.039   6.627
 2846SOL    HW1 9437   6.328   0.004   6.558
 2846SOL    HW2 9438   6.464   6.988   6.643
 2847SOL     OW 9439   4.434   5.327   1.060
 2847SOL    HW1 9440   4.482   5.304   0.975
 2847SOL    HW2 9441   4.427   5.245   1.117
 2848SOL     OW 9442   0.410   4.280   5.821
 2848SOL    HW1 9443   0.348   4.310   5.894
 2848SOL    HW2 9444   0.481   4.349   5.808
 2849SOL     OW 9445   5.269   1.008   1.460
 2849SOL    HW1 9446   5.180   1.048   1.480
 2849SOL    HW2 9447   5.268   0.969   1.368
 2850SOL     OW 9448   0.923   0.388   1.583
 2850SOL    HW1 9449   0.876   0.371   1.669
 2850SOL    HW2 9450   1.014   0.425   1.602
 2851SOL     OW 9451   3.117   3.339   1.289
 2851SOL    HW1 9452   3.112   3.254   1.341
 2851SOL    HW2 9453   3.055   3.407   1.330
 2852SOL     OW 9454   0.312   5.292   5.567
 2852SOL    HW1 9455   0.408   5.305   5.544
 2852SOL    HW2 9456   0.264   5.380   5.560
 2853SOL     OW 9457   0.572   4.454   5.642
 2853SOL    HW1 9458   0.666   4.420   5.645
 2853SOL    HW2 9459   0.527   4.420   5.560
 2854SOL     OW 9460   3.035   0.570   6.248
 2854SOL    HW1 9461   3.014   0.568   6.346
 2854SOL    HW2 9462   3.098   0.645   6.229
 2855SOL     OW 9463   2.323   1.346   4.031
 2855SOL    HW1 9464   2.226   1.357   4.052
 2855SOL    HW2 9465   2.333   1.286   3.952
 2856SOL     OW 9466   0.262   5.549   4.340
 2856SOL    HW1 9467   0.340   5.552   4.277
 2856SOL    HW2 9468   0.239   5.642   4.369
 2857SOL     OW 9469   6.673   4.538   1.074
 2857SOL    HW1 9470   6.631   4.613   1.024
 2857SOL    HW2 9471   6.753   4.506   1.025
 2858SOL     OW 9472   5.305   4.605   2.142
 2858SOL    HW1 9473   5.268   4.621   2.234
 2858SOL    HW2 9474   5.236   4.557   2.087
 2859SOL     OW 9475   5.656   5.104   1.743
 2859SOL    HW1 9476   5.572   5.065   1.705
 2859SOL    HW2 9477   5.687   5.049   1.820
 2860SOL     OW 9478   1.227   0.356   2.963
 2860SOL    HW1 9479   1.161   0.321   2.897
 2860SOL    HW2 9480   1.240   0.290   3.037
 2861SOL     OW 9481   4.751   4.025   5.922
 2861SOL    HW1 9482   4.804   4.021   6.006
 2861SOL    HW2 9483   4.793   4.091   5.859
 2862SOL     OW 9484   4.856   1.603   0.808
 2862SOL    HW1 9485   4.803   1.668   0.862
 2862SOL    HW2 9486   4.900   1.651   0.732
 2863SOL     OW 9487   5.732   2.265   5.349
 2863SOL    HW1 9488   5.677   2.347   5.356
 2863SOL    HW2 9489   5.829   2.289   5.350
 2864SOL     OW 9490   3.604   4.270   0.521
 2864SOL    HW1 9491   3.510   4.276   0.486
 2864SOL    HW2 9492   3.626   4.175   0.541
 2865SOL     OW 9493   5.506   5.106   5.385
 2865SOL    HW1 9494   5.413   5.142   5.390
 2865SOL    HW2 9495   5.510   5.018   5.431
 2866SOL     OW 9496   3.802   4.743   0.807
 2866SOL    HW1 9497   3.774   4.743   0.903
 2866SOL    HW2 9498   3.884   4.800   0.797
 2867SOL     OW 9499   6.178   6.214   3.500
 2867SOL    HW1 9500   6.146   6.257   3.416
 2867SOL    HW2 9501   6.145   6.120   3.505
 2868SOL     OW 9502   0.395   0.365   5.806
 2868SOL    HW1 9503   0.331   0.335   5.877
 2868SOL    HW2 9504   0.488   0.359   5.841
 2869SOL     OW 9505   6.333   4.558   3.848
 2869SOL    HW1 9506   6.386   4.626   3.798
 2869SOL    HW2 9507   6.237   4.584   3.848
 2870SOL     OW 9508   6.855   1.988   1.680
 2870SOL    HW1 9509   6.804   1.962   1.598
 2870SOL    HW2 9510   6.953   1.977   1.662
 2871SOL     OW 9511   5.321   1.489   3.154
 2871SOL    HW1 9512   5.385   1.478   3.231
 2871SOL    HW2 9513   5.332   1.413   3.091
 2872SOL     OW 9514   2.192   2.245   2.170
 2872SOL    HW1 9515   2.258   2.245   2.095
 2872SOL    HW2 9516   2.207   2.164   2.227
 2873SOL     OW 9517   1.182   6.979   1.373
 2873SOL    HW1 9518   1.183   0.046   1.319
 2873SOL    HW2 9519   1.249   6.986   1.446
 2874SOL     OW 9520   2.178   1.438   3.434
 2874SOL    HW1 9521   2.187   1.428   3.534
 2874SOL    HW2 9522   2.101   1.498   3.413
 2875SOL     OW 9523   2.466   0.044   3.067
 2875SOL    HW1 9524   2.529   0.121   3.074
 2875SOL    HW2 9525   2.423   0.044   2.977
 2876SOL     OW 9526   1.472   6.183   1.044
 2876SOL    HW1 9527   1.498   6.253   1.110
 2876SOL    HW2 9528   1.448   6.099   1.093
 2877SOL     OW 9529   1.644   2.822   5.627
 2877SOL    HW1 9530   1.713   2.751   5.635
 2877SOL    HW2 9531   1.620   2.855   5.719
 2878SOL     OW 9532   4.070   3.157   4.463
 2878SOL    HW1 9533   4.098   3.192   4.374
 2878SOL    HW2 9534   4.118   3.207   4.535
 2879SOL     OW 9535   5.256   4.480   0.135
 2879SOL    HW1 9536   5.246   4.547   0.061
 2879SOL    HW2 9537   5.260   4.527   0.223
 2880SOL     OW 9538   1.825   1.220   3.703
 2880SOL    HW1 9539   1.832   1.260   3.612
 2880SOL    HW2 9540   1.840   1.292   3.772
 2881SOL     OW 9541   5.427   5.062   0.848
 2881SOL    HW1 9542   5.372   5.075   0.930
 2881SOL    HW2 9543   5.367   5.034   0.772
 2882SOL     OW 9544   4.408   6.520   0.087
 2882SOL    HW1 9545   4.309   6.532   0.090
 2882SOL    HW2 9546   4.452   6.587   0.148
 2883SOL     OW 9547   5.820   6.563   3.549
 2883SOL    HW1 9548   5.916   6.539   3.563
 2883SOL    HW2 9549   5.812   6.662   3.537
 2884SOL     OW 9550   6.065   5.899   4.000
 2884SOL    HW1 9551   6.092   5.908   3.905
 2884SOL    HW2 9552   6.014   5.980   4.029
 2885SOL     OW 9553   1.502   2.562   3.896
 2885SOL    HW1 9554   1.472   2.602   3.982
 2885SOL    HW2 9555   1.449   2.479   3.877
 2886SOL     OW 9556   2.291   4.661   5.529
 2886SOL    HW1 9557   2.337   4.622   5.609
 2886SOL    HW2 9558   2.353   4.661   5.451
 2887SOL     OW 9559   0.117   5.641   3.110
 2887SOL    HW1 9560   0.202   5.692   3.094
 2887SOL    HW2 9561   0.050   5.668   3.041
 2888SOL     OW 9562   4.783   6.861   6.204
 2888SOL    HW1 9563   4.752   6.788   6.265
 2888SOL    HW2 9564   4.742   6.948   6.232
 2889SOL     OW 9565   4.674   6.131   4.122
 2889SOL    HW1 9566   4.644   6.087   4.207
 2889SOL    HW2 9567   4.694   6.061   4.054
 2890SOL     OW 9568   1.040   2.340   0.710
 2890SOL    HW1 9569   1.052   2.240   0.714
 2890SOL    HW2 9570   1.025   2.375   0.803
 2891SOL     OW 9571   0.767   1.746   5.481
 2891SOL    HW1 9572   0.691   1.686   5.503
 2891SOL    HW2 9573   0.791   1.735   5.384
 2892SOL     OW 9574   5.420   4.219   1.803
 2892SOL    HW1 9575   5.354   4.203   1.877
 2892SOL    HW2 9576   5.371   4.242   1.719
 2893SOL     OW 9577   6.788   5.587   5.143
 2893SOL    HW1 9578   6.833   5.534   5.215
 2893SOL    HW2 9579   6.805   5.545   5.054
 2894SOL     OW 9580   2.370   5.735   1.806
 2894SOL    HW1 9581   2.398   5.719   1.901
 2894SOL    HW2 9582   2.397   5.656   1.750
 2895SOL     OW 9583   3.900   6.738   5.817
 2895SOL    HW1 9584   3.991   6.715   5.852
 2895SOL    HW2 9585   3.909   6.775   5.724
 2896SOL     OW 9586   6.003   0.495   4.805
 2896SOL    HW1 9587   5.924   0.543   4.843
 2896SOL    HW2 9588   6.076   0.560   4.787
 2897SOL     OW 9589   3.391   4.970   3.066
 2897SOL    HW1 9590   3.327   4.916   3.013
 2897SOL    HW2 9591   3.349   5.058   3.089
 2898SOL     OW 9592   4.681   2.257   2.246
 2898SOL    HW1 9593   4.635   2.172   2.271
 2898SOL    HW2 9594   4.752   2.238   2.178
 2899SOL     OW 9595   6.835   3.483   0.776
 2899SOL    HW1 9596   6.852   3.518   0.868
 2899SOL    HW2 9597   6.880   3.542   0.709
 2900SOL     OW 9598   2.476   2.764   5.915
 2900SOL    HW1 9599   2.404   2.811   5.966
 2900SOL    HW2 9600   2.435   2.704   5.846
 2901SOL     OW 9601   1.030   3.960   2.937
 2901SOL    HW1 9602   1.129   3.972   2.933
 2901SOL    HW2 9603   1.007   3.906   3.019
 2902SOL     OW 9604   6.123   5.193   3.434
 2902SOL    HW1 9605   6.210   5.210   3.388
 2902SOL    HW2 9606   6.070   5.279   3.437
 2903SOL     OW 9607   6.192   4.764   0.803
 2903SOL    HW1 9608   6.093   4.752   0.813
 2903SOL    HW2 9609   6.216   4.860   0.822
 2904SOL     OW 9610   2.203   4.607   4.996
 2904SOL    HW1 9611   2.239   4.516   5.020
 2904SOL    HW2 9612   2.255   4.643   4.919
 2905SOL     OW 9613   1.898   5.382   1.078
 2905SOL    HW1 9614   1.808   5.392   1.121
 2905SOL    HW2 9615   1.947   5.306   1.121
 2906SOL     OW 9616   6.426   6.225   5.181
 2906SOL    HW1 9617   6.347   6.230   5.119
 2906SOL    HW2 9618   6.401   6.174   5.263
 2907SOL     OW 9619   0.780   0.854   5.111
 2907SOL    HW1 9620   0.737   0.901   5.033
 2907SOL    HW2 9621   0.834   0.920   5.163
 2908SOL     OW 9622   4.360   6.944   3.309
 2908SOL    HW1 9623   4.398   6.852   3.312
 2908SOL    HW2 9624   4.393   6.991   3.227
 2909SOL     OW 9625   6.761   6.745   1.704
 2909SOL    HW1 9626   6.804   6.830   1.735
 2909SOL    HW2 9627   6.754   6.745   1.605
 2910SOL     OW 9628   0.840   1.152   4.326
 2910SOL    HW1 9629   0.849   1.177   4.422
 2910SOL    HW2 9630   0.823   1.054   4.318
 2911SOL     OW 9631   0.141   4.505   5.925
 2911SOL    HW1 9632   0.201   4.534   5.850
 2911SOL    HW2 9633   0.176   4.540   6.012
 2912SOL     OW 9634   1.064   1.037   1.337
 2912SOL    HW1 9635   1.138   1.103   1.328
 2912SOL    HW2 9636   1.102   0.944   1.329
 2913SOL     OW 9637   2.165   6.766   2.955
 2913SOL    HW1 9638   2.075   6.791   2.993
 2913SOL    HW2 9639   2.237   6.807   3.011
 2914SOL     OW 9640   3.858   5.301   1.143
 2914SOL    HW1 9641   3.823   5.207   1.148
 2914SOL    HW2 9642   3.901   5.326   1.230
 2915SOL     OW 9643   2.966   0.437   3.481
 2915SOL    HW1 9644   3.002   0.344   3.475
 2915SOL    HW2 9645   3.037   0.497   3.518
 2916SOL     OW 9646   1.448   5.434   0.322
 2916SOL    HW1 9647   1.418   5.529   0.320
 2916SOL    HW2 9648   1.507   5.415   0.244
 2917SOL     OW 9649   2.716   6.753   2.903
 2917SOL    HW1 9650   2.674   6.795   2.823
 2917SOL    HW2 9651   2.808   6.721   2.880
 2918SOL     OW 9652   5.331   2.545   1.902
 2918SOL    HW1 9653   5.377   2.631   1.922
 2918SOL    HW2 9654   5.299   2.504   1.988
 2919SOL     OW 9655   0.078   5.986   4.697
 2919SOL    HW1 9656   0.082   6.078   4.738
 2919SOL    HW2 9657   7.000   5.965   4.671
 2920SOL     OW 9658   2.503   2.358   1.764
 2920SOL    HW1 9659   2.438   2.367   1.689
 2920SOL    HW2 9660   2.593   2.392   1.734
 2921SOL     OW 9661   1.524   5.749   3.642
 2921SOL    HW1 9662   1.488   5.791   3.726
 2921SOL    HW2 9663   1.619   5.722   3.657
 2922SOL     OW 9664   4.036   5.195   4.194
 2922SOL    HW1 9665   4.117   5.139   4.210
 2922SOL    HW2 9666   3.967   5.176   4.265
 2923SOL     OW 9667   0.282   5.563   4.908
 2923SOL    HW1 9668   0.183   5.570   4.891
 2923SOL    HW2 9669   0.305   5.615   4.990
 2924SOL     OW 9670   5.627   2.068   6.429
 2924SOL    HW1 9671   5.622   1.993   6.364
 2924SOL    HW2 9672   5.566   2.049   6.506
 2925SOL     OW 9673   5.815   6.676   4.815
 2925SOL    HW1 9674   5.739   6.660   4.878
 2925SOL    HW2 9675   5.839   6.590   4.770
 2926SOL     OW 9676   6.648   2.448   3.976
 2926SOL    HW1 9677   6.644   2.401   4.064
 2926SOL    HW2 9678   6.685   2.540   3.990
 2927SOL     OW 9679   1.053   2.119   2.012
 2927SOL    HW1 9680   1.135   2.068   1.988
 2927SOL    HW2 9681   0.986   2.058   2.055
 2928SOL     OW 9682   5.955   3.076   0.313
 2928SOL    HW1 9683   6.022   3.110   0.379
 2928SOL    HW2 9684   5.993   3.082   0.221
 2929SOL     OW 9685   1.883   2.076   4.391
 2929SOL    HW1 9686   1.940   2.111   4.464
 2929SOL    HW2 9687   1.809   2.141   4.371
 2930SOL     OW 9688   0.110   3.702   4.215
 2930SOL    HW1 9689   0.043   3.775   4.229
 2930SOL    HW2 9690   0.146   3.708   4.122
 2931SOL     OW 9691   5.623   4.643   5.709
 2931SOL    HW1 9692   5.709   4.695   5.711
 2931SOL    HW2 9693   5.576   4.654   5.797
 2932SOL     OW 9694   5.846   5.224   1.592
 2932SOL    HW1 9695   5.763   5.184   1.633
 2932SOL    HW2 9696   5.925   5.171   1.621
 2933SOL     OW 9697   0.918   6.851   0.003
 2933SOL    HW1 9698   0.867   6.817   0.082
 2933SOL    HW2 9699   0.951   6.944   0.021
 2934SOL     OW 9700   4.467   5.250   1.516
 2934SOL    HW1 9701   4.480   5.188   1.593
 2934SOL    HW2 9702   4.433   5.338   1.549
 2935SOL     OW 9703   0.694   2.900   5.796
 2935SOL    HW1 9704   0.695   2.981   5.855
 2935SOL    HW2 9705   0.676   2.819   5.852
 2936SOL     OW 9706   4.693   6.545   2.409
 2936SOL    HW1 9707   4.668   6.567   2.504
 2936SOL    HW2 9708   4.704   6.630   2.357
 2937SOL     OW 9709   5.625   3.859   2.824
 2937SOL    HW1 9710   5.603   3.947   2.867
 2937SOL    HW2 9711   5.680   3.876   2.742
 2938SOL     OW 9712   0.635   5.962   6.496
 2938SOL    HW1 9713   0.642   6.000   6.588
 2938SOL    HW2 9714   0.711   5.898   6.481
 2939SOL     OW 9715   6.978   6.057   1.334
 2939SOL    HW1 9716   6.981   5.960   1.311
 2939SOL    HW2 9717   7.011   6.071   1.427
 2940SOL     OW 9718   4.907   6.287   3.743
 2940SOL    HW1 9719   5.001   6.290   3.708
 2940SOL    HW2 9720   4.905   6.320   3.837
 2941SOL     OW 9721   2.280   4.720   2.602
 2941SOL    HW1 9722   2.297   4.669   2.687
 2941SOL    HW2 9723   2.246   4.657   2.532
 2942SOL     OW 9724   3.425   1.954   1.764
 2942SOL    HW1 9725   3.490   2.028   1.745
 2942SOL    HW2 9726   3.449   1.909   1.850
 2943SOL     OW 9727   5.902   3.645   2.996
 2943SOL    HW1 9728   5.969   3.715   2.973
 2943SOL    HW2 9729   5.922   3.608   3.087
 2944SOL     OW 9730   1.958   6.023   2.308
 2944SOL    HW1 9731   1.895   5.980   2.373
 2944SOL    HW2 9732   1.905   6.079   2.244
 2945SOL     OW 9733   5.198   3.979   1.477
 2945SOL    HW1 9734   5.100   3.994   1.466
 2945SOL    HW2 9735   5.214   3.896   1.529
 2946SOL     OW 9736   3.780   2.921   4.190
 2946SOL    HW1 9737   3.685   2.951   4.179
 2946SOL    HW2 9738   3.842   2.988   4.149
 2947SOL     OW 9739   6.224   5.721   1.206
 2947SOL    HW1 9740   6.195   5.737   1.112
 2947SOL    HW2 9741   6.324   5.713   1.209
 2948SOL     OW 9742   6.883   3.609   1.921
 2948SOL    HW1 9743   6.933   3.526   1.949
 2948SOL    HW2 9744   6.943   3.689   1.932
 2949SOL     OW 9745   2.209   6.081   0.427
 2949SOL    HW1 9746   2.236   6.164   0.475
 2949SOL    HW2 9747   2.184   6.103   0.333
 2950SOL     OW 9748   6.008   6.015   2.505
 2950SOL    HW1 9749   5.956   6.074   2.443
 2950SOL    HW2 9750   6.100   6.051   2.516
 2951SOL     OW 9751   0.610   1.741   1.388
 2951SOL    HW1 9752   0.655   1.812   1.442
 2951SOL    HW2 9753   0.518   1.725   1.424
 2952SOL     OW 9754   6.946   1.693   5.460
 2952SOL    HW1 9755   6.874   1.738   5.407
 2952SOL    HW2 9756   6.962   1.744   5.545
 2953SOL     OW 9757   1.602   5.123   3.147
 2953SOL    HW1 9758   1.672   5.062   3.183
 2953SOL    HW2 9759   1.573   5.186   3.219
 2954SOL     OW 9760   0.667   4.192   6.093
 2954SOL    HW1 9761   0.626   4.277   6.124
 2954SOL    HW2 9762   0.595   4.128   6.064
 2955SOL     OW 9763   1.764   4.716   6.096
 2955SOL    HW1 9764   1.714   4.638   6.134
 2955SOL    HW2 9765   1.701   4.773   6.044
 2956SOL     OW 9766   5.168   4.666   4.481
 2956SOL    HW1 9767   5.120   4.728   4.542
 2956SOL    HW2 9768   5.143   4.572   4.501
 2957SOL     OW 9769   2.433   5.656   1.519
 2957SOL    HW1 9770   2.525   5.628   1.549
 2957SOL    HW2 9771   2.428   5.650   1.419
 2958SOL     OW 9772   1.631   3.988   2.355
 2958SOL    HW1 9773   1.639   4.056   2.428
 2958SOL    HW2 9774   1.539   3.992   2.316
 2959SOL     OW 9775   0.197   3.441   3.678
 2959SOL    HW1 9776   0.164   3.346   3.681
 2959SOL    HW2 9777   0.240   3.464   3.766
 2960SOL     OW 9778   4.714   0.063   1.419
 2960SOL    HW1 9779   4.795   0.118   1.399
 2960SOL    HW2 9780   4.632   0.116   1.395
 2961SOL     OW 9781   5.656   2.492   2.119
 2961SOL    HW1 9782   5.615   2.414   2.071
 2961SOL    HW2 9783   5.686   2.463   2.210
 2962SOL     OW 9784   6.719   0.236   3.646
 2962SOL    HW1 9785   6.659   0.279   3.579
 2962SOL    HW2 9786   6.665   0.185   3.712
 2963SOL     OW 9787   1.577   0.840   5.157
 2963SOL    HW1 9788   1.534   0.752   5.137
 2963SOL    HW2 9789   1.669   0.842   5.119
 2964SOL     OW 9790   1.560   0.926   6.407
 2964SOL    HW1 9791   1.642   0.870   6.397
 2964SOL    HW2 9792   1.573   1.013   6.359
 2965SOL     OW 9793   6.240   0.314   6.229
 2965SOL    HW1 9794   6.305   0.281   6.161
 2965SOL    HW2 9795   6.270   0.286   6.321
 2966SOL     OW 9796   3.050   5.417   2.077
 2966SOL    HW1 9797   3.003   5.337   2.113
 2966SOL    HW2 9798   3.129   5.438   2.136
 2967SOL     OW 9799   5.729   6.774   5.294
 2967SOL    HW1 9800   5.745   6.863   5.252
 2967SOL    HW2 9801   5.697   6.787   5.388
 2968SOL     OW 9802   1.047   4.004   0.911
 2968SOL    HW1 9803   1.083   3.919   0.873
 2968SOL    HW2 9804   1.048   3.998   1.011
 2969SOL     OW 9805   4.718   2.807   5.195
 2969SOL    HW1 9806   4.751   2.728   5.245
 2969SOL    HW2 9807   4.707   2.783   5.098
 2970SOL     OW 9808   2.674   2.642   5.295
 2970SOL    HW1 9809   2.691   2.720   5.234
 2970SOL    HW2 9810   2.754   2.582   5.295
 2971SOL     OW 9811   4.944   3.015   6.980
 2971SOL    HW1 9812   4.961   2.980   0.055
 2971SOL    HW2 9813   5.029   3.011   6.927
 2972SOL     OW 9814   6.789   5.587   5.966
 2972SOL    HW1 9815   6.704   5.611   5.918
 2972SOL    HW2 9816   6.835   5.513   5.916
 2973SOL     OW 9817   5.103   1.240   4.413
 2973SOL    HW1 9818   5.133   1.286   4.496
 2973SOL    HW2 9819   5.171   1.252   4.341
 2974SOL     OW 9820   4.836   6.926   2.025
 2974SOL    HW1 9821   4.846   6.854   1.956
 2974SOL    HW2 9822   4.772   6.995   1.992
 2975SOL     OW 9823   5.789   3.877   5.172
 2975SOL    HW1 9824   5.796   3.847   5.267
 2975SOL    HW2 9825   5.695   3.870   5.141
 2976SOL     OW 9826   3.311   1.157   1.625
 2976SOL    HW1 9827   3.354   1.072   1.657
 2976SOL    HW2 9828   3.227   1.135   1.575
 2977SOL     OW 9829   1.287   0.844   1.630
 2977SOL    HW1 9830   1.330   0.827   1.542
 2977SOL    HW2 9831   1.189   0.859   1.617
 2978SOL     OW 9832   4.009   5.325   6.602
 2978SOL    HW1 9833   3.993   5.228   6.583
 2978SOL    HW2 9834   4.067   5.363   6.530
 2979SOL     OW 9835   3.053   0.901   4.822
 2979SOL    HW1 9836   3.027   0.906   4.726
 2979SOL    HW2 9837   3.061   0.994   4.859
 2980SOL     OW 9838   3.115   2.995   4.394
 2980SOL    HW1 9839   3.090   3.043   4.478
 2980SOL    HW2 9840   3.133   2.899   4.416
 2981SOL     OW 9841   2.357   1.261   1.343
 2981SOL    HW1 9842   2.334   1.356   1.366
 2981SOL    HW2 9843   2.445   1.238   1.383
 2982SOL     OW 9844   1.908   0.731   1.118
 2982SOL    HW1 9845   1.932   0.787   1.039
 2982SOL    HW2 9846   1.857   0.786   1.185
 2983SOL     OW 9847   6.384   3.326   5.661
 2983SOL    HW1 9848   6.480   3.300   5.662
 2983SOL    HW2 9849   6.365   3.386   5.739
 2984SOL     OW 9850   0.396   5.927   1.497
 2984SOL    HW1 9851   0.432   5.907   1.406
 2984SOL    HW2 9852   0.301   5.957   1.489
 2985SOL     OW 9853   5.844   0.320   0.020
 2985SOL    HW1 9854   5.858   0.398   6.976
 2985SOL    HW2 9855   5.755   0.327   0.064
 2986SOL     OW 9856   3.591   3.304   1.990
 2986SOL    HW1 9857   3.571   3.263   1.901
 2986SOL    HW2 9858   3.689   3.303   2.006
 2987SOL     OW 9859   2.415   6.043   4.609
 2987SOL    HW1 9860   2.360   5.967   4.643
 2987SOL    HW2 9861   2.478   6.011   4.539
 2988SOL     OW 9862   6.436   1.761   5.746
 2988SOL    HW1 9863   6.417   1.779   5.843
 2988SOL    HW2 9864   6.430   1.846   5.695
 2989SOL     OW 9865   5.647   3.430   4.429
 2989SOL    HW1 9866   5.552   3.424   4.459
 2989SOL    HW2 9867   5.687   3.516   4.461
 2990SOL     OW 9868   5.332   1.927   4.897
 2990SOL    HW1 9869   5.305   2.023   4.904
 2990SOL    HW2 9870   5.429   1.918   4.921
 2991SOL     OW 9871   0.315   3.380   0.591
 2991SOL    HW1 9872   0.299   3.429   0.505
 2991SOL    HW2 9873   0.333   3.284   0.572
 2992SOL     OW 9874   0.742   3.874   4.494
 2992SOL    HW1 9875   0.709   3.804   4.431
 2992SOL    HW2 9876   0.723   3.847   4.588
 2993SOL     OW 9877   3.193   4.760   1.103
 2993SOL    HW1 9878   3.153   4.786   1.015
 2993SOL    HW2 9879   3.245   4.675   1.093
 2994SOL     OW 9880   3.349   5.044   4.618
 2994SOL    HW1 9881   3.280   5.082   4.679
 2994SOL    HW2 9882   3.309   4.972   4.562
 2995SOL     OW 9883   4.626   0.845   1.720
 2995SOL    HW1 9884   4.679   0.796   1.790
 2995SOL    HW2 9885   4.535   0.805   1.714
 2996SOL     OW 9886   6.600   0.756   3.813
 2996SOL    HW1 9887   6.696   0.729   3.820
 2996SOL    HW2 9888   6.583   0.832   3.876
 2997SOL     OW 9889   4.968   6.164   4.318
 2997SOL    HW1 9890   4.905   6.172   4.241
 2997SOL    HW2 9891   5.012   6.252   4.334
 2998SOL     OW 9892   2.339   1.007   1.814
 2998SOL    HW1 9893   2.263   1.049   1.862
 2998SOL    HW2 9894   2.418   1.068   1.815
 2999SOL     OW 9895   1.896   4.406   0.691
 2999SOL    HW1 9896   1.797   4.394   0.682
 2999SOL    HW2 9897   1.936   4.422   0.601
 3000SOL     OW 9898   2.199   4.100   5.295
 3000SOL    HW1 9899   2.143   4.132   5.218
 3000SOL    HW2 9900   2.278   4.051   5.261
 3001SOL     OW 9901   4.309   0.540   6.438
 3001SOL    HW1 9902   4.297   0.546   6.537
 3001SOL    HW2 9903   4.233   0.586   6.393
 3002SOL     OW 9904   1.811   1.833   1.900
 3002SOL    HW1 9905   1.853   1.890   1.972
 3002SOL    HW2 9906   1.875   1.762   1.872
 3003SOL     OW 9907   1.522   6.404   0.786
 3003SOL    HW1 9908   1.579   6.479   0.822
 3003SOL    HW2 9909   1.564   6.316   0.809
 3004SOL     OW 9910   3.038   6.614   3.398
 3004SOL    HW1 9911   2.989   6.682   3.452
 3004SOL    HW2 9912   2.974   6.544   3.366
 3005SOL     OW 9913   2.222   1.779   0.662
 3005SOL    HW1 9914   2.140   1.733   0.628
 3005SOL    HW2 9915   2.235   1.755   0.758
 3006SOL     OW 9916   5.073   1.387   5.856
 3006SOL    HW1 9917   5.134   1.377   5.935
 3006SOL    HW2 9918   5.120   1.437   5.783
 3007SOL     OW 9919   6.649   5.896   6.479
 3007SOL    HW1 9920   6.586   5.868   6.551
 3007SOL    HW2 9921   6.605   5.962   6.419
 3008SOL     OW 9922   4.631   3.717   5.562
 3008SOL    HW1 9923   4.602   3.703   5.468
 3008SOL    HW2 9924   4.635   3.629   5.609
 3009SOL     OW 9925   6.080   3.008   2.631
 3009SOL    HW1 9926   6.138   3.083   2.598
 3009SOL    HW2 9927   6.051   2.952   2.553
 3010SOL     OW 9928   4.612   5.253   1.945
 3010SOL    HW1 9929   4.704   5.282   1.973
 3010SOL    HW2 9930   4.547   5.327   1.964
 3011SOL     OW 9931   6.333   0.316   0.375
 3011SOL    HW1 9932   6.281   0.338   0.292
 3011SOL    HW2 9933   6.368   0.222   0.368
 3012SOL     OW 9934   1.947   1.622   5.070
 3012SOL    HW1 9935   1.998   1.705   5.095
 3012SOL    HW2 9936   1.901   1.637   4.983
 3013SOL     OW 9937   0.827   4.417   5.576
 3013SOL    HW1 9938   0.892   4.398   5.649
 3013SOL    HW2 9939   0.836   4.512   5.547
 3014SOL     OW 9940   4.643   0.059   6.347
 3014SOL    HW1 9941   4.564   0.017   6.390
 3014SOL    HW2 9942   4.716   0.071   6.415
 3015SOL     OW 9943   1.770   0.882   5.884
 3015SOL    HW1 9944   1.776   0.927   5.795
 3015SOL    HW2 9945   1.748   0.785   5.871
 3016SOL     OW 9946   2.192   0.226   4.417
 3016SOL    HW1 9947   2.278   0.258   4.378
 3016SOL    HW2 9948   2.126   0.301   4.420
 3017SOL     OW 9949   1.341   5.683   0.353
 3017SOL    HW1 9950   1.390   5.714   0.434
 3017SOL    HW2 9951   1.274   5.752   0.326
 3018SOL     OW 9952   3.259   1.695   1.580
 3018SOL    HW1 9953   3.195   1.622   1.557
 3018SOL    HW2 9954   3.286   1.686   1.676
 3019SOL     OW 9955   1.925   6.954   6.070
 3019SOL    HW1 9956   2.023   6.940   6.085
 3019SOL    HW2 9957   1.911   0.015   6.008
 3020SOL     OW 9958   5.490   4.894   0.222
 3020SOL    HW1 9959   5.539   4.838   0.156
 3020SOL    HW2 9960   5.555   4.932   0.288
 3021SOL     OW 9961   4.550   0.595   4.426
 3021SOL    HW1 9962   4.625   0.602   4.360
 3021SOL    HW2 9963   4.586   0.562   4.513
 3022SOL     OW 9964   4.071   5.942   3.643
 3022SOL    HW1 9965   4.011   5.959   3.721
 3022SOL    HW2 9966   4.151   6.002   3.649
 3023SOL     OW 9967   5.984   4.805   5.149
 3023SOL    HW1 9968   5.933   4.877   5.196
 3023SOL    HW2 9969   5.938   4.717   5.164
 3024SOL     OW 9970   6.973   0.908   0.163
 3024SOL    HW1 9971   7.012   0.993   0.125
 3024SOL    HW2 9972   6.878   0.925   0.191
 3025SOL     OW 9973   4.377   5.496   0.198
 3025SOL    HW1 9974   4.408   5.574   0.144
 3025SOL    HW2 9975   4.312   5.528   0.267
 3026SOL     OW 9976   0.675   0.870   1.794
 3026SOL    HW1 9977   0.744   0.942   1.780
 3026SOL    HW2 9978   0.642   0.873   1.888
 3027SOL     OW 9979   3.907   6.959   0.566
 3027SOL    HW1 9980   3.890   6.924   0.474
 3027SOL    HW2 9981   3.820   6.967   0.615
 3028SOL     OW 9982   3.302   3.625   4.756
 3028SOL    HW1 9983   3.331   3.661   4.668
 3028SOL    HW2 9984   3.382   3.598   4.810
 3029SOL     OW 9985   6.421   3.511   4.882
 3029SOL    HW1 9986   6.474   3.555   4.955
 3029SOL    HW2 9987   6.390   3.421   4.912
 3030SOL     OW 9988   1.832   2.812   6.502
 3030SOL    HW1 9989   1.803   2.907   6.487
 3030SOL    HW2 9990   1.910   2.791   6.443
 3031SOL     OW 9991   0.902   5.372   0.688
 3031SOL    HW1 9992   0.943   5.411   0.770
 3031SOL    HW2 9993   0.887   5.445   0.621
 3032SOL     OW 9994   2.485   6.758   3.559
 3032SOL    HW1 9995   2.571   6.784   3.601
 3032SOL    HW2 9996   2.439   6.839   3.523
 3033SOL     OW 9997   1.335   1.940   6.021
 3033SOL    HW1 9998   1.411   1.898   6.072
 3033SOL    HW2 9999   1.301   2.019   6.072
 3034SOL     OW10000   5.390   3.067   2.823
 3034SOL    HW110001   5.383   3.126   2.743
 3034SOL    HW210002   5.333   2.986   2.809
 3035SOL     OW10003   0.113   3.562   7.003
 3035SOL    HW110004   0.019   3.592   6.990
 3035SOL    HW210005   0.114   3.480   0.043
 3036SOL     OW10006   3.336   2.277   5.659
 3036SOL    HW110007   3.273   2.341   5.703
 3036SOL    HW210008   3.333   2.189   5.708
 3037SOL     OW10009   1.004   5.330   6.606
 3037SOL    HW110010   0.946   5.410   6.590
 3037SOL    HW210011   1.023   5.285   6.519
 3038SOL     OW10012   6.037   5.734   6.335
 3038SOL    HW110013   5.954   5.680   6.350
 3038SOL    HW210014   6.104   5.679   6.285
 3039SOL     OW10015   6.152   3.913   5.932
 3039SOL    HW110016   6.075   3.953   5.883
 3039SOL    HW210017   6.137   3.814   5.941
 3040SOL     OW10018   4.773   5.783   5.974
 3040SOL    HW110019   4.764   5.798   5.876
 3040SOL    HW210020   4.826   5.858   6.014
 3041SOL     OW10021   1.079   4.406   5.718
 3041SOL    HW110022   1.082   4.373   5.624
 3041SOL    HW210023   1.137   4.487   5.727
 3042SOL     OW10024   0.085   5.113   3.785
 3042SOL    HW110025   0.027   5.126   3.866
 3042SOL    HW210026   0.117   5.019   3.781
 3043SOL     OW10027   2.623   5.082   1.512
 3043SOL    HW110028   2.595   5.175   1.488
 3043SOL    HW210029   2.721   5.071   1.494
 3044SOL     OW10030   3.717   3.532   4.675
 3044SOL    HW110031   3.790   3.597   4.652
 3044SOL    HW210032   3.677   3.496   4.591
 3045SOL     OW10033   5.352   1.768   2.332
 3045SOL    HW110034   5.390   1.731   2.248
 3045SOL    HW210035   5.403   1.731   2.410
 3046SOL     OW10036   6.034   6.485   1.795
 3046SOL    HW110037   6.034   6.549   1.871
 3046SOL    HW210038   5.940   6.468   1.765
 3047SOL     OW10039   6.404   1.327   4.216
 3047SOL    HW110040   6.498   1.300   4.194
 3047SOL    HW210041   6.340   1.265   4.170
 3048SOL     OW10042   4.332   4.812   1.573
 3048SOL    HW110043   4.314   4.715   1.594
 3048SOL    HW210044   4.427   4.823   1.545
 3049SOL     OW10045   0.850   2.092   2.396
 3049SOL    HW110046   0.919   2.159   2.367
 3049SOL    HW210047   0.763   2.139   2.409
 3050SOL     OW10048   3.297   2.230   6.579
 3050SOL    HW110049   3.262   2.248   6.671
 3050SOL    HW210050   3.395   2.252   6.575
 3051SOL     OW10051   2.418   5.424   5.319
 3051SOL    HW110052   2.452   5.489   5.387
 3051SOL    HW210053   2.472   5.430   5.236
 3052SOL     OW10054   0.160   6.653   3.846
 3052SOL    HW110055   0.070   6.626   3.811
 3052SOL    HW210056   0.175   6.750   3.830
 3053SOL     OW10057   0.822   4.006   6.836
 3053SOL    HW110058   0.816   4.106   6.844
 3053SOL    HW210059   0.734   3.966   6.863
 3054SOL     OW10060   5.424   0.231   3.088
 3054SOL    HW110061   5.331   0.227   3.126
 3054SOL    HW210062   5.427   0.299   3.016
 3055SOL     OW10063   5.756   6.576   0.559
 3055SOL    HW110064   5.842   6.534   0.529
 3055SOL    HW210065   5.749   6.668   0.522
 3056SOL     OW10066   3.989   1.700   6.563
 3056SOL    HW110067   3.912   1.642   6.534
 3056SOL    HW210068   4.069   1.679   6.507
 3057SOL     OW10069   5.170   4.013   3.284
 3057SOL    HW110070   5.094   4.043   3.341
 3057SOL    HW210071   5.236   3.963   3.340
 3058SOL     OW10072   0.472   5.451   5.932
 3058SOL    HW110073   0.544   5.433   5.865
 3058SOL    HW210074   0.448   5.366   5.978
 3059SOL     OW10075   1.287   1.993   2.281
 3059SOL    HW110076   1.325   2.085   2.266
 3059SOL    HW210077   1.314   1.960   2.372
 3060SOL     OW10078   5.522   4.141   3.687
 3060SOL    HW110079   5.537   4.046   3.716
 3060SOL    HW210080   5.505   4.144   3.589
 3061SOL     OW10081   5.771   6.820   3.652
 3061SOL    HW110082   5.701   6.809   3.722
 3061SOL    HW210083   5.727   6.828   3.562
 3062SOL     OW10084   3.738   5.249   1.534
 3062SOL    HW110085   3.828   5.269   1.496
 3062SOL    HW210086   3.680   5.209   1.463
 3063SOL     OW10087   6.545   4.750   1.869
 3063SOL    HW110088   6.500   4.662   1.884
 3063SOL    HW210089   6.517   4.815   1.939
 3064SOL     OW10090   5.195   2.408   6.788
 3064SOL    HW110091   5.101   2.443   6.791
 3064SOL    HW210092   5.233   2.423   6.697
 3065SOL     OW10093   5.420   1.113   6.731
 3065SOL    HW110094   5.511   1.104   6.772
 3065SOL    HW210095   5.424   1.177   6.655
 3066SOL     OW10096   5.378   6.958   5.506
 3066SOL    HW110097   5.301   6.997   5.557
 3066SOL    HW210098   5.343   6.901   5.431
 3067SOL     OW10099   1.260   2.298   4.964
 3067SOL    HW110100   1.291   2.233   5.033
 3067SOL    HW210101   1.261   2.391   5.002
 3068SOL     OW10102   6.431   0.533   0.550
 3068SOL    HW110103   6.511   0.481   0.581
 3068SOL    HW210104   6.362   0.470   0.515
 3069SOL     OW10105   5.254   6.561   4.210
 3069SOL    HW110106   5.245   6.465   4.238
 3069SOL    HW210107   5.350   6.579   4.188
 3070SOL     OW10108   2.285   0.908   1.150
 3070SOL    HW110109   2.201   0.960   1.161
 3070SOL    HW210110   2.304   0.895   1.053
 3071SOL     OW10111   5.861   4.876   5.427
 3071SOL    HW110112   5.781   4.825   5.395
 3071SOL    HW210113   5.884   4.946   5.359
 3072SOL     OW10114   2.094   6.695   6.183
 3072SOL    HW110115   2.011   6.654   6.146
 3072SOL    HW210116   2.076   6.732   6.274
 3073SOL     OW10117   0.167   5.437   2.005
 3073SOL    HW110118   0.217   5.515   1.967
 3073SOL    HW210119   0.203   5.352   1.966
 3074SOL     OW10120   3.256   2.941   1.609
 3074SOL    HW110121   3.324   2.875   1.578
 3074SOL    HW210122   3.268   2.957   1.707
 3075SOL     OW10123   3.927   4.853   1.397
 3075SOL    HW110124   3.853   4.793   1.367
 3075SOL    HW210125   3.927   4.937   1.342
 3076SOL     OW10126   1.125   1.182   4.532
 3076SOL    HW110127   1.145   1.174   4.630
 3076SOL    HW210128   1.093   1.274   4.512
 3077SOL     OW10129   6.697   3.775   2.030
 3077SOL    HW110130   6.771   3.715   2.001
 3077SOL    HW210131   6.651   3.813   1.949
 3078SOL     OW10132   0.183   3.631   1.856
 3078SOL    HW110133   0.271   3.584   1.850
 3078SOL    HW210134   0.109   3.563   1.852
 3079SOL     OW10135   2.171   3.805   4.643
 3079SOL    HW110136   2.188   3.768   4.552
 3079SOL    HW210137   2.150   3.730   4.706
 3080SOL     OW10138   4.196   4.928   1.254
 3080SOL    HW110139   4.294   4.915   1.241
 3080SOL    HW210140   4.159   4.981   1.177
 3081SOL     OW10141   2.143   3.743   6.389
 3081SOL    HW110142   2.045   3.759   6.403
 3081SOL    HW210143   2.184   3.823   6.344
 3082SOL     OW10144   5.467   4.578   5.052
 3082SOL    HW110145   5.457   4.581   4.952
 3082SOL    HW210146   5.448   4.486   5.085
 3083SOL     OW10147   3.576   5.523   1.813
 3083SOL    HW110148   3.488   5.536   1.859
 3083SOL    HW210149   3.566   5.449   1.746
 3084SOL     OW10150   6.804   4.957   3.686
 3084SOL    HW110151   6.798   5.056   3.696
 3084SOL    HW210152   6.791   4.932   3.590
 3085SOL     OW10153   5.842   5.518   0.200
 3085SOL    HW110154   5.818   5.574   0.279
 3085SOL    HW210155   5.772   5.447   0.188
 3086SOL     OW10156   6.518   6.140   6.287
 3086SOL    HW110157   6.524   6.209   6.359
 3086SOL    HW210158   6.433   6.089   6.297
 3087SOL     OW10159   3.783   0.212   2.189
 3087SOL    HW110160   3.728   0.207   2.273
 3087SOL    HW210161   3.724   0.240   2.113
 3088SOL     OW10162   1.973   3.754   5.677
 3088SOL    HW110163   1.981   3.782   5.581
 3088SOL    HW210164   2.062   3.766   5.722
 3089SOL     OW10165   4.409   5.319   5.662
 3089SOL    HW110166   4.376   5.397   5.609
 3089SOL    HW210167   4.503   5.336   5.691
 3090SOL     OW10168   0.647   2.853   2.352
 3090SOL    HW110169   0.738   2.893   2.352
 3090SOL    HW210170   0.588   2.903   2.288
 3091SOL     OW10171   0.949   2.841   1.271
 3091SOL    HW110172   0.868   2.819   1.215
 3091SOL    HW210173   0.920   2.873   1.361
 3092SOL     OW10174   6.293   1.391   1.975
 3092SOL    HW110175   6.319   1.355   2.064
 3092SOL    HW210176   6.375   1.421   1.925
 3093SOL     OW10177   6.726   5.548   6.849
 3093SOL    HW110178   6.639   5.586   6.878
 3093SOL    HW210179   6.800   5.612   6.873
 3094SOL     OW10180   2.612   1.738   6.556
 3094SOL    HW110181   2.638   1.644   6.576
 3094SOL    HW210182   2.656   1.767   6.471
 3095SOL     OW10183   1.356   4.218   5.159
 3095SOL    HW110184   1.442   4.227   5.209
 3095SOL    HW210185   1.344   4.123   5.131
 3096SOL     OW10186   1.413   3.413   4.167
 3096SOL    HW110187   1.323   3.369   4.166
 3096SOL    HW210188   1.470   3.373   4.238
 3097SOL     OW10189   5.820   2.911   4.902
 3097SOL    HW110190   5.905   2.962   4.912
 3097SOL    HW210191   5.745   2.974   4.881
 3098SOL     OW10192   1.811   3.045   2.993
 3098SOL    HW110193   1.737   3.022   3.056
 3098SOL    HW210194   1.781   3.025   2.899
 3099SOL     OW10195   0.512   7.009   5.113
 3099SOL    HW110196   0.519   6.990   5.015
 3099SOL    HW210197   0.416   7.006   5.140
 3100SOL     OW10198   5.471   4.602   1.571
 3100SOL    HW110199   5.504   4.676   1.629
 3100SOL    HW210200   5.548   4.561   1.523
 3101SOL     OW10201   4.848   0.053   5.114
 3101SOL    HW110202   4.783   0.109   5.165
 3101SOL    HW210203   4.941   0.076   5.144
 3102SOL     OW10204   6.037   4.635   1.925
 3102SOL    HW110205   5.971   4.583   1.980
 3102SOL    HW210206   6.045   4.728   1.961
 3103SOL     OW10207   2.178   2.147   1.657
 3103SOL    HW110208   2.233   2.070   1.689
 3103SOL    HW210209   2.089   2.114   1.625
 3104SOL     OW10210   5.730   2.682   5.003
 3104SOL    HW110211   5.770   2.759   4.953
 3104SOL    HW210212   5.653   2.714   5.058
 3105SOL     OW10213   5.666   3.675   0.643
 3105SOL    HW110214   5.615   3.665   0.729
 3105SOL    HW210215   5.687   3.585   0.605
 3106SOL     OW10216   5.138   1.709   5.490
 3106SOL    HW110217   5.209   1.653   5.448
 3106SOL    HW210218   5.166   1.735   5.582
 3107SOL     OW10219   3.271   1.822   5.255
 3107SOL    HW110220   3.350   1.762   5.265
 3107SOL    HW210221   3.272   1.864   5.164
 3108SOL     OW10222   2.246   4.135   3.332
 3108SOL    HW110223   2.283   4.101   3.245
 3108SOL    HW210224   2.224   4.232   3.323
 3109SOL     OW10225   6.880   6.617   3.571
 3109SOL    HW110226   6.843   6.705   3.601
 3109SOL    HW210227   6.980   6.622   3.570
 3110SOL     OW10228   1.051   5.654   3.160
 3110SOL    HW110229   0.967   5.673   3.210
 3110SOL    HW210230   1.045   5.564   3.116
 3111SOL     OW10231   6.005   3.826   3.837
 3111SOL    HW110232   6.028   3.911   3.885
 3111SOL    HW210233   5.952   3.847   3.755
 3112SOL     OW10234   3.687   1.347   6.787
 3112SOL    HW110235   3.650   1.337   6.880
 3112SOL    HW210236   3.746   1.269   6.767
 3113SOL     OW10237   1.502   6.277   3.298
 3113SOL    HW110238   1.570   6.211   3.331
 3113SOL    HW210239   1.530   6.310   3.208
 3114SOL     OW10240   4.593   0.530   5.651
 3114SOL    HW110241   4.547   0.454   5.605
 3114SOL    HW210242   4.640   0.497   5.733
 3115SOL     OW10243   5.325   5.461   5.338
 3115SOL    HW110244   5.414   5.487   5.375
 3115SOL    HW210245   5.338   5.391   5.268
 3116SOL     OW10246   0.788   1.242   6.633
 3116SOL    HW110247   0.873   1.271   6.675
 3116SOL    HW210248   0.781   1.280   6.541
 3117SOL     OW10249   4.374   0.148   0.747
 3117SOL    HW110250   4.397   0.052   0.763
 3117SOL    HW210251   4.275   0.158   0.736
 3118SOL     OW10252   1.559   1.313   3.838
 3118SOL    HW110253   1.547   1.401   3.792
 3118SOL    HW210254   1.498   1.245   3.797
 3119SOL     OW10255   4.816   5.745   4.841
 3119SOL    HW110256   4.888   5.765   4.775
 3119SOL    HW210257   4.855   5.741   4.933
 3120SOL     OW10258   2.191   5.141   6.585
 3120SOL    HW110259   2.203   5.104   6.493
 3120SOL    HW210260   2.229   5.234   6.589
 3121SOL     OW10261   4.238   2.169   4.249
 3121SOL    HW110262   4.204   2.097   4.189
 3121SOL    HW210263   4.271   2.245   4.194
 3122SOL     OW10264   5.616   5.099   5.887
 3122SOL    HW110265   5.689   5.060   5.831
 3122SOL    HW210266   5.656   5.152   5.962
 3123SOL     OW10267   1.398   1.346   3.097
 3123SOL    HW110268   1.493   1.347   3.065
 3123SOL    HW210269   1.392   1.396   3.183
 3124SOL     OW10270   4.741   0.218   4.907
 3124SOL    HW110271   4.664   0.275   4.936
 3124SOL    HW210272   4.762   0.151   4.978
 3125SOL     OW10273   1.972   1.338   5.776
 3125SOL    HW110274   2.033   1.354   5.854
 3125SOL    HW210275   1.881   1.314   5.810
 3126SOL     OW10276   5.203   4.699   5.747
 3126SOL    HW110277   5.210   4.697   5.647
 3126SOL    HW210278   5.204   4.794   5.778
 3127SOL     OW10279   0.293   1.357   5.354
 3127SOL    HW110280   0.203   1.320   5.376
 3127SOL    HW210281   0.294   1.455   5.374
 3128SOL     OW10282   3.441   0.470   0.654
 3128SOL    HW110283   3.532   0.430   0.668
 3128SOL    HW210284   3.373   0.414   0.701
 3129SOL     OW10285   4.327   3.717   0.247
 3129SOL    HW110286   4.282   3.660   0.315
 3129SOL    HW210287   4.360   3.660   0.172
 3130SOL     OW10288   0.224   5.785   2.272
 3130SOL    HW110289   0.210   5.882   2.292
 3130SOL    HW210290   0.214   5.732   2.357
 3131SOL     OW10291   6.397   4.104   2.990
 3131SOL    HW110292   6.496   4.087   2.992
 3131SOL    HW210293   6.350   4.027   3.033
 3132SOL     OW10294   4.853   4.120   0.303
 3132SOL    HW110295   4.924   4.191   0.312
 3132SOL    HW210296   4.882   4.052   0.236
 3133SOL     OW10297   4.871   6.968   4.664
 3133SOL    HW110298   4.843   6.933   4.754
 3133SOL    HW210299   4.791   7.002   4.615
 3134SOL     OW10300   6.167   5.073   2.401
 3134SOL    HW110301   6.223   5.100   2.479
 3134SOL    HW210302   6.196   4.984   2.367
 3135SOL     OW10303   3.556   5.567   6.802
 3135SOL    HW110304   3.490   5.617   6.747
 3135SOL    HW210305   3.643   5.560   6.752
 3136SOL     OW10306   6.127   0.601   3.065
 3136SOL    HW110307   6.097   0.694   3.042
 3136SOL    HW210308   6.212   0.606   3.118
 3137SOL     OW10309   4.945   5.990   0.597
 3137SOL    HW110310   5.037   6.012   0.630
 3137SOL    HW210311   4.924   6.046   0.517
 3138SOL     OW10312   6.654   6.612   5.221
 3138SOL    HW110313   6.699   6.694   5.185
 3138SOL    HW210314   6.610   6.634   5.308
 3139SOL     OW10315   1.954   5.367   1.837
 3139SOL    HW110316   1.914   5.360   1.928
 3139SOL    HW210317   1.965   5.275   1.798
 3140SOL     OW10318   0.010   6.136   0.285
 3140SOL    HW110319   6.963   6.202   0.244
 3140SOL    HW210320   0.086   6.119   0.222
 3141SOL     OW10321   5.662   1.839   6.706
 3141SOL    HW110322   5.670   1.870   6.800
 3141SOL    HW210323   5.577   1.872   6.666
 3142SOL     OW10324   4.871   0.794   3.717
 3142SOL    HW110325   4.823   0.838   3.792
 3142SOL    HW210326   4.861   0.695   3.724
 3143SOL     OW10327   6.719   1.199   0.710
 3143SOL    HW110328   6.782   1.275   0.691
 3143SOL    HW210329   6.641   1.205   0.647
 3144SOL     OW10330   3.636   4.642   0.065
 3144SOL    HW110331   3.725   4.642   0.111
 3144SOL    HW210332   3.583   4.722   0.094
 3145SOL     OW10333   0.488   6.163   0.309
 3145SOL    HW110334   0.513   6.077   0.354
 3145SOL    HW210335   0.541   6.238   0.350
 3146SOL     OW10336   6.838   1.951   4.279
 3146SOL    HW110337   6.901   1.876   4.258
 3146SOL    HW210338   6.790   1.932   4.365
 3147SOL     OW10339   3.838   6.490   0.135
 3147SOL    HW110340   3.832   6.451   0.227
 3147SOL    HW210341   3.853   6.416   0.069
 3148SOL     OW10342   6.799   5.165   1.482
 3148SOL    HW110343   6.867   5.206   1.422
 3148SOL    HW210344   6.843   5.100   1.544
 3149SOL     OW10345   3.376   2.757   6.998
 3149SOL    HW110346   3.469   2.742   6.964
 3149SOL    HW210347   3.328   2.669   7.003
 3150SOL     OW10348   0.026   6.692   5.766
 3150SOL    HW110349   7.013   6.769   5.710
 3150SOL    HW210350   6.967   6.661   5.823
 3151SOL     OW10351   6.984   0.833   5.454
 3151SOL    HW110352   0.006   0.745   5.429
 3151SOL    HW210353   0.040   0.900   5.466
 3152SOL     OW10354   1.859   2.571   5.286
 3152SOL    HW110355   1.928   2.634   5.250
 3152SOL    HW210356   1.768   2.608   5.267
 3153SOL     OW10357   5.365   5.435   1.639
 3153SOL    HW110358   5.339   5.499   1.711
 3153SOL    HW210359   5.458   5.402   1.655
 3154SOL     OW10360   4.047   1.352   0.890
 3154SOL    HW110361   4.113   1.421   0.920
 3154SOL    HW210362   3.975   1.344   0.959
 3155SOL     OW10363   0.960   4.867   6.867
 3155SOL    HW110364   0.918   4.953   6.836
 3155SOL    HW210365   1.059   4.880   6.876
 3156SOL     OW10366   4.386   4.622   0.927
 3156SOL    HW110367   4.382   4.524   0.941
 3156SOL    HW210368   4.316   4.650   0.861
 3157SOL     OW10369   1.263   0.831   4.814
 3157SOL    HW110370   1.316   0.869   4.890
 3157SOL    HW210371   1.323   0.817   4.735
 3158SOL     OW10372   1.946   1.018   5.427
 3158SOL    HW110373   1.859   1.027   5.380
 3158SOL    HW210374   1.977   1.108   5.459
 3159SOL     OW10375   4.878   0.432   0.705
 3159SOL    HW110376   4.946   0.390   0.765
 3159SOL    HW210377   4.792   0.382   0.713
 3160SOL     OW10378   1.798   0.707   5.311
 3160SOL    HW110379   1.775   0.773   5.383
 3160SOL    HW210380   1.853   0.752   5.241
 3161SOL     OW10381   1.902   3.209   2.191
 3161SOL    HW110382   1.907   3.280   2.121
 3161SOL    HW210383   1.931   3.247   2.279
 3162SOL     OW10384   1.119   5.517   1.596
 3162SOL    HW110385   1.064   5.489   1.675
 3162SOL    HW210386   1.213   5.534   1.625
 3163SOL     OW10387   4.192   4.304   0.516
 3163SOL    HW110388   4.099   4.287   0.484
 3163SOL    HW210389   4.249   4.338   0.441
 3164SOL     OW10390   2.722   6.775   3.715
 3164SOL    HW110391   2.805   6.721   3.699
 3164SOL    HW210392   2.748   6.866   3.750
 3165SOL     OW10393   1.529   6.140   6.201
 3165SOL    HW110394   1.444   6.110   6.159
 3165SOL    HW210395   1.564   6.221   6.154
 3166SOL     OW10396   4.664   0.908   5.236
 3166SOL    HW110397   4.708   0.997   5.245
 3166SOL    HW210398   4.565   0.918   5.249
 3167SOL     OW10399   5.686   3.121   1.131
 3167SOL    HW110400   5.672   3.034   1.177
 3167SOL    HW210401   5.612   3.136   1.064
 3168SOL     OW10402   4.520   1.628   0.434
 3168SOL    HW110403   4.551   1.601   0.526
 3168SOL    HW210404   4.501   1.726   0.433
 3169SOL     OW10405   1.701   4.195   1.594
 3169SOL    HW110406   1.605   4.210   1.569
 3169SOL    HW210407   1.755   4.276   1.572
 3170SOL     OW10408   2.155   3.821   3.860
 3170SOL    HW110409   2.171   3.881   3.781
 3170SOL    HW210410   2.120   3.733   3.829
 3171SOL     OW10411   5.161   1.685   3.809
 3171SOL    HW110412   5.124   1.769   3.768
 3171SOL    HW210413   5.122   1.674   3.901
 3172SOL     OW10414   5.674   4.391   1.639
 3172SOL    HW110415   5.720   4.303   1.649
 3172SOL    HW210416   5.595   4.394   1.701
 3173SOL     OW10417   4.946   2.622   0.738
 3173SOL    HW110418   4.915   2.705   0.692
 3173SOL    HW210419   4.930   2.630   0.836
 3174SOL     OW10420   3.125   2.379   6.152
 3174SOL    HW110421   3.168   2.454   6.101
 3174SOL    HW210422   3.038   2.411   6.191
 3175SOL     OW10423   5.322   0.057   5.809
 3175SOL    HW110424   5.409   0.009   5.800
 3175SOL    HW210425   5.330   0.148   5.769
 3176SOL     OW10426   0.311   4.980   3.579
 3176SOL    HW110427   0.360   5.042   3.641
 3176SOL    HW210428   0.269   4.906   3.632
 3177SOL     OW10429   5.428   3.047   3.581
 3177SOL    HW110430   5.520   3.010   3.591
 3177SOL    HW210431   5.378   3.037   3.667
 3178SOL     OW10432   0.531   0.629   2.132
 3178SOL    HW110433   0.451   0.639   2.073
 3178SOL    HW210434   0.534   0.704   2.198
 3179SOL     OW10435   1.193   2.821   2.450
 3179SOL    HW110436   1.150   2.810   2.539
 3179SOL    HW210437   1.285   2.859   2.462
 3180SOL     OW10438   0.070   5.796   0.109
 3180SOL    HW110439   0.130   5.875   0.098
 3180SOL    HW210440   0.070   5.767   0.205
 3181SOL     OW10441   1.119   6.575   5.674
 3181SOL    HW110442   1.160   6.494   5.634
 3181SOL    HW210443   1.153   6.588   5.767
 3182SOL     OW10444   1.925   0.351   1.152
 3182SOL    HW110445   1.939   0.401   1.067
 3182SOL    HW210446   2.013   0.339   1.199
 3183SOL     OW10447   4.087   2.905   1.152
 3183SOL    HW110448   4.067   2.982   1.212
 3183SOL    HW210449   4.092   2.821   1.206
 3184SOL     OW10450   6.438   1.969   4.205
 3184SOL    HW110451   6.488   1.882   4.199
 3184SOL    HW210452   6.341   1.950   4.225
 3185SOL     OW10453   0.477   5.974   6.256
 3185SOL    HW110454   0.534   5.957   6.337
 3185SOL    HW210455   0.384   5.997   6.285
 3186SOL     OW10456   0.233   2.659   6.307
 3186SOL    HW110457   0.251   2.561   6.302
 3186SOL    HW210458   0.310   2.710   6.269
 3187SOL     OW10459   5.215   6.340   2.989
 3187SOL    HW110460   5.222   6.439   2.975
 3187SOL    HW210461   5.259   6.293   2.913
 3188SOL     OW10462   1.901   6.083   0.352
 3188SOL    HW110463   1.845   6.095   0.434
 3188SOL    HW210464   1.932   5.987   0.346
 3189SOL     OW10465   3.590   1.376   5.385
 3189SOL    HW110466   3.550   1.297   5.430
 3189SOL    HW210467   3.672   1.405   5.435
 3190SOL     OW10468   5.936   6.127   4.391
 3190SOL    HW110469   5.838   6.119   4.376
 3190SOL    HW210470   5.982   6.045   4.357
 3191SOL     OW10471   3.467   5.591   1.192
 3191SOL    HW110472   3.530   5.653   1.239
 3191SOL    HW210473   3.519   5.531   1.131
 3192SOL     OW10474   5.601   1.027   2.520
 3192SOL    HW110475   5.568   1.055   2.430
 3192SOL    HW210476   5.590   1.104   2.584
 3193SOL     OW10477   3.413   6.681   4.932
 3193SOL    HW110478   3.338   6.744   4.952
 3193SOL    HW210479   3.432   6.625   5.012
 3194SOL     OW10480   1.842   0.061   6.520
 3194SOL    HW110481   1.790   0.066   6.435
 3194SOL    HW210482   1.894   6.993   6.523
 3195SOL     OW10483   0.943   0.989   0.934
 3195SOL    HW110484   1.022   1.013   0.877
 3195SOL    HW210485   0.859   1.015   0.886
 3196SOL     OW10486   5.620   6.887   3.438
 3196SOL    HW110487   5.564   6.822   3.387
 3196SOL    HW210488   5.692   6.924   3.379
 3197SOL     OW10489   2.324   0.419   6.160
 3197SOL    HW110490   2.286   0.509   6.184
 3197SOL    HW210491   2.252   0.350   6.167
 3198SOL     OW10492   5.696   2.542   4.011
 3198SOL    HW110493   5.652   2.456   3.986
 3198SOL    HW210494   5.679   2.562   4.107
 3199SOL     OW10495   5.185   3.688   2.616
 3199SOL    HW110496   5.113   3.632   2.575
 3199SOL    HW210497   5.273   3.643   2.606
 3200SOL     OW10498   5.334   3.539   3.878
 3200SOL    HW110499   5.418   3.555   3.930
 3200SOL    HW210500   5.268   3.611   3.898
 3201SOL     OW10501   6.112   4.289   2.229
 3201SOL    HW110502   6.154   4.315   2.142
 3201SOL    HW210503   6.030   4.235   2.212
 3202SOL     OW10504   2.335   3.526   6.754
 3202SOL    HW110505   2.329   3.571   6.843
 3202SOL    HW210506   2.339   3.595   6.682
 3203SOL     OW10507   3.245   6.871   1.386
 3203SOL    HW110508   3.169   6.830   1.436
 3203SOL    HW210509   3.214   6.953   1.339
 3204SOL     OW10510   3.662   1.332   4.074
 3204SOL    HW110511   3.693   1.251   4.124
 3204SOL    HW210512   3.571   1.358   4.107
 3205SOL     OW10513   4.641   3.384   5.963
 3205SOL    HW110514   4.606   3.472   5.933
 3205SOL    HW210515   4.602   3.311   5.906
 3206SOL     OW10516   2.549   3.786   1.392
 3206SOL    HW110517   2.645   3.784   1.364
 3206SOL    HW210518   2.542   3.781   1.491
 3207SOL     OW10519   2.080   5.514   5.001
 3207SOL    HW110520   2.096   5.530   5.098
 3207SOL    HW210521   2.064   5.417   4.985
 3208SOL     OW10522   6.507   5.089   6.807
 3208SOL    HW110523   6.576   5.153   6.773
 3208SOL    HW210524   6.552   5.013   6.854
 3209SOL     OW10525   5.013   6.318   6.168
 3209SOL    HW110526   5.012   6.240   6.229
 3209SOL    HW210527   5.066   6.296   6.086
 3210SOL     OW10528   5.198   5.843   1.850
 3210SOL    HW110529   5.153   5.929   1.873
 3210SOL    HW210530   5.244   5.851   1.762
 3211SOL     OW10531   2.021   6.496   6.472
 3211SOL    HW110532   2.002   6.447   6.557
 3211SOL    HW210533   1.989   6.442   6.394
 3212SOL     OW10534   2.440   6.980   3.410
 3212SOL    HW110535   2.532   7.011   3.383
 3212SOL    HW210536   2.379   6.984   3.330
 3213SOL     OW10537   1.348   6.734   6.182
 3213SOL    HW110538   1.385   6.672   6.252
 3213SOL    HW210539   1.270   6.784   6.220
 3214SOL     OW10540   3.502   0.879   2.970
 3214SOL    HW110541   3.438   0.869   3.046
 3214SOL    HW210542   3.596   0.875   3.003
 3215SOL     OW10543   1.696   3.329   1.858
 3215SOL    HW110544   1.669   3.422   1.836
 3215SOL    HW210545   1.794   3.325   1.874
 3216SOL     OW10546   6.332   4.828   1.155
 3216SOL    HW110547   6.239   4.833   1.193
 3216SOL    HW210548   6.397   4.811   1.229
 3217SOL     OW10549   0.225   6.068   2.277
 3217SOL    HW110550   0.324   6.063   2.273
 3217SOL    HW210551   0.196   6.164   2.271
 3218SOL     OW10552   5.323   1.254   2.745
 3218SOL    HW110553   5.416   1.221   2.732
 3218SOL    HW210554   5.296   1.240   2.841
 3219SOL     OW10555   6.842   1.459   5.011
 3219SOL    HW110556   6.787   1.461   5.095
 3219SOL    HW210557   6.937   1.434   5.034
 3220SOL     OW10558   0.189   4.427   6.208
 3220SOL    HW110559   0.111   4.398   6.263
 3220SOL    HW210560   0.236   4.347   6.171
 3221SOL     OW10561   3.041   1.465   1.697
 3221SOL    HW110562   3.000   1.495   1.782
 3221SOL    HW210563   3.136   1.438   1.713
 3222SOL     OW10564   3.046   1.190   3.527
 3222SOL    HW110565   3.008   1.128   3.458
 3222SOL    HW210566   2.972   1.240   3.571
 3223SOL     OW10567   1.536   5.114   0.380
 3223SOL    HW110568   1.484   5.198   0.396
 3223SOL    HW210569   1.502   5.042   0.441
 3224SOL     OW10570   3.865   1.881   3.880
 3224SOL    HW110571   3.883   1.783   3.885
 3224SOL    HW210572   3.811   1.909   3.960
 3225SOL     OW10573   4.340   0.927   4.495
 3225SOL    HW110574   4.305   0.884   4.578
 3225SOL    HW210575   4.416   0.873   4.459
 3226SOL     OW10576   5.628   0.423   0.681
 3226SOL    HW110577   5.591   0.390   0.769
 3226SOL    HW210578   5.637   0.522   0.684
 3227SOL     OW10579   5.716   4.674   5.268
 3227SOL    HW110580   5.712   4.596   5.330
 3227SOL    HW210581   5.636   4.672   5.207
 3228SOL     OW10582   2.700   4.410   0.207
 3228SOL    HW110583   2.693   4.326   0.153
 3228SOL    HW210584   2.788   4.410   0.255
 3229SOL     OW10585   1.815   2.027   0.524
 3229SOL    HW110586   1.818   1.954   0.592
 3229SOL    HW210587   1.815   2.116   0.570
 3230SOL     OW10588   3.001   6.211   5.535
 3230SOL    HW110589   3.015   6.212   5.436
 3230SOL    HW210590   3.023   6.120   5.570
 3231SOL     OW10591   1.876   1.994   3.147
 3231SOL    HW110592   1.911   2.050   3.071
 3231SOL    HW210593   1.953   1.965   3.204
 3232SOL     OW10594   3.670   4.912   4.475
 3232SOL    HW110595   3.600   4.926   4.404
 3232SOL    HW210596   3.640   4.955   4.560
 3233SOL     OW10597   1.103   0.641   0.366
 3233SOL    HW110598   1.042   0.647   0.287
 3233SOL    HW210599   1.164   0.719   0.368
 3234SOL     OW10600   3.205   3.107   0.856
 3234SOL    HW110601   3.179   3.195   0.895
 3234SOL    HW210602   3.127   3.067   0.808
 3235SOL     OW10603   1.097   0.380   3.454
 3235SOL    HW110604   1.124   0.456   3.513
 3235SOL    HW210605   1.099   0.409   3.358
 3236SOL     OW10606   4.549   1.261   0.454
 3236SOL    HW110607   4.611   1.191   0.418
 3236SOL    HW210608   4.462   1.256   0.406
 3237SOL     OW10609   5.658   1.813   5.427
 3237SOL    HW110610   5.646   1.910   5.447
 3237SOL    HW210611   5.690   1.765   5.508
 3238SOL     OW10612   6.550   4.902   1.642
 3238SOL    HW110613   6.582   4.992   1.669
 3238SOL    HW210614   6.545   4.843   1.723
 3239SOL     OW10615   6.670   0.217   4.780
 3239SOL    HW110616   6.696   0.122   4.766
 3239SOL    HW210617   6.746   0.277   4.756
 3240SOL     OW10618   6.937   0.605   0.143
 3240SOL    HW110619   6.955   0.699   0.172
 3240SOL    HW210620   6.844   0.598   0.108
 3241SOL     OW10621   6.392   3.104   5.384
 3241SOL    HW110622   6.450   3.169   5.334
 3241SOL    HW210623   6.446   3.062   5.457
 3242SOL     OW10624   5.922   3.913   4.770
 3242SOL    HW110625   5.987   3.952   4.705
 3242SOL    HW210626   5.890   3.984   4.833
 3243SOL     OW10627   6.083   4.405   4.051
 3243SOL    HW110628   6.071   4.491   4.003
 3243SOL    HW210629   6.020   4.337   4.015
 3244SOL     OW10630   5.012   6.736   0.240
 3244SOL    HW110631   5.037   6.775   0.152
 3244SOL    HW210632   4.916   6.707   0.238
 3245SOL     OW10633   3.787   6.823   5.147
 3245SOL    HW110634   3.817   6.745   5.091
 3245SOL    HW210635   3.815   6.908   5.102
 3246SOL     OW10636   0.265   0.419   2.555
 3246SOL    HW110637   0.363   0.434   2.552
 3246SOL    HW210638   0.235   0.374   2.470
 3247SOL     OW10639   0.565   4.176   3.434
 3247SOL    HW110640   0.597   4.268   3.456
 3247SOL    HW210641   0.640   4.124   3.394
 3248SOL     OW10642   5.447   2.081   3.829
 3248SOL    HW110643   5.478   2.023   3.753
 3248SOL    HW210644   5.435   2.024   3.910
 3249SOL     OW10645   3.002   3.869   3.357
 3249SOL    HW110646   2.909   3.869   3.392
 3249SOL    HW210647   3.054   3.944   3.399
 3250SOL     OW10648   4.824   5.105   2.785
 3250SOL    HW110649   4.888   5.113   2.709
 3250SOL    HW210650   4.738   5.067   2.753
 3251SOL     OW10651   2.615   1.907   3.052
 3251SOL    HW110652   2.611   2.006   3.069
 3251SOL    HW210653   2.537   1.880   2.997
 3252SOL     OW10654   1.848   1.018   3.066
 3252SOL    HW110655   1.909   0.995   2.990
 3252SOL    HW210656   1.852   0.946   3.135
 3253SOL     OW10657   6.495   3.610   0.292
 3253SOL    HW110658   6.463   3.584   0.201
 3253SOL    HW210659   6.428   3.668   0.336
 3254SOL     OW10660   6.173   6.549   1.030
 3254SOL    HW110661   6.105   6.606   1.076
 3254SOL    HW210662   6.131   6.462   1.002
 3255SOL     OW10663   4.979   6.284   1.597
 3255SOL    HW110664   4.912   6.359   1.592
 3255SOL    HW210665   4.937   6.205   1.642
 3256SOL     OW10666   4.944   2.838   1.439
 3256SOL    HW110667   4.906   2.746   1.427
 3256SOL    HW210668   5.035   2.831   1.480
 3257SOL     OW10669   2.775   1.553   2.740
 3257SOL    HW110670   2.676   1.566   2.744
 3257SOL    HW210671   2.820   1.616   2.804
 3258SOL     OW10672   1.743   5.339   4.040
 3258SOL    HW110673   1.726   5.294   3.952
 3258SOL    HW210674   1.788   5.427   4.024
 3259SOL     OW10675   4.972   4.111   4.186
 3259SOL    HW110676   4.961   4.111   4.285
 3259SOL    HW210677   5.000   4.202   4.156
 3260SOL     OW10678   1.474   4.505   3.074
 3260SOL    HW110679   1.483   4.412   3.110
 3260SOL    HW210680   1.377   4.528   3.065
 3261SOL     OW10681   5.639   0.112   4.042
 3261SOL    HW110682   5.601   0.177   3.976
 3261SOL    HW210683   5.565   0.067   4.091
 3262SOL     OW10684   2.718   1.707   3.492
 3262SOL    HW110685   2.648   1.699   3.563
 3262SOL    HW210686   2.697   1.784   3.432
 3263SOL     OW10687   0.360   1.012   2.311
 3263SOL    HW110688   0.285   0.987   2.250
 3263SOL    HW210689   0.334   1.092   2.365
 3264SOL     OW10690   1.708   5.006   6.894
 3264SOL    HW110691   1.675   4.939   6.961
 3264SOL    HW210692   1.637   5.022   6.826
 3265SOL     OW10693   6.675   5.423   0.094
 3265SOL    HW110694   6.747   5.454   0.031
 3265SOL    HW210695   6.702   5.445   0.188
 3266SOL     OW10696   3.488   5.261   6.164
 3266SOL    HW110697   3.479   5.171   6.206
 3266SOL    HW210698   3.490   5.252   6.065
 3267SOL     OW10699   3.283   0.042   0.403
 3267SOL    HW110700   3.202   0.064   0.458
 3267SOL    HW210701   3.363   0.089   0.442
 3268SOL     OW10702   5.726   5.440   2.012
 3268SOL    HW110703   5.788   5.427   2.090
 3268SOL    HW210704   5.632   5.443   2.045
 3269SOL     OW10705   1.614   4.631   1.153
 3269SOL    HW110706   1.599   4.725   1.184
 3269SOL    HW210707   1.619   4.629   1.053
 3270SOL     OW10708   0.714   3.007   5.374
 3270SOL    HW110709   0.766   3.001   5.289
 3270SOL    HW210710   0.648   2.931   5.378
 3271SOL     OW10711   0.935   3.577   1.527
 3271SOL    HW110712   0.972   3.509   1.590
 3271SOL    HW210713   0.857   3.622   1.569
 3272SOL     OW10714   4.368   6.128   1.136
 3272SOL    HW110715   4.285   6.126   1.081
 3272SOL    HW210716   4.448   6.128   1.076
 3273SOL     OW10717   4.174   3.574   6.453
 3273SOL    HW110718   4.135   3.620   6.533
 3273SOL    HW210719   4.100   3.534   6.399
 3274SOL     OW10720   5.497   0.177   1.976
 3274SOL    HW110721   5.564   0.124   2.029
 3274SOL    HW210722   5.541   0.260   1.941
 3275SOL     OW10723   5.168   0.699   1.485
 3275SOL    HW110724   5.181   0.608   1.523
 3275SOL    HW210725   5.125   0.758   1.554
 3276SOL     OW10726   5.269   6.932   7.008
 3276SOL    HW110727   5.269   6.931   0.091
 3276SOL    HW210728   5.341   6.994   6.976
 3277SOL     OW10729   3.079   2.160   2.425
 3277SOL    HW110730   3.157   2.125   2.372
 3277SOL    HW210731   3.106   2.174   2.520
 3278SOL     OW10732   5.840   0.838   6.557
 3278SOL    HW110733   5.862   0.896   6.636
 3278SOL    HW210734   5.880   0.877   6.475
 3279SOL     OW10735   3.122   0.416   1.558
 3279SOL    HW110736   3.099   0.484   1.627
 3279SOL    HW210737   3.204   0.366   1.586
 3280SOL     OW10738   6.363   3.589   4.375
 3280SOL    HW110739   6.363   3.596   4.475
 3280SOL    HW210740   6.404   3.671   4.336
 3281SOL     OW10741   5.942   3.224   1.675
 3281SOL    HW110742   5.890   3.182   1.750
 3281SOL    HW210743   5.937   3.165   1.595
 3282SOL     OW10744   0.129   5.261   4.796
 3282SOL    HW110745   0.181   5.292   4.716
 3282SOL    HW210746   0.192   5.229   4.867
 3283SOL     OW10747   3.493   2.182   0.601
 3283SOL    HW110748   3.548   2.128   0.664
 3283SOL    HW210749   3.539   2.188   0.512
 3284SOL     OW10750   2.384   6.498   4.311
 3284SOL    HW110751   2.394   6.399   4.301
 3284SOL    HW210752   2.416   6.543   4.228
 3285SOL     OW10753   3.687   2.119   4.316
 3285SOL    HW110754   3.747   2.142   4.393
 3285SOL    HW210755   3.630   2.041   4.340
 3286SOL     OW10756   1.830   2.213   2.574
 3286SOL    HW110757   1.778   2.274   2.634
 3286SOL    HW210758   1.879   2.268   2.506
 3287SOL     OW10759   2.338   0.111   0.501
 3287SOL    HW110760   2.366   0.015   0.495
 3287SOL    HW210761   2.305   0.142   0.411
 3288SOL     OW10762   2.687   5.930   1.888
 3288SOL    HW110763   2.690   5.996   1.812
 3288SOL    HW210764   2.636   5.969   1.964
 3289SOL     OW10765   4.360   0.577   6.745
 3289SOL    HW110766   4.434   0.632   6.785
 3289SOL    HW210767   4.324   0.514   6.814
 3290SOL     OW10768   0.498   5.834   0.803
 3290SOL    HW110769   0.578   5.774   0.804
 3290SOL    HW210770   0.419   5.786   0.841
 3291SOL     OW10771   5.157   6.827   5.079
 3291SOL    HW110772   5.245   6.833   5.125
 3291SOL    HW210773   5.091   6.781   5.139
 3292SOL     OW10774   6.706   2.430   0.439
 3292SOL    HW110775   6.739   2.493   0.369
 3292SOL    HW210776   6.732   2.464   0.529
 3293SOL     OW10777   6.003   5.577   3.775
 3293SOL    HW110778   5.979   5.519   3.853
 3293SOL    HW210779   5.923   5.631   3.749
 3294SOL     OW10780   5.147   2.793   5.434
 3294SOL    HW110781   5.123   2.818   5.340
 3294SOL    HW210782   5.148   2.693   5.443
 3295SOL     OW10783   0.497   2.415   2.563
 3295SOL    HW110784   0.425   2.356   2.600
 3295SOL    HW210785   0.511   2.492   2.626
 3296SOL     OW10786   1.864   1.071   6.097
 3296SOL    HW110787   1.844   0.980   6.061
 3296SOL    HW210788   1.822   1.140   6.038
 3297SOL     OW10789   3.595   0.896   4.937
 3297SOL    HW110790   3.663   0.945   4.883
 3297SOL    HW210791   3.610   0.915   5.034
 3298SOL     OW10792   4.772   3.571   6.124
 3298SOL    HW110793   4.710   3.495   6.106
 3298SOL    HW210794   4.785   3.624   6.039
 3299SOL     OW10795   2.272   5.308   3.875
 3299SOL    HW110796   2.347   5.249   3.845
 3299SOL    HW210797   2.187   5.256   3.877
 3300SOL     OW10798   2.458   0.134   4.010
 3300SOL    HW110799   2.445   0.137   3.911
 3300SOL    HW210800   2.543   0.086   4.031
 3301SOL     OW10801   0.813   1.192   3.359
 3301SOL    HW110802   0.745   1.265   3.356
 3301SOL    HW210803   0.900   1.230   3.391
 3302SOL     OW10804   1.536   5.240   5.243
 3302SOL    HW110805   1.623   5.284   5.265
 3302SOL    HW210806   1.552   5.145   5.216
 3303SOL     OW10807   3.340   3.344   0.208
 3303SOL    HW110808   3.318   3.369   0.303
 3303SOL    HW210809   3.377   3.252   0.205
 3304SOL     OW10810   2.834   4.596   6.861
 3304SOL    HW110811   2.859   4.630   6.952
 3304SOL    HW210812   2.882   4.510   6.843
 3305SOL     OW10813   3.386   3.187   0.655
 3305SOL    HW110814   3.483   3.166   0.672
 3305SOL    HW210815   3.332   3.155   0.733
 3306SOL     OW10816   2.138   0.821   6.767
 3306SOL    HW110817   2.100   0.858   6.852
 3306SOL    HW210818   2.236   0.801   6.781
 3307SOL     OW10819   1.176   6.287   4.924
 3307SOL    HW110820   1.169   6.278   5.023
 3307SOL    HW210821   1.102   6.236   4.881
 3308SOL     OW10822   4.092   4.732   1.062
 3308SOL    HW110823   4.099   4.806   0.995
 3308SOL    HW210824   4.062   4.770   1.150
 3309SOL     OW10825   5.626   3.010   2.977
 3309SOL    HW110826   5.691   3.022   2.902
 3309SOL    HW210827   5.533   3.018   2.943
 3310SOL     OW10828   6.337   5.031   6.137
 3310SOL    HW110829   6.348   5.107   6.073
 3310SOL    HW210830   6.308   4.950   6.086
 3311SOL     OW10831   2.875   3.720   0.515
 3311SOL    HW110832   2.794   3.681   0.559
 3311SOL    HW210833   2.847   3.779   0.439
 3312SOL     OW10834   4.273   2.906   6.269
 3312SOL    HW110835   4.291   2.909   6.170
 3312SOL    HW210836   4.354   2.871   6.316
 3313SOL     OW10837   6.792   0.451   3.935
 3313SOL    HW110838   6.834   0.407   4.014
 3313SOL    HW210839   6.700   0.481   3.958
 3314SOL     OW10840   3.580   5.791   2.507
 3314SOL    HW110841   3.561   5.820   2.601
 3314SOL    HW210842   3.647   5.717   2.508
 3315SOL     OW10843   0.594   5.741   4.356
 3315SOL    HW110844   0.548   5.822   4.319
 3315SOL    HW210845   0.561   5.659   4.309
 3316SOL     OW10846   4.924   2.477   6.716
 3316SOL    HW110847   4.926   2.377   6.718
 3316SOL    HW210848   4.834   2.510   6.743
 3317SOL     OW10849   4.923   2.560   2.087
 3317SOL    HW110850   4.964   2.609   2.164
 3317SOL    HW210851   4.921   2.462   2.107
 3318SOL     OW10852   3.243   2.868   0.588
 3318SOL    HW110853   3.314   2.819   0.637
 3318SOL    HW210854   3.263   2.867   0.490
 3319SOL     OW10855   6.652   5.738   3.802
 3319SOL    HW110856   6.668   5.777   3.893
 3319SOL    HW210857   6.711   5.783   3.735
 3320SOL     OW10858   6.318   6.646   1.700
 3320SOL    HW110859   6.259   6.604   1.770
 3320SOL    HW210860   6.381   6.577   1.665
 3321SOL     OW10861   4.931   2.083   0.312
 3321SOL    HW110862   4.921   2.125   0.402
 3321SOL    HW210863   4.848   2.033   0.289
 3322SOL     OW10864   6.122   3.165   0.515
 3322SOL    HW110865   6.062   3.204   0.584
 3322SOL    HW210866   6.192   3.232   0.490
 3323SOL     OW10867   1.504   2.397   1.395
 3323SOL    HW110868   1.435   2.461   1.361
 3323SOL    HW210869   1.486   2.375   1.491
 3324SOL     OW10870   5.274   5.791   5.524
 3324SOL    HW110871   5.294   5.807   5.621
 3324SOL    HW210872   5.211   5.714   5.515
 3325SOL     OW10873   2.172   4.384   5.350
 3325SOL    HW110874   2.245   4.327   5.313
 3325SOL    HW210875   2.212   4.462   5.398
 3326SOL     OW10876   3.894   1.532   2.395
 3326SOL    HW110877   3.936   1.606   2.449
 3326SOL    HW210878   3.843   1.572   2.319
 3327SOL     OW10879   0.254   5.212   6.526
 3327SOL    HW110880   0.228   5.259   6.610
 3327SOL    HW210881   0.296   5.277   6.463
 3328SOL     OW10882   4.769   2.467   5.814
 3328SOL    HW110883   4.849   2.527   5.801
 3328SOL    HW210884   4.695   2.498   5.756
 3329SOL     OW10885   6.664   6.113   5.658
 3329SOL    HW110886   6.739   6.068   5.611
 3329SOL    HW210887   6.603   6.045   5.698
 3330SOL     OW10888   0.197   3.729   2.890
 3330SOL    HW110889   0.110   3.778   2.882
 3330SOL    HW210890   0.188   3.639   2.848
 3331SOL     OW10891   2.285   3.316   0.286
 3331SOL    HW110892   2.231   3.399   0.296
 3331SOL    HW210893   2.376   3.339   0.251
 3332SOL     OW10894   6.457   4.426   1.802
 3332SOL    HW110895   6.472   4.332   1.770
 3332SOL    HW210896   6.425   4.482   1.725
 3333SOL     OW10897   3.808   5.533   6.666
 3333SOL    HW110898   3.885   5.492   6.617
 3333SOL    HW210899   3.763   5.600   6.608
 3334SOL     OW10900   2.199   3.938   1.508
 3334SOL    HW110901   2.286   3.982   1.531
 3334SOL    HW210902   2.209   3.884   1.425
 3335SOL     OW10903   5.840   3.980   4.345
 3335SOL    HW110904   5.751   4.008   4.382
 3335SOL    HW210905   5.905   4.055   4.357
 3336SOL     OW10906   2.809   5.996   5.851
 3336SOL    HW110907   2.853   5.977   5.939
 3336SOL    HW210908   2.776   5.911   5.811
 3337SOL     OW10909   3.780   1.586   0.546
 3337SOL    HW110910   3.827   1.600   0.633
 3337SOL    HW210911   3.776   1.488   0.526
 3338SOL     OW10912   6.767   4.247   0.589
 3338SOL    HW110913   6.771   4.159   0.541
 3338SOL    HW210914   6.707   4.239   0.668
 3339SOL     OW10915   0.646   5.825   6.102
 3339SOL    HW110916   0.674   5.878   6.022
 3339SOL    HW210917   0.586   5.880   6.160
 3340SOL     OW10918   4.022   7.012   1.845
 3340SOL    HW110919   4.081   6.933   1.865
 3340SOL    HW210920   3.931   6.995   1.882
 3341SOL     OW10921   0.868   6.947   2.144
 3341SOL    HW110922   0.926   6.879   2.189
 3341SOL    HW210923   0.780   6.953   2.193
 3342SOL     OW10924   2.602   0.159   4.598
 3342SOL    HW110925   2.573   0.164   4.694
 3342SOL    HW210926   2.635   0.066   4.578
 3343SOL     OW10927   6.508   2.106   1.515
 3343SOL    HW110928   6.486   2.035   1.582
 3343SOL    HW210929   6.462   2.085   1.429
 3344SOL     OW10930   6.768   2.850   5.291
 3344SOL    HW110931   6.690   2.787   5.288
 3344SOL    HW210932   6.747   2.927   5.351
 3345SOL     OW10933   3.089   3.822   6.020
 3345SOL    HW110934   3.182   3.836   6.052
 3345SOL    HW210935   3.036   3.773   6.090
 3346SOL     OW10936   1.492   5.586   2.335
 3346SOL    HW110937   1.567   5.572   2.400
 3346SOL    HW210938   1.516   5.659   2.271
 3347SOL     OW10939   5.601   4.124   4.450
 3347SOL    HW110940   5.638   4.145   4.540
 3347SOL    HW210941   5.523   4.183   4.431
 3348SOL     OW10942   4.078   3.779   2.892
 3348SOL    HW110943   4.001   3.715   2.890
 3348SOL    HW210944   4.055   3.857   2.950
 3349SOL     OW10945   6.202   3.557   5.553
 3349SOL    HW110946   6.260   3.603   5.620
 3349SOL    HW210947   6.260   3.516   5.482
 3350SOL     OW10948   1.495   2.263   1.151
 3350SOL    HW110949   1.512   2.257   1.249
 3350SOL    HW210950   1.573   2.306   1.106
 3351SOL     OW10951   5.384   2.023   1.008
 3351SOL    HW110952   5.428   1.943   1.050
 3351SOL    HW210953   5.337   1.995   0.924
 3352SOL     OW10954   0.489   3.238   0.172
 3352SOL    HW110955   0.489   3.334   0.146
 3352SOL    HW210956   0.405   3.217   0.222
 3353SOL     OW10957   1.810   6.792   6.288
 3353SOL    HW110958   1.882   6.796   6.357
 3353SOL    HW210959   1.836   6.851   6.210
 3354SOL     OW10960   1.103   1.191   2.548
 3354SOL    HW110961   1.176   1.122   2.544
 3354SOL    HW210962   1.093   1.234   2.458
 3355SOL     OW10963   6.690   1.771   2.733
 3355SOL    HW110964   6.595   1.787   2.757
 3355SOL    HW210965   6.703   1.789   2.635
 3356SOL     OW10966   2.506   3.688   6.284
 3356SOL    HW110967   2.541   3.782   6.280
 3356SOL    HW210968   2.533   3.640   6.201
 3357SOL     OW10969   2.203   5.151   2.134
 3357SOL    HW110970   2.180   5.054   2.131
 3357SOL    HW210971   2.124   5.205   2.105
 3358SOL     OW10972   6.399   4.357   3.078
 3358SOL    HW110973   6.416   4.303   3.160
 3358SOL    HW210974   6.356   4.299   3.008
 3359SOL     OW10975   1.084   1.289   1.589
 3359SOL    HW110976   1.102   1.232   1.670
 3359SOL    HW210977   1.126   1.247   1.509
 3360SOL     OW10978   1.246   0.420   6.336
 3360SOL    HW110979   1.245   0.410   6.236
 3360SOL    HW210980   1.272   0.514   6.360
 3361SOL     OW10981   5.045   0.664   2.915
 3361SOL    HW110982   5.076   0.750   2.875
 3361SOL    HW210983   5.077   0.658   3.009
 3362SOL     OW10984   2.033   1.660   5.533
 3362SOL    HW110985   2.108   1.649   5.599
 3362SOL    HW210986   1.955   1.703   5.579
 3363SOL     OW10987   0.337   1.381   6.850
 3363SOL    HW110988   0.258   1.343   6.802
 3363SOL    HW210989   0.306   1.444   6.921
 3364SOL     OW10990   1.930   4.831   5.853
 3364SOL    HW110991   1.968   4.744   5.821
 3364SOL    HW210992   1.905   4.823   5.949
 3365SOL     OW10993   5.505   1.891   5.714
 3365SOL    HW110994   5.423   1.942   5.740
 3365SOL    HW210995   5.560   1.945   5.650
 3366SOL     OW10996   5.387   1.255   5.846
 3366SOL    HW110997   5.414   1.188   5.777
 3366SOL    HW210998   5.354   1.207   5.928
 3367SOL     OW10999   1.406   0.467   2.311
 3367SOL    HW111000   1.419   0.549   2.366
 3367SOL    HW211001   1.325   0.478   2.253
 3368SOL     OW11002   6.258   0.365   5.715
 3368SOL    HW111003   6.163   0.332   5.709
 3368SOL    HW211004   6.319   0.297   5.675
 3369SOL     OW11005   3.652   6.251   5.558
 3369SOL    HW111006   3.553   6.242   5.552
 3369SOL    HW211007   3.677   6.348   5.561
 3370SOL     OW11008   4.852   0.453   4.844
 3370SOL    HW111009   4.952   0.447   4.836
 3370SOL    HW211010   4.814   0.362   4.860
 3371SOL     OW11011   0.104   5.050   1.664
 3371SOL    HW111012   0.008   5.036   1.641
 3371SOL    HW211013   0.157   4.970   1.635
 3372SOL     OW11014   0.164   1.575   2.487
 3372SOL    HW111015   0.079   1.551   2.534
 3372SOL    HW211016   0.147   1.651   2.425
 3373SOL     OW11017   0.453   2.247   5.732
 3373SOL    HW111018   0.376   2.287   5.682
 3373SOL    HW211019   0.521   2.318   5.751
 3374SOL     OW11020   3.284   5.052   5.312
 3374SOL    HW111021   3.205   5.107   5.341
 3374SOL    HW211022   3.294   4.973   5.373
 3375SOL     OW11023   4.135   4.032   5.293
 3375SOL    HW111024   4.222   4.007   5.337
 3375SOL    HW211025   4.127   4.132   5.290
 3376SOL     OW11026   3.206   3.622   2.284
 3376SOL    HW111027   3.262   3.643   2.365
 3376SOL    HW211028   3.160   3.705   2.253
 3377SOL     OW11029   2.862   5.900   5.534
 3377SOL    HW111030   2.888   5.889   5.439
 3377SOL    HW211031   2.937   5.941   5.585
 3378SOL     OW11032   0.793   1.532   1.262
 3378SOL    HW111033   0.773   1.436   1.286
 3378SOL    HW211034   0.722   1.591   1.302
 3379SOL     OW11035   1.371   4.628   6.554
 3379SOL    HW111036   1.324   4.565   6.615
 3379SOL    HW211037   1.455   4.584   6.521
 3380SOL     OW11038   0.466   3.992   6.044
 3380SOL    HW111039   0.388   3.932   6.065
 3380SOL    HW211040   0.536   3.940   5.995
 3381SOL     OW11041   3.468   3.065   0.944
 3381SOL    HW111042   3.374   3.078   0.912
 3381SOL    HW211043   3.470   3.065   1.044
 3382SOL     OW11044   6.482   6.604   0.263
 3382SOL    HW111045   6.559   6.559   0.218
 3382SOL    HW211046   6.497   6.703   0.263
 3383SOL     OW11047   6.674   4.792   3.072
 3383SOL    HW111048   6.764   4.775   3.112
 3383SOL    HW211049   6.639   4.707   3.033
 3384SOL     OW11050   3.383   2.854   4.547
 3384SOL    HW111051   3.403   2.886   4.454
 3384SOL    HW211052   3.464   2.866   4.604
 3385SOL     OW11053   6.334   3.811   3.388
 3385SOL    HW111054   6.345   3.716   3.419
 3385SOL    HW211055   6.318   3.870   3.467
 3386SOL     OW11056   6.295   4.381   5.029
 3386SOL    HW111057   6.227   4.356   4.960
 3386SOL    HW211058   6.332   4.472   5.008
 3387SOL     OW11059   2.901   1.931   3.071
 3387SOL    HW111060   2.802   1.920   3.079
 3387SOL    HW211061   2.922   2.026   3.047
 3388SOL     OW11062   4.982   2.793   2.221
 3388SOL    HW111063   5.018   2.852   2.149
 3388SOL    HW211064   4.947   2.849   2.296
 3389SOL     OW11065   5.560   4.722   3.153
 3389SOL    HW111066   5.617   4.657   3.102
 3389SOL    HW211067   5.526   4.793   3.092
 3390SOL     OW11068   5.429   2.709   5.797
 3390SOL    HW111069   5.476   2.722   5.884
 3390SOL    HW211070   5.347   2.654   5.811
 3391SOL     OW11071   3.570   1.624   4.010
 3391SOL    HW111072   3.496   1.692   4.017
 3391SOL    HW211073   3.553   1.550   4.076
 3392SOL     OW11074   4.434   5.971   3.526
 3392SOL    HW111075   4.487   6.049   3.494
 3392SOL    HW211076   4.396   5.992   3.616
 3393SOL     OW11077   6.142   0.202   0.040
 3393SOL    HW111078   6.046   0.211   0.016
 3393SOL    HW211079   6.195   0.174   6.977
 3394SOL     OW11080   5.659   2.182   1.622
 3394SOL    HW111081   5.739   2.186   1.682
 3394SOL    HW211082   5.589   2.244   1.656
 3395SOL     OW11083   1.556   3.725   4.960
 3395SOL    HW111084   1.623   3.652   4.944
 3395SOL    HW211085   1.485   3.693   5.023
 3396SOL     OW11086   0.222   3.801   3.745
 3396SOL    HW111087   0.198   3.897   3.761
 3396SOL    HW211088   0.229   3.785   3.646
 3397SOL     OW11089   3.400   6.706   5.884
 3397SOL    HW111090   3.454   6.703   5.968
 3397SOL    HW211091   3.352   6.620   5.872
 3398SOL     OW11092   0.237   6.782   4.346
 3398SOL    HW111093   0.291   6.769   4.429
 3398SOL    HW211094   0.298   6.785   4.266
 3399SOL     OW11095   4.605   5.327   4.701
 3399SOL    HW111096   4.534   5.301   4.767
 3399SOL    HW211097   4.594   5.273   4.617
 3400SOL     OW11098   4.657   2.666   6.566
 3400SOL    HW111099   4.748   2.706   6.577
 3400SOL    HW211100   4.665   2.571   6.535
 3401SOL     OW11101   5.868   5.042   0.236
 3401SOL    HW111102   5.937   5.063   0.168
 3401SOL    HW211103   5.876   5.105   0.313
 3402SOL     OW11104   4.736   5.826   1.879
 3402SOL    HW111105   4.750   5.767   1.959
 3402SOL    HW211106   4.770   5.779   1.797
 3403SOL     OW11107   2.952   1.615   5.200
 3403SOL    HW111108   2.885   1.602   5.126
 3403SOL    HW211109   2.967   1.713   5.213
 3404SOL     OW11110   4.339   0.577   1.253
 3404SOL    HW111111   4.250   0.546   1.287
 3404SOL    HW211112   4.371   0.654   1.307
 3405SOL     OW11113   5.974   3.734   0.357
 3405SOL    HW111114   6.015   3.814   0.401
 3405SOL    HW211115   5.991   3.653   0.414
 3406SOL     OW11116   1.596   4.753   1.981
 3406SOL    HW111117   1.664   4.821   2.006
 3406SOL    HW211118   1.635   4.690   1.914
 3407SOL     OW11119   1.715   5.859   2.466
 3407SOL    HW111120   1.641   5.886   2.527
 3407SOL    HW211121   1.678   5.830   2.378
 3408SOL     OW11122   5.112   4.130   2.706
 3408SOL    HW111123   5.175   4.080   2.646
 3408SOL    HW211124   5.093   4.074   2.787
 3409SOL     OW11125   2.987   0.592   5.802
 3409SOL    HW111126   3.082   0.599   5.772
 3409SOL    HW211127   2.936   0.534   5.739
 3410SOL     OW11128   6.763   0.272   6.665
 3410SOL    HW111129   6.712   0.304   6.585
 3410SOL    HW211130   6.858   0.253   6.639
 3411SOL     OW11131   4.938   2.274   2.134
 3411SOL    HW111132   4.956   2.203   2.203
 3411SOL    HW211133   4.909   2.231   2.049
 3412SOL     OW11134   3.922   4.206   0.454
 3412SOL    HW111135   3.959   4.123   0.412
 3412SOL    HW211136   3.896   4.186   0.549
 3413SOL     OW11137   4.075   2.028   2.777
 3413SOL    HW111138   3.994   2.031   2.718
 3413SOL    HW211139   4.097   1.933   2.799
 3414SOL     OW11140   2.975   2.057   5.589
 3414SOL    HW111141   2.947   2.112   5.668
 3414SOL    HW211142   2.987   2.116   5.510
 3415SOL     OW11143   0.270   5.293   3.940
 3415SOL    HW111144   0.233   5.311   3.849
 3415SOL    HW211145   0.195   5.284   4.005
 3416SOL     OW11146   1.840   4.452   5.404
 3416SOL    HW111147   1.877   4.542   5.380
 3416SOL    HW211148   1.843   4.392   5.325
 3417SOL     OW11149   5.267   0.130   2.416
 3417SOL    HW111150   5.272   0.188   2.335
 3417SOL    HW211151   5.275   0.034   2.388
 3418SOL     OW11152   3.286   1.224   6.299
 3418SOL    HW111153   3.215   1.203   6.367
 3418SOL    HW211154   3.278   1.161   6.222
 3419SOL     OW11155   4.400   4.099   0.456
 3419SOL    HW111156   4.339   4.172   0.487
 3419SOL    HW211157   4.491   4.136   0.439
 3420SOL     OW11158   4.079   2.056   4.020
 3420SOL    HW111159   4.129   2.136   3.987
 3420SOL    HW211160   3.981   2.074   4.016
 3421SOL     OW11161   6.964   6.176   4.479
 3421SOL    HW111162   6.917   6.094   4.512
 3421SOL    HW211163   6.950   6.251   4.544
 3422SOL     OW11164   2.788   1.224   1.702
 3422SOL    HW111165   2.769   1.322   1.711
 3422SOL    HW211166   2.883   1.211   1.675
 3423SOL     OW11167   2.447   0.245   1.201
 3423SOL    HW111168   2.540   0.250   1.238
 3423SOL    HW211169   2.448   0.273   1.105
 3424SOL     OW11170   4.316   1.434   2.826
 3424SOL    HW111171   4.217   1.425   2.821
 3424SOL    HW211172   4.358   1.345   2.808
 3425SOL     OW11173   4.318   4.561   1.651
 3425SOL    HW111174   4.342   4.602   1.739
 3425SOL    HW211175   4.365   4.473   1.641
 3426SOL     OW11176   4.389   3.368   0.551
 3426SOL    HW111177   4.420   3.452   0.596
 3426SOL    HW211178   4.432   3.290   0.596
 3427SOL     OW11179   0.085   2.152   6.705
 3427SOL    HW111180   0.073   2.233   6.648
 3427SOL    HW211181   0.116   2.179   6.796
 3428SOL     OW11182   4.596   4.582   3.060
 3428SOL    HW111183   4.613   4.569   3.158
 3428SOL    HW211184   4.595   4.493   3.014
 3429SOL     OW11185   1.286   3.196   6.683
 3429SOL    HW111186   1.290   3.105   6.643
 3429SOL    HW211187   1.261   3.190   6.779
 3430SOL     OW11188   1.418   6.860   0.202
 3430SOL    HW111189   1.465   6.859   0.114
 3430SOL    HW211190   1.326   6.897   0.191
 3431SOL     OW11191   0.731   5.886   0.287
 3431SOL    HW111192   0.652   5.879   0.348
 3431SOL    HW211193   0.802   5.941   0.331
 3432SOL     OW11194   3.400   1.566   6.524
 3432SOL    HW111195   3.359   1.573   6.615
 3432SOL    HW211196   3.377   1.648   6.471
 3433SOL     OW11197   4.139   0.719   5.014
 3433SOL    HW111198   4.107   0.655   5.084
 3433SOL    HW211199   4.067   0.736   4.947
 3434SOL     OW11200   4.437   2.052   2.545
 3434SOL    HW111201   4.427   2.058   2.644
 3434SOL    HW211202   4.414   2.140   2.504
 3435SOL     OW11203   0.250   1.005   0.347
 3435SOL    HW111204   0.251   1.088   0.403
 3435SOL    HW211205   0.155   0.979   0.327
 3436SOL     OW11206   4.064   6.708   3.792
 3436SOL    HW111207   4.121   6.635   3.755
 3436SOL    HW211208   4.057   6.698   3.892
 3437SOL     OW11209   3.726   6.846   6.463
 3437SOL    HW111210   3.729   6.748   6.444
 3437SOL    HW211211   3.663   6.890   6.399
 3438SOL     OW11212   1.205   3.500   6.619
 3438SOL    HW111213   1.199   3.494   6.520
 3438SOL    HW211214   1.259   3.423   6.654
 3439SOL     OW11215   2.629   5.568   3.467
 3439SOL    HW111216   2.542   5.522   3.484
 3439SOL    HW211217   2.633   5.652   3.521
 3440SOL     OW11218   4.921   2.340   0.708
 3440SOL    HW111219   4.905   2.308   0.802
 3440SOL    HW211220   4.976   2.424   0.711
 3441SOL     OW11221   3.218   0.315   3.795
 3441SOL    HW111222   3.280   0.349   3.865
 3441SOL    HW211223   3.254   0.230   3.757
 3442SOL     OW11224   2.055   5.115   2.945
 3442SOL    HW111225   1.968   5.088   2.902
 3442SOL    HW211226   2.125   5.048   2.921
 3443SOL     OW11227   5.942   0.736   3.743
 3443SOL    HW111228   6.002   0.814   3.728
 3443SOL    HW211229   5.847   0.763   3.725
 3444SOL     OW11230   4.461   5.262   0.105
 3444SOL    HW111231   4.395   5.187   0.115
 3444SOL    HW211232   4.423   5.345   0.145
 3445SOL     OW11233   5.979   4.250   4.389
 3445SOL    HW111234   5.952   4.308   4.466
 3445SOL    HW211235   6.071   4.215   4.404
 3446SOL     OW11236   3.672   6.822   3.106
 3446SOL    HW111237   3.666   6.838   3.007
 3446SOL    HW211238   3.619   6.742   3.130
 3447SOL     OW11239   5.546   5.828   6.147
 3447SOL    HW111240   5.510   5.910   6.101
 3447SOL    HW211241   5.645   5.839   6.160
 3448SOL     OW11242   3.554   2.032   1.278
 3448SOL    HW111243   3.539   1.943   1.321
 3448SOL    HW211244   3.532   2.104   1.344
 3449SOL     OW11245   6.399   5.782   4.039
 3449SOL    HW111246   6.492   5.781   4.075
 3449SOL    HW211247   6.397   5.834   3.953
 3450SOL     OW11248   1.118   1.612   1.399
 3450SOL    HW111249   1.057   1.632   1.322
 3450SOL    HW211250   1.068   1.624   1.485
 3451SOL     OW11251   1.151   5.741   4.593
 3451SOL    HW111252   1.100   5.816   4.552
 3451SOL    HW211253   1.107   5.712   4.678
 3452SOL     OW11254   6.029   2.071   6.671
 3452SOL    HW111255   5.975   2.110   6.597
 3452SOL    HW211256   5.969   2.048   6.747
 3453SOL     OW11257   5.566   5.559   5.461
 3453SOL    HW111258   5.661   5.530   5.452
 3453SOL    HW211259   5.552   5.600   5.551
 3454SOL     OW11260   0.698   0.633   0.433
 3454SOL    HW111261   0.776   0.579   0.465
 3454SOL    HW211262   0.723   0.729   0.427
 3455SOL     OW11263   1.822   2.647   4.319
 3455SOL    HW111264   1.793   2.613   4.229
 3455SOL    HW211265   1.836   2.570   4.381
 3456SOL     OW11266   6.090   6.914   1.968
 3456SOL    HW111267   6.188   6.931   1.976
 3456SOL    HW211268   6.062   6.849   2.039
 3457SOL     OW11269   2.496   5.147   2.966
 3457SOL    HW111270   2.585   5.190   2.973
 3457SOL    HW211271   2.478   5.094   3.049
 3458SOL     OW11272   5.064   5.853   0.936
 3458SOL    HW111273   5.042   5.764   0.976
 3458SOL    HW211274   5.133   5.841   0.864
 3459SOL     OW11275   6.337   6.218   3.853
 3459SOL    HW111276   6.362   6.138   3.798
 3459SOL    HW211277   6.291   6.189   3.936
 3460SOL     OW11278   4.292   3.252   6.614
 3460SOL    HW111279   4.196   3.267   6.593
 3460SOL    HW211280   4.346   3.328   6.579
 3461SOL     OW11281   3.185   5.802   2.540
 3461SOL    HW111282   3.239   5.823   2.458
 3461SOL    HW211283   3.242   5.816   2.621
 3462SOL     OW11284   5.160   3.278   3.307
 3462SOL    HW111285   5.085   3.319   3.359
 3462SOL    HW211286   5.129   3.193   3.265
 3463SOL     OW11287   2.286   2.756   0.952
 3463SOL    HW111288   2.211   2.716   1.005
 3463SOL    HW211289   2.362   2.778   1.014
 3464SOL     OW11290   4.524   2.850   6.713
 3464SOL    HW111291   4.610   2.857   6.764
 3464SOL    HW211292   4.532   2.779   6.643
 3465SOL     OW11293   2.129   3.531   2.191
 3465SOL    HW111294   2.174   3.512   2.104
 3465SOL    HW211295   2.040   3.574   2.174
 3466SOL     OW11296   6.062   4.636   3.910
 3466SOL    HW111297   6.008   4.687   3.976
 3466SOL    HW211298   6.090   4.696   3.835
 3467SOL     OW11299   3.250   2.711   1.288
 3467SOL    HW111300   3.298   2.721   1.375
 3467SOL    HW211301   3.176   2.779   1.283
 3468SOL     OW11302   3.582   1.711   0.924
 3468SOL    HW111303   3.583   1.807   0.952
 3468SOL    HW211304   3.594   1.653   1.005
 3469SOL     OW11305   4.361   6.245   5.783
 3469SOL    HW111306   4.429   6.241   5.709
 3469SOL    HW211307   4.284   6.302   5.754
 3470SOL     OW11308   0.651   2.712   1.938
 3470SOL    HW111309   0.616   2.625   1.972
 3470SOL    HW211310   0.575   2.770   1.909
 3471SOL     OW11311   5.026   3.517   3.712
 3471SOL    HW111312   5.060   3.565   3.631
 3471SOL    HW211313   5.045   3.571   3.794
 3472SOL     OW11314   4.277   1.417   3.589
 3472SOL    HW111315   4.207   1.461   3.645
 3472SOL    HW211316   4.235   1.383   3.505
 3473SOL     OW11317   0.117   4.327   1.799
 3473SOL    HW111318   0.129   4.402   1.864
 3473SOL    HW211319   0.196   4.266   1.804
 3474SOL     OW11320   5.901   4.994   4.102
 3474SOL    HW111321   5.908   5.028   4.008
 3474SOL    HW211322   5.962   5.047   4.161
 3475SOL     OW11323   6.720   3.970   4.063
 3475SOL    HW111324   6.628   3.967   4.103
 3475SOL    HW211325   6.735   4.059   4.020
 3476SOL     OW11326   1.062   0.871   3.507
 3476SOL    HW111327   1.006   0.862   3.424
 3476SOL    HW211328   1.005   0.908   3.581
 3477SOL     OW11329   0.370   4.158   1.815
 3477SOL    HW111330   0.462   4.195   1.796
 3477SOL    HW211331   0.377   4.085   1.882
 3478SOL     OW11332   1.986   0.515   0.743
 3478SOL    HW111333   2.073   0.512   0.793
 3478SOL    HW211334   1.955   0.422   0.724
 3479SOL     OW11335   1.745   4.407   4.023
 3479SOL    HW111336   1.778   4.312   4.021
 3479SOL    HW211337   1.706   4.427   4.113
 3480SOL     OW11338   1.606   4.844   0.071
 3480SOL    HW111339   1.681   4.866   0.134
 3480SOL    HW211340   1.519   4.854   0.119
 3481SOL     OW11341   6.249   0.950   5.098
 3481SOL    HW111342   6.231   0.859   5.062
 3481SOL    HW211343   6.195   1.017   5.047
 3482SOL     OW11344   6.003   4.238   5.053
 3482SOL    HW111345   6.019   4.183   5.135
 3482SOL    HW211346   5.962   4.325   5.078
 3483SOL     OW11347   5.030   2.887   4.652
 3483SOL    HW111348   5.074   2.936   4.577
 3483SOL    HW211349   5.089   2.813   4.684
 3484SOL     OW11350   2.135   3.269   4.933
 3484SOL    HW111351   2.170   3.226   4.850
 3484SOL    HW211352   2.161   3.213   5.012
 3485SOL     OW11353   0.588   2.297   6.269
 3485SOL    HW111354   0.548   2.268   6.182
 3485SOL    HW211355   0.585   2.397   6.274
 3486SOL     OW11356   2.341   0.062   4.920
 3486SOL    HW111357   2.380   0.144   4.878
 3486SOL    HW211358   2.280   0.088   4.995
 3487SOL     OW11359   4.983   1.477   6.593
 3487SOL    HW111360   4.908   1.435   6.644
 3487SOL    HW211361   4.965   1.469   6.495
 3488SOL     OW11362   5.859   0.864   4.376
 3488SOL    HW111363   5.911   0.916   4.443
 3488SOL    HW211364   5.890   0.769   4.376
 3489SOL     OW11365   3.086   6.597   0.218
 3489SOL    HW111366   3.177   6.555   0.213
 3489SOL    HW211367   3.016   6.526   0.213
 3490SOL     OW11368   3.708   5.572   0.279
 3490SOL    HW111369   3.662   5.611   0.199
 3490SOL    HW211370   3.641   5.558   0.352
 3491SOL     OW11371   5.069   4.617   6.513
 3491SOL    HW111372   5.160   4.595   6.550
 3491SOL    HW211373   5.007   4.540   6.531
 3492SOL     OW11374   6.127   4.471   2.773
 3492SOL    HW111375   6.201   4.527   2.811
 3492SOL    HW211376   6.164   4.412   2.701
 3493SOL     OW11377   5.622   3.509   4.882
 3493SOL    HW111378   5.582   3.439   4.823
 3493SOL    HW211379   5.716   3.482   4.906
 3494SOL     OW11380   4.508   1.529   1.839
 3494SOL    HW111381   4.577   1.581   1.890
 3494SOL    HW211382   4.548   1.492   1.756
 3495SOL     OW11383   0.836   2.757   2.726
 3495SOL    HW111384   0.756   2.811   2.752
 3495SOL    HW211385   0.808   2.681   2.668
 3496SOL     OW11386   5.587   5.359   1.094
 3496SOL    HW111387   5.584   5.450   1.055
 3496SOL    HW211388   5.656   5.355   1.166
 3497SOL     OW11389   3.153   0.495   2.522
 3497SOL    HW111390   3.139   0.423   2.590
 3497SOL    HW211391   3.111   0.580   2.555
 3498SOL     OW11392   2.211   1.784   1.311
 3498SOL    HW111393   2.119   1.771   1.347
 3498SOL    HW211394   2.205   1.819   1.217
 3499SOL     OW11395   6.311   5.546   5.495
 3499SOL    HW111396   6.386   5.495   5.454
 3499SOL    HW211397   6.330   5.644   5.488
 3500SOL     OW11398   1.395   2.059   4.179
 3500SOL    HW111399   1.318   2.123   4.179
 3500SOL    HW211400   1.478   2.107   4.205
 3501SOL     OW11401   1.579   0.211   5.779
 3501SOL    HW111402   1.531   0.145   5.721
 3501SOL    HW211403   1.521   0.239   5.854
 3502SOL     OW11404   4.864   3.097   2.205
 3502SOL    HW111405   4.812   3.071   2.124
 3502SOL    HW211406   4.958   3.118   2.178
 3503SOL     OW11407   6.250   5.894   0.005
 3503SOL    HW111408   6.286   5.809   0.042
 3503SOL    HW211409   6.155   5.905   0.033
 3504SOL     OW11410   1.553   1.152   0.786
 3504SOL    HW111411   1.521   1.131   0.693
 3504SOL    HW211412   1.618   1.082   0.815
 3505SOL     OW11413   5.829   4.911   6.196
 3505SOL    HW111414   5.849   4.987   6.134
 3505SOL    HW211415   5.742   4.927   6.242
 3506SOL     OW11416   5.000   4.748   4.882
 3506SOL    HW111417   5.069   4.682   4.909
 3506SOL    HW211418   4.987   4.816   4.955
 3507SOL     OW11419   2.842   6.445   0.376
 3507SOL    HW111420   2.927   6.397   0.352
 3507SOL    HW211421   2.849   6.479   0.470
 3508SOL     OW11422   3.031   2.206   5.381
 3508SOL    HW111423   3.002   2.289   5.429
 3508SOL    HW211424   3.094   2.231   5.307
 3509SOL     OW11425   4.217   5.446   6.766
 3509SOL    HW111426   4.296   5.425   6.708
 3509SOL    HW211427   4.138   5.393   6.734
 3510SOL     OW11428   2.913   0.731   0.784
 3510SOL    HW111429   2.881   0.717   0.878
 3510SOL    HW211430   2.888   0.823   0.754
 3511SOL     OW11431   2.562   4.621   1.897
 3511SOL    HW111432   2.534   4.576   1.982
 3511SOL    HW211433   2.661   4.608   1.884
 3512SOL     OW11434   0.389   4.621   6.642
 3512SOL    HW111435   0.398   4.719   6.625
 3512SOL    HW211436   0.403   4.602   6.740
 3513SOL     OW11437   6.090   1.837   6.998
 3513SOL    HW111438   6.056   1.929   0.002
 3513SOL    HW211439   6.125   1.835   6.905
 3514SOL     OW11440   3.936   1.198   2.648
 3514SOL    HW111441   4.026   1.153   2.656
 3514SOL    HW211442   3.912   1.206   2.552
 3515SOL     OW11443   6.275   5.507   4.350
 3515SOL    HW111444   6.255   5.581   4.286
 3515SOL    HW211445   6.306   5.427   4.300
 3516SOL     OW11446   5.246   0.167   1.326
 3516SOL    HW111447   5.180   0.227   1.371
 3516SOL    HW211448   5.214   0.073   1.329
 3517SOL     OW11449   5.959   0.645   0.957
 3517SOL    HW111450   5.946   0.593   0.872
 3517SOL    HW211451   6.056   0.665   0.969
 3518SOL     OW11452   5.243   1.347   5.403
 3518SOL    HW111453   5.308   1.296   5.347
 3518SOL    HW211454   5.150   1.323   5.375
 3519SOL     OW11455   3.459   0.888   0.582
 3519SOL    HW111456   3.513   0.859   0.502
 3519SOL    HW211457   3.423   0.980   0.566
 3520SOL     OW11458   2.584   6.282   4.899
 3520SOL    HW111459   2.517   6.315   4.966
 3520SOL    HW211460   2.672   6.325   4.916
 3521SOL     OW11461   2.714   2.652   0.219
 3521SOL    HW111462   2.757   2.695   0.298
 3521SOL    HW211463   2.636   2.597   0.249
 3522SOL     OW11464   0.299   5.827   6.767
 3522SOL    HW111465   0.300   5.879   6.681
 3522SOL    HW211466   0.270   5.733   6.749
 3523SOL     OW11467   1.159   5.510   6.287
 3523SOL    HW111468   1.196   5.602   6.274
 3523SOL    HW211469   1.211   5.463   6.358
 3524SOL     OW11470   5.649   1.056   3.202
 3524SOL    HW111471   5.712   1.003   3.258
 3524SOL    HW211472   5.693   1.078   3.114
 3525SOL     OW11473   6.172   4.211   3.282
 3525SOL    HW111474   6.164   4.310   3.269
 3525SOL    HW211475   6.261   4.190   3.323
 3526SOL     OW11476   1.050   6.265   2.850
 3526SOL    HW111477   1.022   6.188   2.793
 3526SOL    HW211478   1.136   6.303   2.816
 3527SOL     OW11479   6.490   2.666   5.560
 3527SOL    HW111480   6.568   2.700   5.508
 3527SOL    HW211481   6.425   2.623   5.498
 3528SOL     OW11482   2.204   6.462   4.677
 3528SOL    HW111483   2.191   6.559   4.657
 3528SOL    HW211484   2.296   6.434   4.651
 3529SOL     OW11485   4.539   5.199   0.576
 3529SOL    HW111486   4.447   5.192   0.538
 3529SOL    HW211487   4.588   5.114   0.559
 3530SOL     OW11488   6.795   0.608   1.907
 3530SOL    HW111489   6.721   0.579   1.847
 3530SOL    HW211490   6.768   0.692   1.955
 3531SOL     OW11491   5.445   1.413   0.836
 3531SOL    HW111492   5.512   1.423   0.762
 3531SOL    HW211493   5.451   1.493   0.897
 3532SOL     OW11494   1.630   1.586   1.854
 3532SOL    HW111495   1.554   1.559   1.796
 3532SOL    HW211496   1.598   1.651   1.923
 3533SOL     OW11497   0.355   0.960   2.598
 3533SOL    HW111498   0.336   1.049   2.640
 3533SOL    HW211499   0.359   0.970   2.499
 3534SOL     OW11500   0.172   0.820   0.918
 3534SOL    HW111501   0.133   0.747   0.974
 3534SOL    HW211502   0.230   0.878   0.975
 3535SOL     OW11503   2.795   5.855   4.429
 3535SOL    HW111504   2.785   5.766   4.473
 3535SOL    HW211505   2.822   5.923   4.498
 3536SOL     OW11506   3.432   2.099   2.805
 3536SOL    HW111507   3.468   2.006   2.807
 3536SOL    HW211508   3.496   2.161   2.849
 3537SOL     OW11509   1.590   5.686   2.748
 3537SOL    HW111510   1.620   5.653   2.659
 3537SOL    HW211511   1.523   5.622   2.786
 3538SOL     OW11512   3.141   5.578   4.074
 3538SOL    HW111513   3.147   5.564   3.975
 3538SOL    HW211514   3.223   5.542   4.118
 3539SOL     OW11515   3.623   3.847   4.235
 3539SOL    HW111516   3.561   3.903   4.289
 3539SOL    HW211517   3.571   3.799   4.165
 3540SOL     OW11518   1.989   1.934   3.833
 3540SOL    HW111519   2.022   1.969   3.921
 3540SOL    HW211520   1.891   1.917   3.839
 3541SOL     OW11521   3.239   4.090   4.785
 3541SOL    HW111522   3.158   4.146   4.798
 3541SOL    HW211523   3.233   4.008   4.842
 3542SOL     OW11524   0.533   5.103   1.764
 3542SOL    HW111525   0.500   5.122   1.672
 3542SOL    HW211526   0.622   5.148   1.778
 3543SOL     OW11527   5.699   3.025   4.498
 3543SOL    HW111528   5.754   2.964   4.554
 3543SOL    HW211529   5.746   3.113   4.488
 3544SOL     OW11530   2.015   5.165   6.060
 3544SOL    HW111531   2.050   5.239   6.117
 3544SOL    HW211532   2.017   5.193   5.964
 3545SOL     OW11533   3.936   5.069   6.571
 3545SOL    HW111534   3.908   5.030   6.659
 3545SOL    HW211535   3.985   5.000   6.518
 3546SOL     OW11536   6.175   5.161   3.136
 3546SOL    HW111537   6.141   5.084   3.190
 3546SOL    HW211538   6.210   5.232   3.197
 3547SOL     OW11539   5.488   5.131   4.411
 3547SOL    HW111540   5.389   5.144   4.406
 3547SOL    HW211541   5.515   5.058   4.348
 3548SOL     OW11542   4.676   2.962   5.575
 3548SOL    HW111543   4.754   2.902   5.555
 3548SOL    HW211544   4.641   3.000   5.490
 3549SOL     OW11545   6.001   4.200   2.833
 3549SOL    HW111546   5.951   4.196   2.920
 3549SOL    HW211547   6.045   4.290   2.825
 3550SOL     OW11548   5.931   2.043   2.231
 3550SOL    HW111549   5.954   2.053   2.328
 3550SOL    HW211550   5.949   1.949   2.202
 3551SOL     OW11551   2.642   6.648   3.360
 3551SOL    HW111552   2.609   6.678   3.449
 3551SOL    HW211553   2.619   6.716   3.290
 3552SOL     OW11554   6.348   5.074   2.924
 3552SOL    HW111555   6.308   5.108   2.839
 3552SOL    HW211556   6.289   5.102   3.001
 3553SOL     OW11557   5.774   1.376   2.845
 3553SOL    HW111558   5.719   1.453   2.812
 3553SOL    HW211559   5.842   1.352   2.776
 3554SOL     OW11560   4.099   5.085   6.221
 3554SOL    HW111561   4.105   5.176   6.180
 3554SOL    HW211562   4.127   5.089   6.317
 3555SOL     OW11563   1.329   2.800   3.309
 3555SOL    HW111564   1.414   2.802   3.363
 3555SOL    HW211565   1.280   2.886   3.321
 3556SOL     OW11566   3.614   0.682   6.756
 3556SOL    HW111567   3.576   0.764   6.715
 3556SOL    HW211568   3.614   0.608   6.689
 3557SOL     OW11569   1.429   0.276   5.031
 3557SOL    HW111570   1.486   0.219   5.091
 3557SOL    HW211571   1.334   0.268   5.060
 3558SOL     OW11572   6.923   5.724   1.452
 3558SOL    HW111573   6.855   5.787   1.488
 3558SOL    HW211574   6.919   5.725   1.352
 3559SOL     OW11575   0.738   0.422   5.510
 3559SOL    HW111576   0.657   0.481   5.505
 3559SOL    HW211577   0.713   0.334   5.551
 3560SOL     OW11578   6.789   6.761   1.453
 3560SOL    HW111579   6.820   6.681   1.402
 3560SOL    HW211580   6.820   6.844   1.407
 3561SOL     OW11581   5.029   4.880   5.141
 3561SOL    HW111582   5.126   4.874   5.162
 3561SOL    HW211583   4.982   4.800   5.179
 3562SOL     OW11584   4.466   0.986   2.993
 3562SOL    HW111585   4.550   0.972   3.045
 3562SOL    HW211586   4.446   0.904   2.940
 3563SOL     OW11587   4.756   0.825   1.437
 3563SOL    HW111588   4.686   0.762   1.471
 3563SOL    HW211589   4.738   0.917   1.471
 3564SOL     OW11590   0.061   4.782   3.349
 3564SOL    HW111591   0.101   4.867   3.316
 3564SOL    HW211592   0.133   4.724   3.388
 3565SOL     OW11593   1.989   0.448   4.972
 3565SOL    HW111594   2.066   0.492   4.925
 3565SOL    HW211595   2.020   0.413   5.061
 3566SOL     OW11596   0.575   3.586   5.433
 3566SOL    HW111597   0.663   3.540   5.448
 3566SOL    HW211598   0.540   3.563   5.342
 3567SOL     OW11599   0.249   3.452   1.099
 3567SOL    HW111600   0.283   3.419   1.011
 3567SOL    HW211601   0.232   3.550   1.093
 3568SOL     OW11602   4.834   3.916   3.340
 3568SOL    HW111603   4.803   3.867   3.421
 3568SOL    HW211604   4.899   3.987   3.368
 3569SOL     OW11605   3.836   3.421   3.877
 3569SOL    HW111606   3.791   3.399   3.963
 3569SOL    HW211607   3.932   3.445   3.894
 3570SOL     OW11608   0.180   2.213   5.874
 3570SOL    HW111609   0.095   2.263   5.888
 3570SOL    HW211610   0.258   2.272   5.896
 3571SOL     OW11611   2.173   6.486   4.943
 3571SOL    HW111612   2.165   6.453   4.849
 3571SOL    HW211613   2.105   6.440   5.000
 3572SOL     OW11614   4.685   4.664   2.092
 3572SOL    HW111615   4.779   4.641   2.115
 3572SOL    HW211616   4.657   4.617   2.008
 3573SOL     OW11617   0.048   3.922   3.378
 3573SOL    HW111618   0.066   3.997   3.315
 3573SOL    HW211619   6.976   3.880   3.357
 3574SOL     OW11620   2.111   2.661   5.566
 3574SOL    HW111621   2.126   2.624   5.474
 3574SOL    HW211622   2.196   2.655   5.619
 3575SOL     OW11623   5.132   0.344   0.467
 3575SOL    HW111624   5.036   0.338   0.497
 3575SOL    HW211625   5.186   0.387   0.539
 3576SOL     OW11626   1.654   3.054   0.921
 3576SOL    HW111627   1.605   3.074   0.836
 3576SOL    HW211628   1.588   3.031   0.992
 3577SOL     OW11629   2.668   3.110   5.658
 3577SOL    HW111630   2.586   3.157   5.625
 3577SOL    HW211631   2.740   3.118   5.589
 3578SOL     OW11632   3.380   2.927   5.974
 3578SOL    HW111633   3.358   2.987   5.897
 3578SOL    HW211634   3.473   2.893   5.964
 3579SOL     OW11635   0.701   3.070   2.063
 3579SOL    HW111636   0.616   3.021   2.083
 3579SOL    HW211637   0.725   3.057   1.967
 3580SOL     OW11638   0.609   4.303   1.782
 3580SOL    HW111639   0.683   4.316   1.715
 3580SOL    HW211640   0.561   4.389   1.795
 3581SOL     OW11641   1.745   6.981   2.817
 3581SOL    HW111642   1.841   6.979   2.845
 3581SOL    HW211643   1.740   6.994   2.718
 3582SOL     OW11644   3.749   4.672   6.504
 3582SOL    HW111645   3.674   4.677   6.438
 3582SOL    HW211646   3.774   4.576   6.518
 3583SOL     OW11647   0.754   5.168   0.584
 3583SOL    HW111648   0.816   5.235   0.626
 3583SOL    HW211649   0.765   5.079   0.629
 3584SOL     OW11650   6.269   4.783   5.230
 3584SOL    HW111651   6.171   4.765   5.230
 3584SOL    HW211652   6.284   4.882   5.231
 3585SOL     OW11653   2.872   1.432   3.054
 3585SOL    HW111654   2.865   1.517   3.002
 3585SOL    HW211655   2.856   1.451   3.151
 3586SOL     OW11656   6.744   2.026   4.931
 3586SOL    HW111657   6.662   1.982   4.968
 3586SOL    HW211658   6.823   2.003   4.987
 3587SOL     OW11659   2.805   6.843   6.392
 3587SOL    HW111660   2.880   6.794   6.435
 3587SOL    HW211661   2.799   6.935   6.430
 3588SOL     OW11662   6.450   4.393   4.605
 3588SOL    HW111663   6.422   4.473   4.658
 3588SOL    HW211664   6.547   4.374   4.621
 3589SOL     OW11665   0.055   0.464   5.952
 3589SOL    HW111666   6.998   0.401   5.931
 3589SOL    HW211667   0.027   0.557   5.931
 3590SOL     OW11668   6.664   5.091   0.352
 3590SOL    HW111669   6.595   5.164   0.351
 3590SOL    HW211670   6.724   5.101   0.273
 3591SOL     OW11671   5.654   1.498   6.757
 3591SOL    HW111672   5.703   1.431   6.813
 3591SOL    HW211673   5.719   1.566   6.723
 3592SOL     OW11674   1.835   6.308   1.393
 3592SOL    HW111675   1.748   6.286   1.437
 3592SOL    HW211676   1.839   6.406   1.374
 3593SOL     OW11677   4.465   3.172   5.426
 3593SOL    HW111678   4.531   3.235   5.386
 3593SOL    HW211679   4.457   3.090   5.369
 3594SOL     OW11680   4.521   4.668   5.153
 3594SOL    HW111681   4.441   4.618   5.120
 3594SOL    HW211682   4.585   4.683   5.078
 3595SOL     OW11683   5.628   6.635   5.004
 3595SOL    HW111684   5.613   6.732   5.025
 3595SOL    HW211685   5.540   6.589   4.995
 3596SOL     OW11686   3.916   2.154   3.807
 3596SOL    HW111687   3.979   2.207   3.864
 3596SOL    HW211688   3.932   2.056   3.823
 3597SOL     OW11689   2.421   3.262   5.351
 3597SOL    HW111690   2.461   3.191   5.294
 3597SOL    HW211691   2.404   3.225   5.443
 3598SOL     OW11692   1.312   5.575   5.229
 3598SOL    HW111693   1.213   5.566   5.231
 3598SOL    HW211694   1.350   5.522   5.153
 3599SOL     OW11695   3.614   1.226   4.795
 3599SOL    HW111696   3.539   1.167   4.824
 3599SOL    HW211697   3.675   1.242   4.872
 3600SOL     OW11698   3.159   3.662   0.479
 3600SOL    HW111699   3.076   3.608   0.495
 3600SOL    HW211700   3.232   3.626   0.536
 3601SOL     OW11701   4.914   0.644   5.009
 3601SOL    HW111702   4.846   0.716   5.015
 3601SOL    HW211703   4.877   0.567   4.958
 3602SOL     OW11704   1.969   1.823   1.459
 3602SOL    HW111705   1.890   1.871   1.420
 3602SOL    HW211706   1.990   1.861   1.549
 3603SOL     OW11707   2.736   0.861   5.469
 3603SOL    HW111708   2.767   0.774   5.506
 3603SOL    HW211709   2.712   0.849   5.372
 3604SOL     OW11710   6.995   0.386   3.120
 3604SOL    HW111711   0.054   0.450   3.116
 3604SOL    HW211712   6.975   0.351   3.028
 3605SOL     OW11713   1.434   6.440   3.996
 3605SOL    HW111714   1.422   6.380   4.075
 3605SOL    HW211715   1.509   6.406   3.939
 3606SOL     OW11716   2.758   6.533   2.592
 3606SOL    HW111717   2.694   6.568   2.523
 3606SOL    HW211718   2.808   6.609   2.633
 3607SOL     OW11719   5.456   1.629   2.546
 3607SOL    HW111720   5.520   1.564   2.587
 3607SOL    HW211721   5.430   1.698   2.614
 3608SOL     OW11722   2.625   1.957   6.079
 3608SOL    HW111723   2.720   1.928   6.067
 3608SOL    HW211724   2.597   1.940   6.174
 3609SOL     OW11725   2.694   0.907   4.772
 3609SOL    HW111726   2.731   0.932   4.682
 3609SOL    HW211727   2.731   0.818   4.798
 3610SOL     OW11728   1.589   0.107   5.156
 3610SOL    HW111729   1.645   0.154   5.088
 3610SOL    HW211730   1.586   0.162   5.240
 3611SOL     OW11731   5.345   5.152   2.976
 3611SOL    HW111732   5.394   5.150   3.063
 3611SOL    HW211733   5.411   5.170   2.902
 3612SOL     OW11734   6.031   1.149   0.039
 3612SOL    HW111735   6.127   1.127   0.023
 3612SOL    HW211736   6.024   1.222   0.106
 3613SOL     OW11737   4.557   6.016   2.194
 3613SOL    HW111738   4.657   6.026   2.197
 3613SOL    HW211739   4.526   6.023   2.100
 3614SOL     OW11740   3.627   5.321   6.595
 3614SOL    HW111741   3.688   5.396   6.621
 3614SOL    HW211742   3.671   5.233   6.615
 3615SOL     OW11743   5.443   2.089   6.083
 3615SOL    HW111744   5.404   2.179   6.064
 3615SOL    HW211745   5.543   2.095   6.085
 3616SOL     OW11746   1.089   2.068   6.896
 3616SOL    HW111747   1.176   2.026   6.870
 3616SOL    HW211748   1.103   2.127   6.976
 3617SOL     OW11749   4.047   5.918   5.365
 3617SOL    HW111750   4.105   5.985   5.318
 3617SOL    HW211751   3.963   5.962   5.396
 3618SOL     OW11752   1.303   5.359   4.285
 3618SOL    HW111753   1.220   5.373   4.232
 3618SOL    HW211754   1.280   5.350   4.382
 3619SOL     OW11755   5.528   3.694   1.720
 3619SOL    HW111756   5.497   3.788   1.735
 3619SOL    HW211757   5.628   3.692   1.714
 3620SOL     OW11758   5.939   5.808   5.243
 3620SOL    HW111759   6.003   5.762   5.182
 3620SOL    HW211760   5.846   5.798   5.207
 3621SOL     OW11761   3.063   3.053   3.355
 3621SOL    HW111762   3.034   2.996   3.431
 3621SOL    HW211763   2.995   3.125   3.339
 3622SOL     OW11764   1.345   5.953   6.622
 3622SOL    HW111765   1.380   6.033   6.572
 3622SOL    HW211766   1.381   5.955   6.715
 3623SOL     OW11767   0.911   5.756   6.194
 3623SOL    HW111768   0.813   5.755   6.171
 3623SOL    HW211769   0.958   5.684   6.142
 3624SOL     OW11770   2.669   2.519   1.308
 3624SOL    HW111771   2.593   2.456   1.328
 3624SOL    HW211772   2.733   2.517   1.385
 3625SOL     OW11773   6.804   2.231   0.648
 3625SOL    HW111774   6.735   2.178   0.697
 3625SOL    HW211775   6.762   2.276   0.569
 3626SOL     OW11776   1.595   2.838   5.033
 3626SOL    HW111777   1.659   2.778   4.985
 3626SOL    HW211778   1.502   2.817   5.005
 3627SOL     OW11779   3.553   2.038   2.167
 3627SOL    HW111780   3.604   2.095   2.103
 3627SOL    HW211781   3.607   2.022   2.249
 3628SOL     OW11782   6.763   2.435   1.392
 3628SOL    HW111783   6.806   2.437   1.301
 3628SOL    HW211784   6.756   2.528   1.428
 3629SOL     OW11785   1.030   1.448   4.130
 3629SOL    HW111786   0.974   1.405   4.059
 3629SOL    HW211787   1.123   1.410   4.127
 3630SOL     OW11788   0.124   2.596   1.949
 3630SOL    HW111789   0.056   2.524   1.965
 3630SOL    HW211790   0.174   2.614   2.034
 3631SOL     OW11791   1.881   0.195   2.554
 3631SOL    HW111792   1.826   0.174   2.473
 3631SOL    HW211793   1.922   0.110   2.588
 3632SOL     OW11794   4.584   3.814   1.432
 3632SOL    HW111795   4.608   3.767   1.517
 3632SOL    HW211796   4.549   3.748   1.366
 3633SOL     OW11797   4.001   4.129   6.757
 3633SOL    HW111798   4.098   4.108   6.745
 3633SOL    HW211799   3.990   4.200   6.826
 3634SOL     OW11800   3.331   5.620   6.625
 3634SOL    HW111801   3.275   5.585   6.551
 3634SOL    HW211802   3.320   5.719   6.631
 3635SOL     OW11803   1.370   6.025   1.981
 3635SOL    HW111804   1.380   6.119   2.011
 3635SOL    HW211805   1.397   6.017   1.884
 3636SOL     OW11806   0.337   4.891   6.519
 3636SOL    HW111807   0.384   4.825   6.461
 3636SOL    HW211808   0.340   4.982   6.477
 3637SOL     OW11809   6.131   3.438   0.075
 3637SOL    HW111810   6.046   3.478   0.110
 3637SOL    HW211811   6.109   3.373   0.002
 3638SOL     OW11812   6.592   3.501   2.946
 3638SOL    HW111813   6.493   3.501   2.963
 3638SOL    HW211814   6.626   3.408   2.954
 3639SOL     OW11815   3.735   2.894   3.881
 3639SOL    HW111816   3.691   2.883   3.970
 3639SOL    HW211817   3.671   2.869   3.808
 3640SOL     OW11818   4.143   1.924   1.601
 3640SOL    HW111819   4.174   1.991   1.668
 3640SOL    HW211820   4.217   1.859   1.582
 3641SOL     OW11821   5.972   4.037   2.606
 3641SOL    HW111822   5.992   4.084   2.692
 3641SOL    HW211823   6.045   4.056   2.541
 3642SOL     OW11824   5.347   3.336   6.105
 3642SOL    HW111825   5.264   3.282   6.090
 3642SOL    HW211826   5.428   3.280   6.089
 3643SOL     OW11827   4.078   5.504   5.099
 3643SOL    HW111828   4.010   5.482   5.029
 3643SOL    HW211829   4.159   5.545   5.055
 3644SOL     OW11830   2.650   0.798   1.545
 3644SOL    HW111831   2.560   0.804   1.589
 3644SOL    HW211832   2.695   0.887   1.550
 3645SOL     OW11833   1.533   4.226   3.107
 3645SOL    HW111834   1.631   4.207   3.098
 3645SOL    HW211835   1.490   4.153   3.161
 3646SOL     OW11836   1.616   4.422   5.591
 3646SOL    HW111837   1.644   4.480   5.668
 3646SOL    HW211838   1.665   4.451   5.509
 3647SOL     OW11839   2.842   0.282   6.350
 3647SOL    HW111840   2.862   0.215   6.278
 3647SOL    HW211841   2.760   0.333   6.326
 3648SOL     OW11842   4.546   5.290   3.329
 3648SOL    HW111843   4.508   5.243   3.250
 3648SOL    HW211844   4.637   5.253   3.350
 3649SOL     OW11845   5.789   2.810   0.095
 3649SOL    HW111846   5.814   2.823   0.191
 3649SOL    HW211847   5.837   2.730   0.059
 3650SOL     OW11848   5.563   5.975   6.928
 3650SOL    HW111849   5.581   6.033   6.849
 3650SOL    HW211850   5.621   6.002   7.004
 3651SOL     OW11851   0.928   1.887   5.646
 3651SOL    HW111852   1.005   1.940   5.612
 3651SOL    HW211853   0.878   1.847   5.568
 3652SOL     OW11854   4.138   1.326   1.662
 3652SOL    HW111855   4.130   1.424   1.682
 3652SOL    HW211856   4.234   1.300   1.662
 3653SOL     OW11857   0.974   1.708   1.192
 3653SOL    HW111858   0.900   1.641   1.197
 3653SOL    HW211859   0.939   1.798   1.218
 3654SOL     OW11860   4.730   6.376   1.531
 3654SOL    HW111861   4.678   6.324   1.599
 3654SOL    HW211862   4.685   6.464   1.515
 3655SOL     OW11863   1.660   1.363   4.226
 3655SOL    HW111864   1.664   1.263   4.226
 3655SOL    HW211865   1.569   1.393   4.254
 3656SOL     OW11866   0.139   0.330   1.460
 3656SOL    HW111867   0.080   0.405   1.430
 3656SOL    HW211868   0.219   0.368   1.506
 3657SOL     OW11869   6.038   5.524   5.714
 3657SOL    HW111870   6.069   5.571   5.632
 3657SOL    HW211871   6.003   5.433   5.690
 3658SOL     OW11872   1.877   5.072   5.566
 3658SOL    HW111873   1.908   5.144   5.505
 3658SOL    HW211874   1.935   4.991   5.555
 3659SOL     OW11875   6.944   2.072   6.157
 3659SOL    HW111876   6.999   1.989   6.168
 3659SOL    HW211877   6.947   2.102   6.062
 3660SOL     OW11878   5.360   5.652   6.250
 3660SOL    HW111879   5.441   5.700   6.217
 3660SOL    HW211880   5.279   5.707   6.232
 3661SOL     OW11881   0.289   1.470   4.858
 3661SOL    HW111882   0.309   1.529   4.937
 3661SOL    HW211883   0.360   1.400   4.850
 3662SOL     OW11884   2.828   1.816   5.422
 3662SOL    HW111885   2.798   1.847   5.512
 3662SOL    HW211886   2.928   1.816   5.418
 3663SOL     OW11887   2.623   2.560   6.848
 3663SOL    HW111888   2.585   2.489   6.908
 3663SOL    HW211889   2.698   2.522   6.794
 3664SOL     OW11890   3.459   1.482   1.442
 3664SOL    HW111891   3.466   1.447   1.348
 3664SOL    HW211892   3.407   1.568   1.441
 3665SOL     OW11893   0.740   5.820   5.780
 3665SOL    HW111894   0.732   5.788   5.686
 3665SOL    HW211895   0.687   5.904   5.792
 3666SOL     OW11896   2.302   2.934   4.568
 3666SOL    HW111897   2.349   2.922   4.655
 3666SOL    HW211898   2.329   2.862   4.505
 3667SOL     OW11899   1.794   6.812   1.167
 3667SOL    HW111900   1.799   6.902   1.211
 3667SOL    HW211901   1.729   6.816   1.090
 3668SOL     OW11902   6.618   0.797   1.205
 3668SOL    HW111903   6.618   0.741   1.288
 3668SOL    HW211904   6.594   0.740   1.126
 3669SOL     OW11905   0.881   1.268   3.780
 3669SOL    HW111906   0.838   1.253   3.869
 3669SOL    HW211907   0.823   1.328   3.725
 3670SOL     OW11908   2.807   6.851   1.713
 3670SOL    HW111909   2.812   6.877   1.810
 3670SOL    HW211910   2.752   6.919   1.663
 3671SOL     OW11911   6.787   0.577   4.239
 3671SOL    HW111912   6.808   0.594   4.335
 3671SOL    HW211913   6.840   0.499   4.206
 3672SOL     OW11914   3.669   6.584   3.741
 3672SOL    HW111915   3.735   6.607   3.670
 3672SOL    HW211916   3.588   6.543   3.699
 3673SOL     OW11917   3.260   7.011   0.898
 3673SOL    HW111918   3.232   0.089   0.913
 3673SOL    HW211919   3.359   7.006   0.886
 3674SOL     OW11920   0.980   4.674   6.683
 3674SOL    HW111921   0.954   4.747   6.747
 3674SOL    HW211922   1.063   4.630   6.717
 3675SOL     OW11923   1.347   0.538   4.054
 3675SOL    HW111924   1.248   0.555   4.059
 3675SOL    HW211925   1.364   0.440   4.059
 3676SOL     OW11926   3.619   1.381   4.494
 3676SOL    HW111927   3.633   1.286   4.521
 3676SOL    HW211928   3.581   1.433   4.571
 3677SOL     OW11929   1.727   1.190   4.629
 3677SOL    HW111930   1.640   1.158   4.592
 3677SOL    HW211931   1.756   1.272   4.579
 3678SOL     OW11932   1.330   0.779   3.878
 3678SOL    HW111933   1.345   0.700   3.936
 3678SOL    HW211934   1.330   0.751   3.782
 3679SOL     OW11935   4.383   0.510   2.400
 3679SOL    HW111936   4.365   0.556   2.487
 3679SOL    HW211937   4.398   0.412   2.417
 3680SOL     OW11938   3.176   1.773   4.373
 3680SOL    HW111939   3.182   1.741   4.467
 3680SOL    HW211940   3.265   1.810   4.344
 3681SOL     OW11941   1.023   6.475   4.018
 3681SOL    HW111942   0.930   6.448   3.991
 3681SOL    HW211943   1.088   6.441   3.950
 3682SOL     OW11944   5.349   2.132   1.277
 3682SOL    HW111945   5.373   2.075   1.355
 3682SOL    HW211946   5.358   2.079   1.192
 3683SOL     OW11947   6.151   1.499   0.061
 3683SOL    HW111948   6.159   1.460   6.986
 3683SOL    HW211949   6.142   1.599   0.054
 3684SOL     OW11950   2.394   6.337   5.119
 3684SOL    HW111951   2.395   6.239   5.100
 3684SOL    HW211952   2.342   6.353   5.203
 3685SOL     OW11953   1.832   6.106   4.488
 3685SOL    HW111954   1.783   6.185   4.525
 3685SOL    HW211955   1.772   6.026   4.489
 3686SOL     OW11956   0.571   3.872   1.218
 3686SOL    HW111957   0.565   3.815   1.136
 3686SOL    HW211958   0.499   3.846   1.281
 3687SOL     OW11959   5.971   4.522   5.065
 3687SOL    HW111960   6.050   4.511   5.005
 3687SOL    HW211961   5.888   4.497   5.016
 3688SOL     OW11962   6.402   2.421   0.928
 3688SOL    HW111963   6.479   2.471   0.968
 3688SOL    HW211964   6.393   2.445   0.831
 3689SOL     OW11965   1.098   0.068   5.912
 3689SOL    HW111966   1.073   0.105   5.822
 3689SOL    HW211967   1.035   0.102   5.981
 3690SOL     OW11968   5.179   5.423   1.457
 3690SOL    HW111969   5.244   5.415   1.533
 3690SOL    HW211970   5.135   5.513   1.460
 3691SOL     OW11971   2.069   2.961   0.763
 3691SOL    HW111972   2.025   2.871   0.763
 3691SOL    HW211973   2.007   3.027   0.720
 3692SOL     OW11974   1.236   2.840   5.436
 3692SOL    HW111975   1.289   2.849   5.352
 3692SOL    HW211976   1.181   2.757   5.433
 3693SOL     OW11977   0.068   1.410   2.142
 3693SOL    HW111978   0.122   1.348   2.198
 3693SOL    HW211979   0.129   1.478   2.100
 3694SOL     OW11980   6.784   0.225   2.599
 3694SOL    HW111981   6.767   0.183   2.510
 3694SOL    HW211982   6.882   0.221   2.619
 3695SOL     OW11983   5.623   3.460   3.043
 3695SOL    HW111984   5.636   3.385   3.108
 3695SOL    HW211985   5.631   3.424   2.950
 3696SOL     OW11986   4.273   0.551   4.376
 3696SOL    HW111987   4.208   0.570   4.449
 3696SOL    HW211988   4.363   0.586   4.401
 3697SOL     OW11989   6.705   6.319   3.176
 3697SOL    HW111990   6.609   6.331   3.154
 3697SOL    HW211991   6.734   6.392   3.238
 3698SOL     OW11992   1.495   0.365   2.875
 3698SOL    HW111993   1.405   0.380   2.916
 3698SOL    HW211994   1.534   0.281   2.910
 3699SOL     OW11995   2.126   2.549   3.207
 3699SOL    HW111996   2.189   2.587   3.276
 3699SOL    HW211997   2.178   2.496   3.140
 3700SOL     OW11998   0.667   5.303   4.875
 3700SOL    HW111999   0.717   5.265   4.797
 3700SOL    HW212000   0.632   5.229   4.932
 3701SOL     OW12001   1.014   0.895   2.115
 3701SOL    HW112002   1.033   0.910   2.018
 3701SOL    HW212003   0.935   0.836   2.125
 3702SOL     OW12004   5.991   3.930   3.295
 3702SOL    HW112005   6.022   3.881   3.214
 3702SOL    HW212006   5.923   3.875   3.343
 3703SOL     OW12007   1.214   1.749   3.504
 3703SOL    HW112008   1.294   1.801   3.533
 3703SOL    HW212009   1.191   1.681   3.573
 3704SOL     OW12010   6.448   0.972   0.568
 3704SOL    HW112011   6.477   1.067   0.575
 3704SOL    HW212012   6.526   0.912   0.587
 3705SOL     OW12013   5.700   4.435   3.765
 3705SOL    HW112014   5.677   4.492   3.686
 3705SOL    HW212015   5.675   4.340   3.745
 3706SOL     OW12016   1.481   4.250   6.163
 3706SOL    HW112017   1.385   4.256   6.192
 3706SOL    HW212018   1.485   4.214   6.070
 3707SOL     OW12019   0.973   4.935   3.319
 3707SOL    HW112020   1.014   4.871   3.254
 3707SOL    HW212021   0.993   4.906   3.412
 3708SOL     OW12022   2.135   6.235   1.177
 3708SOL    HW112023   2.154   6.142   1.208
 3708SOL    HW212024   2.039   6.242   1.150
 3709SOL     OW12025   1.306   1.178   1.371
 3709SOL    HW112026   1.315   1.277   1.384
 3709SOL    HW212027   1.385   1.132   1.413
 3710SOL     OW12028   1.024   4.054   5.176
 3710SOL    HW112029   1.041   4.139   5.226
 3710SOL    HW212030   1.101   3.992   5.187
 3711SOL     OW12031   1.031   5.923   4.434
 3711SOL    HW112032   0.941   5.934   4.476
 3711SOL    HW212033   1.081   6.009   4.441
 3712SOL     OW12034   1.872   5.744   4.422
 3712SOL    HW112035   1.970   5.755   4.405
 3712SOL    HW212036   1.855   5.653   4.460
 3713SOL     OW12037   6.087   0.675   4.397
 3713SOL    HW112038   6.127   0.761   4.365
 3713SOL    HW212039   6.072   0.681   4.496
 3714SOL     OW12040   0.817   4.217   0.599
 3714SOL    HW112041   0.886   4.154   0.562
 3714SOL    HW212042   0.734   4.165   0.622
 3715SOL     OW12043   5.797   4.847   3.716
 3715SOL    HW112044   5.783   4.753   3.686
 3715SOL    HW212045   5.874   4.887   3.666
 3716SOL     OW12046   5.289   5.513   4.868
 3716SOL    HW112047   5.359   5.552   4.807
 3716SOL    HW212048   5.225   5.459   4.815
 3717SOL     OW12049   4.829   1.042   0.730
 3717SOL    HW112050   4.734   1.073   0.739
 3717SOL    HW212051   4.883   1.076   0.807
 3718SOL     OW12052   5.996   6.655   6.385
 3718SOL    HW112053   6.074   6.671   6.446
 3718SOL    HW212054   5.913   6.646   6.439
 3719SOL     OW12055   3.413   3.871   6.915
 3719SOL    HW112056   3.322   3.829   6.918
 3719SOL    HW212057   3.414   3.952   6.974
 3720SOL     OW12058   0.282   3.260   0.868
 3720SOL    HW112059   0.190   3.224   0.858
 3720SOL    HW212060   0.300   3.326   0.794
 3721SOL     OW12061   6.580   0.434   5.487
 3721SOL    HW112062   6.532   0.359   5.441
 3721SOL    HW212063   6.515   0.507   5.508
 3722SOL     OW12064   5.696   6.956   2.511
 3722SOL    HW112065   5.707   6.985   2.606
 3722SOL    HW212066   5.609   6.908   2.500
 3723SOL     OW12067   4.499   3.568   6.912
 3723SOL    HW112068   4.526   3.515   6.993
 3723SOL    HW212069   4.412   3.535   6.878
 3724SOL     OW12070   0.443   4.731   4.385
 3724SOL    HW112071   0.383   4.802   4.349
 3724SOL    HW212072   0.493   4.688   4.310
 3725SOL     OW12073   1.303   6.154   0.333
 3725SOL    HW112074   1.368   6.178   0.406
 3725SOL    HW212075   1.344   6.177   0.244
 3726SOL     OW12076   5.993   3.756   5.586
 3726SOL    HW112077   6.027   3.832   5.531
 3726SOL    HW212078   6.066   3.690   5.603
 3727SOL     OW12079   6.730   2.978   3.767
 3727SOL    HW112080   6.703   2.882   3.766
 3727SOL    HW212081   6.748   3.007   3.861
 3728SOL     OW12082   2.626   3.668   0.843
 3728SOL    HW112083   2.548   3.617   0.878
 3728SOL    HW212084   2.703   3.661   0.907
 3729SOL     OW12085   0.053   0.822   5.763
 3729SOL    HW112086   0.145   0.786   5.775
 3729SOL    HW212087   0.056   0.902   5.704
 3730SOL     OW12088   5.109   5.352   4.753
 3730SOL    HW112089   5.018   5.338   4.794
 3730SOL    HW212090   5.172   5.284   4.788
 3731SOL     OW12091   0.078   1.987   0.165
 3731SOL    HW112092   0.089   2.074   0.212
 3731SOL    HW212093   0.154   1.926   0.190
 3732SOL     OW12094   3.649   2.711   6.933
 3732SOL    HW112095   3.718   2.708   7.006
 3732SOL    HW212096   3.661   2.794   6.879
 3733SOL     OW12097   1.600   0.289   3.673
 3733SOL    HW112098   1.567   0.294   3.579
 3733SOL    HW212099   1.559   0.210   3.719
 3734SOL     OW12100   4.050   0.252   1.207
 3734SOL    HW112101   4.082   0.340   1.171
 3734SOL    HW212102   3.971   0.221   1.154
 3735SOL     OW12103   4.730   6.507   2.969
 3735SOL    HW112104   4.643   6.553   2.955
 3735SOL    HW212105   4.754   6.455   2.887
 3736SOL     OW12106   6.882   1.168   6.843
 3736SOL    HW112107   6.867   1.069   6.839
 3736SOL    HW212108   6.804   1.215   6.804
 3737SOL     OW12109   6.118   1.944   2.687
 3737SOL    HW112110   6.036   1.996   2.710
 3737SOL    HW212111   6.200   1.994   2.717
 3738SOL     OW12112   6.719   0.287   1.643
 3738SOL    HW112113   6.671   0.366   1.682
 3738SOL    HW212114   6.669   0.203   1.667
 3739SOL     OW12115   3.185   3.492   6.879
 3739SOL    HW112116   3.106   3.433   6.894
 3739SOL    HW212117   3.264   3.436   6.854
 3740SOL     OW12118   4.484   5.626   6.927
 3740SOL    HW112119   4.386   5.628   6.945
 3740SOL    HW212120   4.514   5.532   6.910
 3741SOL     OW12121   5.323   2.986   0.473
 3741SOL    HW112122   5.350   3.061   0.412
 3741SOL    HW212123   5.397   2.968   0.538
 3742SOL     OW12124   4.011   5.975   1.202
 3742SOL    HW112125   4.060   6.046   1.152
 3742SOL    HW212126   3.991   5.898   1.141
 3743SOL     OW12127   3.560   3.960   1.091
 3743SOL    HW112128   3.606   4.032   1.038
 3743SOL    HW212129   3.612   3.875   1.083
 3744SOL     OW12130   0.035   6.627   2.552
 3744SOL    HW112131   6.957   6.642   2.581
 3744SOL    HW212132   0.091   6.608   2.633
 3745SOL     OW12133   4.604   2.647   2.362
 3745SOL    HW112134   4.700   2.656   2.335
 3745SOL    HW212135   4.552   2.727   2.332
 3746SOL     OW12136   6.239   0.912   4.342
 3746SOL    HW112137   6.323   0.865   4.368
 3746SOL    HW212138   6.261   0.998   4.297
 3747SOL     OW12139   3.808   6.034   5.426
 3747SOL    HW112140   3.769   6.046   5.334
 3747SOL    HW212141   3.805   6.121   5.475
 3748SOL     OW12142   4.990   2.362   3.492
 3748SOL    HW112143   5.015   2.415   3.573
 3748SOL    HW212144   4.891   2.348   3.491
 3749SOL     OW12145   6.479   6.444   2.555
 3749SOL    HW112146   6.440   6.452   2.464
 3749SOL    HW212147   6.428   6.501   2.619
 3750SOL     OW12148   5.504   4.013   0.779
 3750SOL    HW112149   5.582   3.989   0.836
 3750SOL    HW212150   5.484   3.939   0.715
 3751SOL     OW12151   1.433   3.928   1.761
 3751SOL    HW112152   1.365   3.939   1.833
 3751SOL    HW212153   1.388   3.895   1.678
 3752SOL     OW12154   0.719   6.459   6.020
 3752SOL    HW112155   0.743   6.492   6.111
 3752SOL    HW212156   0.799   6.465   5.960
 3753SOL     OW12157   6.877   0.988   4.720
 3753SOL    HW112158   6.905   1.013   4.627
 3753SOL    HW212159   6.954   1.002   4.782
 3754SOL     OW12160   6.647   6.425   2.018
 3754SOL    HW112161   6.605   6.387   1.935
 3754SOL    HW212162   6.710   6.498   1.992
 3755SOL     OW12163   4.998   2.634   2.853
 3755SOL    HW112164   4.952   2.711   2.896
 3755SOL    HW212165   4.930   2.565   2.827
 3756SOL     OW12166   3.138   0.338   6.928
 3756SOL    HW112167   3.100   0.267   6.987
 3756SOL    HW212168   3.225   0.369   6.965
 3757SOL     OW12169   3.524   4.604   6.829
 3757SOL    HW112170   3.564   4.576   6.916
 3757SOL    HW212171   3.513   4.704   6.828
 3758SOL     OW12172   0.219   0.709   3.416
 3758SOL    HW112173   0.158   0.630   3.401
 3758SOL    HW212174   0.170   0.779   3.467
 3759SOL     OW12175   5.050   5.162   0.437
 3759SOL    HW112176   5.048   5.257   0.403
 3759SOL    HW212177   5.130   5.115   0.400
 3760SOL     OW12178   2.201   2.503   5.367
 3760SOL    HW112179   2.240   2.499   5.276
 3760SOL    HW212180   2.185   2.410   5.401
 3761SOL     OW12181   0.365   6.680   4.071
 3761SOL    HW112182   0.451   6.661   4.022
 3761SOL    HW212183   0.288   6.661   4.010
 3762SOL     OW12184   0.958   3.941   6.469
 3762SOL    HW112185   0.871   3.965   6.427
 3762SOL    HW212186   0.946   3.861   6.528
 3763SOL     OW12187   6.481   3.470   5.867
 3763SOL    HW112188   6.464   3.537   5.939
 3763SOL    HW212189   6.579   3.451   5.862
 3764SOL     OW12190   2.218   6.804   3.717
 3764SOL    HW112191   2.172   6.887   3.750
 3764SOL    HW212192   2.174   6.724   3.757
 3765SOL     OW12193   6.162   0.903   3.652
 3765SOL    HW112194   6.184   0.857   3.738
 3765SOL    HW212195   6.209   0.992   3.650
 3766SOL     OW12196   1.415   0.035   4.907
 3766SOL    HW112197   1.497   6.995   4.909
 3766SOL    HW212198   1.439   0.130   4.928
 3767SOL     OW12199   1.615   4.039   0.954
 3767SOL    HW112200   1.625   4.059   0.857
 3767SOL    HW212201   1.521   4.010   0.973
 3768SOL     OW12202   4.585   6.379   0.762
 3768SOL    HW112203   4.626   6.289   0.778
 3768SOL    HW212204   4.633   6.425   0.688
 3769SOL     OW12205   4.480   6.321   5.083
 3769SOL    HW112206   4.533   6.268   5.017
 3769SOL    HW212207   4.395   6.352   5.040
 3770SOL     OW12208   2.116   1.338   0.337
 3770SOL    HW112209   2.138   1.385   0.252
 3770SOL    HW212210   2.120   1.403   0.413
 3771SOL     OW12211   4.825   1.141   5.325
 3771SOL    HW112212   4.760   1.154   5.399
 3771SOL    HW212213   4.879   1.224   5.312
 3772SOL     OW12214   4.835   1.073   2.760
 3772SOL    HW112215   4.756   1.128   2.732
 3772SOL    HW212216   4.807   0.977   2.771
 3773SOL     OW12217   6.513   2.498   6.577
 3773SOL    HW112218   6.547   2.587   6.546
 3773SOL    HW212219   6.590   2.436   6.591
 3774SOL     OW12220   1.081   1.771   2.143
 3774SOL    HW112221   1.090   1.673   2.126
 3774SOL    HW212222   1.170   1.815   2.134
 3775SOL     OW12223   5.815   2.964   3.780
 3775SOL    HW112224   5.746   3.026   3.818
 3775SOL    HW212225   5.772   2.875   3.761
 3776SOL     OW12226   3.471   2.862   6.539
 3776SOL    HW112227   3.466   2.763   6.548
 3776SOL    HW212228   3.380   2.902   6.551
 3777SOL     OW12229   1.597   4.250   3.423
 3777SOL    HW112230   1.634   4.336   3.388
 3777SOL    HW212231   1.642   4.228   3.510
 3778SOL     OW12232   2.584   6.876   2.125
 3778SOL    HW112233   2.507   6.917   2.075
 3778SOL    HW212234   2.586   6.777   2.108
 3779SOL     OW12235   3.188   4.911   6.586
 3779SOL    HW112236   3.106   4.951   6.545
 3779SOL    HW212237   3.179   4.911   6.686
 3780SOL     OW12238   2.799   6.978   4.914
 3780SOL    HW112239   2.716   6.995   4.968
 3780SOL    HW212240   2.817   0.040   4.856
 3781SOL     OW12241   3.155   5.248   4.749
 3781SOL    HW112242   3.139   5.337   4.791
 3781SOL    HW212243   3.142   5.255   4.650
 3782SOL     OW12244   2.277   1.624   2.954
 3782SOL    HW112245   2.187   1.665   2.940
 3782SOL    HW212246   2.274   1.563   3.034
 3783SOL     OW12247   4.933   5.593   6.058
 3783SOL    HW112248   4.875   5.670   6.031
 3783SOL    HW212249   4.941   5.528   5.982
 3784SOL     OW12250   4.712   1.329   3.714
 3784SOL    HW112251   4.799   1.314   3.762
 3784SOL    HW212252   4.720   1.410   3.656
 3785SOL     OW12253   1.409   1.486   1.714
 3785SOL    HW112254   1.311   1.495   1.733
 3785SOL    HW212255   1.437   1.391   1.732
 3786SOL     OW12256   3.516   5.175   2.772
 3786SOL    HW112257   3.569   5.260   2.773
 3786SOL    HW212258   3.477   5.160   2.862
 3787SOL     OW12259   4.082   1.055   4.312
 3787SOL    HW112260   4.063   1.146   4.349
 3787SOL    HW212261   4.161   1.016   4.358
 3788SOL     OW12262   5.972   3.866   2.088
 3788SOL    HW112263   5.927   3.946   2.128
 3788SOL    HW212264   5.977   3.878   1.988
 3789SOL     OW12265   0.931   4.926   2.710
 3789SOL    HW112266   0.897   4.911   2.617
 3789SOL    HW212267   0.979   5.014   2.714
 3790SOL     OW12268   2.090   3.140   3.772
 3790SOL    HW112269   2.113   3.231   3.807
 3790SOL    HW212270   2.135   3.070   3.828
 3791SOL     OW12271   5.120   0.367   2.577
 3791SOL    HW112272   5.145   0.271   2.581
 3791SOL    HW212273   5.022   0.376   2.561
 3792SOL     OW12274   0.105   6.997   6.031
 3792SOL    HW112275   0.156   6.912   6.039
 3792SOL    HW212276   0.017   6.980   5.987
 3793SOL     OW12277   2.147   6.640   2.728
 3793SOL    HW112278   2.149   6.684   2.818
 3793SOL    HW212279   2.232   6.589   2.714
 3794SOL     OW12280   3.973   6.222   2.327
 3794SOL    HW112281   3.982   6.197   2.423
 3794SOL    HW212282   4.064   6.225   2.285
 3795SOL     OW12283   4.890   0.110   0.397
 3795SOL    HW112284   4.967   0.052   0.423
 3795SOL    HW212285   4.905   0.148   0.306
 3796SOL     OW12286   1.925   2.396   1.452
 3796SOL    HW112287   1.912   2.347   1.538
 3796SOL    HW212288   2.002   2.458   1.460
 3797SOL     OW12289   0.434   5.400   2.714
 3797SOL    HW112290   0.429   5.500   2.705
 3797SOL    HW212291   0.344   5.364   2.736
 3798SOL     OW12292   1.325   4.322   1.689
 3798SOL    HW112293   1.298   4.416   1.711
 3798SOL    HW212294   1.281   4.259   1.753
 3799SOL     OW12295   1.483   0.560   5.154
 3799SOL    HW112296   1.460   0.469   5.188
 3799SOL    HW212297   1.547   0.552   5.077
 3800SOL     OW12298   4.647   2.528   4.755
 3800SOL    HW112299   4.714   2.557   4.686
 3800SOL    HW212300   4.636   2.429   4.751
 3801SOL     OW12301   6.999   0.404   6.759
 3801SOL    HW112302   0.039   0.485   6.746
 3801SOL    HW212303   6.905   0.425   6.731
 3802SOL     OW12304   1.631   2.313   5.336
 3802SOL    HW112305   1.690   2.321   5.416
 3802SOL    HW212306   1.620   2.402   5.293
 3803SOL     OW12307   3.631   1.552   1.153
 3803SOL    HW112308   3.536   1.520   1.145
 3803SOL    HW212309   3.681   1.493   1.216
 3804SOL     OW12310   4.997   2.609   5.765
 3804SOL    HW112311   5.013   2.623   5.667
 3804SOL    HW212312   4.969   2.696   5.806
 3805SOL     OW12313   2.099   3.917   1.043
 3805SOL    HW112314   2.048   3.999   1.070
 3805SOL    HW212315   2.118   3.920   0.945
 3806SOL     OW12316   3.032   1.499   0.394
 3806SOL    HW112317   2.932   1.506   0.394
 3806SOL    HW212318   3.059   1.403   0.410
 3807SOL     OW12319   1.301   6.866   3.050
 3807SOL    HW112320   1.383   6.886   2.995
 3807SOL    HW212321   1.221   6.907   3.005
 3808SOL     OW12322   3.288   0.720   0.720
 3808SOL    HW112323   3.360   0.770   0.671
 3808SOL    HW212324   3.291   0.624   0.693
 3809SOL     OW12325   4.521   0.437   6.579
 3809SOL    HW112326   4.492   0.466   6.488
 3809SOL    HW212327   4.479   0.495   6.649
 3810SOL     OW12328   2.888   3.188   5.528
 3810SOL    HW112329   2.891   3.162   5.431
 3810SOL    HW212330   2.941   3.272   5.542
 3811SOL     OW12331   0.204   0.377   6.210
 3811SOL    HW112332   0.105   0.378   6.194
 3811SOL    HW212333   0.243   0.464   6.177
 3812SOL     OW12334   5.471   1.558   5.877
 3812SOL    HW112335   5.541   1.523   5.939
 3812SOL    HW212336   5.398   1.490   5.868
 3813SOL     OW12337   3.673   4.866   1.704
 3813SOL    HW112338   3.743   4.819   1.650
 3813SOL    HW212339   3.657   4.816   1.789
 3814SOL     OW12340   1.324   6.376   2.630
 3814SOL    HW112341   1.414   6.389   2.589
 3814SOL    HW212342   1.321   6.418   2.720
 3815SOL     OW12343   5.799   2.091   1.867
 3815SOL    HW112344   5.700   2.081   1.866
 3815SOL    HW212345   5.824   2.174   1.916
 3816SOL     OW12346   0.251   6.586   1.689
 3816SOL    HW112347   0.258   6.490   1.662
 3816SOL    HW212348   0.171   6.627   1.644
 3817SOL     OW12349   5.379   1.578   5.318
 3817SOL    HW112350   5.354   1.496   5.370
 3817SOL    HW212351   5.449   1.555   5.250
 3818SOL     OW12352   5.281   5.176   2.608
 3818SOL    HW112353   5.357   5.157   2.671
 3818SOL    HW212354   5.218   5.241   2.651
 3819SOL     OW12355   5.627   4.209   5.904
 3819SOL    HW112356   5.544   4.219   5.849
 3819SOL    HW212357   5.672   4.298   5.914
 3820SOL     OW12358   5.509   6.423   4.197
 3820SOL    HW112359   5.459   6.406   4.281
 3820SOL    HW212360   5.570   6.502   4.210
 3821SOL     OW12361   0.838   4.080   1.529
 3821SOL    HW112362   0.753   4.028   1.538
 3821SOL    HW212363   0.880   4.059   1.440
 3822SOL     OW12364   2.052   4.892   1.909
 3822SOL    HW112365   1.960   4.855   1.922
 3822SOL    HW212366   2.107   4.873   1.990
 3823SOL     OW12367   3.155   2.744   5.573
 3823SOL    HW112368   3.077   2.796   5.606
 3823SOL    HW212369   3.206   2.799   5.507
 3824SOL     OW12370   7.003   2.372   6.566
 3824SOL    HW112371   6.904   2.378   6.552
 3824SOL    HW212372   0.032   2.359   6.478
 3825SOL     OW12373   6.607   0.152   6.217
 3825SOL    HW112374   6.650   0.208   6.288
 3825SOL    HW212375   6.578   0.210   6.141
 3826SOL     OW12376   6.871   2.448   1.152
 3826SOL    HW112377   6.966   2.478   1.152
 3826SOL    HW212378   6.868   2.349   1.135
 3827SOL     OW12379   4.777   3.250   0.913
 3827SOL    HW112380   4.817   3.313   0.846
 3827SOL    HW212381   4.805   3.157   0.892
 3828SOL     OW12382   4.013   0.964   1.773
 3828SOL    HW112383   4.070   0.889   1.807
 3828SOL    HW212384   4.025   1.045   1.830
 3829SOL     OW12385   1.063   5.426   3.669
 3829SOL    HW112386   1.086   5.515   3.708
 3829SOL    HW212387   1.033   5.439   3.574
 3830SOL     OW12388   3.000   0.496   4.665
 3830SOL    HW112389   2.962   0.576   4.713
 3830SOL    HW212390   3.100   0.504   4.663
 3831SOL     OW12391   4.265   1.704   2.106
 3831SOL    HW112392   4.207   1.627   2.134
 3831SOL    HW212393   4.335   1.720   2.176
 3832SOL     OW12394   5.474   6.809   2.516
 3832SOL    HW112395   5.400   6.861   2.475
 3832SOL    HW212396   5.446   6.714   2.528
 3833SOL     OW12397   1.485   5.383   0.028
 3833SOL    HW112398   1.492   5.430   6.957
 3833SOL    HW212399   1.576   5.378   0.070
 3834SOL     OW12400   2.329   2.258   0.839
 3834SOL    HW112401   2.377   2.330   0.890
 3834SOL    HW212402   2.316   2.288   0.745
 3835SOL     OW12403   3.682   6.089   4.378
 3835SOL    HW112404   3.685   6.046   4.287
 3835SOL    HW212405   3.767   6.071   4.426
 3836SOL     OW12406   1.867   3.264   5.257
 3836SOL    HW112407   1.779   3.257   5.209
 3836SOL    HW212408   1.896   3.173   5.286
 3837SOL     OW12409   3.563   3.723   0.115
 3837SOL    HW112410   3.517   3.700   0.201
 3837SOL    HW212411   3.494   3.737   0.044
 3838SOL     OW12412   5.685   3.515   5.347
 3838SOL    HW112413   5.775   3.550   5.371
 3838SOL    HW212414   5.650   3.458   5.421
 3839SOL     OW12415   6.376   6.431   6.330
 3839SOL    HW112416   6.319   6.481   6.265
 3839SOL    HW212417   6.319   6.367   6.382
 3840SOL     OW12418   2.757   0.428   3.828
 3840SOL    HW112419   2.775   0.452   3.733
 3840SOL    HW212420   2.843   0.413   3.876
 3841SOL     OW12421   0.370   4.264   4.878
 3841SOL    HW112422   0.346   4.168   4.884
 3841SOL    HW212423   0.353   4.309   4.966
 3842SOL     OW12424   1.507   4.963   6.443
 3842SOL    HW112425   1.431   5.020   6.475
 3842SOL    HW212426   1.533   4.899   6.515
 3843SOL     OW12427   5.913   4.166   0.788
 3843SOL    HW112428   5.883   4.173   0.883
 3843SOL    HW212429   5.932   4.071   0.765
 3844SOL     OW12430   2.563   4.251   6.311
 3844SOL    HW112431   2.477   4.299   6.331
 3844SOL    HW212432   2.601   4.285   6.225
 3845SOL     OW12433   3.150   3.580   3.853
 3845SOL    HW112434   3.150   3.612   3.758
 3845SOL    HW212435   3.075   3.516   3.867
 3846SOL     OW12436   0.125   4.066   3.606
 3846SOL    HW112437   0.212   4.090   3.562
 3846SOL    HW212438   0.066   4.020   3.540
 3847SOL     OW12439   0.708   0.106   0.560
 3847SOL    HW112440   0.791   0.062   0.594
 3847SOL    HW212441   0.663   0.155   0.635
 3848SOL     OW12442   2.988   5.187   0.731
 3848SOL    HW112443   3.066   5.181   0.670
 3848SOL    HW212444   2.935   5.269   0.710
 3849SOL     OW12445   2.313   2.004   5.981
 3849SOL    HW112446   2.311   2.077   6.050
 3849SOL    HW212447   2.406   1.994   5.946
 3850SOL     OW12448   2.423   3.541   1.324
 3850SOL    HW112449   2.489   3.504   1.258
 3850SOL    HW212450   2.444   3.638   1.341
 3851SOL     OW12451   2.149   3.156   1.459
 3851SOL    HW112452   2.104   3.157   1.549
 3851SOL    HW212453   2.079   3.160   1.387
 3852SOL     OW12454   4.631   0.866   5.877
 3852SOL    HW112455   4.698   0.905   5.813
 3852SOL    HW212456   4.539   0.878   5.840
 3853SOL     OW12457   1.300   2.728   2.053
 3853SOL    HW112458   1.342   2.734   1.963
 3853SOL    HW212459   1.219   2.669   2.048
 3854SOL     OW12460   1.530   3.267   4.716
 3854SOL    HW112461   1.517   3.357   4.675
 3854SOL    HW212462   1.627   3.251   4.731
 3855SOL     OW12463   0.215   1.660   5.051
 3855SOL    HW112464   0.306   1.694   5.027
 3855SOL    HW212465   0.146   1.724   5.018
 3856SOL     OW12466   0.673   6.986   5.341
 3856SOL    HW112467   0.720   0.058   5.334
 3856SOL    HW212468   0.587   6.990   5.291
 3857SOL     OW12469   1.195   6.665   6.928
 3857SOL    HW112470   1.119   6.721   6.961
 3857SOL    HW212471   1.209   6.681   6.830
 3858SOL     OW12472   2.321   5.207   6.810
 3858SOL    HW112473   2.418   5.188   6.795
 3858SOL    HW212474   2.267   5.158   6.741
 3859SOL     OW12475   6.709   2.726   1.546
 3859SOL    HW112476   6.741   2.654   1.608
 3859SOL    HW212477   6.611   2.738   1.556
 3860SOL     OW12478   1.972   6.360   5.108
 3860SOL    HW112479   1.887   6.381   5.061
 3860SOL    HW212480   2.016   6.281   5.065
 3861SOL     OW12481   4.220   4.332   0.010
 3861SOL    HW112482   4.268   4.413   6.994
 3861SOL    HW212483   4.286   4.259   0.029
 3862SOL     OW12484   0.802   5.142   6.070
 3862SOL    HW112485   0.873   5.208   6.047
 3862SOL    HW212486   0.835   5.049   6.053
 3863SOL     OW12487   3.264   3.355   0.468
 3863SOL    HW112488   3.167   3.379   0.473
 3863SOL    HW212489   3.292   3.315   0.555
 3864SOL     OW12490   3.038   1.675   0.157
 3864SOL    HW112491   2.955   1.651   0.208
 3864SOL    HW212492   3.076   1.592   0.116
 3865SOL     OW12493   4.372   0.922   2.488
 3865SOL    HW112494   4.323   0.918   2.401
 3865SOL    HW212495   4.350   0.842   2.543
 3866SOL     OW12496   3.648   6.439   6.005
 3866SOL    HW112497   3.618   6.527   6.043
 3866SOL    HW212498   3.573   6.373   6.013
 3867SOL     OW12499   1.914   4.274   3.334
 3867SOL    HW112500   1.903   4.176   3.348
 3867SOL    HW212501   1.825   4.317   3.322
 3868SOL     OW12502   1.729   5.364   2.732
 3868SOL    HW112503   1.783   5.288   2.695
 3868SOL    HW212504   1.662   5.328   2.797
 3869SOL     OW12505   1.501   1.587   3.778
 3869SOL    HW112506   1.600   1.588   3.783
 3869SOL    HW212507   1.465   1.677   3.803
 3870SOL     OW12508   4.025   3.878   0.636
 3870SOL    HW112509   4.094   3.806   0.649
 3870SOL    HW212510   4.005   3.887   0.538
 3871SOL     OW12511   3.018   1.477   4.407
 3871SOL    HW112512   3.009   1.530   4.491
 3871SOL    HW212513   2.955   1.511   4.338
 3872SOL     OW12514   4.204   3.628   0.635
 3872SOL    HW112515   4.181   3.604   0.541
 3872SOL    HW212516   4.200   3.545   0.692
 3873SOL     OW12517   5.232   4.556   1.746
 3873SOL    HW112518   5.300   4.537   1.675
 3873SOL    HW212519   5.155   4.605   1.705
 3874SOL     OW12520   5.031   6.122   6.352
 3874SOL    HW112521   5.114   6.124   6.407
 3874SOL    HW212522   4.994   6.029   6.350
 3875SOL     OW12523   2.448   4.160   0.251
 3875SOL    HW112524   2.513   4.139   0.325
 3875SOL    HW212525   2.484   4.125   0.165
 3876SOL     OW12526   5.516   4.059   2.323
 3876SOL    HW112527   5.614   4.040   2.325
 3876SOL    HW212528   5.501   4.155   2.299
 3877SOL     OW12529   5.566   1.506   1.651
 3877SOL    HW112530   5.549   1.419   1.696
 3877SOL    HW212531   5.481   1.543   1.615
 3878SOL     OW12532   4.553   6.009   4.343
 3878SOL    HW112533   4.496   6.072   4.395
 3878SOL    HW212534   4.532   5.915   4.368
 3879SOL     OW12535   2.923   5.450   1.557
 3879SOL    HW112536   3.021   5.467   1.542
 3879SOL    HW212537   2.884   5.408   1.475
 3880SOL     OW12538   5.738   2.138   4.071
 3880SOL    HW112539   5.673   2.202   4.030
 3880SOL    HW212540   5.764   2.070   4.002
 3881SOL     OW12541   1.262   5.269   0.861
 3881SOL    HW112542   1.172   5.311   0.873
 3881SOL    HW212543   1.260   5.175   0.893
 3882SOL     OW12544   1.068   5.991   6.532
 3882SOL    HW112545   1.153   5.951   6.568
 3882SOL    HW212546   1.007   6.012   6.607
 3883SOL     OW12547   3.143   2.141   6.328
 3883SOL    HW112548   3.105   2.215   6.272
 3883SOL    HW212549   3.184   2.180   6.410
 3884SOL     OW12550   2.088   4.847   5.586
 3884SOL    HW112551   2.151   4.904   5.639
 3884SOL    HW212552   2.140   4.786   5.527
 3885SOL     OW12553   0.343   1.804   5.357
 3885SOL    HW112554   0.282   1.725   5.349
 3885SOL    HW212555   0.313   1.862   5.433
 3886SOL     OW12556   0.262   6.393   5.459
 3886SOL    HW112557   0.182   6.372   5.515
 3886SOL    HW212558   0.248   6.480   5.411
 3887SOL     OW12559   5.467   3.038   4.691
 3887SOL    HW112560   5.409   3.071   4.617
 3887SOL    HW212561   5.558   3.015   4.655
 3888SOL     OW12562   6.107   2.247   2.129
 3888SOL    HW112563   6.052   2.166   2.153
 3888SOL    HW212564   6.162   2.226   2.048
 3889SOL     OW12565   6.587   5.842   6.965
 3889SOL    HW112566   6.579   5.912   0.019
 3889SOL    HW212567   6.657   5.869   6.899
 3890SOL     OW12568   6.664   2.890   2.428
 3890SOL    HW112569   6.643   2.934   2.340
 3890SOL    HW212570   6.693   2.796   2.411
 3891SOL     OW12571   5.830   5.555   6.325
 3891SOL    HW112572   5.808   5.522   6.234
 3891SOL    HW212573   5.746   5.580   6.373
 3892SOL     OW12574   5.575   5.662   4.296
 3892SOL    HW112575   5.653   5.724   4.289
 3892SOL    HW212576   5.490   5.714   4.301
 3893SOL     OW12577   3.089   6.023   4.198
 3893SOL    HW112578   2.995   5.991   4.187
 3893SOL    HW212579   3.088   6.119   4.224
 3894SOL     OW12580   5.039   5.563   6.728
 3894SOL    HW112581   4.965   5.622   6.695
 3894SOL    HW212582   5.125   5.592   6.687
 3895SOL     OW12583   2.116   1.871   5.843
 3895SOL    HW112584   2.192   1.932   5.864
 3895SOL    HW212585   2.042   1.887   5.909
 3896SOL     OW12586   6.630   2.787   6.544
 3896SOL    HW112587   6.635   2.752   6.450
 3896SOL    HW212588   6.709   2.846   6.562
 3897SOL     OW12589   3.322   6.836   3.067
 3897SOL    HW112590   3.235   6.786   3.067
 3897SOL    HW212591   3.396   6.772   3.090
 3898SOL     OW12592   2.897   3.603   4.517
 3898SOL    HW112593   2.828   3.625   4.585
 3898SOL    HW212594   2.926   3.507   4.528
 3899SOL     OW12595   4.078   1.803   5.327
 3899SOL    HW112596   3.987   1.795   5.286
 3899SOL    HW212597   4.095   1.725   5.387
 3900SOL     OW12598   0.155   2.622   4.008
 3900SOL    HW112599   0.233   2.643   3.950
 3900SOL    HW212600   0.142   2.695   4.075
 3901SOL     OW12601   2.673   5.375   5.038
 3901SOL    HW112602   2.745   5.331   4.984
 3901SOL    HW212603   2.668   5.472   5.015
 3902SOL     OW12604   4.321   4.619   2.978
 3902SOL    HW112605   4.250   4.633   3.048
 3902SOL    HW212606   4.411   4.617   3.023
 3903SOL     OW12607   4.620   3.426   5.578
 3903SOL    HW112608   4.638   3.401   5.482
 3903SOL    HW212609   4.614   3.343   5.633
 3904SOL     OW12610   2.296   6.619   0.338
 3904SOL    HW112611   2.362   6.638   0.266
 3904SOL    HW212612   2.319   6.533   0.383
 3905SOL     OW12613   5.741   0.441   6.331
 3905SOL    HW112614   5.657   0.438   6.276
 3905SOL    HW212615   5.728   0.504   6.408
 3906SOL     OW12616   0.114   6.277   4.814
 3906SOL    HW112617   0.095   6.305   4.908
 3906SOL    HW212618   0.208   6.242   4.808
 3907SOL     OW12619   0.811   1.652   5.074
 3907SOL    HW112620   0.733   1.703   5.110
 3907SOL    HW212621   0.895   1.705   5.088
 3908SOL     OW12622   2.505   1.232   4.225
 3908SOL    HW112623   2.438   1.291   4.179
 3908SOL    HW212624   2.463   1.191   4.306
 3909SOL     OW12625   5.011   3.298   1.509
 3909SOL    HW112626   5.100   3.317   1.467
 3909SOL    HW212627   5.014   3.212   1.559
 3910SOL     OW12628   2.794   2.568   1.057
 3910SOL    HW112629   2.732   2.598   1.130
 3910SOL    HW212630   2.817   2.471   1.070
 3911SOL     OW12631   0.343   0.804   1.369
 3911SOL    HW112632   0.376   0.738   1.437
 3911SOL    HW212633   0.357   0.766   1.277
 3912SOL     OW12634   4.333   4.093   7.008
 3912SOL    HW112635   4.316   4.040   0.073
 3912SOL    HW212636   4.432   4.108   6.998
 3913SOL     OW12637   4.135   5.673   1.536
 3913SOL    HW112638   4.188   5.729   1.472
 3913SOL    HW212639   4.139   5.715   1.627
 3914SOL     OW12640   6.575   2.390   0.045
 3914SOL    HW112641   6.563   2.297   0.012
 3914SOL    HW212642   6.506   2.411   0.114
 3915SOL     OW12643   5.116   0.346   5.513
 3915SOL    HW112644   5.143   0.386   5.426
 3915SOL    HW212645   5.056   0.409   5.562
 3916SOL     OW12646   1.821   2.895   2.267
 3916SOL    HW112647   1.878   2.938   2.197
 3916SOL    HW212648   1.759   2.829   2.223
 3917SOL     OW12649   4.051   4.844   2.137
 3917SOL    HW112650   3.962   4.888   2.123
 3917SOL    HW212651   4.078   4.855   2.232
 3918SOL     OW12652   5.098   7.015   0.532
 3918SOL    HW112653   5.181   0.052   0.514
 3918SOL    HW212654   5.049   0.038   0.610
 3919SOL     OW12655   4.973   5.793   3.619
 3919SOL    HW112656   4.923   5.874   3.589
 3919SOL    HW212657   4.955   5.717   3.556
 3920SOL     OW12658   3.107   1.848   5.451
 3920SOL    HW112659   3.092   1.942   5.479
 3920SOL    HW212660   3.166   1.847   5.370
 3921SOL     OW12661   1.579   3.604   6.022
 3921SOL    HW112662   1.673   3.589   5.993
 3921SOL    HW212663   1.548   3.695   5.994
 3922SOL     OW12664   4.873   3.125   3.384
 3922SOL    HW112665   4.882   3.223   3.398
 3922SOL    HW212666   4.874   3.105   3.286
 3923SOL     OW12667   6.183   1.801   1.714
 3923SOL    HW112668   6.140   1.727   1.766
 3923SOL    HW212669   6.121   1.879   1.709
 3924SOL     OW12670   4.672   4.740   4.486
 3924SOL    HW112671   4.615   4.663   4.456
 3924SOL    HW212672   4.763   4.732   4.445
 3925SOL     OW12673   4.150   5.845   1.774
 3925SOL    HW112674   4.249   5.861   1.784
 3925SOL    HW212675   4.110   5.920   1.722
 3926SOL     OW12676   0.806   5.936   5.064
 3926SOL    HW112677   0.875   5.917   4.994
 3926SOL    HW212678   0.724   5.883   5.044
 3927SOL     OW12679   5.788   1.155   5.163
 3927SOL    HW112680   5.784   1.255   5.167
 3927SOL    HW212681   5.868   1.128   5.108
 3928SOL     OW12682   3.788   5.628   2.482
 3928SOL    HW112683   3.845   5.599   2.559
 3928SOL    HW212684   3.800   5.564   2.406
 3929SOL     OW12685   0.806   1.673   5.769
 3929SOL    HW112686   0.756   1.629   5.694
 3929SOL    HW212687   0.861   1.748   5.732
 3930SOL     OW12688   1.492   5.388   3.848
 3930SOL    HW112689   1.518   5.476   3.889
 3930SOL    HW212690   1.442   5.405   3.763
 3931SOL     OW12691   1.035   2.540   0.192
 3931SOL    HW112692   0.990   2.558   0.279
 3931SOL    HW212693   1.134   2.533   0.206
 3932SOL     OW12694   2.344   4.495   2.810
 3932SOL    HW112695   2.348   4.492   2.910
 3932SOL    HW212696   2.297   4.414   2.776
 3933SOL     OW12697   2.160   5.964   1.220
 3933SOL    HW112698   2.095   5.918   1.159
 3933SOL    HW212699   2.143   5.935   1.314
 3934SOL     OW12700   2.057   6.288   1.584
 3934SOL    HW112701   1.989   6.307   1.513
 3934SOL    HW212702   2.133   6.352   1.576
 3935SOL     OW12703   0.018   2.884   4.836
 3935SOL    HW112704   6.996   2.933   4.758
 3935SOL    HW212705   6.977   2.897   4.916
 3936SOL     OW12706   0.275   4.551   4.480
 3936SOL    HW112707   0.331   4.632   4.461
 3936SOL    HW212708   0.334   4.473   4.497
 3937SOL     OW12709   1.029   6.206   0.232
 3937SOL    HW112710   1.126   6.184   0.219
 3937SOL    HW212711   0.986   6.137   0.290
 3938SOL     OW12712   0.307   3.107   0.517
 3938SOL    HW112713   0.263   3.021   0.544
 3938SOL    HW212714   0.406   3.098   0.528
 3939SOL     OW12715   1.641   6.163   3.754
 3939SOL    HW112716   1.548   6.129   3.738
 3939SOL    HW212717   1.637   6.259   3.782
 3940SOL     OW12718   2.483   5.730   6.354
 3940SOL    HW112719   2.579   5.713   6.374
 3940SOL    HW212720   2.456   5.818   6.394
 3941SOL     OW12721   4.992   5.773   2.199
 3941SOL    HW112722   5.023   5.682   2.225
 3941SOL    HW212723   4.918   5.765   2.132
 3942SOL     OW12724   6.561   6.238   6.577
 3942SOL    HW112725   6.489   6.185   6.623
 3942SOL    HW212726   6.634   6.258   6.642
 3943SOL     OW12727   1.882   3.631   6.685
 3943SOL    HW112728   1.962   3.574   6.704
 3943SOL    HW212729   1.887   3.666   6.591
 3944SOL     OW12730   4.661   3.175   6.869
 3944SOL    HW112731   4.736   3.230   6.833
 3944SOL    HW212732   4.699   3.093   6.913
 3945SOL     OW12733   5.899   0.551   3.289
 3945SOL    HW112734   5.939   0.532   3.379
 3945SOL    HW212735   5.956   0.509   3.218
 3946SOL     OW12736   0.171   3.108   0.250
 3946SOL    HW112737   0.222   3.048   0.188
 3946SOL    HW212738   0.216   3.108   0.339
 3947SOL     OW12739   5.288   6.679   1.988
 3947SOL    HW112740   5.361   6.641   2.045
 3947SOL    HW212741   5.212   6.707   2.046
 3948SOL     OW12742   2.162   1.852   5.090
 3948SOL    HW112743   2.156   1.799   5.174
 3948SOL    HW212744   2.159   1.949   5.111
 3949SOL     OW12745   6.549   6.902   2.580
 3949SOL    HW112746   6.504   6.817   2.556
 3949SOL    HW212747   6.646   6.896   2.556
 3950SOL     OW12748   2.990   4.336   1.700
 3950SOL    HW112749   3.085   4.365   1.689
 3950SOL    HW212750   2.940   4.403   1.754
 3951SOL     OW12751   0.724   2.568   3.949
 3951SOL    HW112752   0.776   2.498   3.899
 3951SOL    HW212753   0.642   2.527   3.987
 3952SOL     OW12754   5.721   4.151   0.080
 3952SOL    HW112755   5.779   4.135   0.000
 3952SOL    HW212756   5.726   4.071   0.141
 3953SOL     OW12757   2.864   3.877   5.844
 3953SOL    HW112758   2.782   3.844   5.889
 3953SOL    HW212759   2.944   3.861   5.902
 3954SOL     OW12760   0.166   3.332   4.865
 3954SOL    HW112761   0.121   3.355   4.779
 3954SOL    HW212762   0.198   3.237   4.861
 3955SOL     OW12763   5.959   3.738   0.066
 3955SOL    HW112764   6.041   3.793   0.046
 3955SOL    HW212765   5.915   3.772   0.149
 3956SOL     OW12766   6.266   2.646   5.301
 3956SOL    HW112767   6.252   2.609   5.209
 3956SOL    HW212768   6.178   2.673   5.339
 3957SOL     OW12769   0.865   1.833   1.897
 3957SOL    HW112770   0.842   1.899   1.969
 3957SOL    HW212771   0.853   1.740   1.931
 3958SOL     OW12772   5.239   6.202   0.844
 3958SOL    HW112773   5.202   6.143   0.773
 3958SOL    HW212774   5.293   6.275   0.802
 3959SOL     OW12775   2.092   5.603   1.915
 3959SOL    HW112776   2.187   5.608   1.885
 3959SOL    HW212777   2.048   5.523   1.876
 3960SOL     OW12778   5.138   3.339   0.615
 3960SOL    HW112779   5.162   3.355   0.519
 3960SOL    HW212780   5.215   3.295   0.661
 3961SOL     OW12781   6.598   0.531   1.752
 3961SOL    HW112782   6.537   0.515   1.830
 3961SOL    HW212783   6.547   0.573   1.677
 3962SOL     OW12784   6.907   0.331   6.213
 3962SOL    HW112785   6.894   0.324   6.114
 3962SOL    HW212786   6.897   0.240   6.255
 3963SOL     OW12787   5.033   4.432   3.891
 3963SOL    HW112788   5.094   4.510   3.904
 3963SOL    HW212789   4.989   4.439   3.801
 3964SOL     OW12790   5.736   5.674   0.399
 3964SOL    HW112791   5.769   5.605   0.463
 3964SOL    HW212792   5.738   5.764   0.443
 3965SOL     OW12793   3.573   3.524   1.253
 3965SOL    HW112794   3.507   3.467   1.205
 3965SOL    HW212795   3.528   3.571   1.329
 3966SOL     OW12796   6.730   4.235   6.066
 3966SOL    HW112797   6.822   4.265   6.040
 3966SOL    HW212798   6.689   4.301   6.128
 3967SOL     OW12799   1.942   6.331   0.262
 3967SOL    HW112800   2.040   6.347   0.280
 3967SOL    HW212801   1.916   6.242   0.300
 3968SOL     OW12802   4.679   1.809   0.978
 3968SOL    HW112803   4.583   1.784   0.987
 3968SOL    HW212804   4.726   1.798   1.066
 3969SOL     OW12805   7.003   6.588   1.033
 3969SOL    HW112806   0.040   6.504   1.025
 3969SOL    HW212807   7.007   6.639   0.947
 3970SOL     OW12808   5.131   4.353   4.128
 3970SOL    HW112809   5.188   4.434   4.136
 3970SOL    HW212810   5.077   4.358   4.043
 3971SOL     OW12811   0.209   6.402   3.925
 3971SOL    HW112812   0.162   6.488   3.939
 3971SOL    HW212813   0.169   6.354   3.846
 3972SOL     OW12814   1.138   6.907   6.272
 3972SOL    HW112815   1.050   6.894   6.225
 3972SOL    HW212816   1.156   7.004   6.283
 3973SOL     OW12817   3.389   2.943   3.068
 3973SOL    HW112818   3.302   2.921   3.111
 3973SOL    HW212819   3.387   3.036   3.033
 3974SOL     OW12820   5.243   0.888   6.675
 3974SOL    HW112821   5.267   0.984   6.691
 3974SOL    HW212822   5.312   0.830   6.718
 3975SOL     OW12823   0.229   6.649   5.343
 3975SOL    HW112824   0.152   6.646   5.280
 3975SOL    HW212825   0.218   6.727   5.405
 3976SOL     OW12826   0.599   3.049   6.306
 3976SOL    HW112827   0.542   3.014   6.379
 3976SOL    HW212828   0.611   3.148   6.317
 3977SOL     OW12829   2.972   5.663   4.882
 3977SOL    HW112830   3.051   5.605   4.902
 3977SOL    HW212831   3.000   5.739   4.823
 3978SOL     OW12832   6.315   3.767   6.861
 3978SOL    HW112833   6.304   3.828   6.940
 3978SOL    HW212834   6.231   3.769   6.806
 3979SOL     OW12835   1.035   6.483   3.490
 3979SOL    HW112836   1.129   6.450   3.498
 3979SOL    HW212837   0.979   6.415   3.442
 3980SOL     OW12838   4.692   4.240   4.072
 3980SOL    HW112839   4.682   4.141   4.084
 3980SOL    HW212840   4.659   4.266   3.981
 3981SOL     OW12841   6.787   1.519   6.012
 3981SOL    HW112842   6.882   1.547   6.023
 3981SOL    HW212843   6.778   1.421   6.030
 3982SOL     OW12844   1.983   2.742   4.053
 3982SOL    HW112845   1.979   2.642   4.051
 3982SOL    HW212846   2.072   2.771   4.086
 3983SOL     OW12847   3.149   6.676   4.050
 3983SOL    HW112848   3.053   6.689   4.074
 3983SOL    HW212849   3.155   6.642   3.956
 3984SOL     OW12850   2.012   5.981   2.025
 3984SOL    HW112851   2.040   6.072   1.997
 3984SOL    HW212852   2.003   5.978   2.125
 3985SOL     OW12853   1.715   2.898   1.699
 3985SOL    HW112854   1.755   2.896   1.790
 3985SOL    HW212855   1.766   2.837   1.639
 3986SOL     OW12856   1.007   2.277   2.294
 3986SOL    HW112857   1.086   2.315   2.343
 3986SOL    HW212858   1.016   2.296   2.196
 3987SOL     OW12859   1.499   3.948   5.452
 3987SOL    HW112860   1.569   3.948   5.523
 3987SOL    HW212861   1.540   3.919   5.365
 3988SOL     OW12862   5.156   6.935   1.398
 3988SOL    HW112863   5.220   6.859   1.396
 3988SOL    HW212864   5.062   6.900   1.395
 3989SOL     OW12865   3.999   0.472   5.938
 3989SOL    HW112866   3.948   0.557   5.950
 3989SOL    HW212867   3.939   0.402   5.900
 3990SOL     OW12868   0.137   2.104   3.533
 3990SOL    HW112869   0.048   2.075   3.499
 3990SOL    HW212870   0.200   2.026   3.534
 3991SOL     OW12871   0.966   2.208   3.438
 3991SOL    HW112872   0.868   2.201   3.420
 3991SOL    HW212873   1.014   2.134   3.390
 3992SOL     OW12874   5.983   3.542   6.516
 3992SOL    HW112875   5.888   3.520   6.496
 3992SOL    HW212876   6.031   3.564   6.430
 3993SOL     OW12877   2.188   0.682   4.346
 3993SOL    HW112878   2.173   0.727   4.434
 3993SOL    HW212879   2.199   0.751   4.275
 3994SOL     OW12880   3.056   2.056   3.299
 3994SOL    HW112881   3.015   2.043   3.389
 3994SOL    HW212882   3.083   1.967   3.262
 3995SOL     OW12883   1.508   2.904   1.885
 3995SOL    HW112884   1.565   2.886   1.965
 3995SOL    HW212885   1.567   2.918   1.805
 3996SOL     OW12886   5.998   6.342   5.321
 3996SOL    HW112887   5.947   6.256   5.322
 3996SOL    HW212888   5.952   6.408   5.262
 3997SOL     OW12889   5.298   3.522   3.218
 3997SOL    HW112890   5.394   3.495   3.208
 3997SOL    HW212891   5.240   3.441   3.212
 3998SOL     OW12892   4.546   1.794   3.497
 3998SOL    HW112893   4.481   1.822   3.567
 3998SOL    HW212894   4.557   1.868   3.430
 3999SOL     OW12895   4.056   3.343   1.157
 3999SOL    HW112896   4.142   3.315   1.199
 3999SOL    HW212897   4.070   3.429   1.108
 4000SOL     OW12898   2.209   5.125   2.535
 4000SOL    HW112899   2.204   5.224   2.524
 4000SOL    HW212900   2.270   5.103   2.610
 4001SOL     OW12901   6.610   5.749   4.882
 4001SOL    HW112902   6.623   5.657   4.920
 4001SOL    HW212903   6.699   5.789   4.858
 4002SOL     OW12904   3.919   3.461   4.448
 4002SOL    HW112905   3.983   3.433   4.376
 4002SOL    HW212906   3.831   3.483   4.407
 4003SOL     OW12907   2.239   1.216   4.637
 4003SOL    HW112908   2.173   1.171   4.698
 4003SOL    HW212909   2.332   1.199   4.670
 4004SOL     OW12910   1.496   4.484   4.196
 4004SOL    HW112911   1.471   4.580   4.207
 4004SOL    HW212912   1.545   4.453   4.277
 4005SOL     OW12913   5.047   3.386   6.969
 4005SOL    HW112914   5.001   3.313   0.002
 4005SOL    HW212915   5.136   3.405   7.011
 4006SOL     OW12916   6.821   5.613   2.310
 4006SOL    HW112917   6.752   5.542   2.297
 4006SOL    HW212918   6.864   5.602   2.400
 4007SOL     OW12919   0.062   0.613   2.122
 4007SOL    HW112920   0.078   0.530   2.070
 4007SOL    HW212921   0.025   0.590   2.212
 4008SOL     OW12922   2.872   1.093   1.233
 4008SOL    HW112923   2.842   1.184   1.262
 4008SOL    HW212924   2.945   1.101   1.166
 4009SOL     OW12925   4.471   2.325   0.524
 4009SOL    HW112926   4.516   2.382   0.592
 4009SOL    HW212927   4.488   2.363   0.433
 4010SOL     OW12928   1.523   4.330   1.060
 4010SOL    HW112929   1.560   4.238   1.046
 4010SOL    HW212930   1.595   4.390   1.093
 4011SOL     OW12931   6.425   6.146   6.022
 4011SOL    HW112932   6.479   6.209   5.967
 4011SOL    HW212933   6.455   6.151   6.117
 4012SOL     OW12934   5.526   6.248   2.740
 4012SOL    HW112935   5.584   6.324   2.768
 4012SOL    HW212936   5.545   6.168   2.797
 4013SOL     OW12937   6.871   1.484   6.446
 4013SOL    HW112938   6.945   1.417   6.434
 4013SOL    HW212939   6.887   1.562   6.385
 4014SOL     OW12940   3.099   5.103   1.933
 4014SOL    HW112941   3.098   5.021   1.992
 4014SOL    HW212942   3.182   5.102   1.877
 4015SOL     OW12943   4.223   5.089   6.482
 4015SOL    HW112944   4.247   5.087   6.579
 4015SOL    HW212945   4.273   5.162   6.437
 4016SOL     OW12946   5.328   4.889   4.704
 4016SOL    HW112947   5.230   4.888   4.682
 4016SOL    HW212948   5.350   4.809   4.760
 4017SOL     OW12949   1.204   4.937   5.711
 4017SOL    HW112950   1.298   4.964   5.694
 4017SOL    HW212951   1.173   4.975   5.798
 4018SOL     OW12952   3.899   5.699   0.625
 4018SOL    HW112953   3.908   5.685   0.527
 4018SOL    HW212954   3.989   5.698   0.668
 4019SOL     OW12955   6.152   3.899   2.274
 4019SOL    HW112956   6.108   3.867   2.191
 4019SOL    HW212957   6.242   3.936   2.253
 4020SOL     OW12958   6.515   5.313   4.955
 4020SOL    HW112959   6.450   5.308   4.879
 4020SOL    HW212960   6.602   5.350   4.922
 4021SOL     OW12961   4.743   4.789   6.286
 4021SOL    HW112962   4.774   4.742   6.203
 4021SOL    HW212963   4.707   4.721   6.350
 4022SOL     OW12964   2.868   6.404   1.422
 4022SOL    HW112965   2.848   6.433   1.328
 4022SOL    HW212966   2.789   6.424   1.480
 4023SOL     OW12967   0.668   1.582   4.301
 4023SOL    HW112968   0.672   1.682   4.294
 4023SOL    HW212969   0.645   1.543   4.212
 4024SOL     OW12970   0.716   6.620   4.995
 4024SOL    HW112971   0.738   6.681   5.071
 4024SOL    HW212972   0.792   6.556   4.981
 4025SOL     OW12973   6.602   5.582   4.228
 4025SOL    HW112974   6.585   5.532   4.143
 4025SOL    HW212975   6.619   5.517   4.302
 4026SOL     OW12976   0.407   6.773   4.563
 4026SOL    HW112977   0.395   6.687   4.613
 4026SOL    HW212978   0.364   6.848   4.614
 4027SOL     OW12979   3.544   4.929   4.990
 4027SOL    HW112980   3.500   5.014   5.020
 4027SOL    HW212981   3.473   4.860   4.970
 4028SOL     OW12982   4.727   0.627   3.445
 4028SOL    HW112983   4.721   0.641   3.543
 4028SOL    HW212984   4.800   0.561   3.425
 4029SOL     OW12985   1.755   6.182   0.599
 4029SOL    HW112986   1.795   6.269   0.627
 4029SOL    HW212987   1.744   6.123   0.680
 4030SOL     OW12988   0.889   1.965   2.156
 4030SOL    HW112989   0.857   2.008   2.240
 4030SOL    HW212990   0.949   1.888   2.179
 4031SOL     OW12991   5.963   6.277   0.732
 4031SOL    HW112992   5.983   6.190   0.688
 4031SOL    HW212993   5.999   6.352   0.675
 4032SOL     OW12994   4.751   0.578   2.589
 4032SOL    HW112995   4.793   0.644   2.526
 4032SOL    HW212996   4.715   0.501   2.538
 4033SOL     OW12997   2.008   2.302   2.379
 4033SOL    HW112998   2.048   2.392   2.394
 4033SOL    HW212999   2.047   2.262   2.296
 4034SOL     OW13000   1.346   2.743   4.969
 4034SOL    HW113001   1.308   2.746   4.876
 4034SOL    HW213002   1.286   2.690   5.028
 4035SOL     OW13003   4.362   2.015   1.769
 4035SOL    HW113004   4.371   1.921   1.801
 4035SOL    HW213005   4.399   2.077   1.838
 4036SOL     OW13006   2.800   5.499   3.270
 4036SOL    HW113007   2.710   5.511   3.312
 4036SOL    HW213008   2.824   5.581   3.218
 4037SOL     OW13009   2.604   1.711   5.882
 4037SOL    HW113010   2.689   1.720   5.934
 4037SOL    HW213011   2.528   1.697   5.945
 4038SOL     OW13012   3.191   4.717   5.747
 4038SOL    HW113013   3.113   4.735   5.807
 4038SOL    HW213014   3.175   4.633   5.696
 4039SOL     OW13015   5.281   5.173   1.401
 4039SOL    HW113016   5.243   5.265   1.411
 4039SOL    HW213017   5.329   5.147   1.484
 4040SOL     OW13018   3.154   6.834   5.115
 4040SOL    HW113019   3.152   6.836   5.015
 4040SOL    HW213020   3.157   6.928   5.150
 4041SOL     OW13021   1.586   6.238   1.520
 4041SOL    HW113022   1.576   6.333   1.550
 4041SOL    HW213023   1.502   6.188   1.541
 4042SOL     OW13024   0.344   1.242   2.683
 4042SOL    HW113025   0.409   1.198   2.745
 4042SOL    HW213026   0.363   1.340   2.679
 4043SOL     OW13027   5.043   3.275   6.194
 4043SOL    HW113028   5.030   3.184   6.235
 4043SOL    HW213029   5.033   3.345   6.265
 4044SOL     OW13030   4.960   3.931   2.880
 4044SOL    HW113031   4.914   3.874   2.812
 4044SOL    HW213032   4.892   3.971   2.941
 4045SOL     OW13033   4.767   0.683   5.333
 4045SOL    HW113034   4.789   0.713   5.426
 4045SOL    HW213035   4.737   0.761   5.279
 4046SOL     OW13036   5.118   1.612   3.310
 4046SOL    HW113037   5.039   1.621   3.249
 4046SOL    HW213038   5.189   1.558   3.264
 4047SOL     OW13039   3.100   2.802   6.358
 4047SOL    HW113040   3.130   2.893   6.388
 4047SOL    HW213041   3.124   2.789   6.262
 4048SOL     OW13042   5.151   1.768   2.915
 4048SOL    HW113043   5.077   1.835   2.923
 4048SOL    HW213044   5.113   1.675   2.918
 4049SOL     OW13045   4.370   3.818   0.558
 4049SOL    HW113046   4.322   3.906   0.557
 4049SOL    HW213047   4.310   3.748   0.597
 4050SOL     OW13048   1.043   5.413   2.136
 4050SOL    HW113049   1.065   5.377   2.227
 4050SOL    HW213050   1.057   5.512   2.135
 4051SOL     OW13051   5.567   1.107   5.008
 4051SOL    HW113052   5.504   1.036   5.040
 4051SOL    HW213053   5.644   1.113   5.072
 4052SOL     OW13054   5.559   2.032   3.359
 4052SOL    HW113055   5.631   1.964   3.342
 4052SOL    HW213056   5.507   2.006   3.440
 4053SOL     OW13057   0.890   5.393   4.258
 4053SOL    HW113058   0.912   5.428   4.349
 4053SOL    HW213059   0.967   5.407   4.197
 4054SOL     OW13060   3.743   3.745   1.226
 4054SOL    HW113061   3.667   3.687   1.255
 4054SOL    HW213062   3.793   3.700   1.152
 4055SOL     OW13063   0.581   3.941   6.889
 4055SOL    HW113064   0.517   3.978   6.822
 4055SOL    HW213065   0.576   3.995   6.973
 4056SOL     OW13066   4.632   3.679   0.167
 4056SOL    HW113067   4.624   3.590   0.121
 4056SOL    HW213068   4.650   3.750   0.100
 4057SOL     OW13069   0.118   3.476   0.358
 4057SOL    HW113070   0.083   3.568   0.375
 4057SOL    HW213071   0.083   3.442   0.271
 4058SOL     OW13072   2.383   0.270   5.199
 4058SOL    HW113073   2.478   0.291   5.177
 4058SOL    HW213074   2.378   0.179   5.241
 4059SOL     OW13075   0.714   1.457   3.653
 4059SOL    HW113076   0.658   1.540   3.645
 4059SOL    HW213077   0.774   1.450   3.574
 4060SOL     OW13078   6.968   6.421   5.028
 4060SOL    HW113079   6.879   6.406   5.070
 4060SOL    HW213080   0.023   6.400   5.094
 4061SOL     OW13081   0.866   5.230   1.071
 4061SOL    HW113082   0.771   5.200   1.081
 4061SOL    HW213083   0.873   5.326   1.098
 4062SOL     OW13084   2.191   3.417   1.197
 4062SOL    HW113085   2.271   3.473   1.218
 4062SOL    HW213086   2.118   3.436   1.263
 4063SOL     OW13087   4.652   0.259   0.091
 4063SOL    HW113088   4.591   0.182   0.106
 4063SOL    HW213089   4.664   0.310   0.176
 4064SOL     OW13090   1.700   1.228   5.931
 4064SOL    HW113091   1.649   1.176   5.863
 4064SOL    HW213092   1.638   1.260   6.003
 4065SOL     OW13093   2.279   6.738   0.689
 4065SOL    HW113094   2.247   6.789   0.609
 4065SOL    HW213095   2.375   6.713   0.678
 4066SOL     OW13096   1.112   3.599   3.753
 4066SOL    HW113097   1.133   3.516   3.702
 4066SOL    HW213098   1.160   3.597   3.841
 4067SOL     OW13099   5.268   4.898   0.627
 4067SOL    HW113100   5.243   4.871   0.534
 4067SOL    HW213101   5.188   4.935   0.674
 4068SOL     OW13102   2.248   2.770   5.175
 4068SOL    HW113103   2.279   2.845   5.117
 4068SOL    HW213104   2.310   2.692   5.165
 4069SOL     OW13105   4.250   6.938   6.249
 4069SOL    HW113106   4.253   0.021   6.253
 4069SOL    HW213107   4.192   6.909   6.173
 4070SOL     OW13108   1.508   3.478   3.507
 4070SOL    HW113109   1.499   3.436   3.417
 4070SOL    HW213110   1.532   3.575   3.496
 4071SOL     OW13111   1.736   0.740   4.276
 4071SOL    HW113112   1.772   0.753   4.184
 4071SOL    HW213113   1.723   0.642   4.293
 4072SOL     OW13114   2.678   5.368   3.084
 4072SOL    HW113115   2.738   5.380   3.163
 4072SOL    HW213116   2.730   5.385   3.000
 4073SOL     OW13117   4.206   4.773   7.002
 4073SOL    HW113118   4.244   4.685   6.975
 4073SOL    HW213119   4.107   4.773   6.983
 4074SOL     OW13120   1.207   5.884   2.951
 4074SOL    HW113121   1.252   5.942   2.883
 4074SOL    HW213122   1.277   5.844   3.010
 4075SOL     OW13123   6.840   0.987   0.894
 4075SOL    HW113124   6.785   1.034   0.963
 4075SOL    HW213125   6.788   0.910   0.857
 4076SOL     OW13126   2.304   4.388   4.804
 4076SOL    HW113127   2.216   4.358   4.768
 4076SOL    HW213128   2.377   4.332   4.765
 4077SOL     OW13129   3.169   0.851   1.262
 4077SOL    HW113130   3.138   0.919   1.195
 4077SOL    HW213131   3.269   0.854   1.268
 4078SOL     OW13132   3.124   4.823   2.439
 4078SOL    HW113133   3.069   4.766   2.378
 4078SOL    HW213134   3.068   4.854   2.516
 4079SOL     OW13135   0.796   1.561   3.998
 4079SOL    HW113136   0.714   1.594   3.951
 4079SOL    HW213137   0.831   1.632   4.058
 4080SOL     OW13138   6.526   1.853   5.023
 4080SOL    HW113139   6.523   1.809   4.933
 4080SOL    HW213140   6.556   1.786   5.092
 4081SOL     OW13141   2.051   3.530   3.793
 4081SOL    HW113142   2.072   3.547   3.697
 4081SOL    HW213143   1.953   3.513   3.804
 4082SOL     OW13144   0.956   3.378   0.996
 4082SOL    HW113145   0.982   3.381   1.093
 4082SOL    HW213146   0.861   3.348   0.989
 4083SOL     OW13147   5.566   2.929   4.269
 4083SOL    HW113148   5.629   2.913   4.193
 4083SOL    HW213149   5.618   2.958   4.349
 4084SOL     OW13150   0.330   1.598   4.303
 4084SOL    HW113151   0.307   1.695   4.311
 4084SOL    HW213152   0.351   1.576   4.208
 4085SOL     OW13153   2.662   6.253   0.286
 4085SOL    HW113154   2.720   6.328   0.315
 4085SOL    HW213155   2.692   6.168   0.330
 4086SOL     OW13156   0.863   4.932   0.443
 4086SOL    HW113157   0.888   5.027   0.424
 4086SOL    HW213158   0.893   4.874   0.367
 4087SOL     OW13159   1.637   1.827   2.816
 4087SOL    HW113160   1.556   1.770   2.803
 4087SOL    HW213161   1.628   1.880   2.901
 4088SOL     OW13162   6.569   2.095   0.755
 4088SOL    HW113163   6.604   2.045   0.834
 4088SOL    HW213164   6.470   2.084   0.750
 4089SOL     OW13165   1.042   1.677   5.438
 4089SOL    HW113166   1.074   1.592   5.397
 4089SOL    HW213167   1.103   1.703   5.513
 4090SOL     OW13168   1.765   5.029   5.808
 4090SOL    HW113169   1.770   5.062   5.714
 4090SOL    HW213170   1.829   4.953   5.820
 4091SOL     OW13171   4.609   5.890   0.263
 4091SOL    HW113172   4.677   5.848   0.203
 4091SOL    HW213173   4.522   5.841   0.255
 4092SOL     OW13174   0.496   2.415   4.478
 4092SOL    HW113175   0.508   2.502   4.432
 4092SOL    HW213176   0.400   2.387   4.471
 4093SOL     OW13177   5.800   0.622   5.014
 4093SOL    HW113178   5.880   0.631   5.073
 4093SOL    HW213179   5.762   0.713   4.996
 4094SOL     OW13180   2.689   4.527   5.408
 4094SOL    HW113181   2.711   4.581   5.327
 4094SOL    HW213182   2.745   4.444   5.410
 4095SOL     OW13183   1.917   4.095   6.110
 4095SOL    HW113184   1.873   4.128   6.194
 4095SOL    HW213185   1.871   4.012   6.078
 4096SOL     OW13186   4.071   4.698   1.913
 4096SOL    HW113187   4.167   4.678   1.894
 4096SOL    HW213188   4.064   4.751   1.998
 4097SOL     OW13189   3.387   3.782   4.541
 4097SOL    HW113190   3.329   3.858   4.510
 4097SOL    HW213191   3.480   3.815   4.555
 4098SOL     OW13192   0.300   2.195   2.606
 4098SOL    HW113193   0.265   2.275   2.557
 4098SOL    HW213194   0.223   2.140   2.638
 4099SOL     OW13195   3.900   6.304   1.770
 4099SOL    HW113196   3.964   6.347   1.707
 4099SOL    HW213197   3.900   6.354   1.857
 4100SOL     OW13198   3.712   6.109   3.237
 4100SOL    HW113199   3.736   6.198   3.198
 4100SOL    HW213200   3.794   6.053   3.245
 4101SOL     OW13201   4.796   0.966   6.251
 4101SOL    HW113202   4.880   0.934   6.206
 4101SOL    HW213203   4.728   0.893   6.252
 4102SOL     OW13204   5.832   1.268   0.529
 4102SOL    HW113205   5.789   1.320   0.603
 4102SOL    HW213206   5.865   1.181   0.564
 4103SOL     OW13207   0.542   0.303   2.318
 4103SOL    HW113208   0.542   0.207   2.346
 4103SOL    HW213209   0.552   0.309   2.219
 4104SOL     OW13210   1.803   4.614   2.637
 4104SOL    HW113211   1.861   4.561   2.575
 4104SOL    HW213212   1.773   4.555   2.712
 4105SOL     OW13213   5.229   5.011   6.904
 4105SOL    HW113214   5.324   5.033   6.927
 4105SOL    HW213215   5.188   5.088   6.854
 4106SOL     OW13216   6.628   3.882   4.885
 4106SOL    HW113217   6.684   3.964   4.897
 4106SOL    HW213218   6.537   3.909   4.851
 4107SOL     OW13219   6.929   0.812   1.205
 4107SOL    HW113220   6.991   0.740   1.174
 4107SOL    HW213221   6.838   0.796   1.167
 4108SOL     OW13222   6.641   3.232   5.676
 4108SOL    HW113223   6.730   3.269   5.652
 4108SOL    HW213224   6.650   3.171   5.755
 4109SOL     OW13225   3.479   6.249   3.363
 4109SOL    HW113226   3.572   6.211   3.364
 4109SOL    HW213227   3.433   6.221   3.278
 4110SOL     OW13228   4.925   3.078   5.724
 4110SOL    HW113229   4.830   3.050   5.709
 4110SOL    HW213230   4.930   3.132   5.808
 4111SOL     OW13231   4.517   3.036   0.268
 4111SOL    HW113232   4.510   2.976   0.188
 4111SOL    HW213233   4.610   3.034   0.303
 4112SOL     OW13234   3.766   0.813   4.490
 4112SOL    HW113235   3.851   0.851   4.454
 4112SOL    HW213236   3.699   0.806   4.417
 4113SOL     OW13237   3.556   5.220   4.257
 4113SOL    HW113238   3.645   5.193   4.222
 4113SOL    HW213239   3.492   5.231   4.181
 4114SOL     OW13240   2.419   2.112   2.561
 4114SOL    HW113241   2.500   2.121   2.620
 4114SOL    HW213242   2.392   2.202   2.528
 4115SOL     OW13243   5.082   4.970   1.905
 4115SOL    HW113244   5.077   5.061   1.864
 4115SOL    HW213245   4.995   4.922   1.889
 4116SOL     OW13246   3.149   0.852   1.872
 4116SOL    HW113247   3.228   0.868   1.813
 4116SOL    HW213248   3.129   0.935   1.924
 4117SOL     OW13249   1.035   5.708   2.082
 4117SOL    HW113250   0.947   5.726   2.038
 4117SOL    HW213251   1.079   5.794   2.107
 4118SOL     OW13252   2.453   6.663   0.127
 4118SOL    HW113253   2.434   6.578   0.077
 4118SOL    HW213254   2.551   6.668   0.147
 4119SOL     OW13255   4.289   1.071   3.167
 4119SOL    HW113256   4.348   1.112   3.236
 4119SOL    HW213257   4.344   1.041   3.089
 4120SOL     OW13258   3.882   1.080   1.556
 4120SOL    HW113259   3.941   1.059   1.634
 4120SOL    HW213260   3.838   1.168   1.571
 4121SOL     OW13261   6.453   2.720   4.854
 4121SOL    HW113262   6.551   2.706   4.870
 4121SOL    HW213263   6.431   2.698   4.759
 4122SOL     OW13264   1.711   5.666   6.449
 4122SOL    HW113265   1.628   5.722   6.442
 4122SOL    HW213266   1.759   5.689   6.534
 4123SOL     OW13267   5.324   3.874   6.373
 4123SOL    HW113268   5.297   3.964   6.404
 4123SOL    HW213269   5.257   3.806   6.403
 4124SOL     OW13270   5.139   6.641   3.612
 4124SOL    HW113271   5.179   6.688   3.533
 4124SOL    HW213272   5.168   6.545   3.612
 4125SOL     OW13273   5.089   1.499   1.400
 4125SOL    HW113274   5.080   1.417   1.457
 4125SOL    HW213275   5.032   1.488   1.318
 4126SOL     OW13276   2.331   4.672   4.057
 4126SOL    HW113277   2.352   4.698   4.151
 4126SOL    HW213278   2.233   4.662   4.046
 4127SOL     OW13279   6.668   3.616   5.496
 4127SOL    HW113280   6.663   3.685   5.424
 4127SOL    HW213281   6.687   3.661   5.584
 4128SOL     OW13282   0.927   2.118   2.773
 4128SOL    HW113283   0.835   2.123   2.734
 4128SOL    HW213284   0.932   2.043   2.839
 4129SOL     OW13285   5.790   2.020   5.971
 4129SOL    HW113286   5.810   2.061   5.882
 4129SOL    HW213287   5.776   2.092   6.039
 4130SOL     OW13288   5.692   3.629   1.183
 4130SOL    HW113289   5.641   3.620   1.268
 4130SOL    HW213290   5.760   3.703   1.191
 4131SOL     OW13291   6.418   4.279   3.392
 4131SOL    HW113292   6.427   4.222   3.474
 4131SOL    HW213293   6.496   4.341   3.386
 4132SOL     OW13294   4.848   1.857   4.038
 4132SOL    HW113295   4.870   1.930   4.103
 4132SOL    HW213296   4.778   1.889   3.974
 4133SOL     OW13297   2.660   1.811   1.254
 4133SOL    HW113298   2.751   1.831   1.291
 4133SOL    HW213299   2.592   1.821   1.327
 4134SOL     OW13300   0.916   1.866   6.998
 4134SOL    HW113301   0.839   1.881   6.937
 4134SOL    HW213302   0.982   1.941   6.988
 4135SOL     OW13303   1.180   0.529   1.219
 4135SOL    HW113304   1.280   0.527   1.221
 4135SOL    HW213305   1.148   0.478   1.138
 4136SOL     OW13306   1.075   1.955   3.357
 4136SOL    HW113307   1.071   1.873   3.414
 4136SOL    HW213308   1.171   1.980   3.342
 4137SOL     OW13309   3.104   4.271   6.249
 4137SOL    HW113310   3.169   4.284   6.175
 4137SOL    HW213311   3.027   4.334   6.237
 4138SOL     OW13312   4.084   4.780   3.071
 4138SOL    HW113313   3.984   4.787   3.071
 4138SOL    HW213314   4.124   4.871   3.071
 4139SOL     OW13315   2.000   1.355   6.885
 4139SOL    HW113316   2.061   1.315   6.816
 4139SOL    HW213317   1.936   1.285   6.917
 4140SOL     OW13318   4.653   1.474   5.190
 4140SOL    HW113319   4.692   1.536   5.121
 4140SOL    HW213320   4.659   1.517   5.280
 4141SOL     OW13321   5.162   5.897   0.380
 4141SOL    HW113322   5.204   5.843   0.307
 4141SOL    HW213323   5.099   5.840   0.432
 4142SOL     OW13324   6.044   3.605   1.573
 4142SOL    HW113325   6.064   3.535   1.642
 4142SOL    HW213326   5.952   3.590   1.537
 4143SOL     OW13327   0.445   2.758   1.153
 4143SOL    HW113328   0.399   2.752   1.242
 4143SOL    HW213329   0.429   2.673   1.102
 4144SOL     OW13330   4.352   0.217   2.512
 4144SOL    HW113331   4.277   0.154   2.494
 4144SOL    HW213332   4.405   0.185   2.590
 4145SOL     OW13333   2.803   0.276   2.806
 4145SOL    HW113334   2.703   0.282   2.805
 4145SOL    HW213335   2.841   0.352   2.754
 4146SOL     OW13336   5.028   5.671   0.495
 4146SOL    HW113337   5.077   5.652   0.581
 4146SOL    HW213338   4.930   5.659   0.509
 4147SOL     OW13339   3.579   2.334   5.582
 4147SOL    HW113340   3.646   2.354   5.654
 4147SOL    HW213341   3.486   2.346   5.619
 4148SOL     OW13342   6.160   0.353   2.944
 4148SOL    HW113343   6.133   0.448   2.962
 4148SOL    HW213344   6.229   0.325   3.010
 4149SOL     OW13345   5.449   3.942   1.765
 4149SOL    HW113346   5.351   3.924   1.775
 4149SOL    HW213347   5.462   4.034   1.727
 4150SOL     OW13348   4.855   0.311   6.165
 4150SOL    HW113349   4.784   0.241   6.173
 4150SOL    HW213350   4.858   0.345   6.072
 4151SOL     OW13351   0.020   5.568   0.724
 4151SOL    HW113352   0.007   5.496   0.655
 4151SOL    HW213353   6.960   5.568   0.788
 4152SOL     OW13354   3.899   4.258   1.364
 4152SOL    HW113355   3.887   4.265   1.463
 4152SOL    HW213356   3.811   4.276   1.319
 4153SOL     OW13357   6.668   5.278   6.237
 4153SOL    HW113358   6.669   5.376   6.257
 4153SOL    HW213359   6.623   5.229   6.312
 4154SOL     OW13360   5.065   2.867   5.867
 4154SOL    HW113361   5.038   2.955   5.829
 4154SOL    HW213362   5.145   2.879   5.926
 4155SOL     OW13363   1.065   3.255   1.900
 4155SOL    HW113364   1.042   3.244   1.997
 4155SOL    HW213365   1.145   3.200   1.877
 4156SOL     OW13366   5.979   0.258   5.732
 4156SOL    HW113367   5.947   0.192   5.664
 4156SOL    HW213368   5.929   0.243   5.818
 4157SOL     OW13369   3.178   0.800   5.055
 4157SOL    HW113370   3.239   0.862   5.104
 4157SOL    HW213371   3.158   0.838   4.964
 4158SOL     OW13372   1.344   6.711   4.037
 4158SOL    HW113373   1.401   6.635   4.009
 4158SOL    HW213374   1.251   6.699   4.002
 4159SOL     OW13375   0.835   3.073   5.118
 4159SOL    HW113376   0.932   3.083   5.096
 4159SOL    HW213377   0.798   3.162   5.144
 4160SOL     OW13378   1.274   1.574   0.359
 4160SOL    HW113379   1.331   1.606   0.435
 4160SOL    HW213380   1.321   1.502   0.309
 4161SOL     OW13381   6.569   1.992   0.464
 4161SOL    HW113382   6.664   2.010   0.489
 4161SOL    HW213383   6.532   1.919   0.521
 4162SOL     OW13384   6.545   0.485   5.037
 4162SOL    HW113385   6.490   0.402   5.026
 4162SOL    HW213386   6.577   0.516   4.948
 4163SOL     OW13387   5.955   1.534   3.929
 4163SOL    HW113388   6.050   1.532   3.960
 4163SOL    HW213389   5.906   1.456   3.968
 4164SOL     OW13390   2.313   0.016   5.788
 4164SOL    HW113391   2.351   6.993   5.872
 4164SOL    HW213392   2.347   0.110   5.778
 4165SOL     OW13393   3.587   6.192   2.239
 4165SOL    HW113394   3.564   6.213   2.144
 4165SOL    HW213395   3.662   6.126   2.241
 4166SOL     OW13396   5.773   3.078   0.807
 4166SOL    HW113397   5.810   2.999   0.855
 4166SOL    HW213398   5.726   3.047   0.724
 4167SOL     OW13399   2.119   2.832   1.265
 4167SOL    HW113400   2.184   2.820   1.339
 4167SOL    HW213401   2.026   2.831   1.302
 4168SOL     OW13402   1.587   4.592   0.876
 4168SOL    HW113403   1.561   4.497   0.857
 4168SOL    HW213404   1.679   4.609   0.841
 4169SOL     OW13405   6.053   3.609   4.638
 4169SOL    HW113406   6.056   3.511   4.614
 4169SOL    HW213407   5.969   3.627   4.690
 4170SOL     OW13408   4.609   2.541   5.607
 4170SOL    HW113409   4.561   2.628   5.608
 4170SOL    HW213410   4.630   2.516   5.512
 4171SOL     OW13411   5.621   3.687   2.018
 4171SOL    HW113412   5.600   3.783   2.036
 4171SOL    HW213413   5.683   3.681   1.939
 4172SOL     OW13414   1.885   1.877   0.752
 4172SOL    HW113415   1.957   1.810   0.737
 4172SOL    HW213416   1.915   1.945   0.819
 4173SOL     OW13417   5.207   3.683   5.626
 4173SOL    HW113418   5.280   3.688   5.694
 4173SOL    HW213419   5.224   3.604   5.566
 4174SOL     OW13420   5.223   0.667   4.535
 4174SOL    HW113421   5.302   0.618   4.572
 4174SOL    HW213422   5.144   0.607   4.536
 4175SOL     OW13423   3.423   1.456   3.370
 4175SOL    HW113424   3.497   1.440   3.304
 4175SOL    HW213425   3.344   1.400   3.345
 4176SOL     OW13426   5.942   6.004   2.952
 4176SOL    HW113427   6.035   6.042   2.953
 4176SOL    HW213428   5.886   6.055   2.886
 4177SOL     OW13429   6.906   5.515   2.544
 4177SOL    HW113430   6.877   5.497   2.638
 4177SOL    HW213431   6.995   5.473   2.528
 4178SOL     OW13432   4.345   2.341   5.616
 4178SOL    HW113433   4.343   2.286   5.700
 4178SOL    HW213434   4.436   2.378   5.602
 4179SOL     OW13435   5.802   2.884   5.810
 4179SOL    HW113436   5.859   2.953   5.855
 4179SOL    HW213437   5.753   2.925   5.733
 4180SOL     OW13438   4.299   3.902   1.377
 4180SOL    HW113439   4.221   3.964   1.390
 4180SOL    HW213440   4.367   3.918   1.449
 4181SOL     OW13441   0.299   1.257   0.425
 4181SOL    HW113442   0.204   1.283   0.436
 4181SOL    HW213443   0.358   1.336   0.440
 4182SOL     OW13444   5.768   1.327   3.776
 4182SOL    HW113445   5.864   1.330   3.747
 4182SOL    HW213446   5.759   1.265   3.853
 4183SOL     OW13447   1.184   1.871   1.341
 4183SOL    HW113448   1.177   1.774   1.367
 4183SOL    HW213449   1.211   1.878   1.245
 4184SOL     OW13450   4.133   5.270   0.456
 4184SOL    HW113451   4.195   5.200   0.492
 4184SOL    HW213452   4.099   5.242   0.367
 4185SOL     OW13453   0.401   6.948   4.025
 4185SOL    HW113454   0.341   6.870   4.043
 4185SOL    HW213455   0.490   6.933   4.067
 4186SOL     OW13456   3.400   4.226   1.317
 4186SOL    HW113457   3.356   4.216   1.406
 4186SOL    HW213458   3.331   4.217   1.244
 4187SOL     OW13459   4.356   4.291   6.552
 4187SOL    HW113460   4.356   4.344   6.467
 4187SOL    HW213461   4.320   4.346   6.626
 4188SOL     OW13462   5.192   6.499   4.777
 4188SOL    HW113463   5.161   6.405   4.765
 4188SOL    HW213464   5.114   6.557   4.800
 4189SOL     OW13465   2.281   2.699   3.384
 4189SOL    HW113466   2.347   2.660   3.448
 4189SOL    HW213467   2.267   2.796   3.406
 4190SOL     OW13468   3.203   0.115   1.309
 4190SOL    HW113469   3.131   0.164   1.358
 4190SOL    HW213470   3.218   0.158   1.220
 4191SOL     OW13471   6.690   2.255   2.413
 4191SOL    HW113472   6.632   2.281   2.490
 4191SOL    HW213473   6.703   2.156   2.412
 4192SOL     OW13474   6.199   1.192   3.052
 4192SOL    HW113475   6.261   1.270   3.056
 4192SOL    HW213476   6.251   1.107   3.058
 4193SOL     OW13477   2.279   6.879   2.407
 4193SOL    HW113478   2.362   6.828   2.429
 4193SOL    HW213479   2.256   6.865   2.311
 4194SOL     OW13480   0.263   1.062   4.091
 4194SOL    HW113481   0.262   0.964   4.110
 4194SOL    HW213482   0.252   1.113   4.176
 4195SOL     OW13483   5.207   0.974   2.378
 4195SOL    HW113484   5.299   0.988   2.340
 4195SOL    HW213485   5.201   1.020   2.467
 4196SOL     OW13486   4.460   2.389   3.312
 4196SOL    HW113487   4.465   2.293   3.284
 4196SOL    HW213488   4.520   2.444   3.255
 4197SOL     OW13489   4.566   4.543   3.987
 4197SOL    HW113490   4.482   4.597   3.993
 4197SOL    HW213491   4.551   4.466   3.925
 4198SOL     OW13492   5.649   3.896   5.786
 4198SOL    HW113493   5.607   3.831   5.723
 4198SOL    HW213494   5.599   3.896   5.872
 4199SOL     OW13495   3.079   4.047   5.150
 4199SOL    HW113496   3.026   4.010   5.074
 4199SOL    HW213497   3.108   3.972   5.209
 4200SOL     OW13498   2.610   0.407   6.093
 4200SOL    HW113499   2.639   0.312   6.107
 4200SOL    HW213500   2.521   0.421   6.137
 4201SOL     OW13501   6.468   6.738   4.509
 4201SOL    HW113502   6.545   6.707   4.563
 4201SOL    HW213503   6.478   6.708   4.414
 4202SOL     OW13504   5.425   4.203   4.817
 4202SOL    HW113505   5.375   4.117   4.827
 4202SOL    HW213506   5.370   4.268   4.764
 4203SOL     OW13507   5.237   5.035   3.825
 4203SOL    HW113508   5.317   5.094   3.832
 4203SOL    HW213509   5.184   5.060   3.744
 4204SOL     OW13510   2.861   4.064   1.009
 4204SOL    HW113511   2.889   4.003   0.934
 4204SOL    HW213512   2.791   4.019   1.065
 4205SOL     OW13513   2.865   5.106   3.118
 4205SOL    HW113514   2.913   5.183   3.158
 4205SOL    HW213515   2.819   5.136   3.033
 4206SOL     OW13516   5.730   0.051   4.555
 4206SOL    HW113517   5.787   0.057   4.474
 4206SOL    HW213518   5.743   0.132   4.611
 4207SOL     OW13519   1.072   0.765   0.989
 4207SOL    HW113520   1.037   0.858   0.979
 4207SOL    HW213521   1.122   0.758   1.076
 4208SOL     OW13522   1.024   3.111   1.208
 4208SOL    HW113523   0.928   3.138   1.221
 4208SOL    HW213524   1.032   3.012   1.218
 4209SOL     OW13525   2.871   0.282   4.558
 4209SOL    HW113526   2.776   0.265   4.585
 4209SOL    HW213527   2.908   0.358   4.611
 4210SOL     OW13528   5.199   2.205   0.567
 4210SOL    HW113529   5.129   2.137   0.549
 4210SOL    HW213530   5.227   2.248   0.482
 4211SOL     OW13531   4.853   3.869   3.686
 4211SOL    HW113532   4.923   3.800   3.664
 4211SOL    HW213533   4.852   3.885   3.785
 4212SOL     OW13534   6.326   6.969   3.133
 4212SOL    HW113535   6.242   6.986   3.081
 4212SOL    HW213536   6.360   6.878   3.113
 4213SOL     OW13537   0.821   0.710   2.161
 4213SOL    HW113538   0.737   0.737   2.114
 4213SOL    HW213539   0.802   0.699   2.259
 4214SOL     OW13540   2.331   4.157   4.516
 4214SOL    HW113541   2.292   4.103   4.441
 4214SOL    HW213542   2.287   4.133   4.602
 4215SOL     OW13543   0.623   5.258   5.488
 4215SOL    HW113544   0.642   5.160   5.483
 4215SOL    HW213545   0.708   5.309   5.480
 4216SOL     OW13546   2.569   3.546   5.460
 4216SOL    HW113547   2.536   3.466   5.409
 4216SOL    HW213548   2.652   3.522   5.510
 4217SOL     OW13549   6.839   0.819   3.146
 4217SOL    HW113550   6.894   0.879   3.204
 4217SOL    HW213551   6.819   0.734   3.195
 4218SOL     OW13552   2.922   0.055   2.905
 4218SOL    HW113553   2.872   0.140   2.888
 4218SOL    HW213554   2.909   0.028   3.000
 4219SOL     OW13555   4.663   6.616   3.310
 4219SOL    HW113556   4.690   6.668   3.392
 4219SOL    HW213557   4.742   6.566   3.275
 4220SOL     OW13558   0.713   3.863   3.613
 4220SOL    HW113559   0.684   3.836   3.704
 4220SOL    HW213560   0.633   3.887   3.558
 4221SOL     OW13561   5.354   6.152   5.885
 4221SOL    HW113562   5.339   6.251   5.886
 4221SOL    HW213563   5.431   6.129   5.945
 4222SOL     OW13564   3.915   2.338   0.126
 4222SOL    HW113565   3.990   2.284   0.088
 4222SOL    HW213566   3.936   2.363   0.220
 4223SOL     OW13567   3.051   3.877   2.524
 4223SOL    HW113568   2.969   3.821   2.530
 4223SOL    HW213569   3.122   3.840   2.584
 4224SOL     OW13570   4.108   2.064   5.381
 4224SOL    HW113571   4.197   2.062   5.426
 4224SOL    HW213572   4.074   1.970   5.369
 4225SOL     OW13573   5.404   0.851   5.024
 4225SOL    HW113574   5.350   0.770   5.046
 4225SOL    HW213575   5.419   0.854   4.925
 4226SOL     OW13576   1.594   0.874   3.166
 4226SOL    HW113577   1.692   0.871   3.184
 4226SOL    HW213578   1.554   0.784   3.183
 4227SOL     OW13579   6.281   4.107   0.373
 4227SOL    HW113580   6.343   4.095   0.296
 4227SOL    HW213581   6.277   4.204   0.398
 4228SOL     OW13582   5.984   5.510   2.700
 4228SOL    HW113583   6.045   5.506   2.780
 4228SOL    HW213584   5.960   5.417   2.673
 4229SOL     OW13585   4.910   4.866   5.797
 4229SOL    HW113586   4.934   4.813   5.878
 4229SOL    HW213587   4.895   4.961   5.823
 4230SOL     OW13588   3.522   0.397   4.524
 4230SOL    HW113589   3.571   0.469   4.574
 4230SOL    HW213590   3.571   0.310   4.534
 4231SOL     OW13591   4.143   6.137   5.035
 4231SOL    HW113592   4.182   6.050   5.007
 4231SOL    HW213593   4.174   6.160   5.128
 4232SOL     OW13594   2.303   3.950   1.903
 4232SOL    HW113595   2.327   3.876   1.840
 4232SOL    HW213596   2.335   3.927   1.995
 4233SOL     OW13597   5.505   6.753   1.140
 4233SOL    HW113598   5.533   6.760   1.044
 4233SOL    HW213599   5.453   6.668   1.153
 4234SOL     OW13600   3.310   4.156   5.552
 4234SOL    HW113601   3.387   4.159   5.488
 4234SOL    HW213602   3.257   4.241   5.544
 4235SOL     OW13603   0.274   3.625   5.377
 4235SOL    HW113604   0.295   3.611   5.281
 4235SOL    HW213605   0.359   3.631   5.429
 4236SOL     OW13606   1.133   4.074   4.889
 4236SOL    HW113607   1.092   4.145   4.833
 4236SOL    HW213608   1.079   4.061   4.972
 4237SOL     OW13609   5.333   4.392   4.626
 4237SOL    HW113610   5.382   4.353   4.548
 4237SOL    HW213611   5.236   4.403   4.602
 4238SOL     OW13612   4.026   5.053   3.884
 4238SOL    HW113613   4.039   5.122   3.955
 4238SOL    HW213614   4.007   5.098   3.796
 4239SOL     OW13615   5.339   5.355   5.982
 4239SOL    HW113616   5.259   5.307   5.946
 4239SOL    HW213617   5.376   5.303   6.060
 4240SOL     OW13618   2.705   4.880   6.066
 4240SOL    HW113619   2.651   4.808   6.109
 4240SOL    HW213620   2.785   4.900   6.123
 4241SOL     OW13621   3.992   1.148   0.269
 4241SOL    HW113622   4.063   1.163   0.338
 4241SOL    HW213623   3.982   1.230   0.213
 4242SOL     OW13624   1.564   0.063   2.560
 4242SOL    HW113625   1.547   0.156   2.594
 4242SOL    HW213626   1.632   0.066   2.487
 4243SOL     OW13627   1.632   2.952   3.170
 4243SOL    HW113628   1.661   2.992   3.256
 4243SOL    HW213629   1.541   2.911   3.182
 4244SOL     OW13630   3.145   6.528   1.109
 4244SOL    HW113631   3.162   6.433   1.085
 4244SOL    HW213632   3.232   6.576   1.119
 4245SOL     OW13633   6.296   2.970   1.628
 4245SOL    HW113634   6.355   3.040   1.588
 4245SOL    HW213635   6.282   2.989   1.725
 4246SOL     OW13636   4.402   1.952   3.969
 4246SOL    HW113637   4.385   2.038   3.922
 4246SOL    HW213638   4.441   1.970   4.059
 4247SOL     OW13639   2.238   4.111   6.507
 4247SOL    HW113640   2.162   4.169   6.477
 4247SOL    HW213641   2.316   4.168   6.534
 4248SOL     OW13642   1.863   0.375   2.877
 4248SOL    HW113643   1.775   0.337   2.903
 4248SOL    HW213644   1.913   0.308   2.822
 4249SOL     OW13645   6.459   0.642   6.059
 4249SOL    HW113646   6.387   0.653   5.991
 4249SOL    HW213647   6.533   0.586   6.021
 4250SOL     OW13648   6.352   5.555   4.649
 4250SOL    HW113649   6.424   5.489   4.669
 4250SOL    HW213650   6.318   5.541   4.556
 4251SOL     OW13651   5.440   2.465   5.396
 4251SOL    HW113652   5.478   2.433   5.483
 4251SOL    HW213653   5.514   2.479   5.330
 4252SOL     OW13654   6.944   6.759   0.251
 4252SOL    HW113655   6.946   6.848   0.296
 4252SOL    HW213656   6.925   6.771   0.153
 4253SOL     OW13657   4.849   5.529   2.825
 4253SOL    HW113658   4.753   5.503   2.831
 4253SOL    HW213659   4.878   5.575   2.909
 4254SOL     OW13660   2.199   2.256   5.785
 4254SOL    HW113661   2.166   2.348   5.806
 4254SOL    HW213662   2.159   2.191   5.851
 4255SOL     OW13663   1.249   3.080   3.259
 4255SOL    HW113664   1.185   3.062   3.185
 4255SOL    HW213665   1.288   3.171   3.248
 4256SOL     OW13666   0.152   6.157   1.168
 4256SOL    HW113667   0.076   6.109   1.212
 4256SOL    HW213668   0.217   6.187   1.238
 4257SOL     OW13669   6.780   1.004   3.540
 4257SOL    HW113670   6.822   1.046   3.621
 4257SOL    HW213671   6.789   0.905   3.545
 4258SOL     OW13672   2.896   5.183   1.009
 4258SOL    HW113673   2.910   5.276   1.043
 4258SOL    HW213674   2.929   5.177   0.915
 4259SOL     OW13675   0.922   0.299   0.709
 4259SOL    HW113676   0.928   0.250   0.622
 4259SOL    HW213677   1.012   0.337   0.732
 4260SOL     OW13678   5.597   0.838   4.503
 4260SOL    HW113679   5.631   0.885   4.585
 4260SOL    HW213680   5.657   0.859   4.425
 4261SOL     OW13681   2.887   6.366   4.400
 4261SOL    HW113682   2.865   6.416   4.316
 4261SOL    HW213683   2.827   6.398   4.474
 4262SOL     OW13684   2.642   4.871   5.716
 4262SOL    HW113685   2.695   4.937   5.664
 4262SOL    HW213686   2.592   4.918   5.788
 4263SOL     OW13687   2.104   1.839   3.319
 4263SOL    HW113688   2.095   1.745   3.353
 4263SOL    HW213689   2.076   1.903   3.391
 4264SOL     OW13690   4.678   2.197   5.844
 4264SOL    HW113691   4.755   2.135   5.860
 4264SOL    HW213692   4.711   2.291   5.836
 4265SOL     OW13693   2.162   6.691   5.862
 4265SOL    HW113694   2.169   6.719   5.766
 4265SOL    HW213695   2.104   6.757   5.911
 4266SOL     OW13696   1.314   5.205   1.522
 4266SOL    HW113697   1.326   5.129   1.458
 4266SOL    HW213698   1.381   5.276   1.501
 4267SOL     OW13699   1.135   4.703   4.370
 4267SOL    HW113700   1.080   4.781   4.340
 4267SOL    HW213701   1.114   4.682   4.466
 4268SOL     OW13702   1.183   4.308   6.197
 4268SOL    HW113703   1.192   4.262   6.285
 4268SOL    HW213704   1.123   4.255   6.137
 4269SOL     OW13705   2.674   1.515   4.561
 4269SOL    HW113706   2.588   1.480   4.597
 4269SOL    HW213707   2.711   1.451   4.494
 4270SOL     OW13708   3.831   2.992   0.156
 4270SOL    HW113709   3.888   3.050   0.097
 4270SOL    HW213710   3.827   2.900   0.118
 4271SOL     OW13711   6.827   0.551   1.001
 4271SOL    HW113712   6.774   0.497   1.066
 4271SOL    HW213713   6.767   0.616   0.954
 4272SOL     OW13714   6.384   1.007   5.889
 4272SOL    HW113715   6.327   0.930   5.917
 4272SOL    HW213716   6.398   1.068   5.968
 4273SOL     OW13717   2.857   5.879   4.183
 4273SOL    HW113718   2.774   5.836   4.148
 4273SOL    HW213719   2.851   5.889   4.282
 4274SOL     OW13720   0.454   1.389   2.255
 4274SOL    HW113721   0.531   1.356   2.309
 4274SOL    HW213722   0.370   1.382   2.310
 4275SOL     OW13723   0.390   2.536   3.530
 4275SOL    HW113724   0.300   2.549   3.488
 4275SOL    HW213725   0.443   2.620   3.520
 4276SOL     OW13726   2.126   6.042   2.985
 4276SOL    HW113727   2.057   6.065   3.054
 4276SOL    HW213728   2.102   5.955   2.942
 4277SOL     OW13729   6.888   5.373   3.156
 4277SOL    HW113730   6.975   5.422   3.153
 4277SOL    HW213731   6.890   5.296   3.092
 4278SOL     OW13732   1.236   6.557   1.480
 4278SOL    HW113733   1.137   6.559   1.491
 4278SOL    HW213734   1.262   6.607   1.397
 4279SOL     OW13735   1.265   2.336   3.555
 4279SOL    HW113736   1.364   2.342   3.544
 4279SOL    HW213737   1.220   2.369   3.471
 4280SOL     OW13738   2.029   6.396   5.953
 4280SOL    HW113739   2.115   6.445   5.968
 4280SOL    HW213740   1.963   6.422   6.024
 4281SOL     OW13741   5.744   5.875   3.093
 4281SOL    HW113742   5.674   5.929   3.046
 4281SOL    HW213743   5.834   5.907   3.066
 4282SOL     OW13744   5.047   5.086   2.172
 4282SOL    HW113745   4.986   5.011   2.198
 4282SOL    HW213746   5.086   5.068   2.082
 4283SOL     OW13747   5.429   1.273   4.565
 4283SOL    HW113748   5.472   1.193   4.606
 4283SOL    HW213749   5.376   1.322   4.635
 4284SOL     OW13750   4.444   5.556   6.464
 4284SOL    HW113751   4.453   5.471   6.516
 4284SOL    HW213752   4.352   5.562   6.425
 4285SOL     OW13753   3.478   1.217   6.655
 4285SOL    HW113754   3.499   1.235   6.558
 4285SOL    HW213755   3.531   1.279   6.712
 4286SOL     OW13756   5.251   0.515   6.541
 4286SOL    HW113757   5.191   0.516   6.462
 4286SOL    HW213758   5.331   0.574   6.523
 4287SOL     OW13759   3.518   1.024   1.013
 4287SOL    HW113760   3.565   1.032   0.925
 4287SOL    HW213761   3.585   1.027   1.087
 4288SOL     OW13762   6.980   5.931   1.780
 4288SOL    HW113763   6.940   6.004   1.835
 4288SOL    HW213764   0.019   5.872   1.838
 4289SOL     OW13765   0.323   4.715   4.886
 4289SOL    HW113766   0.234   4.693   4.848
 4289SOL    HW213767   0.313   4.778   4.963
 4290SOL     OW13768   0.442   1.635   2.864
 4290SOL    HW113769   0.435   1.588   2.776
 4290SOL    HW213770   0.539   1.648   2.886
 4291SOL     OW13771   3.804   4.373   6.581
 4291SOL    HW113772   3.713   4.347   6.550
 4291SOL    HW213773   3.865   4.294   6.579
 4292SOL     OW13774   6.693   1.298   1.668
 4292SOL    HW113775   6.712   1.314   1.571
 4292SOL    HW213776   6.689   1.199   1.684
 4293SOL     OW13777   3.821   2.587   0.361
 4293SOL    HW113778   3.808   2.491   0.389
 4293SOL    HW213779   3.751   2.644   0.405
 4294SOL     OW13780   2.930   1.918   6.563
 4294SOL    HW113781   2.853   1.977   6.541
 4294SOL    HW213782   2.947   1.855   6.487
 4295SOL     OW13783   4.554   5.915   2.930
 4295SOL    HW113784   4.479   5.850   2.945
 4295SOL    HW213785   4.587   5.949   3.018
 4296SOL     OW13786   2.619   6.614   2.375
 4296SOL    HW113787   2.572   6.541   2.327
 4296SOL    HW213788   2.689   6.654   2.316
 4297SOL     OW13789   5.093   5.430   0.329
 4297SOL    HW113790   5.170   5.448   0.268
 4297SOL    HW213791   5.069   5.513   0.379
 4298SOL     OW13792   1.582   0.278   0.680
 4298SOL    HW113793   1.540   0.328   0.604
 4298SOL    HW213794   1.547   0.314   0.766
 4299SOL     OW13795   0.721   3.180   6.791
 4299SOL    HW113796   0.764   3.149   6.707
 4299SOL    HW213797   0.680   3.270   6.777
 4300SOL     OW13798   3.402   0.872   1.743
 4300SOL    HW113799   3.441   0.880   1.835
 4300SOL    HW213800   3.450   0.801   1.692
 4301SOL     OW13801   2.340   5.933   6.464
 4301SOL    HW113802   2.250   5.947   6.421
 4301SOL    HW213803   2.394   6.017   6.456
 4302SOL     OW13804   3.542   4.762   6.011
 4302SOL    HW113805   3.601   4.781   5.932
 4302SOL    HW213806   3.483   4.841   6.028
 4303SOL     OW13807   4.771   5.173   3.393
 4303SOL    HW113808   4.838   5.208   3.327
 4303SOL    HW213809   4.783   5.074   3.403
 4304SOL     OW13810   3.312   4.081   1.554
 4304SOL    HW113811   3.264   4.020   1.616
 4304SOL    HW213812   3.379   4.030   1.501
 4305SOL     OW13813   0.974   6.194   6.118
 4305SOL    HW113814   1.020   6.118   6.164
 4305SOL    HW213815   1.003   6.281   6.160
 4306SOL     OW13816   5.987   4.060   5.269
 4306SOL    HW113817   6.054   4.009   5.323
 4306SOL    HW213818   5.940   3.998   5.207
 4307SOL     OW13819   0.354   0.803   5.934
 4307SOL    HW113820   0.400   0.750   5.862
 4307SOL    HW213821   0.338   0.896   5.902
 4308SOL     OW13822   4.392   6.008   6.440
 4308SOL    HW113823   4.439   5.924   6.468
 4308SOL    HW213824   4.446   6.087   6.468
 4309SOL     OW13825   1.497   1.216   7.001
 4309SOL    HW113826   1.462   1.298   6.957
 4309SOL    HW213827   1.430   1.142   6.992
 4310SOL     OW13828   6.394   1.902   2.953
 4310SOL    HW113829   6.403   1.981   2.893
 4310SOL    HW213830   6.444   1.825   2.914
 4311SOL     OW13831   0.786   0.648   1.572
 4311SOL    HW113832   0.839   0.563   1.569
 4311SOL    HW213833   0.716   0.641   1.642
 4312SOL     OW13834   6.990   4.009   2.390
 4312SOL    HW113835   6.966   4.099   2.427
 4312SOL    HW213836   6.920   3.980   2.325
 4313SOL     OW13837   0.646   3.308   6.364
 4313SOL    HW113838   0.613   3.374   6.297
 4313SOL    HW213839   0.710   3.353   6.426
 4314SOL     OW13840   0.922   1.363   6.188
 4314SOL    HW113841   0.847   1.299   6.204
 4314SOL    HW213842   0.961   1.346   6.097
 4315SOL     OW13843   2.734   1.499   5.384
 4315SOL    HW113844   2.661   1.535   5.442
 4315SOL    HW213845   2.785   1.575   5.344
 4316SOL     OW13846   4.277   5.769   2.041
 4316SOL    HW113847   4.328   5.782   1.957
 4316SOL    HW213848   4.208   5.840   2.050
 4317SOL     OW13849   5.060   0.766   5.257
 4317SOL    HW113850   4.979   0.722   5.219
 4317SOL    HW213851   5.055   0.864   5.242
 4318SOL     OW13852   1.335   6.328   4.451
 4318SOL    HW113853   1.316   6.383   4.532
 4318SOL    HW213854   1.372   6.387   4.379
 4319SOL     OW13855   0.879   4.116   2.652
 4319SOL    HW113856   0.878   4.174   2.733
 4319SOL    HW213857   0.932   4.034   2.670
 4320SOL     OW13858   3.030   0.140   0.806
 4320SOL    HW113859   3.053   0.050   0.844
 4320SOL    HW213860   2.952   0.178   0.855
 4321SOL     OW13861   6.882   6.483   3.331
 4321SOL    HW113862   6.931   6.530   3.258
 4321SOL    HW213863   6.883   6.539   3.413
 4322SOL     OW13864   2.058   1.996   4.656
 4322SOL    HW113865   2.058   1.909   4.705
 4322SOL    HW213866   2.103   1.985   4.567
 4323SOL     OW13867   4.639   5.048   0.057
 4323SOL    HW113868   4.719   5.105   0.077
 4323SOL    HW213869   4.556   5.099   0.078
 4324SOL     OW13870   0.767   4.822   5.708
 4324SOL    HW113871   0.684   4.874   5.728
 4324SOL    HW213872   0.747   4.724   5.706
 4325SOL     OW13873   2.100   6.244   1.951
 4325SOL    HW113874   2.090   6.342   1.973
 4325SOL    HW213875   2.181   6.231   1.894
 4326SOL     OW13876   4.975   2.132   2.353
 4326SOL    HW113877   4.893   2.105   2.404
 4326SOL    HW213878   5.052   2.075   2.380
 4327SOL     OW13879   2.334   5.515   3.548
 4327SOL    HW113880   2.362   5.424   3.515
 4327SOL    HW213881   2.241   5.510   3.584
 4328SOL     OW13882   6.446   0.635   3.399
 4328SOL    HW113883   6.466   0.715   3.456
 4328SOL    HW213884   6.374   0.581   3.441
 4329SOL     OW13885   6.894   2.890   6.606
 4329SOL    HW113886   6.925   2.805   6.649
 4329SOL    HW213887   6.846   2.946   6.674
 4330SOL     OW13888   2.381   5.422   4.411
 4330SOL    HW113889   2.369   5.508   4.461
 4330SOL    HW213890   2.468   5.425   4.361
 4331SOL     OW13891   5.962   2.156   2.483
 4331SOL    HW113892   5.966   2.145   2.583
 4331SOL    HW213893   5.975   2.252   2.460
 4332SOL     OW13894   0.709   5.645   1.422
 4332SOL    HW113895   0.644   5.689   1.360
 4332SOL    HW213896   0.698   5.683   1.514
 4333SOL     OW13897   3.893   2.395   6.155
 4333SOL    HW113898   3.877   2.298   6.175
 4333SOL    HW213899   3.957   2.432   6.222
 4334SOL     OW13900   0.349   2.711   3.813
 4334SOL    HW113901   0.322   2.781   3.746
 4334SOL    HW213902   0.446   2.720   3.832
 4335SOL     OW13903   2.436   4.076   1.534
 4335SOL    HW113904   2.450   4.070   1.435
 4335SOL    HW213905   2.522   4.102   1.578
 4336SOL     OW13906   2.534   5.617   5.481
 4336SOL    HW113907   2.567   5.573   5.565
 4336SOL    HW213908   2.486   5.701   5.505
 4337SOL     OW13909   0.185   4.497   3.634
 4337SOL    HW113910   0.210   4.552   3.554
 4337SOL    HW213911   0.194   4.552   3.716
 4338SOL     OW13912   2.875   2.499   5.770
 4338SOL    HW113913   2.931   2.555   5.831
 4338SOL    HW213914   2.815   2.558   5.716
 4339SOL     OW13915   4.038   5.057   5.456
 4339SOL    HW113916   4.062   5.153   5.439
 4339SOL    HW213917   4.042   5.006   5.371
 4340SOL     OW13918   6.713   4.310   1.515
 4340SOL    HW113919   6.785   4.378   1.501
 4340SOL    HW213920   6.709   4.249   1.436
 4341SOL     OW13921   5.366   5.992   1.246
 4341SOL    HW113922   5.273   5.985   1.283
 4341SOL    HW213923   5.428   5.942   1.306
 4342SOL     OW13924   5.436   2.854   2.536
 4342SOL    HW113925   5.513   2.888   2.591
 4342SOL    HW213926   5.358   2.836   2.597
 4343SOL     OW13927   3.527   0.478   6.615
 4343SOL    HW113928   3.431   0.469   6.589
 4343SOL    HW213929   3.578   0.399   6.581
 4344SOL     OW13930   0.376   3.847   3.066
 4344SOL    HW113931   0.329   3.794   2.995
 4344SOL    HW213932   0.355   3.944   3.054
 4345SOL     OW13933   3.669   3.355   2.320
 4345SOL    HW113934   3.609   3.424   2.359
 4345SOL    HW213935   3.714   3.393   2.239
 4346SOL     OW13936   0.518   3.203   2.936
 4346SOL    HW113937   0.489   3.298   2.938
 4346SOL    HW213938   0.602   3.192   2.989
 4347SOL     OW13939   6.421   5.681   0.801
 4347SOL    HW113940   6.494   5.679   0.869
 4347SOL    HW213941   6.385   5.589   0.787
 4348SOL     OW13942   5.768   4.951   5.679
 4348SOL    HW113943   5.812   4.873   5.722
 4348SOL    HW213944   5.800   4.960   5.584
 4349SOL     OW13945   0.397   3.085   3.989
 4349SOL    HW113946   0.315   3.063   3.934
 4349SOL    HW213947   0.372   3.089   4.085
 4350SOL     OW13948   4.047   0.798   3.806
 4350SOL    HW113949   3.952   0.775   3.787
 4350SOL    HW213950   4.051   0.881   3.862
 4351SOL     OW13951   0.724   5.690   0.849
 4351SOL    HW113952   0.759   5.783   0.860
 4351SOL    HW213953   0.789   5.636   0.795
 4352SOL     OW13954   3.549   5.105   1.717
 4352SOL    HW113955   3.601   5.021   1.729
 4352SOL    HW213956   3.580   5.152   1.634
 4353SOL     OW13957   3.139   2.836   1.009
 4353SOL    HW113958   3.181   2.759   0.960
 4353SOL    HW213959   3.181   2.921   0.978
 4354SOL     OW13960   5.830   6.361   2.600
 4354SOL    HW113961   5.843   6.271   2.640
 4354SOL    HW213962   5.888   6.427   2.648
 4355SOL     OW13963   1.805   4.863   2.370
 4355SOL    HW113964   1.708   4.851   2.347
 4355SOL    HW213965   1.836   4.785   2.424
 4356SOL     OW13966   6.199   2.744   4.942
 4356SOL    HW113967   6.174   2.830   4.896
 4356SOL    HW213968   6.297   2.729   4.931
 4357SOL     OW13969   5.877   0.046   1.896
 4357SOL    HW113970   5.878   0.139   1.934
 4357SOL    HW213971   5.942   7.006   1.946
 4358SOL     OW13972   2.707   0.337   0.249
 4358SOL    HW113973   2.632   0.399   0.273
 4358SOL    HW213974   2.794   0.381   0.271
 4359SOL     OW13975   2.513   2.297   1.197
 4359SOL    HW113976   2.523   2.202   1.167
 4359SOL    HW213977   2.583   2.354   1.153
 4360SOL     OW13978   2.035   5.316   4.148
 4360SOL    HW113979   1.970   5.286   4.079
 4360SOL    HW213980   2.064   5.410   4.129
 4361SOL     OW13981   0.196   2.117   6.946
 4361SOL    HW113982   0.139   2.064   7.009
 4361SOL    HW213983   0.284   2.136   6.988
 4362SOL     OW13984   1.091   5.204   3.317
 4362SOL    HW113985   1.041   5.118   3.320
 4362SOL    HW213986   1.168   5.200   3.381
 4363SOL     OW13987   3.701   1.077   1.932
 4363SOL    HW113988   3.734   1.003   1.873
 4363SOL    HW213989   3.758   1.158   1.919
 4364SOL     OW13990   4.153   3.510   3.007
 4364SOL    HW113991   4.057   3.540   3.002
 4364SOL    HW213992   4.213   3.588   2.989
 4365SOL     OW13993   2.116   1.129   1.305
 4365SOL    HW113994   2.206   1.174   1.306
 4365SOL    HW213995   2.053   1.182   1.247
 4366SOL     OW13996   5.132   0.001   4.769
 4366SOL    HW113997   5.054   0.056   4.737
 4366SOL    HW213998   5.098   6.934   4.811
 4367SOL     OW13999   2.581   6.335   2.631
 4367SOL    HW114000   2.574   6.296   2.539
 4367SOL    HW214001   2.657   6.400   2.633
 4368SOL     OW14002   4.904   3.945   3.940
 4368SOL    HW114003   4.949   3.855   3.947
 4368SOL    HW214004   4.912   3.992   4.028
 4369SOL     OW14005   5.113   4.082   3.845
 4369SOL    HW114006   5.020   4.050   3.863
 4369SOL    HW214007   5.168   4.073   3.928
 4370SOL     OW14008   4.052   4.471   1.283
 4370SOL    HW114009   4.029   4.502   1.191
 4370SOL    HW214010   3.987   4.402   1.313
 4371SOL     OW14011   2.326   1.100   2.136
 4371SOL    HW114012   2.282   1.165   2.198
 4371SOL    HW214013   2.383   1.150   2.071
 4372SOL     OW14014   1.822   3.761   3.967
 4372SOL    HW114015   1.799   3.853   4.000
 4372SOL    HW214016   1.859   3.768   3.874
 4373SOL     OW14017   3.895   0.926   6.849
 4373SOL    HW114018   3.867   0.977   6.930
 4373SOL    HW214019   3.961   0.855   6.875
 4374SOL     OW14020   2.722   6.630   0.204
 4374SOL    HW114021   2.751   6.726   0.203
 4374SOL    HW214022   2.751   6.588   0.289
 4375SOL     OW14023   4.763   1.569   5.432
 4375SOL    HW114024   4.800   1.543   5.521
 4375SOL    HW214025   4.779   1.666   5.416
 4376SOL     OW14026   2.203   6.191   6.554
 4376SOL    HW114027   2.140   6.245   6.609
 4376SOL    HW214028   2.166   6.181   6.462
 4377SOL     OW14029   5.053   6.608   6.763
 4377SOL    HW114030   5.152   6.593   6.773
 4377SOL    HW214031   5.028   6.692   6.811
 4378SOL     OW14032   2.525   5.059   2.430
 4378SOL    HW114033   2.486   5.145   2.398
 4378SOL    HW214034   2.624   5.069   2.440
 4379SOL     OW14035   0.875   0.066   1.762
 4379SOL    HW114036   0.796   0.124   1.744
 4379SOL    HW214037   0.907   0.025   1.677
 4380SOL     OW14038   1.558   5.470   4.196
 4380SOL    HW114039   1.594   5.393   4.144
 4380SOL    HW214040   1.464   5.449   4.226
 4381SOL     OW14041   4.909   5.766   5.479
 4381SOL    HW114042   4.980   5.699   5.459
 4381SOL    HW214043   4.923   5.803   5.570
 4382SOL     OW14044   4.914   2.990   3.134
 4382SOL    HW114045   4.972   2.917   3.170
 4382SOL    HW214046   4.874   2.960   3.047
 4383SOL     OW14047   0.843   2.260   0.154
 4383SOL    HW114048   0.884   2.340   0.110
 4383SOL    HW214049   0.744   2.264   0.147
 4384SOL     OW14050   3.947   6.669   0.822
 4384SOL    HW114051   3.876   6.699   0.885
 4384SOL    HW214052   4.003   6.747   0.795
 4385SOL     OW14053   6.239   2.047   2.427
 4385SOL    HW114054   6.160   2.040   2.488
 4385SOL    HW214055   6.248   2.141   2.395
 4386SOL     OW14056   1.051   3.883   6.912
 4386SOL    HW114057   0.966   3.930   6.886
 4386SOL    HW214058   1.043   3.786   6.889
 4387SOL     OW14059   6.446   2.733   1.538
 4387SOL    HW114060   6.375   2.800   1.559
 4387SOL    HW214061   6.421   2.645   1.579
 4388SOL     OW14062   2.912   1.524   5.612
 4388SOL    HW114063   2.846   1.498   5.541
 4388SOL    HW214064   3.001   1.542   5.569
 4389SOL     OW14065   6.234   2.310   2.349
 4389SOL    HW114066   6.194   2.290   2.259
 4389SOL    HW214067   6.184   2.387   2.391
 4390SOL     OW14068   4.391   2.366   1.915
 4390SOL    HW114069   4.447   2.428   1.970
 4390SOL    HW214070   4.339   2.419   1.847
 4391SOL     OW14071   0.484   6.491   0.849
 4391SOL    HW114072   0.578   6.463   0.832
 4391SOL    HW214073   0.439   6.422   0.906
 4392SOL     OW14074   5.524   3.852   4.496
 4392SOL    HW114075   5.424   3.860   4.501
 4392SOL    HW214076   5.562   3.939   4.465
 4393SOL     OW14077   5.489   5.761   3.807
 4393SOL    HW114078   5.500   5.675   3.857
 4393SOL    HW214079   5.465   5.834   3.871
 4394SOL     OW14080   4.332   0.701   2.629
 4394SOL    HW114081   4.260   0.631   2.630
 4394SOL    HW214082   4.377   0.705   2.718
 4395SOL     OW14083   5.070   2.128   1.549
 4395SOL    HW114084   5.125   2.101   1.628
 4395SOL    HW214085   5.059   2.227   1.547
 4396SOL     OW14086   1.950   1.010   4.020
 4396SOL    HW114087   1.866   1.061   4.040
 4396SOL    HW214088   1.930   0.912   4.016
 4397SOL     OW14089   5.817   0.237   6.517
 4397SOL    HW114090   5.779   0.311   6.462
 4397SOL    HW214091   5.886   0.274   6.580
 4398SOL     OW14092   6.887   5.217   3.936
 4398SOL    HW114093   6.796   5.247   3.964
 4398SOL    HW214094   6.890   5.213   3.836
 4399SOL     OW14095   2.667   1.466   1.730
 4399SOL    HW114096   2.587   1.418   1.693
 4399SOL    HW214097   2.684   1.549   1.676
 4400SOL     OW14098   3.506   5.819   3.472
 4400SOL    HW114099   3.602   5.795   3.486
 4400SOL    HW214100   3.449   5.770   3.538
 4401SOL     OW14101   6.196   6.331   4.835
 4401SOL    HW114102   6.156   6.422   4.844
 4401SOL    HW214103   6.160   6.272   4.908
 4402SOL     OW14104   6.381   0.282   3.112
 4402SOL    HW114105   6.465   0.249   3.070
 4402SOL    HW214106   6.372   0.244   3.204
 4403SOL     OW14107   0.450   0.315   3.348
 4403SOL    HW114108   0.516   0.313   3.273
 4403SOL    HW214109   0.497   0.341   3.432
 4404SOL     OW14110   1.704   4.510   3.373
 4404SOL    HW114111   1.780   4.532   3.434
 4404SOL    HW214112   1.647   4.592   3.360
 4405SOL     OW14113   3.072   4.008   6.390
 4405SOL    HW114114   3.160   3.966   6.371
 4405SOL    HW214115   3.069   4.100   6.350
 4406SOL     OW14116   5.308   3.579   2.181
 4406SOL    HW114117   5.388   3.637   2.165
 4406SOL    HW214118   5.299   3.513   2.105
 4407SOL     OW14119   6.885   0.224   0.299
 4407SOL    HW114120   6.937   0.202   0.381
 4407SOL    HW214121   6.939   0.283   0.239
 4408SOL     OW14122   4.369   6.258   0.193
 4408SOL    HW114123   4.429   6.286   0.118
 4408SOL    HW214124   4.388   6.315   0.273
 4409SOL     OW14125   1.790   1.427   3.029
 4409SOL    HW114126   1.751   1.518   3.018
 4409SOL    HW214127   1.752   1.365   2.960
 4410SOL     OW14128   2.137   5.841   1.504
 4410SOL    HW114129   2.043   5.868   1.526
 4410SOL    HW214130   2.199   5.879   1.572
 4411SOL     OW14131   3.542   3.131   2.812
 4411SOL    HW114132   3.594   3.058   2.768
 4411SOL    HW214133   3.456   3.145   2.762
 4412SOL     OW14134   3.624   1.854   6.107
 4412SOL    HW114135   3.543   1.797   6.099
 4412SOL    HW214136   3.639   1.904   6.022
 4413SOL     OW14137   4.456   5.309   4.162
 4413SOL    HW114138   4.488   5.230   4.109
 4413SOL    HW214139   4.381   5.354   4.112
 4414SOL     OW14140   3.401   5.391   1.409
 4414SOL    HW114141   3.445   5.301   1.413
 4414SOL    HW214142   3.447   5.449   1.342
 4415SOL     OW14143   4.204   1.359   1.222
 4415SOL    HW114144   4.127   1.343   1.285
 4415SOL    HW214145   4.215   1.280   1.162
 4416SOL     OW14146   3.090   1.968   4.194
 4416SOL    HW114147   3.086   2.052   4.247
 4416SOL    HW214148   3.127   1.894   4.250
 4417SOL     OW14149   6.746   0.714   0.410
 4417SOL    HW114150   6.716   0.636   0.355
 4417SOL    HW214151   6.837   0.696   0.446
 4418SOL     OW14152   4.766   0.892   3.956
 4418SOL    HW114153   4.714   0.940   4.027
 4418SOL    HW214154   4.854   0.937   3.942
 4419SOL     OW14155   6.639   5.527   0.614
 4419SOL    HW114156   6.676   5.560   0.701
 4419SOL    HW214157   6.542   5.548   0.609
 4420SOL     OW14158   4.477   0.836   6.817
 4420SOL    HW114159   4.509   0.883   6.734
 4420SOL    HW214160   4.553   0.785   6.858
 4421SOL     OW14161   1.482   1.810   3.528
 4421SOL    HW114162   1.562   1.857   3.492
 4421SOL    HW214163   1.479   1.821   3.628
 4422SOL     OW14164   2.046   4.070   5.506
 4422SOL    HW114165   2.100   4.088   5.424
 4422SOL    HW214166   2.003   4.155   5.536
 4423SOL     OW14167   6.578   1.706   6.280
 4423SOL    HW114168   6.672   1.737   6.266
 4423SOL    HW214169   6.570   1.611   6.250
 4424SOL     OW14170   0.500   6.584   4.309
 4424SOL    HW114171   0.431   6.562   4.378
 4424SOL    HW214172   0.459   6.576   4.218
 4425SOL     OW14173   4.977   4.374   0.287
 4425SOL    HW114174   5.066   4.332   0.269
 4425SOL    HW214175   4.968   4.457   0.232
 4426SOL     OW14176   0.657   0.182   5.621
 4426SOL    HW114177   0.713   0.108   5.584
 4426SOL    HW214178   0.662   0.181   5.721
 4427SOL     OW14179   0.823   6.146   3.872
 4427SOL    HW114180   0.876   6.220   3.830
 4427SOL    HW214181   0.871   6.112   3.953
 4428SOL     OW14182   2.189   6.417   3.112
 4428SOL    HW114183   2.228   6.338   3.066
 4428SOL    HW214184   2.228   6.501   3.075
 4429SOL     OW14185   3.636   0.324   3.035
 4429SOL    HW114186   3.688   0.316   3.120
 4429SOL    HW214187   3.538   0.326   3.056
 4430SOL     OW14188   1.180   0.469   1.706
 4430SOL    HW114189   1.215   0.479   1.800
 4430SOL    HW214190   1.249   0.425   1.649
 4431SOL     OW14191   1.771   1.677   3.608
 4431SOL    HW114192   1.811   1.601   3.659
 4431SOL    HW214193   1.744   1.749   3.672
 4432SOL     OW14194   2.903   3.408   3.577
 4432SOL    HW114195   2.834   3.339   3.601
 4432SOL    HW214196   2.993   3.365   3.572
 4433SOL     OW14197   6.376   0.554   3.155
 4433SOL    HW114198   6.415   0.462   3.152
 4433SOL    HW214199   6.412   0.603   3.235
 4434SOL     OW14200   4.881   2.238   4.591
 4434SOL    HW114201   4.914   2.289   4.670
 4434SOL    HW214202   4.783   2.221   4.601
 4435SOL     OW14203   4.094   3.262   2.400
 4435SOL    HW114204   4.079   3.345   2.454
 4435SOL    HW214205   4.174   3.275   2.341
 4436SOL     OW14206   5.094   0.405   0.871
 4436SOL    HW114207   5.032   0.436   0.942
 4436SOL    HW214208   5.180   0.376   0.912
 4437SOL     OW14209   3.699   0.111   4.863
 4437SOL    HW114210   3.601   0.111   4.883
 4437SOL    HW214211   3.750   0.101   4.948
 4438SOL     OW14212   3.909   3.912   6.613
 4438SOL    HW114213   3.951   3.988   6.663
 4438SOL    HW214214   3.864   3.850   6.678
 4439SOL     OW14215   2.217   4.836   2.149
 4439SOL    HW114216   2.315   4.819   2.161
 4439SOL    HW214217   2.176   4.855   2.238
 4440SOL     OW14218   6.820   0.875   6.920
 4440SOL    HW114219   6.755   0.888   6.995
 4440SOL    HW214220   6.801   0.789   6.873
 4441SOL     OW14221   6.005   1.854   3.712
 4441SOL    HW114222   5.959   1.769   3.685
 4441SOL    HW214223   6.104   1.841   3.708
 4442SOL     OW14224   2.142   6.516   2.013
 4442SOL    HW114225   2.142   6.531   1.914
 4442SOL    HW214226   2.219   6.565   2.054
 4443SOL     OW14227   2.729   1.464   5.845
 4443SOL    HW114228   2.676   1.547   5.864
 4443SOL    HW214229   2.783   1.477   5.763
 4444SOL     OW14230   5.197   0.441   2.839
 4444SOL    HW114231   5.147   0.516   2.882
 4444SOL    HW214232   5.155   0.419   2.751
 4445SOL     OW14233   1.298   1.140   6.397
 4445SOL    HW114234   1.350   1.204   6.454
 4445SOL    HW214235   1.285   1.180   6.306
 4446SOL     OW14236   5.482   5.167   3.824
 4446SOL    HW114237   5.502   5.210   3.912
 4446SOL    HW214238   5.485   5.236   3.752
 4447SOL     OW14239   4.888   3.291   4.705
 4447SOL    HW114240   4.840   3.219   4.756
 4447SOL    HW214241   4.949   3.341   4.767
 4448SOL     OW14242   2.068   2.810   6.346
 4448SOL    HW114243   2.059   2.876   6.271
 4448SOL    HW214244   2.150   2.755   6.332
 4449SOL     OW14245   0.598   1.508   5.538
 4449SOL    HW114246   0.576   1.495   5.441
 4449SOL    HW214247   0.514   1.508   5.592
 4450SOL     OW14248   3.689   4.004   3.192
 4450SOL    HW114249   3.613   4.028   3.132
 4450SOL    HW214250   3.671   4.037   3.284
 4451SOL     OW14251   0.133   4.561   1.579
 4451SOL    HW114252   0.203   4.530   1.514
 4451SOL    HW214253   0.128   4.496   1.655
 4452SOL     OW14254   6.419   3.959   6.333
 4452SOL    HW114255   6.396   3.993   6.242
 4452SOL    HW214256   6.420   4.035   6.398
 4453SOL     OW14257   5.273   1.868   1.641
 4453SOL    HW114258   5.188   1.904   1.602
 4453SOL    HW214259   5.350   1.923   1.607
 4454SOL     OW14260   5.253   2.864   1.454
 4454SOL    HW114261   5.265   2.959   1.483
 4454SOL    HW214262   5.331   2.835   1.399
 4455SOL     OW14263   4.668   1.772   1.944
 4455SOL    HW114264   4.753   1.781   1.892
 4455SOL    HW214265   4.641   1.861   1.979
 4456SOL     OW14266   0.965   5.840   2.711
 4456SOL    HW114267   0.976   5.870   2.806
 4456SOL    HW214268   1.016   5.755   2.697
 4457SOL     OW14269   4.998   1.785   6.334
 4457SOL    HW114270   5.038   1.790   6.425
 4457SOL    HW214271   5.025   1.866   6.282
 4458SOL     OW14272   3.868   1.842   0.457
 4458SOL    HW114273   3.819   1.928   0.472
 4458SOL    HW214274   3.804   1.766   0.457
 4459SOL     OW14275   5.160   6.101   5.600
 4459SOL    HW114276   5.170   6.195   5.635
 4459SOL    HW214277   5.240   6.077   5.546
 4460SOL     OW14278   1.161   1.601   6.323
 4460SOL    HW114279   1.176   1.559   6.234
 4460SOL    HW214280   1.236   1.664   6.343
 4461SOL     OW14281   1.922   6.815   2.205
 4461SOL    HW114282   1.887   6.765   2.284
 4461SOL    HW214283   1.857   6.806   2.129
 4462SOL     OW14284   6.856   5.661   0.910
 4462SOL    HW114285   6.763   5.624   0.907
 4462SOL    HW214286   6.852   5.760   0.922
 4463SOL     OW14287   1.605   3.520   5.680
 4463SOL    HW114288   1.598   3.424   5.708
 4463SOL    HW214289   1.689   3.532   5.627
 4464SOL     OW14290   5.994   3.281   6.861
 4464SOL    HW114291   5.951   3.369   6.841
 4464SOL    HW214292   5.926   3.219   6.900
 4465SOL     OW14293   0.823   6.092   1.884
 4465SOL    HW114294   0.762   6.090   1.962
 4465SOL    HW214295   0.914   6.061   1.911
 4466SOL     OW14296   0.567   2.980   3.403
 4466SOL    HW114297   0.491   2.994   3.339
 4466SOL    HW214298   0.550   3.031   3.487
 4467SOL     OW14299   1.612   0.045   3.254
 4467SOL    HW114300   1.685   0.112   3.240
 4467SOL    HW214301   1.589   0.041   3.351
 4468SOL     OW14302   1.646   2.342   0.758
 4468SOL    HW114303   1.568   2.281   0.743
 4468SOL    HW214304   1.629   2.430   0.714
 4469SOL     OW14305   4.700   6.995   0.690
 4469SOL    HW114306   4.610   6.974   0.650
 4469SOL    HW214307   4.700   6.971   0.787
 4470SOL     OW14308   4.619   5.444   1.337
 4470SOL    HW114309   4.559   5.519   1.365
 4470SOL    HW214310   4.573   5.356   1.353
 4471SOL     OW14311   6.531   3.109   0.698
 4471SOL    HW114312   6.535   3.060   0.785
 4471SOL    HW214313   6.622   3.143   0.674
 4472SOL     OW14314   2.152   4.678   1.539
 4472SOL    HW114315   2.178   4.649   1.447
 4472SOL    HW214316   2.222   4.649   1.604
 4473SOL     OW14317   0.870   0.431   6.277
 4473SOL    HW114318   0.823   0.398   6.358
 4473SOL    HW214319   0.826   0.515   6.245
 4474SOL     OW14320   6.336   0.379   4.275
 4474SOL    HW114321   6.299   0.339   4.359
 4474SOL    HW214322   6.261   0.396   4.211
 4475SOL     OW14323   1.634   3.288   0.455
 4475SOL    HW114324   1.682   3.362   0.501
 4475SOL    HW214325   1.699   3.216   0.431
 4476SOL     OW14326   5.147   6.526   1.814
 4476SOL    HW114327   5.191   6.445   1.774
 4476SOL    HW214328   5.212   6.574   1.872
 4477SOL     OW14329   1.502   1.018   0.248
 4477SOL    HW114330   1.589   1.024   0.199
 4477SOL    HW214331   1.498   1.088   0.318
 4478SOL     OW14332   1.842   5.269   2.075
 4478SOL    HW114333   1.858   5.291   2.171
 4478SOL    HW214334   1.764   5.321   2.041
 4479SOL     OW14335   0.673   0.292   5.904
 4479SOL    HW114336   0.702   0.388   5.910
 4479SOL    HW214337   0.743   0.233   5.944
 4480SOL     OW14338   0.601   4.771   3.793
 4480SOL    HW114339   0.600   4.799   3.889
 4480SOL    HW214340   0.692   4.788   3.755
 4481SOL     OW14341   1.219   0.171   3.887
 4481SOL    HW114342   1.176   0.259   3.866
 4481SOL    HW214343   1.157   0.116   3.942
 4482SOL     OW14344   0.601   4.435   3.598
 4482SOL    HW114345   0.544   4.477   3.527
 4482SOL    HW214346   0.678   4.495   3.618
 4483SOL     OW14347   5.071   3.046   1.706
 4483SOL    HW114348   5.009   2.970   1.721
 4483SOL    HW214349   5.144   3.018   1.643
 4484SOL     OW14350   3.972   3.458   6.316
 4484SOL    HW114351   3.947   3.371   6.272
 4484SOL    HW214352   3.893   3.494   6.366
 4485SOL     OW14353   4.629   0.620   6.911
 4485SOL    HW114354   4.674   0.538   6.878
 4485SOL    HW214355   4.555   0.595   6.974
 4486SOL     OW14356   6.400   2.440   3.876
 4486SOL    HW114357   6.493   2.434   3.910
 4486SOL    HW214358   6.336   2.437   3.953
 4487SOL     OW14359   2.723   3.379   5.832
 4487SOL    HW114360   2.768   3.413   5.750
 4487SOL    HW214361   2.624   3.387   5.823
 4488SOL     OW14362   0.087   1.650   6.310
 4488SOL    HW114363   0.121   1.560   6.282
 4488SOL    HW214364   0.148   1.689   6.378
 4489SOL     OW14365   6.451   0.717   2.902
 4489SOL    HW114366   6.548   0.741   2.900
 4489SOL    HW214367   6.432   0.661   2.982
 4490SOL     OW14368   6.639   2.389   3.461
 4490SOL    HW114369   6.696   2.454   3.512
 4490SOL    HW214370   6.562   2.360   3.519
 4491SOL     OW14371   1.625   3.444   3.139
 4491SOL    HW114372   1.659   3.523   3.189
 4491SOL    HW214373   1.702   3.389   3.107
 4492SOL     OW14374   4.517   4.068   6.495
 4492SOL    HW114375   4.538   4.061   6.397
 4492SOL    HW214376   4.454   4.144   6.510
 4493SOL     OW14377   5.783   5.013   3.351
 4493SOL    HW114378   5.807   5.040   3.258
 4493SOL    HW214379   5.684   5.019   3.364
 4494SOL     OW14380   6.192   2.662   3.545
 4494SOL    HW114381   6.159   2.756   3.536
 4494SOL    HW214382   6.289   2.658   3.522
 4495SOL     OW14383   4.084   6.719   2.044
 4495SOL    HW114384   4.021   6.672   1.981
 4495SOL    HW214385   4.050   6.812   2.061
 4496SOL     OW14386   5.388   4.290   5.748
 4496SOL    HW114387   5.371   4.328   5.657
 4496SOL    HW214388   5.320   4.326   5.812
 4497SOL     OW14389   5.839   5.518   1.234
 4497SOL    HW114390   5.937   5.498   1.228
 4497SOL    HW214391   5.810   5.513   1.330
 4498SOL     OW14392   0.670   3.681   6.868
 4498SOL    HW114393   0.731   3.692   6.946
 4498SOL    HW214394   0.598   3.750   6.872
 4499SOL     OW14395   5.617   3.078   6.561
 4499SOL    HW114396   5.610   3.176   6.540
 4499SOL    HW214397   5.536   3.031   6.526
 4500SOL     OW14398   3.229   3.671   4.226
 4500SOL    HW114399   3.201   3.576   4.208
 4500SOL    HW214400   3.152   3.722   4.264
 4501SOL     OW14401   1.797   4.758   4.406
 4501SOL    HW114402   1.774   4.709   4.322
 4501SOL    HW214403   1.842   4.844   4.382
 4502SOL     OW14404   6.186   3.173   0.140
 4502SOL    HW114405   6.161   3.131   0.052
 4502SOL    HW214406   6.202   3.270   0.126
 4503SOL     OW14407   1.692   2.371   3.080
 4503SOL    HW114408   1.628   2.448   3.089
 4503SOL    HW214409   1.652   2.301   3.021
 4504SOL     OW14410   4.358   2.261   4.487
 4504SOL    HW114411   4.290   2.287   4.556
 4504SOL    HW214412   4.311   2.229   4.405
 4505SOL     OW14413   1.226   5.169   6.172
 4505SOL    HW114414   1.161   5.179   6.247
 4505SOL    HW214415   1.275   5.255   6.157
 4506SOL     OW14416   4.436   0.175   4.912
 4506SOL    HW114417   4.445   0.090   4.963
 4506SOL    HW214418   4.463   0.160   4.817
 4507SOL     OW14419   6.539   4.168   1.698
 4507SOL    HW114420   6.568   4.240   1.635
 4507SOL    HW214421   6.612   4.100   1.706
 4508SOL     OW14422   1.306   3.984   0.443
 4508SOL    HW114423   1.381   3.955   0.502
 4508SOL    HW214424   1.289   3.913   0.374
 4509SOL     OW14425   1.146   1.731   3.956
 4509SOL    HW114426   1.238   1.747   3.992
 4509SOL    HW214427   1.088   1.695   4.029
 4510SOL     OW14428   3.681   6.332   5.096
 4510SOL    HW114429   3.637   6.363   5.180
 4510SOL    HW214430   3.705   6.235   5.105
 4511SOL     OW14431   6.313   2.992   6.129
 4511SOL    HW114432   6.341   3.072   6.076
 4511SOL    HW214433   6.389   2.962   6.187
 4512SOL     OW14434   2.595   5.016   0.708
 4512SOL    HW114435   2.607   5.059   0.797
 4512SOL    HW214436   2.500   5.028   0.678
 4513SOL     OW14437   5.712   1.094   2.130
 4513SOL    HW114438   5.750   1.185   2.150
 4513SOL    HW214439   5.765   1.051   2.057
 4514SOL     OW14440   3.347   1.039   5.184
 4514SOL    HW114441   3.354   1.134   5.217
 4514SOL    HW214442   3.372   0.977   5.258
 4515SOL     OW14443   6.414   5.339   1.325
 4515SOL    HW114444   6.446   5.244   1.321
 4515SOL    HW214445   6.443   5.379   1.412
 4516SOL     OW14446   1.100   6.987   4.919
 4516SOL    HW114447   1.199   6.999   4.909
 4516SOL    HW214448   1.063   6.943   4.837
 4517SOL     OW14449   3.649   6.707   6.057
 4517SOL    HW114450   3.669   6.729   6.152
 4517SOL    HW214451   3.719   6.747   5.998
 4518SOL     OW14452   1.572   1.069   4.253
 4518SOL    HW114453   1.499   1.016   4.209
 4518SOL    HW214454   1.542   1.096   4.344
 4519SOL     OW14455   6.117   2.569   4.566
 4519SOL    HW114456   6.184   2.643   4.559
 4519SOL    HW214457   6.141   2.509   4.643
 4520SOL     OW14458   0.449   4.050   2.731
 4520SOL    HW114459   0.513   4.109   2.682
 4520SOL    HW214460   0.385   4.009   2.666
 4521SOL     OW14461   5.060   1.936   6.102
 4521SOL    HW114462   4.997   1.871   6.060
 4521SOL    HW214463   5.153   1.901   6.096
 4522SOL     OW14464   5.747   0.530   2.998
 4522SOL    HW114465   5.836   0.573   3.014
 4522SOL    HW214466   5.688   0.546   3.077
 4523SOL     OW14467   4.347   3.185   6.876
 4523SOL    HW114468   4.329   3.203   6.779
 4523SOL    HW214469   4.438   3.220   6.900
 4524SOL     OW14470   6.257   0.424   4.891
 4524SOL    HW114471   6.167   0.382   4.890
 4524SOL    HW214472   6.316   0.379   4.824
 4525SOL     OW14473   6.590   1.594   5.593
 4525SOL    HW114474   6.644   1.612   5.511
 4525SOL    HW214475   6.504   1.645   5.588
 4526SOL     OW14476   3.858   1.342   0.614
 4526SOL    HW114477   3.867   1.356   0.712
 4526SOL    HW214478   3.949   1.330   0.574
 4527SOL     OW14479   4.035   0.782   4.270
 4527SOL    HW114480   4.027   0.882   4.278
 4527SOL    HW214481   3.966   0.749   4.206
 4528SOL     OW14482   5.246   0.018   6.139
 4528SOL    HW114483   5.193   0.090   6.094
 4528SOL    HW214484   5.202   7.010   6.225
 4529SOL     OW14485   4.282   0.238   3.702
 4529SOL    HW114486   4.279   0.199   3.610
 4529SOL    HW214487   4.376   0.260   3.726
 4530SOL     OW14488   0.943   2.681   4.828
 4530SOL    HW114489   0.915   2.705   4.735
 4530SOL    HW214490   0.864   2.644   4.878
 4531SOL     OW14491   0.486   3.871   3.474
 4531SOL    HW114492   0.413   3.802   3.480
 4531SOL    HW214493   0.529   3.866   3.383
 4532SOL     OW14494   6.542   1.752   0.612
 4532SOL    HW114495   6.531   1.654   0.626
 4532SOL    HW214496   6.626   1.784   0.656
 4533SOL     OW14497   3.478   5.608   2.318
 4533SOL    HW114498   3.548   5.580   2.252
 4533SOL    HW214499   3.511   5.686   2.370
 4534SOL     OW14500   0.160   4.347   5.447
 4534SOL    HW114501   0.252   4.326   5.414
 4534SOL    HW214502   0.093   4.309   5.383
 4535SOL     OW14503   4.755   2.193   2.891
 4535SOL    HW114504   4.822   2.197   2.817
 4535SOL    HW214505   4.788   2.132   2.964
 4536SOL     OW14506   6.860   0.694   3.836
 4536SOL    HW114507   6.862   0.713   3.738
 4536SOL    HW214508   6.850   0.596   3.851
 4537SOL     OW14509   3.818   2.817   6.032
 4537SOL    HW114510   3.891   2.847   6.094
 4537SOL    HW214511   3.784   2.728   6.061
 4538SOL     OW14512   3.431   1.423   1.904
 4538SOL    HW114513   3.493   1.408   1.827
 4538SOL    HW214514   3.362   1.350   1.906
 4539SOL     OW14515   1.568   1.618   2.219
 4539SOL    HW114516   1.660   1.656   2.216
 4539SOL    HW214517   1.501   1.689   2.197
 4540SOL     OW14518   3.208   2.930   4.754
 4540SOL    HW114519   3.257   2.868   4.693
 4540SOL    HW214520   3.247   2.924   4.846
 4541SOL     OW14521   6.370   1.479   1.165
 4541SOL    HW114522   6.304   1.473   1.089
 4541SOL    HW214523   6.336   1.426   1.242
 4542SOL     OW14524   4.867   0.050   3.422
 4542SOL    HW114525   4.905   7.003   3.489
 4542SOL    HW214526   4.931   0.124   3.407
 4543SOL     OW14527   5.521   2.038   1.910
 4543SOL    HW114528   5.430   1.998   1.920
 4543SOL    HW214529   5.523   2.129   1.952
 4544SOL     OW14530   3.992   4.772   6.644
 4544SOL    HW114531   3.899   4.740   6.626
 4544SOL    HW214532   4.036   4.796   6.557
 4545SOL     OW14533   4.264   3.172   6.116
 4545SOL    HW114534   4.218   3.085   6.134
 4545SOL    HW214535   4.263   3.191   6.018
 4546SOL     OW14536   0.303   0.000   6.827
 4546SOL    HW114537   0.375   0.068   6.812
 4546SOL    HW214538   0.246   0.029   6.904
 4547SOL     OW14539   3.985   1.624   1.352
 4547SOL    HW114540   3.912   1.687   1.375
 4547SOL    HW214541   3.979   1.543   1.410
 4548SOL     OW14542   1.585   3.306   3.708
 4548SOL    HW114543   1.568   3.349   3.619
 4548SOL    HW214544   1.583   3.207   3.698
 4549SOL     OW14545   4.897   1.625   3.145
 4549SOL    HW114546   4.807   1.585   3.131
 4549SOL    HW214547   4.941   1.641   3.057
 4550SOL     OW14548   1.581   6.239   4.651
 4550SOL    HW114549   1.627   6.316   4.695
 4550SOL    HW214550   1.568   6.166   4.718
 4551SOL     OW14551   0.363   2.441   5.992
 4551SOL    HW114552   0.367   2.446   6.092
 4551SOL    HW214553   0.271   2.465   5.962
 4552SOL     OW14554   6.995   2.673   3.804
 4552SOL    HW114555   0.041   2.628   3.868
 4552SOL    HW214556   6.910   2.695   3.851
 4553SOL     OW14557   5.064   4.630   0.582
 4553SOL    HW114558   5.074   4.682   0.498
 4553SOL    HW214559   5.058   4.693   0.660
 4554SOL     OW14560   5.483   0.099   3.412
 4554SOL    HW114561   5.557   0.031   3.418
 4554SOL    HW214562   5.412   0.077   3.479
 4555SOL     OW14563   5.107   1.800   6.921
 4555SOL    HW114564   5.029   1.847   6.880
 4555SOL    HW214565   5.075   1.735   6.990
 4556SOL     OW14566   5.088   1.084   4.900
 4556SOL    HW114567   5.169   1.142   4.896
 4556SOL    HW214568   5.104   1.001   4.846
 4557SOL     OW14569   5.120   0.075   5.550
 4557SOL    HW114570   5.136   0.170   5.523
 4557SOL    HW214571   5.074   0.073   5.639
 4558SOL     OW14572   6.325   3.760   5.761
 4558SOL    HW114573   6.265   3.798   5.831
 4558SOL    HW214574   6.386   3.693   5.803
 4559SOL     OW14575   0.400   6.166   1.861
 4559SOL    HW114576   0.455   6.194   1.939
 4559SOL    HW214577   0.308   6.141   1.892
 4560SOL     OW14578   5.119   3.069   3.512
 4560SOL    HW114579   5.138   2.974   3.537
 4560SOL    HW214580   5.026   3.076   3.478
 4561SOL     OW14581   3.195   0.635   6.689
 4561SOL    HW114582   3.239   0.550   6.662
 4561SOL    HW214583   3.223   0.659   6.782
 4562SOL     OW14584   3.036   5.138   5.448
 4562SOL    HW114585   3.007   5.108   5.357
 4562SOL    HW214586   3.025   5.062   5.513
 4563SOL     OW14587   5.460   2.664   6.347
 4563SOL    HW114588   5.522   2.661   6.425
 4563SOL    HW214589   5.451   2.573   6.308
 4564SOL     OW14590   1.526   5.569   6.847
 4564SOL    HW114591   1.565   5.642   6.903
 4564SOL    HW214592   1.426   5.570   6.857
 4565SOL     OW14593   3.307   0.665   3.880
 4565SOL    HW114594   3.289   0.756   3.842
 4565SOL    HW214595   3.313   0.670   3.979
 4566SOL     OW14596   0.791   1.913   0.681
 4566SOL    HW114597   0.777   1.825   0.636
 4566SOL    HW214598   0.744   1.913   0.769
 4567SOL     OW14599   6.866   0.966   0.591
 4567SOL    HW114600   6.930   0.894   0.617
 4567SOL    HW214601   6.827   1.007   0.674
 4568SOL     OW14602   3.220   4.866   4.421
 4568SOL    HW114603   3.121   4.862   4.434
 4568SOL    HW214604   3.250   4.788   4.367
 4569SOL     OW14605   0.312   2.428   3.166
 4569SOL    HW114606   0.268   2.446   3.254
 4569SOL    HW214607   0.391   2.369   3.180
 4570SOL     OW14608   6.439   4.953   4.274
 4570SOL    HW114609   6.380   4.947   4.193
 4570SOL    HW214610   6.508   5.024   4.259
 4571SOL     OW14611   3.572   3.138   3.977
 4571SOL    HW114612   3.555   3.192   3.894
 4571SOL    HW214613   3.541   3.190   4.057
 4572SOL     OW14614   2.367   6.057   2.087
 4572SOL    HW114615   2.405   5.966   2.106
 4572SOL    HW214616   2.303   6.082   2.161
 4573SOL     OW14617   5.392   6.773   0.585
 4573SOL    HW114618   5.346   6.861   0.591
 4573SOL    HW214619   5.486   6.786   0.555
 4574SOL     OW14620   0.473   4.691   1.596
 4574SOL    HW114621   0.554   4.734   1.557
 4574SOL    HW214622   0.407   4.761   1.621
 4575SOL     OW14623   6.334   6.531   2.311
 4575SOL    HW114624   6.398   6.606   2.325
 4575SOL    HW214625   6.300   6.534   2.217
 4576SOL     OW14626   3.245   5.804   4.216
 4576SOL    HW114627   3.204   5.730   4.163
 4576SOL    HW214628   3.196   5.889   4.197
 4577SOL     OW14629   1.074   1.995   4.098
 4577SOL    HW114630   1.101   2.019   4.192
 4577SOL    HW214631   1.106   1.903   4.077
 4578SOL     OW14632   0.059   4.287   4.053
 4578SOL    HW114633   0.002   4.353   4.004
 4578SOL    HW214634   0.121   4.243   3.988
 4579SOL     OW14635   5.233   2.329   4.464
 4579SOL    HW114636   5.291   2.291   4.536
 4579SOL    HW214637   5.137   2.308   4.484
 4580SOL     OW14638   6.756   5.520   0.350
 4580SOL    HW114639   6.753   5.497   0.447
 4580SOL    HW214640   6.728   5.615   0.338
 4581SOL     OW14641   3.367   6.079   3.566
 4581SOL    HW114642   3.376   6.148   3.494
 4581SOL    HW214643   3.425   6.001   3.545
 4582SOL     OW14644   4.778   6.748   3.498
 4582SOL    HW114645   4.732   6.831   3.530
 4582SOL    HW214646   4.808   6.695   3.578
 4583SOL     OW14647   4.396   1.564   5.524
 4583SOL    HW114648   4.418   1.604   5.613
 4583SOL    HW214649   4.400   1.464   5.532
 4584SOL     OW14650   0.734   4.816   5.176
 4584SOL    HW114651   0.651   4.761   5.189
 4584SOL    HW214652   0.708   4.909   5.152
 4585SOL     OW14653   3.632   6.862   2.848
 4585SOL    HW114654   3.536   6.866   2.820
 4585SOL    HW214655   3.690   6.853   2.766
 4586SOL     OW14656   2.906   6.385   2.137
 4586SOL    HW114657   2.986   6.384   2.077
 4586SOL    HW214658   2.861   6.296   2.134
 4587SOL     OW14659   2.335   4.586   1.110
 4587SOL    HW114660   2.269   4.563   1.038
 4587SOL    HW214661   2.326   4.520   1.185
 4588SOL     OW14662   3.931   3.957   5.466
 4588SOL    HW114663   3.979   3.980   5.550
 4588SOL    HW214664   3.989   3.981   5.387
 4589SOL     OW14665   1.063   1.843   3.733
 4589SOL    HW114666   1.104   1.805   3.651
 4589SOL    HW214667   1.100   1.797   3.814
 4590SOL     OW14668   4.594   5.484   2.691
 4590SOL    HW114669   4.495   5.474   2.692
 4590SOL    HW214670   4.625   5.493   2.596
 4591SOL     OW14671   6.541   6.492   5.479
 4591SOL    HW114672   6.474   6.481   5.552
 4591SOL    HW214673   6.580   6.403   5.456
 4592SOL     OW14674   3.005   1.880   5.803
 4592SOL    HW114675   2.936   1.925   5.861
 4592SOL    HW214676   2.983   1.897   5.706
 4593SOL     OW14677   3.974   6.790   1.216
 4593SOL    HW114678   4.003   6.858   1.148
 4593SOL    HW214679   3.981   6.699   1.177
 4594SOL     OW14680   2.913   1.674   2.939
 4594SOL    HW114681   3.010   1.687   2.917
 4594SOL    HW214682   2.875   1.760   2.975
 4595SOL     OW14683   4.141   2.712   5.876
 4595SOL    HW114684   4.066   2.759   5.830
 4595SOL    HW214685   4.108   2.624   5.910
 4596SOL     OW14686   6.385   0.086   2.442
 4596SOL    HW114687   6.432   0.045   2.520
 4596SOL    HW214688   6.313   0.148   2.475
 4597SOL     OW14689   0.050   4.911   6.594
 4597SOL    HW114690   0.010   4.833   6.547
 4597SOL    HW214691   0.139   4.932   6.555
 4598SOL     OW14692   3.296   4.677   0.291
 4598SOL    HW114693   3.223   4.710   0.352
 4598SOL    HW214694   3.378   4.658   0.345
 4599SOL     OW14695   1.980   5.257   0.313
 4599SOL    HW114696   2.007   5.235   0.220
 4599SOL    HW214697   1.894   5.308   0.312
 4600SOL     OW14698   3.896   5.320   1.737
 4600SOL    HW114699   3.838   5.321   1.656
 4600SOL    HW214700   3.846   5.282   1.815
 4601SOL     OW14701   1.505   5.861   4.679
 4601SOL    HW114702   1.442   5.937   4.695
 4601SOL    HW214703   1.465   5.777   4.717
 4602SOL     OW14704   1.760   1.352   0.878
 4602SOL    HW114705   1.708   1.267   0.883
 4602SOL    HW214706   1.832   1.345   0.809
 4603SOL     OW14707   3.116   1.058   2.042
 4603SOL    HW114708   3.023   1.068   2.076
 4603SOL    HW214709   3.178   1.039   2.118
 4604SOL     OW14710   2.133   0.790   2.602
 4604SOL    HW114711   2.069   0.714   2.608
 4604SOL    HW214712   2.220   0.758   2.565
 4605SOL     OW14713   5.049   6.719   5.707
 4605SOL    HW114714   5.120   6.761   5.764
 4605SOL    HW214715   4.987   6.666   5.764
 4606SOL     OW14716   6.978   6.261   5.529
 4606SOL    HW114717   6.917   6.186   5.553
 4606SOL    HW214718   0.013   6.290   5.609
 4607SOL     OW14719   2.661   2.170   1.407
 4607SOL    HW114720   2.601   2.216   1.342
 4607SOL    HW214721   2.733   2.232   1.437
 4608SOL     OW14722   1.930   3.413   5.043
 4608SOL    HW114723   2.010   3.372   5.001
 4608SOL    HW214724   1.925   3.387   5.139
 4609SOL     OW14725   3.256   6.675   6.791
 4609SOL    HW114726   3.213   6.628   6.714
 4609SOL    HW214727   3.303   6.757   6.758
 4610SOL     OW14728   0.354   3.332   6.865
 4610SOL    HW114729   0.391   3.393   6.935
 4610SOL    HW214730   0.254   3.338   6.864
 4611SOL     OW14731   0.864   3.359   7.010
 4611SOL    HW114732   0.839   3.268   6.979
 4611SOL    HW214733   0.958   3.359   0.027
 4612SOL     OW14734   2.484   0.630   6.304
 4612SOL    HW114735   2.465   0.548   6.358
 4612SOL    HW214736   2.568   0.617   6.252
 4613SOL     OW14737   2.920   5.497   1.874
 4613SOL    HW114738   2.912   5.416   1.816
 4613SOL    HW214739   2.973   5.474   1.955
 4614SOL     OW14740   2.165   5.143   0.476
 4614SOL    HW114741   2.093   5.178   0.415
 4614SOL    HW214742   2.192   5.051   0.446
 4615SOL     OW14743   6.840   3.020   0.454
 4615SOL    HW114744   6.795   3.026   0.365
 4615SOL    HW214745   6.887   3.106   0.474
 4616SOL     OW14746   6.172   0.457   0.087
 4616SOL    HW114747   6.088   0.502   0.058
 4616SOL    HW214748   6.174   0.363   0.051
 4617SOL     OW14749   0.058   3.379   2.024
 4617SOL    HW114750   0.116   3.413   2.098
 4617SOL    HW214751   0.026   3.287   2.047
 4618SOL     OW14752   1.236   2.239   6.099
 4618SOL    HW114753   1.300   2.302   6.057
 4618SOL    HW214754   1.145   2.252   6.060
 4619SOL     OW14755   3.315   0.087   3.674
 4619SOL    HW114756   3.391   0.058   3.733
 4619SOL    HW214757   3.351   0.142   3.599
 4620SOL     OW14758   2.505   4.727   6.187
 4620SOL    HW114759   2.408   4.741   6.168
 4620SOL    HW214760   2.534   4.638   6.152
 4621SOL     OW14761   0.298   6.732   6.823
 4621SOL    HW114762   0.295   6.825   6.859
 4621SOL    HW214763   0.310   6.735   6.724
 4622SOL     OW14764   2.330   3.190   1.081
 4622SOL    HW114765   2.286   3.278   1.093
 4622SOL    HW214766   2.261   3.118   1.072
 4623SOL     OW14767   6.331   4.641   2.850
 4623SOL    HW114768   6.336   4.693   2.765
 4623SOL    HW214769   6.308   4.704   2.925
 4624SOL     OW14770   4.700   6.578   5.372
 4624SOL    HW114771   4.667   6.628   5.291
 4624SOL    HW214772   4.631   6.513   5.401
 4625SOL     OW14773   1.278   3.483   6.342
 4625SOL    HW114774   1.206   3.550   6.323
 4625SOL    HW214775   1.367   3.528   6.333
 4626SOL     OW14776   5.390   5.785   2.039
 4626SOL    HW114777   5.438   5.719   1.982
 4626SOL    HW214778   5.312   5.822   1.989
 4627SOL     OW14779   2.078   0.628   5.875
 4627SOL    HW114780   2.049   0.701   5.813
 4627SOL    HW214781   2.163   0.587   5.840
 4628SOL     OW14782   0.084   3.693   1.181
 4628SOL    HW114783   0.055   3.671   1.274
 4628SOL    HW214784   0.103   3.791   1.173
 4629SOL     OW14785   3.820   4.990   5.001
 4629SOL    HW114786   3.796   5.045   5.081
 4629SOL    HW214787   3.737   4.954   4.959
 4630SOL     OW14788   2.344   0.133   2.340
 4630SOL    HW114789   2.439   0.102   2.335
 4630SOL    HW214790   2.284   0.055   2.356
 4631SOL     OW14791   2.523   1.029   2.535
 4631SOL    HW114792   2.581   1.067   2.463
 4631SOL    HW214793   2.529   0.930   2.534
 4632SOL     OW14794   5.672   5.439   4.174
 4632SOL    HW114795   5.612   5.371   4.132
 4632SOL    HW214796   5.627   5.528   4.175
 4633SOL     OW14797   5.667   2.582   5.652
 4633SOL    HW114798   5.697   2.665   5.606
 4633SOL    HW214799   5.599   2.605   5.722
 4634SOL     OW14800   3.705   4.776   1.066
 4634SOL    HW114801   3.749   4.690   1.092
 4634SOL    HW214802   3.618   4.785   1.115
 4635SOL     OW14803   5.096   4.300   1.096
 4635SOL    HW114804   5.082   4.341   1.186
 4635SOL    HW214805   5.095   4.200   1.103
 4636SOL     OW14806   1.199   5.196   0.597
 4636SOL    HW114807   1.253   5.251   0.661
 4636SOL    HW214808   1.163   5.254   0.524
 4637SOL     OW14809   1.822   0.565   4.780
 4637SOL    HW114810   1.885   0.526   4.848
 4637SOL    HW214811   1.732   0.525   4.791
 4638SOL     OW14812   4.838   3.603   6.380
 4638SOL    HW114813   4.819   3.582   6.284
 4638SOL    HW214814   4.830   3.701   6.394
 4639SOL     OW14815   6.861   2.926   5.032
 4639SOL    HW114816   6.833   2.887   5.120
 4639SOL    HW214817   6.813   3.012   5.017
 4640SOL     OW14818   6.327   4.226   2.655
 4640SOL    HW114819   6.332   4.157   2.727
 4640SOL    HW214820   6.280   4.189   2.576
 4641SOL     OW14821   2.557   4.611   5.660
 4641SOL    HW114822   2.613   4.569   5.589
 4641SOL    HW214823   2.583   4.707   5.671
 4642SOL     OW14824   5.805   5.808   4.235
 4642SOL    HW114825   5.901   5.786   4.248
 4642SOL    HW214826   5.796   5.879   4.165
 4643SOL     OW14827   4.123   2.562   0.994
 4643SOL    HW114828   4.053   2.607   0.939
 4643SOL    HW214829   4.203   2.622   1.003
 4644SOL     OW14830   2.592   5.157   4.694
 4644SOL    HW114831   2.637   5.110   4.771
 4644SOL    HW214832   2.591   5.096   4.615
 4645SOL     OW14833   2.113   6.155   5.018
 4645SOL    HW114834   2.068   6.067   5.036
 4645SOL    HW214835   2.211   6.148   5.039
 4646SOL     OW14836   3.967   0.527   1.684
 4646SOL    HW114837   4.061   0.492   1.679
 4646SOL    HW214838   3.903   0.453   1.661
 4647SOL     OW14839   0.143   0.734   4.504
 4647SOL    HW114840   0.197   0.815   4.527
 4647SOL    HW214841   0.203   0.665   4.463
 4648SOL     OW14842   1.493   4.640   2.656
 4648SOL    HW114843   1.470   4.597   2.569
 4648SOL    HW214844   1.592   4.647   2.665
 4649SOL     OW14845   5.808   6.284   6.194
 4649SOL    HW114846   5.879   6.241   6.138
 4649SOL    HW214847   5.749   6.339   6.136
 4650SOL     OW14848   6.765   5.051   1.952
 4650SOL    HW114849   6.820   4.972   1.921
 4650SOL    HW214850   6.769   5.058   2.051
 4651SOL     OW14851   6.858   1.617   1.786
 4651SOL    HW114852   6.920   1.543   1.814
 4651SOL    HW214853   6.905   1.676   1.720
 4652SOL     OW14854   0.499   6.137   5.577
 4652SOL    HW114855   0.502   6.078   5.658
 4652SOL    HW214856   0.494   6.232   5.607
 4653SOL     OW14857   1.014   5.718   6.840
 4653SOL    HW114858   0.920   5.698   6.867
 4653SOL    HW214859   1.016   5.754   6.747
 4654SOL     OW14860   0.848   1.641   6.219
 4654SOL    HW114861   0.767   1.616   6.272
 4654SOL    HW214862   0.918   1.570   6.230
 4655SOL     OW14863   0.338   5.486   3.363
 4655SOL    HW114864   0.365   5.504   3.268
 4655SOL    HW214865   0.238   5.491   3.370
 4656SOL     OW14866   2.416   0.318   3.380
 4656SOL    HW114867   2.464   0.391   3.429
 4656SOL    HW214868   2.385   0.249   3.446
 4657SOL     OW14869   6.070   0.133   6.650
 4657SOL    HW114870   6.027   0.108   6.737
 4657SOL    HW214871   6.023   0.087   6.575
 4658SOL     OW14872   5.183   0.476   3.364
 4658SOL    HW114873   5.176   0.393   3.420
 4658SOL    HW214874   5.182   0.556   3.424
 4659SOL     OW14875   2.425   2.751   4.373
 4659SOL    HW114876   2.439   2.676   4.308
 4659SOL    HW214877   2.506   2.809   4.377
 4660SOL     OW14878   6.680   1.189   5.977
 4660SOL    HW114879   6.597   1.201   6.032
 4660SOL    HW214880   6.669   1.237   5.890
 4661SOL     OW14881   4.072   3.740   3.439
 4661SOL    HW114882   4.045   3.657   3.389
 4661SOL    HW214883   4.049   3.821   3.384
 4662SOL     OW14884   5.747   0.348   4.150
 4662SOL    HW114885   5.719   0.444   4.145
 4662SOL    HW214886   5.724   0.303   4.063
 4663SOL     OW14887   0.862   1.567   2.265
 4663SOL    HW114888   0.808   1.626   2.324
 4663SOL    HW214889   0.840   1.585   2.169
 4664SOL     OW14890   3.006   3.409   0.537
 4664SOL    HW114891   2.951   3.417   0.621
 4664SOL    HW214892   2.949   3.371   0.464
 4665SOL     OW14893   5.522   0.803   6.604
 4665SOL    HW114894   5.464   0.798   6.524
 4665SOL    HW214895   5.576   0.887   6.602
 4666SOL     OW14896   2.888   1.234   0.313
 4666SOL    HW114897   2.822   1.252   0.386
 4666SOL    HW214898   2.857   1.155   0.260
 4667SOL     OW14899   0.605   5.956   5.386
 4667SOL    HW114900   0.560   5.869   5.404
 4667SOL    HW214901   0.566   6.027   5.445
 4668SOL     OW14902   5.540   1.444   5.142
 4668SOL    HW114903   5.501   1.468   5.053
 4668SOL    HW214904   5.528   1.346   5.159
 4669SOL     OW14905   2.448   0.537   1.422
 4669SOL    HW114906   2.545   0.524   1.441
 4669SOL    HW214907   2.436   0.582   1.333
 4670SOL     OW14908   2.003   1.191   4.449
 4670SOL    HW114909   2.071   1.222   4.515
 4670SOL    HW214910   1.914   1.183   4.494
 4671SOL     OW14911   5.545   2.940   0.620
 4671SOL    HW114912   5.488   2.961   0.700
 4671SOL    HW214913   5.575   2.845   0.625
 4672SOL     OW14914   2.921   3.447   5.336
 4672SOL    HW114915   2.885   3.536   5.311
 4672SOL    HW214916   3.021   3.448   5.327
 4673SOL     OW14917   3.674   0.268   2.684
 4673SOL    HW114918   3.732   0.187   2.669
 4673SOL    HW214919   3.732   0.347   2.702
 4674SOL     OW14920   3.888   6.462   5.885
 4674SOL    HW114921   3.897   6.545   5.830
 4674SOL    HW214922   3.797   6.459   5.927
 4675SOL     OW14923   1.264   3.973   5.989
 4675SOL    HW114924   1.234   4.051   5.935
 4675SOL    HW214925   1.209   3.966   6.072
 4676SOL     OW14926   0.201   5.368   3.678
 4676SOL    HW114927   0.300   5.370   3.659
 4676SOL    HW214928   0.169   5.274   3.677
 4677SOL     OW14929   1.048   3.634   0.446
 4677SOL    HW114930   1.133   3.675   0.477
 4677SOL    HW214931   0.974   3.701   0.452
 4678SOL     OW14932   1.767   4.051   2.100
 4678SOL    HW114933   1.723   4.035   2.012
 4678SOL    HW214934   1.701   4.033   2.174
 4679SOL     OW14935   4.206   0.390   1.630
 4679SOL    HW114936   4.268   0.337   1.573
 4679SOL    HW214937   4.182   0.337   1.712
 4680SOL     OW14938   1.720   0.651   0.267
 4680SOL    HW114939   1.749   0.683   0.357
 4680SOL    HW214940   1.741   0.554   0.258
 4681SOL     OW14941   4.759   5.650   2.092
 4681SOL    HW114942   4.796   5.563   2.123
 4681SOL    HW214943   4.683   5.677   2.151
 4682SOL     OW14944   2.990   3.873   6.830
 4682SOL    HW114945   3.023   3.928   6.906
 4682SOL    HW214946   3.069   3.836   6.780
 4683SOL     OW14947   6.090   4.067   3.913
 4683SOL    HW114948   6.157   4.136   3.884
 4683SOL    HW214949   5.999   4.109   3.917
 4684SOL     OW14950   5.654   6.224   0.081
 4684SOL    HW114951   5.751   6.201   0.088
 4684SOL    HW214952   5.645   6.320   0.054
 4685SOL     OW14953   3.747   4.144   4.350
 4685SOL    HW114954   3.789   4.080   4.286
 4685SOL    HW214955   3.661   4.106   4.384
 4686SOL     OW14956   2.638   6.007   0.135
 4686SOL    HW114957   2.605   6.093   0.176
 4686SOL    HW214958   2.577   5.933   0.162
 4687SOL     OW14959   2.539   0.332   2.833
 4687SOL    HW114960   2.503   0.413   2.787
 4687SOL    HW214961   2.571   0.357   2.924
 4688SOL     OW14962   5.956   2.902   5.536
 4688SOL    HW114963   5.864   2.921   5.571
 4688SOL    HW214964   6.015   2.982   5.551
 4689SOL     OW14965   6.384   0.780   2.363
 4689SOL    HW114966   6.311   0.849   2.369
 4689SOL    HW214967   6.473   0.826   2.365
 4690SOL     OW14968   2.478   1.756   0.572
 4690SOL    HW114969   2.457   1.745   0.475
 4690SOL    HW214970   2.395   1.784   0.621
 4691SOL     OW14971   6.866   4.251   2.431
 4691SOL    HW114972   6.871   4.335   2.485
 4691SOL    HW214973   6.834   4.273   2.339
 4692SOL     OW14974   5.058   3.219   2.520
 4692SOL    HW114975   5.008   3.269   2.449
 4692SOL    HW214976   5.117   3.151   2.477
 4693SOL     OW14977   1.464   0.315   3.362
 4693SOL    HW114978   1.401   0.375   3.411
 4693SOL    HW214979   1.414   0.264   3.292
 4694SOL     OW14980   1.465   0.587   6.699
 4694SOL    HW114981   1.506   0.497   6.715
 4694SOL    HW214982   1.444   0.597   6.602
 4695SOL     OW14983   1.642   5.681   1.958
 4695SOL    HW114984   1.718   5.702   1.896
 4695SOL    HW214985   1.625   5.582   1.957
 4696SOL     OW14986   1.836   5.444   5.912
 4696SOL    HW114987   1.787   5.390   5.980
 4696SOL    HW214988   1.778   5.457   5.832
 4697SOL     OW14989   4.298   5.456   1.636
 4697SOL    HW114990   4.263   5.413   1.719
 4697SOL    HW214991   4.232   5.524   1.603
 4698SOL     OW14992   5.130   0.890   4.696
 4698SOL    HW114993   5.053   0.923   4.642
 4698SOL    HW214994   5.161   0.802   4.659
 4699SOL     OW14995   1.505   6.987   2.099
 4699SOL    HW114996   1.493   0.038   2.172
 4699SOL    HW214997   1.488   6.896   2.136
 4700SOL     OW14998   6.490   2.558   1.791
 4700SOL    HW114999   6.466   2.464   1.769
 4700SOL    HW215000   6.590   2.569   1.788
 4701SOL     OW15001   3.083   2.565   1.718
 4701SOL    HW115002   3.180   2.550   1.738
 4701SOL    HW215003   3.027   2.523   1.789
 4702SOL     OW15004   5.573   5.094   6.572
 4702SOL    HW115005   5.585   5.001   6.606
 4702SOL    HW215006   5.622   5.158   6.631
 4703SOL     OW15007   0.911   5.607   3.426
 4703SOL    HW115008   0.884   5.513   3.444
 4703SOL    HW215009   0.830   5.662   3.407
 4704SOL     OW15010   1.395   4.991   4.460
 4704SOL    HW115011   1.421   4.917   4.522
 4704SOL    HW215012   1.454   5.070   4.475
 4705SOL     OW15013   3.665   1.715   1.708
 4705SOL    HW115014   3.590   1.771   1.742
 4705SOL    HW215015   3.729   1.773   1.656
 4706SOL     OW15016   2.225   0.273   0.726
 4706SOL    HW115017   2.279   0.267   0.642
 4706SOL    HW215018   2.177   0.187   0.742
 4707SOL     OW15019   1.926   5.827   1.824
 4707SOL    HW115020   1.968   5.898   1.880
 4707SOL    HW215021   1.966   5.739   1.846
 4708SOL     OW15022   1.786   3.171   4.787
 4708SOL    HW115023   1.871   3.217   4.812
 4708SOL    HW215024   1.797   3.124   4.699
 4709SOL     OW15025   4.745   3.951   5.542
 4709SOL    HW115026   4.663   4.008   5.542
 4709SOL    HW215027   4.718   3.854   5.544
 4710SOL     OW15028   5.996   5.923   5.520
 4710SOL    HW115029   5.982   5.911   5.422
 4710SOL    HW215030   5.929   5.869   5.571
 4711SOL     OW15031   5.478   3.727   2.564
 4711SOL    HW115032   5.431   3.790   2.626
 4711SOL    HW215033   5.577   3.741   2.572
 4712SOL     OW15034   4.680   4.507   5.793
 4712SOL    HW115035   4.595   4.455   5.779
 4712SOL    HW215036   4.725   4.522   5.705
 4713SOL     OW15037   6.054   4.230   1.214
 4713SOL    HW115038   6.082   4.268   1.302
 4713SOL    HW215039   6.132   4.186   1.169
 4714SOL     OW15040   4.121   1.343   6.863
 4714SOL    HW115041   4.199   1.328   6.801
 4714SOL    HW215042   4.079   1.431   6.842
 4715SOL     OW15043   6.612   1.651   1.992
 4715SOL    HW115044   6.690   1.657   1.930
 4715SOL    HW215045   6.567   1.562   1.982
 4716SOL     OW15046   4.104   4.750   5.785
 4716SOL    HW115047   4.123   4.848   5.775
 4716SOL    HW215048   4.188   4.703   5.814
 4717SOL     OW15049   2.742   4.995   4.886
 4717SOL    HW115050   2.804   4.938   4.832
 4717SOL    HW215051   2.784   5.083   4.905
 4718SOL     OW15052   4.684   4.605   0.330
 4718SOL    HW115053   4.658   4.558   0.245
 4718SOL    HW215054   4.744   4.545   0.383
 4719SOL     OW15055   0.212   4.246   3.810
 4719SOL    HW115056   0.310   4.250   3.790
 4719SOL    HW215057   0.167   4.185   3.745
 4720SOL     OW15058   2.168   3.136   0.079
 4720SOL    HW115059   2.166   3.192   0.161
 4720SOL    HW215060   2.252   3.080   0.079
 4721SOL     OW15061   0.127   2.987   2.622
 4721SOL    HW115062   0.220   2.986   2.587
 4721SOL    HW215063   0.129   2.989   2.722
 4722SOL     OW15064   1.404   5.905   6.884
 4722SOL    HW115065   1.444   5.925   6.973
 4722SOL    HW215066   1.305   5.893   6.894
 4723SOL     OW15067   3.888   4.336   6.890
 4723SOL    HW115068   3.841   4.421   6.865
 4723SOL    HW215069   3.871   4.316   6.987
 4724SOL     OW15070   0.944   6.806   5.090
 4724SOL    HW115071   0.912   6.896   5.061
 4724SOL    HW215072   0.949   6.803   5.190
 4725SOL     OW15073   4.807   5.938   1.280
 4725SOL    HW115074   4.729   5.883   1.250
 4725SOL    HW215075   4.774   6.025   1.316
 4726SOL     OW15076   1.610   3.303   5.496
 4726SOL    HW115077   1.634   3.211   5.466
 4726SOL    HW215078   1.569   3.354   5.421
 4727SOL     OW15079   6.915   4.828   1.347
 4727SOL    HW115080   6.968   4.786   1.273
 4727SOL    HW215081   6.839   4.768   1.372
 4728SOL     OW15082   6.251   1.620   4.488
 4728SOL    HW115083   6.332   1.607   4.430
 4728SOL    HW215084   6.198   1.535   4.491
 4729SOL     OW15085   6.459   1.894   1.984
 4729SOL    HW115086   6.498   1.802   1.979
 4729SOL    HW215087   6.416   1.907   2.073
 4730SOL     OW15088   3.095   6.613   4.328
 4730SOL    HW115089   3.085   6.519   4.358
 4730SOL    HW215090   3.131   6.615   4.234
 4731SOL     OW15091   3.078   6.331   0.338
 4731SOL    HW115092   3.174   6.344   0.314
 4731SOL    HW215093   3.072   6.275   0.420
 4732SOL     OW15094   0.272   5.101   4.512
 4732SOL    HW115095   0.342   5.171   4.524
 4732SOL    HW215096   0.182   5.145   4.504
 4733SOL     OW15097   2.220   4.288   2.657
 4733SOL    HW115098   2.128   4.267   2.625
 4733SOL    HW215099   2.280   4.306   2.578
 4734SOL     OW15100   5.151   3.870   6.882
 4734SOL    HW115101   5.175   3.776   6.857
 4734SOL    HW215102   5.088   3.908   6.814
 4735SOL     OW15103   0.474   0.839   4.866
 4735SOL    HW115104   0.551   0.895   4.895
 4735SOL    HW215105   0.442   0.783   4.942
 4736SOL     OW15106   6.422   2.056   3.203
 4736SOL    HW115107   6.335   2.086   3.241
 4736SOL    HW215108   6.406   1.987   3.133
 4737SOL     OW15109   2.227   4.888   6.857
 4737SOL    HW115110   2.233   4.834   6.773
 4737SOL    HW215111   2.139   4.936   6.859
 4738SOL     OW15112   0.987   6.349   3.764
 4738SOL    HW115113   0.989   6.378   3.669
 4738SOL    HW215114   1.076   6.312   3.790
 4739SOL     OW15115   6.314   3.045   2.842
 4739SOL    HW115116   6.375   2.989   2.785
 4739SOL    HW215117   6.335   3.029   2.939
 4740SOL     OW15118   1.564   0.778   1.063
 4740SOL    HW115119   1.540   0.691   1.106
 4740SOL    HW215120   1.602   0.840   1.132
 4741SOL     OW15121   5.088   4.644   1.551
 4741SOL    HW115122   4.994   4.615   1.572
 4741SOL    HW215123   5.085   4.717   1.484
 4742SOL     OW15124   2.729   5.713   2.302
 4742SOL    HW115125   2.759   5.618   2.307
 4742SOL    HW215126   2.790   5.770   2.357
 4743SOL     OW15127   2.931   3.123   0.033
 4743SOL    HW115128   2.967   3.033   0.058
 4743SOL    HW215129   3.001   3.193   0.052
 4744SOL     OW15130   1.921   2.392   4.833
 4744SOL    HW115131   1.842   2.334   4.813
 4744SOL    HW215132   1.951   2.378   4.927
 4745SOL     OW15133   3.369   5.120   5.051
 4745SOL    HW115134   3.328   5.098   5.139
 4745SOL    HW215135   3.411   5.211   5.054
 4746SOL     OW15136   6.119   1.110   1.048
 4746SOL    HW115137   6.136   1.011   1.054
 4746SOL    HW215138   6.206   1.158   1.058
 4747SOL     OW15139   6.505   2.784   1.208
 4747SOL    HW115140   6.439   2.783   1.283
 4747SOL    HW215141   6.583   2.726   1.231
 4748SOL     OW15142   1.862   0.470   1.474
 4748SOL    HW115143   1.916   0.551   1.494
 4748SOL    HW215144   1.845   0.465   1.375
 4749SOL     OW15145   2.334   0.544   5.920
 4749SOL    HW115146   2.323   0.511   6.013
 4749SOL    HW215147   2.346   0.466   5.858
 4750SOL     OW15148   0.569   1.676   4.707
 4750SOL    HW115149   0.585   1.727   4.623
 4750SOL    HW215150   0.500   1.606   4.691
 4751SOL     OW15151   1.010   3.477   5.764
 4751SOL    HW115152   1.003   3.380   5.784
 4751SOL    HW215153   1.099   3.512   5.793
 4752SOL     OW15154   2.349   6.193   1.866
 4752SOL    HW115155   2.370   6.150   1.954
 4752SOL    HW215156   2.319   6.123   1.801
 4753SOL     OW15157   6.943   6.874   5.358
 4753SOL    HW115158   6.964   6.835   5.448
 4753SOL    HW215159   6.965   6.808   5.287
 4754SOL     OW15160   0.522   0.399   6.232
 4754SOL    HW115161   0.458   0.323   6.243
 4754SOL    HW215162   0.526   0.453   6.316
 4755SOL     OW15163   2.345   0.863   0.808
 4755SOL    HW115164   2.314   0.809   0.729
 4755SOL    HW215165   2.421   0.815   0.852
 4756SOL     OW15166   4.647   3.139   1.504
 4756SOL    HW115167   4.608   3.072   1.567
 4756SOL    HW215168   4.649   3.100   1.412
 4757SOL     OW15169   2.040   1.662   1.840
 4757SOL    HW115170   2.062   1.680   1.936
 4757SOL    HW215171   2.003   1.569   1.832
 4758SOL     OW15172   5.090   4.321   5.282
 4758SOL    HW115173   5.112   4.224   5.294
 4758SOL    HW215174   5.089   4.366   5.372
 4759SOL     OW15175   5.856   4.456   5.974
 4759SOL    HW115176   5.803   4.517   6.032
 4759SOL    HW215177   5.911   4.395   6.031
 4760SOL     OW15178   2.088   2.652   0.557
 4760SOL    HW115179   2.033   2.570   0.541
 4760SOL    HW215180   2.032   2.723   0.599
 4761SOL     OW15181   1.301   5.644   5.799
 4761SOL    HW115182   1.332   5.605   5.712
 4761SOL    HW215183   1.252   5.573   5.851
 4762SOL     OW15184   3.643   6.856   2.557
 4762SOL    HW115185   3.588   6.925   2.509
 4762SOL    HW215186   3.629   6.767   2.514
 4763SOL     OW15187   5.997   5.370   4.757
 4763SOL    HW115188   5.995   5.466   4.729
 4763SOL    HW215189   5.931   5.356   4.832
 4764SOL     OW15190   3.943   3.735   4.895
 4764SOL    HW115191   3.918   3.706   4.803
 4764SOL    HW215192   4.040   3.716   4.911
 4765SOL     OW15193   6.958   4.705   5.367
 4765SOL    HW115194   7.010   4.656   5.437
 4765SOL    HW215195   6.870   4.661   5.354
 4766SOL     OW15196   3.370   0.273   3.476
 4766SOL    HW115197   3.361   0.367   3.443
 4766SOL    HW215198   3.440   0.225   3.422
 4767SOL     OW15199   4.017   6.153   6.431
 4767SOL    HW115200   4.033   6.062   6.471
 4767SOL    HW215201   4.096   6.180   6.376
 4768SOL     OW15202   0.312   1.079   4.971
 4768SOL    HW115203   0.323   0.982   4.946
 4768SOL    HW215204   0.397   1.128   4.951
 4769SOL     OW15205   3.579   0.380   1.522
 4769SOL    HW115206   3.578   0.450   1.450
 4769SOL    HW215207   3.485   0.361   1.551
 4770SOL     OW15208   2.998   0.428   3.928
 4770SOL    HW115209   3.080   0.392   3.884
 4770SOL    HW215210   2.999   0.405   4.025
 4771SOL     OW15211   3.844   4.283   5.214
 4771SOL    HW115212   3.808   4.235   5.134
 4771SOL    HW215213   3.788   4.261   5.294
 4772SOL     OW15214   2.432   2.478   0.969
 4772SOL    HW115215   2.382   2.530   0.900
 4772SOL    HW215216   2.442   2.533   1.052
 4773SOL     OW15217   6.606   5.460   3.977
 4773SOL    HW115218   6.665   5.494   3.904
 4773SOL    HW215219   6.530   5.409   3.938
 4774SOL     OW15220   0.994   4.287   0.880
 4774SOL    HW115221   1.031   4.194   0.886
 4774SOL    HW215222   0.925   4.291   0.807
 4775SOL     OW15223   2.659   1.417   2.427
 4775SOL    HW115224   2.650   1.509   2.465
 4775SOL    HW215225   2.657   1.421   2.327
 4776SOL     OW15226   4.003   4.922   1.677
 4776SOL    HW115227   3.944   4.991   1.634
 4776SOL    HW215228   3.949   4.842   1.700
 4777SOL     OW15229   2.586   4.361   1.743
 4777SOL    HW115230   2.641   4.427   1.795
 4777SOL    HW215231   2.508   4.331   1.799
 4778SOL     OW15232   4.957   3.482   2.104
 4778SOL    HW115233   5.053   3.509   2.103
 4778SOL    HW215234   4.925   3.467   2.011
 4779SOL     OW15235   4.596   0.620   3.180
 4779SOL    HW115236   4.619   0.712   3.148
 4779SOL    HW215237   4.608   0.615   3.279
 4780SOL     OW15238   1.732   0.107   5.488
 4780SOL    HW115239   1.721   0.204   5.465
 4780SOL    HW215240   1.643   0.067   5.508
 4781SOL     OW15241   2.046   5.699   2.412
 4781SOL    HW115242   2.022   5.653   2.498
 4781SOL    HW215243   2.129   5.754   2.426
 4782SOL     OW15244   5.661   5.807   0.161
 4782SOL    HW115245   5.665   5.740   0.235
 4782SOL    HW215246   5.664   5.760   0.073
 4783SOL     OW15247   6.390   3.988   2.220
 4783SOL    HW115248   6.400   4.011   2.124
 4783SOL    HW215249   6.480   3.974   2.261
 4784SOL     OW15250   6.346   4.483   5.674
 4784SOL    HW115251   6.333   4.559   5.609
 4784SOL    HW215252   6.444   4.465   5.684
 4785SOL     OW15253   6.412   6.730   1.073
 4785SOL    HW115254   6.362   6.647   1.096
 4785SOL    HW215255   6.448   6.724   0.981
 4786SOL     OW15256   1.482   3.030   2.270
 4786SOL    HW115257   1.427   3.113   2.264
 4786SOL    HW215258   1.560   3.037   2.207
 4787SOL     OW15259   3.879   2.146   2.269
 4787SOL    HW115260   3.829   2.080   2.325
 4787SOL    HW215261   3.814   2.203   2.219
 4788SOL     OW15262   1.371   6.173   5.614
 4788SOL    HW115263   1.293   6.229   5.642
 4788SOL    HW215264   1.337   6.090   5.570
 4789SOL     OW15265   6.256   0.244   0.660
 4789SOL    HW115266   6.348   0.207   0.645
 4789SOL    HW215267   6.189   0.186   0.615
 4790SOL     OW15268   5.053   1.445   6.896
 4790SOL    HW115269   5.027   1.350   6.878
 4790SOL    HW215270   5.152   1.452   6.903
 4791SOL     OW15271   4.872   0.444   2.824
 4791SOL    HW115272   4.845   0.466   2.730
 4791SOL    HW215273   4.928   0.518   2.861
 4792SOL     OW15274   2.987   2.266   1.667
 4792SOL    HW115275   3.063   2.211   1.700
 4792SOL    HW215276   2.999   2.361   1.696
 4793SOL     OW15277   0.423   0.069   6.155
 4793SOL    HW115278   0.381   0.132   6.090
 4793SOL    HW215279   0.355   0.039   6.222
 4794SOL     OW15280   3.769   0.809   1.830
 4794SOL    HW115281   3.863   0.827   1.799
 4794SOL    HW215282   3.772   0.772   1.923
 4795SOL     OW15283   5.889   2.850   4.630
 4795SOL    HW115284   5.893   2.771   4.569
 4795SOL    HW215285   5.879   2.818   4.724
 4796SOL     OW15286   6.168   3.599   0.695
 4796SOL    HW115287   6.207   3.658   0.766
 4796SOL    HW215288   6.240   3.540   0.659
 4797SOL     OW15289   0.265   4.865   5.104
 4797SOL    HW115290   0.211   4.782   5.121
 4797SOL    HW215291   0.333   4.875   5.176
 4798SOL     OW15292   6.839   4.421   5.518
 4798SOL    HW115293   6.909   4.461   5.577
 4798SOL    HW215294   6.883   4.361   5.451
 4799SOL     OW15295   3.955   1.158   5.004
 4799SOL    HW115296   3.859   1.172   5.027
 4799SOL    HW215297   3.998   1.246   4.985
 4800SOL     OW15298   1.977   2.116   4.071
 4800SOL    HW115299   1.931   2.060   4.140
 4800SOL    HW215300   2.076   2.109   4.083
 4801SOL     OW15301   1.570   2.578   0.631
 4801SOL    HW115302   1.636   2.640   0.589
 4801SOL    HW215303   1.488   2.573   0.575
 4802SOL     OW15304   1.877   0.658   2.270
 4802SOL    HW115305   1.822   0.597   2.327
 4802SOL    HW215306   1.974   0.646   2.294
 4803SOL     OW15307   1.044   6.915   1.599
 4803SOL    HW115308   1.116   6.860   1.641
 4803SOL    HW215309   1.061   6.925   1.501
 4804SOL     OW15310   3.966   5.629   0.370
 4804SOL    HW115311   3.872   5.605   0.344
 4804SOL    HW215312   4.016   5.546   0.394
 4805SOL     OW15313   0.748   1.634   0.521
 4805SOL    HW115314   0.837   1.611   0.559
 4805SOL    HW215315   0.734   1.585   0.436
 4806SOL     OW15316   0.813   2.879   3.225
 4806SOL    HW115317   0.904   2.838   3.236
 4806SOL    HW215318   0.774   2.898   3.315
 4807SOL     OW15319   0.475   6.695   1.814
 4807SOL    HW115320   0.474   6.689   1.914
 4807SOL    HW215321   0.393   6.652   1.777
 4808SOL     OW15322   5.249   3.360   1.393
 4808SOL    HW115323   5.211   3.413   1.317
 4808SOL    HW215324   5.332   3.405   1.427
 4809SOL     OW15325   4.604   6.151   6.552
 4809SOL    HW115326   4.604   6.060   6.593
 4809SOL    HW215327   4.698   6.177   6.528
 4810SOL     OW15328   0.870   0.262   1.236
 4810SOL    HW115329   0.892   0.271   1.139
 4810SOL    HW215330   0.772   0.245   1.246
 4811SOL     OW15331   5.281   5.911   2.789
 4811SOL    HW115332   5.264   5.863   2.703
 4811SOL    HW215333   5.311   5.845   2.858
 4812SOL     OW15334   6.586   4.694   4.571
 4812SOL    HW115335   6.559   4.682   4.475
 4812SOL    HW215336   6.673   4.743   4.576
 4813SOL     OW15337   5.640   2.388   2.698
 4813SOL    HW115338   5.672   2.462   2.757
 4813SOL    HW215339   5.592   2.426   2.619
 4814SOL     OW15340   6.688   3.723   1.506
 4814SOL    HW115341   6.705   3.648   1.570
 4814SOL    HW215342   6.593   3.720   1.475
 4815SOL     OW15343   3.826   6.348   2.642
 4815SOL    HW115344   3.773   6.294   2.577
 4815SOL    HW215345   3.923   6.333   2.626
 4816SOL     OW15346   5.148   5.431   3.033
 4816SOL    HW115347   5.153   5.380   2.947
 4816SOL    HW215348   5.076   5.393   3.091
 4817SOL     OW15349   6.884   1.897   6.514
 4817SOL    HW115350   6.872   1.886   6.613
 4817SOL    HW215351   6.974   1.935   6.495
 4818SOL     OW15352   6.879   6.089   3.780
 4818SOL    HW115353   6.965   6.057   3.740
 4818SOL    HW215354   6.802   6.052   3.727
 4819SOL     OW15355   1.764   2.801   0.992
 4819SOL    HW115356   1.675   2.761   1.015
 4819SOL    HW215357   1.750   2.892   0.953
 4820SOL     OW15358   0.668   3.141   2.516
 4820SOL    HW115359   0.743   3.090   2.556
 4820SOL    HW215360   0.689   3.161   2.420
 4821SOL     OW15361   6.685   5.844   4.063
 4821SOL    HW115362   6.770   5.807   4.099
 4821SOL    HW215363   6.673   5.938   4.095
 4822SOL     OW15364   2.059   4.246   4.217
 4822SOL    HW115365   2.072   4.335   4.261
 4822SOL    HW215366   2.053   4.175   4.288
 4823SOL     OW15367   1.792   2.859   1.942
 4823SOL    HW115368   1.802   2.762   1.963
 4823SOL    HW215369   1.856   2.912   1.998
 4824SOL     OW15370   6.207   1.824   6.691
 4824SOL    HW115371   6.251   1.800   6.605
 4824SOL    HW215372   6.110   1.844   6.675
 4825SOL     OW15373   1.096   6.732   3.927
 4825SOL    HW115374   1.013   6.682   3.951
 4825SOL    HW215375   1.113   6.725   3.829
 4826SOL     OW15376   3.978   0.431   1.003
 4826SOL    HW115377   3.923   0.479   1.072
 4826SOL    HW215378   4.022   0.497   0.942
 4827SOL     OW15379   6.882   1.992   0.516
 4827SOL    HW115380   6.876   2.087   0.548
 4827SOL    HW215381   6.977   1.971   0.493
 4828SOL     OW15382   5.626   1.219   4.769
 4828SOL    HW115383   5.597   1.315   4.761
 4828SOL    HW215384   5.625   1.192   4.865
 4829SOL     OW15385   4.230   6.402   4.990
 4829SOL    HW115386   4.178   6.465   4.933
 4829SOL    HW215387   4.202   6.308   4.970
 4830SOL     OW15388   1.863   6.421   3.118
 4830SOL    HW115389   1.871   6.322   3.129
 4830SOL    HW215390   1.953   6.460   3.096
 4831SOL     OW15391   3.010   4.623   5.391
 4831SOL    HW115392   2.955   4.596   5.312
 4831SOL    HW215393   2.949   4.638   5.469
 4832SOL     OW15394   3.726   3.614   4.311
 4832SOL    HW115395   3.653   3.552   4.340
 4832SOL    HW215396   3.689   3.705   4.298
 4833SOL     OW15397   6.205   3.698   5.080
 4833SOL    HW115398   6.159   3.615   5.050
 4833SOL    HW215399   6.181   3.773   5.019
 4834SOL     OW15400   1.124   4.808   1.022
 4834SOL    HW115401   1.213   4.783   0.984
 4834SOL    HW215402   1.063   4.728   1.019
 4835SOL     OW15403   6.796   2.793   5.989
 4835SOL    HW115404   6.844   2.717   6.033
 4835SOL    HW215405   6.734   2.757   5.919
 4836SOL     OW15406   4.579   1.801   6.006
 4836SOL    HW115407   4.553   1.814   5.910
 4836SOL    HW215408   4.524   1.728   6.046
 4837SOL     OW15409   0.246   3.471   3.959
 4837SOL    HW115410   0.232   3.570   3.963
 4837SOL    HW215411   0.160   3.425   3.979
 4838SOL     OW15412   2.051   3.469   6.052
 4838SOL    HW115413   2.032   3.403   6.124
 4838SOL    HW215414   2.053   3.422   5.964
 4839SOL     OW15415   2.453   1.165   0.646
 4839SOL    HW115416   2.371   1.114   0.670
 4839SOL    HW215417   2.432   1.233   0.576
 4840SOL     OW15418   6.051   3.471   5.034
 4840SOL    HW115419   5.952   3.461   5.034
 4840SOL    HW215420   6.090   3.416   5.108
 4841SOL     OW15421   2.816   6.474   3.280
 4841SOL    HW115422   2.749   6.530   3.328
 4841SOL    HW215423   2.784   6.458   3.186
 4842SOL     OW15424   3.831   5.737   3.054
 4842SOL    HW115425   3.850   5.714   3.150
 4842SOL    HW215426   3.779   5.822   3.050
 4843SOL     OW15427   6.982   1.575   6.942
 4843SOL    HW115428   6.963   1.603   0.019
 4843SOL    HW215429   0.022   1.645   6.898
 4844SOL     OW15430   1.325   6.002   6.097
 4844SOL    HW115431   1.360   5.923   6.045
 4844SOL    HW215432   1.236   5.978   6.138
 4845SOL     OW15433   5.055   3.700   5.113
 4845SOL    HW115434   5.045   3.684   5.211
 4845SOL    HW215435   4.969   3.679   5.067
 4846SOL     OW15436   5.999   3.329   4.622
 4846SOL    HW115437   6.086   3.290   4.594
 4846SOL    HW215438   5.972   3.290   4.711
 4847SOL     OW15439   2.498   6.597   6.174
 4847SOL    HW115440   2.441   6.587   6.093
 4847SOL    HW215441   2.480   6.687   6.216
 4848SOL     OW15442   4.728   1.205   3.968
 4848SOL    HW115443   4.677   1.195   3.882
 4848SOL    HW215444   4.818   1.163   3.958
 4849SOL     OW15445   2.695   6.350   1.025
 4849SOL    HW115446   2.612   6.383   1.070
 4849SOL    HW215447   2.759   6.314   1.093
 4850SOL     OW15448   3.671   0.093   0.836
 4850SOL    HW115449   3.599   0.159   0.855
 4850SOL    HW215450   3.630   0.004   0.815
 4851SOL     OW15451   3.778   4.546   6.777
 4851SOL    HW115452   3.797   4.476   6.708
 4851SOL    HW215453   3.685   4.581   6.764
 4852SOL     OW15454   5.421   4.955   6.053
 4852SOL    HW115455   5.411   4.967   6.152
 4852SOL    HW215456   5.498   5.009   6.020
 4853SOL     OW15457   4.643   6.725   2.690
 4853SOL    HW115458   4.578   6.801   2.688
 4853SOL    HW215459   4.729   6.756   2.733
 4854SOL     OW15460   4.048   6.668   2.414
 4854SOL    HW115461   4.123   6.668   2.347
 4854SOL    HW215462   4.045   6.756   2.461
 4855SOL     OW15463   5.237   4.955   5.841
 4855SOL    HW115464   5.171   5.025   5.869
 4855SOL    HW215465   5.308   4.946   5.911
 4856SOL     OW15466   0.461   3.924   2.428
 4856SOL    HW115467   0.400   3.864   2.479
 4856SOL    HW215468   0.507   3.871   2.357
 4857SOL     OW15469   2.450   2.432   4.866
 4857SOL    HW115470   2.427   2.341   4.832
 4857SOL    HW215471   2.549   2.441   4.875
 4858SOL     OW15472   1.827   6.489   4.417
 4858SOL    HW115473   1.921   6.494   4.383
 4858SOL    HW215474   1.827   6.459   4.512
 4859SOL     OW15475   6.811   5.828   2.984
 4859SOL    HW115476   6.889   5.848   3.044
 4859SOL    HW215477   6.742   5.777   3.036
 4860SOL     OW15478   4.067   5.293   2.391
 4860SOL    HW115479   3.987   5.276   2.334
 4860SOL    HW215480   4.088   5.390   2.390
 4861SOL     OW15481   6.960   4.327   5.957
 4861SOL    HW115482   0.022   4.389   5.954
 4861SOL    HW215483   6.961   4.270   5.875
 4862SOL     OW15484   2.111   6.314   4.083
 4862SOL    HW115485   2.054   6.242   4.041
 4862SOL    HW215486   2.111   6.303   4.182
 4863SOL     OW15487   5.286   2.081   2.672
 4863SOL    HW115488   5.371   2.109   2.717
 4863SOL    HW215489   5.208   2.119   2.721
 4864SOL     OW15490   2.312   1.533   1.115
 4864SOL    HW115491   2.227   1.522   1.166
 4864SOL    HW215492   2.350   1.443   1.095
 4865SOL     OW15493   4.175   5.849   4.946
 4865SOL    HW115494   4.093   5.836   5.002
 4865SOL    HW215495   4.230   5.765   4.946
 4866SOL     OW15496   0.489   4.876   1.913
 4866SOL    HW115497   0.507   4.957   1.857
 4866SOL    HW215498   0.393   4.850   1.904
 4867SOL     OW15499   4.882   4.688   4.263
 4867SOL    HW115500   4.870   4.630   4.183
 4867SOL    HW215501   4.957   4.753   4.247
 4868SOL     OW15502   1.751   5.852   1.289
 4868SOL    HW115503   1.700   5.937   1.300
 4868SOL    HW215504   1.753   5.803   1.376
 4869SOL     OW15505   6.164   1.770   1.058
 4869SOL    HW115506   6.211   1.760   1.145
 4869SOL    HW215507   6.228   1.755   0.983
 4870SOL     OW15508   6.600   0.426   1.164
 4870SOL    HW115509   6.579   0.343   1.112
 4870SOL    HW215510   6.515   0.464   1.202
 4871SOL     OW15511   2.008   4.065   4.417
 4871SOL    HW115512   2.005   4.055   4.516
 4871SOL    HW215513   2.028   3.977   4.375
 4872SOL     OW15514   1.011   0.637   4.081
 4872SOL    HW115515   0.943   0.628   4.008
 4872SOL    HW215516   1.060   0.551   4.093
 4873SOL     OW15517   1.055   6.617   5.372
 4873SOL    HW115518   0.962   6.606   5.337
 4873SOL    HW215519   1.076   6.715   5.381
 4874SOL     OW15520   5.728   3.194   3.487
 4874SOL    HW115521   5.763   3.133   3.558
 4874SOL    HW215522   5.719   3.287   3.525
 4875SOL     OW15523   6.658   2.655   6.318
 4875SOL    HW115524   6.668   2.737   6.261
 4875SOL    HW215525   6.674   2.573   6.263
 4876SOL     OW15526   0.093   1.773   6.821
 4876SOL    HW115527   0.155   1.829   6.875
 4876SOL    HW215528   0.144   1.727   6.748
 4877SOL     OW15529   6.272   1.013   1.986
 4877SOL    HW115530   6.248   1.068   1.906
 4877SOL    HW215531   6.274   0.916   1.961
 4878SOL     OW15532   0.304   2.884   1.953
 4878SOL    HW115533   0.208   2.861   1.933
 4878SOL    HW215534   0.355   2.890   1.867
 4879SOL     OW15535   4.583   5.825   3.354
 4879SOL    HW115536   4.524   5.878   3.414
 4879SOL    HW215537   4.542   5.735   3.336
 4880SOL     OW15538   5.911   1.545   5.776
 4880SOL    HW115539   5.984   1.614   5.782
 4880SOL    HW215540   5.830   1.586   5.735
 4881SOL     OW15541   2.608   5.406   6.654
 4881SOL    HW115542   2.601   5.492   6.705
 4881SOL    HW215543   2.664   5.421   6.572
 4882SOL     OW15544   4.608   6.684   6.820
 4882SOL    HW115545   4.682   6.713   6.759
 4882SOL    HW215546   4.597   6.751   6.893
 4883SOL     OW15547   6.055   5.532   7.016
 4883SOL    HW115548   5.972   5.547   0.053
 4883SOL    HW215549   6.106   5.455   0.038
 4884SOL     OW15550   3.995   6.369   1.348
 4884SOL    HW115551   3.942   6.287   1.373
 4884SOL    HW215552   3.938   6.430   1.294
 4885SOL     OW15553   2.177   0.132   3.061
 4885SOL    HW115554   2.204   0.057   3.121
 4885SOL    HW215555   2.229   0.214   3.084
 4886SOL     OW15556   6.041   0.790   5.773
 4886SOL    HW115557   6.044   0.716   5.840
 4886SOL    HW215558   6.040   0.752   5.681
 4887SOL     OW15559   0.028   1.987   5.881
 4887SOL    HW115560   0.064   2.079   5.865
 4887SOL    HW215561   0.094   1.935   5.935
 4888SOL     OW15562   3.465   5.996   1.762
 4888SOL    HW115563   3.498   5.942   1.684
 4888SOL    HW215564   3.504   6.088   1.757
 4889SOL     OW15565   1.503   2.880   6.058
 4889SOL    HW115566   1.532   2.970   6.024
 4889SOL    HW215567   1.432   2.892   6.127
 4890SOL     OW15568   0.858   0.334   4.427
 4890SOL    HW115569   0.795   0.405   4.458
 4890SOL    HW215570   0.943   0.376   4.396
 4891SOL     OW15571   1.591   3.700   0.531
 4891SOL    HW115572   1.637   3.759   0.465
 4891SOL    HW215573   1.644   3.616   0.544
 4892SOL     OW15574   1.432   5.379   2.156
 4892SOL    HW115575   1.465   5.408   2.246
 4892SOL    HW215576   1.380   5.294   2.165
 4893SOL     OW15577   0.880   3.693   6.585
 4893SOL    HW115578   0.955   3.676   6.648
 4893SOL    HW215579   0.836   3.607   6.561
 4894SOL     OW15580   1.835   0.874   3.284
 4894SOL    HW115581   1.880   0.788   3.307
 4894SOL    HW215582   1.832   0.933   3.365
 4895SOL     OW15583   6.129   4.376   0.450
 4895SOL    HW115584   6.070   4.317   0.394
 4895SOL    HW215585   6.088   4.467   0.455
 4896SOL     OW15586   4.164   5.918   3.400
 4896SOL    HW115587   4.114   5.938   3.484
 4896SOL    HW215588   4.262   5.929   3.416
 4897SOL     OW15589   2.720   6.038   6.511
 4897SOL    HW115590   2.803   6.085   6.541
 4897SOL    HW215591   2.744   5.947   6.476
 4898SOL     OW15592   6.121   2.074   4.679
 4898SOL    HW115593   6.029   2.084   4.643
 4898SOL    HW215594   6.163   1.992   4.641
 4899SOL     OW15595   5.178   4.564   4.959
 4899SOL    HW115596   5.215   4.486   5.010
 4899SOL    HW215597   5.238   4.585   4.882
 4900SOL     OW15598   0.376   6.650   5.716
 4900SOL    HW115599   0.278   6.630   5.718
 4900SOL    HW215600   0.403   6.672   5.622
 4901SOL     OW15601   6.995   6.837   3.267
 4901SOL    HW115602   0.006   6.896   3.192
 4901SOL    HW215603   6.986   6.743   3.234
 4902SOL     OW15604   3.295   4.775   1.835
 4902SOL    HW115605   3.234   4.729   1.770
 4902SOL    HW215606   3.386   4.734   1.829
 4903SOL     OW15607   5.387   5.704   5.932
 4903SOL    HW115608   5.377   5.794   5.974
 4903SOL    HW215609   5.375   5.633   6.001
 4904SOL     OW15610   2.909   6.315   3.469
 4904SOL    HW115611   2.859   6.360   3.395
 4904SOL    HW215612   3.006   6.337   3.462
 4905SOL     OW15613   6.222   3.463   3.251
 4905SOL    HW115614   6.280   3.508   3.319
 4905SOL    HW215615   6.128   3.497   3.259
 4906SOL     OW15616   5.410   1.258   1.382
 4906SOL    HW115617   5.375   1.174   1.423
 4906SOL    HW215618   5.375   1.268   1.289
 4907SOL     OW15619   2.226   2.009   2.376
 4907SOL    HW115620   2.139   1.998   2.425
 4907SOL    HW215621   2.301   2.011   2.442
 4908SOL     OW15622   3.614   5.039   0.487
 4908SOL    HW115623   3.579   5.031   0.580
 4908SOL    HW215624   3.559   5.104   0.436
 4909SOL     OW15625   5.765   0.519   5.354
 4909SOL    HW115626   5.824   0.498   5.432
 4909SOL    HW215627   5.777   0.450   5.283
 4910SOL     OW15628   5.828   6.844   6.249
 4910SOL    HW115629   5.891   6.783   6.296
 4910SOL    HW215630   5.863   6.863   6.157
 4911SOL     OW15631   1.146   3.196   6.123
 4911SOL    HW115632   1.073   3.263   6.107
 4911SOL    HW215633   1.235   3.241   6.116
 4912SOL     OW15634   2.582   2.475   1.990
 4912SOL    HW115635   2.549   2.413   1.919
 4912SOL    HW215636   2.676   2.452   2.013
 4913SOL     OW15637   2.850   3.433   1.946
 4913SOL    HW115638   2.916   3.505   1.925
 4913SOL    HW215639   2.766   3.449   1.894
 4914SOL     OW15640   1.697   6.476   2.274
 4914SOL    HW115641   1.632   6.503   2.203
 4914SOL    HW215642   1.784   6.451   2.231
 4915SOL     OW15643   2.658   6.182   3.233
 4915SOL    HW115644   2.632   6.106   3.292
 4915SOL    HW215645   2.617   6.267   3.268
 4916SOL     OW15646   1.918   1.974   2.425
 4916SOL    HW115647   1.906   1.995   2.328
 4916SOL    HW215648   1.888   2.051   2.480
 4917SOL     OW15649   2.249   5.080   6.336
 4917SOL    HW115650   2.219   5.171   6.308
 4917SOL    HW215651   2.328   5.053   6.282
 4918SOL     OW15652   2.326   0.556   4.002
 4918SOL    HW115653   2.391   0.482   4.021
 4918SOL    HW215654   2.285   0.586   4.088
 4919SOL     OW15655   2.434   3.183   1.472
 4919SOL    HW115656   2.423   3.275   1.508
 4919SOL    HW215657   2.344   3.140   1.461
 4920SOL     OW15658   4.407   0.820   0.193
 4920SOL    HW115659   4.313   0.842   0.219
 4920SOL    HW215660   4.465   0.820   0.274
 4921SOL     OW15661   1.195   4.595   1.719
 4921SOL    HW115662   1.176   4.671   1.782
 4921SOL    HW215663   1.260   4.625   1.650
 4922SOL     OW15664   0.839   2.729   5.621
 4922SOL    HW115665   0.765   2.759   5.681
 4922SOL    HW215666   0.904   2.804   5.609
 4923SOL     OW15667   3.107   2.327   0.262
 4923SOL    HW115668   3.010   2.350   0.269
 4923SOL    HW215669   3.140   2.296   0.352
 4924SOL     OW15670   0.043   3.351   4.341
 4924SOL    HW115671   0.103   3.297   4.282
 4924SOL    HW215672   0.021   3.437   4.295
 4925SOL     OW15673   4.571   5.792   6.501
 4925SOL    HW115674   4.516   5.713   6.474
 4925SOL    HW215675   4.547   5.819   6.594
 4926SOL     OW15676   4.299   2.924   0.798
 4926SOL    HW115677   4.225   2.862   0.770
 4926SOL    HW215678   4.365   2.932   0.723
 4927SOL     OW15679   3.328   4.109   2.590
 4927SOL    HW115680   3.267   4.179   2.626
 4927SOL    HW215681   3.384   4.072   2.664
 4928SOL     OW15682   0.724   6.402   0.730
 4928SOL    HW115683   0.802   6.341   0.719
 4928SOL    HW215684   0.717   6.462   0.651
 4929SOL     OW15685   0.748   4.952   4.574
 4929SOL    HW115686   0.689   4.943   4.494
 4929SOL    HW215687   0.753   4.864   4.622
 4930SOL     OW15688   0.270   2.839   0.664
 4930SOL    HW115689   0.290   2.860   0.760
 4930SOL    HW215690   0.183   2.791   0.657
 4931SOL     OW15691   6.740   6.678   1.042
 4931SOL    HW115692   6.678   6.612   1.084
 4931SOL    HW215693   6.833   6.641   1.041
 4932SOL     OW15694   3.802   2.026   1.135
 4932SOL    HW115695   3.707   2.032   1.163
 4932SOL    HW215696   3.861   2.054   1.210
 4933SOL     OW15697   2.691   0.326   5.094
 4933SOL    HW115698   2.743   0.248   5.130
 4933SOL    HW215699   2.711   0.407   5.149
 4934SOL     OW15700   1.558   5.749   5.596
 4934SOL    HW115701   1.491   5.744   5.521
 4934SOL    HW215702   1.565   5.843   5.628
 4935SOL     OW15703   1.883   1.287   0.615
 4935SOL    HW115704   1.880   1.344   0.533
 4935SOL    HW215705   1.872   1.191   0.589
 4936SOL     OW15706   4.800   6.206   1.339
 4936SOL    HW115707   4.756   6.229   1.426
 4936SOL    HW215708   4.804   6.287   1.281
 4937SOL     OW15709   1.039   2.822   5.053
 4937SOL    HW115710   1.023   2.758   4.978
 4937SOL    HW215711   1.005   2.782   5.138
 4938SOL     OW15712   3.302   5.029   1.733
 4938SOL    HW115713   3.397   5.060   1.728
 4938SOL    HW215714   3.298   4.939   1.777
 4939SOL     OW15715   1.002   1.679   1.641
 4939SOL    HW115716   1.045   1.767   1.660
 4939SOL    HW215717   1.009   1.621   1.722
 4940SOL     OW15718   0.566   2.015   5.791
 4940SOL    HW115719   0.526   2.103   5.765
 4940SOL    HW215720   0.659   2.008   5.757
 4941SOL     OW15721   4.308   2.714   5.356
 4941SOL    HW115722   4.284   2.662   5.438
 4941SOL    HW215723   4.273   2.667   5.276
 4942SOL     OW15724   0.654   1.842   3.048
 4942SOL    HW115725   0.592   1.789   3.105
 4942SOL    HW215726   0.723   1.886   3.106
 4943SOL     OW15727   5.472   2.731   6.739
 4943SOL    HW115728   5.478   2.637   6.771
 4943SOL    HW215729   5.564   2.770   6.733
 4944SOL     OW15730   0.891   5.241   7.008
 4944SOL    HW115731   0.867   5.338   7.008
 4944SOL    HW215732   0.882   5.204   6.915
 4945SOL     OW15733   2.056   0.192   5.511
 4945SOL    HW115734   1.977   0.197   5.572
 4945SOL    HW215735   2.104   0.280   5.512
 4946SOL     OW15736   2.668   5.219   6.866
 4946SOL    HW115737   2.649   5.284   6.792
 4946SOL    HW215738   2.753   5.244   6.911
 4947SOL     OW15739   1.001   0.401   0.985
 4947SOL    HW115740   1.049   0.364   0.905
 4947SOL    HW215741   0.931   0.466   0.954
 4948SOL     OW15742   1.895   2.003   2.114
 4948SOL    HW115743   1.969   2.032   2.054
 4948SOL    HW215744   1.824   2.073   2.116
 4949SOL     OW15745   6.882   4.103   6.289
 4949SOL    HW115746   6.857   4.051   6.371
 4949SOL    HW215747   6.808   4.099   6.223
 4950SOL     OW15748   3.626   4.873   5.766
 4950SOL    HW115749   3.712   4.890   5.717
 4950SOL    HW215750   3.554   4.928   5.725
 4951SOL     OW15751   5.031   5.637   3.324
 4951SOL    HW115752   4.960   5.580   3.285
 4951SOL    HW215753   4.994   5.728   3.342
 4952SOL     OW15754   0.473   0.279   6.673
 4952SOL    HW115755   0.382   0.238   6.677
 4952SOL    HW215756   0.487   0.336   6.754
 4953SOL     OW15757   1.554   2.495   4.947
 4953SOL    HW115758   1.477   2.533   4.897
 4953SOL    HW215759   1.639   2.536   4.914
 4954SOL     OW15760   3.101   3.822   4.647
 4954SOL    HW115761   3.081   3.724   4.647
 4954SOL    HW215762   3.197   3.835   4.674
 4955SOL     OW15763   4.015   5.941   5.746
 4955SOL    HW115764   3.942   5.874   5.733
 4955SOL    HW215765   3.980   6.033   5.729
 4956SOL     OW15766   3.093   0.103   4.798
 4956SOL    HW115767   3.031   0.180   4.813
 4956SOL    HW215768   3.130   0.108   4.705
 4957SOL     OW15769   5.904   4.303   0.314
 4957SOL    HW115770   5.880   4.384   0.366
 4957SOL    HW215771   5.821   4.256   0.284
 4958SOL     OW15772   3.692   5.487   0.674
 4958SOL    HW115773   3.687   5.444   0.764
 4958SOL    HW215774   3.780   5.535   0.665
 4959SOL     OW15775   0.050   2.302   2.777
 4959SOL    HW115776   0.041   2.204   2.761
 4959SOL    HW215777   0.032   2.322   2.873
 4960SOL     OW15778   5.310   4.491   3.732
 4960SOL    HW115779   5.354   4.426   3.794
 4960SOL    HW215780   5.222   4.455   3.703
 4961SOL     OW15781   3.228   2.198   1.818
 4961SOL    HW115782   3.251   2.116   1.766
 4961SOL    HW215783   3.230   2.177   1.916
 4962SOL     OW15784   0.998   3.188   0.428
 4962SOL    HW115785   1.040   3.100   0.452
 4962SOL    HW215786   1.069   3.257   0.416
 4963SOL     OW15787   0.791   3.766   6.096
 4963SOL    HW115788   0.723   3.769   6.023
 4963SOL    HW215789   0.857   3.693   6.078
 4964SOL     OW15790   2.457   6.296   4.664
 4964SOL    HW115791   2.445   6.211   4.613
 4964SOL    HW215792   2.498   6.276   4.753
 4965SOL     OW15793   1.570   6.351   3.030
 4965SOL    HW115794   1.651   6.306   2.994
 4965SOL    HW215795   1.550   6.433   2.977
 4966SOL     OW15796   3.122   6.274   4.277
 4966SOL    HW115797   3.044   6.287   4.337
 4966SOL    HW215798   3.200   6.326   4.312
 4967SOL     OW15799   4.260   4.814   4.916
 4967SOL    HW115800   4.276   4.724   4.956
 4967SOL    HW215801   4.242   4.880   4.989
 4968SOL     OW15802   0.331   2.762   3.146
 4968SOL    HW115803   0.386   2.839   3.112
 4968SOL    HW215804   0.376   2.676   3.122
 4969SOL     OW15805   6.928   5.750   4.134
 4969SOL    HW115806   6.994   5.728   4.206
 4969SOL    HW215807   6.961   5.827   4.080
 4970SOL     OW15808   1.769   1.963   1.093
 4970SOL    HW115809   1.767   2.036   1.162
 4970SOL    HW215810   1.683   1.963   1.043
 4971SOL     OW15811   0.222   5.969   2.695
 4971SOL    HW115812   0.293   5.957   2.765
 4971SOL    HW215813   0.161   5.890   2.697
 4972SOL     OW15814   0.530   4.586   0.960
 4972SOL    HW115815   0.604   4.648   0.933
 4972SOL    HW215816   0.498   4.612   1.052
 4973SOL     OW15817   6.295   1.282   0.332
 4973SOL    HW115818   6.344   1.289   0.245
 4973SOL    HW215819   6.202   1.316   0.322
 4974SOL     OW15820   3.231   6.523   4.769
 4974SOL    HW115821   3.195   6.596   4.710
 4974SOL    HW215822   3.300   6.561   4.830
 4975SOL     OW15823   5.255   5.080   1.051
 4975SOL    HW115824   5.166   5.116   1.022
 4975SOL    HW215825   5.246   5.038   1.141
 4976SOL     OW15826   1.505   6.868   3.647
 4976SOL    HW115827   1.488   6.952   3.697
 4976SOL    HW215828   1.501   6.886   3.549
 4977SOL     OW15829   1.494   3.842   5.893
 4977SOL    HW115830   1.473   3.846   5.795
 4977SOL    HW215831   1.422   3.890   5.944
 4978SOL     OW15832   6.116   4.422   4.830
 4978SOL    HW115833   6.182   4.421   4.755
 4978SOL    HW215834   6.024   4.432   4.793
 4979SOL     OW15835   2.638   0.057   6.177
 4979SOL    HW115836   2.733   0.089   6.185
 4979SOL    HW215837   2.593   0.065   6.265
 4980SOL     OW15838   5.198   3.008   4.105
 4980SOL    HW115839   5.104   3.009   4.139
 4980SOL    HW215840   5.261   2.996   4.182
 4981SOL     OW15841   3.004   4.932   2.666
 4981SOL    HW115842   2.957   4.870   2.728
 4981SOL    HW215843   3.092   4.958   2.706
 4982SOL     OW15844   3.923   2.522   5.649
 4982SOL    HW115845   4.016   2.539   5.680
 4982SOL    HW215846   3.922   2.506   5.550
 4983SOL     OW15847   5.955   4.573   2.970
 4983SOL    HW115848   5.997   4.537   2.887
 4983SOL    HW215849   5.963   4.673   2.971
 4984SOL     OW15850   4.875   3.514   4.022
 4984SOL    HW115851   4.874   3.431   3.966
 4984SOL    HW215852   4.858   3.490   4.118
 4985SOL     OW15853   5.577   0.583   2.252
 4985SOL    HW115854   5.520   0.619   2.179
 4985SOL    HW215855   5.574   0.644   2.331
 4986SOL     OW15856   0.828   4.947   1.281
 4986SOL    HW115857   0.804   4.951   1.378
 4986SOL    HW215858   0.756   4.993   1.227
 4987SOL     OW15859   1.068   1.361   2.258
 4987SOL    HW115860   1.027   1.273   2.283
 4987SOL    HW215861   1.002   1.434   2.273
 4988SOL     OW15862   6.167   5.654   4.087
 4988SOL    HW115863   6.107   5.722   4.045
 4988SOL    HW215864   6.261   5.686   4.085
 4989SOL     OW15865   5.475   0.299   3.941
 4989SOL    HW115866   5.419   0.228   3.899
 4989SOL    HW215867   5.452   0.306   4.038
 4990SOL     OW15868   4.541   2.102   5.630
 4990SOL    HW115869   4.620   2.087   5.571
 4990SOL    HW215870   4.571   2.127   5.722
 4991SOL     OW15871   1.116   5.060   5.951
 4991SOL    HW115872   1.171   5.121   6.007
 4991SOL    HW215873   1.074   4.990   6.008
 4992SOL     OW15874   1.143   3.568   4.195
 4992SOL    HW115875   1.058   3.563   4.143
 4992SOL    HW215876   1.125   3.613   4.283
 4993SOL     OW15877   2.533   5.917   3.879
 4993SOL    HW115878   2.480   5.991   3.837
 4993SOL    HW215879   2.627   5.947   3.892
 4994SOL     OW15880   3.678   5.179   5.495
 4994SOL    HW115881   3.724   5.263   5.525
 4994SOL    HW215882   3.734   5.100   5.519
 4995SOL     OW15883   6.877   0.666   5.868
 4995SOL    HW115884   6.948   0.734   5.847
 4995SOL    HW215885   6.844   0.624   5.784
 4996SOL     OW15886   0.390   1.427   4.079
 4996SOL    HW115887   0.362   1.395   3.989
 4996SOL    HW215888   0.441   1.355   4.126
 4997SOL     OW15889   3.861   1.754   1.063
 4997SOL    HW115890   3.800   1.690   1.110
 4997SOL    HW215891   3.847   1.846   1.099
 4998SOL     OW15892   0.837   3.589   3.260
 4998SOL    HW115893   0.789   3.677   3.253
 4998SOL    HW215894   0.792   3.532   3.328
 4999SOL     OW15895   0.878   2.679   4.137
 4999SOL    HW115896   0.820   2.655   4.059
 4999SOL    HW215897   0.972   2.652   4.118
 5000SOL     OW15898   2.900   5.826   2.500
 5000SOL    HW115899   2.875   5.784   2.587
 5000SOL    HW215900   2.997   5.848   2.499
 5001SOL     OW15901   0.945   6.252   3.349
 5001SOL    HW115902   0.864   6.244   3.407
 5001SOL    HW215903   1.003   6.171   3.361
 5002SOL     OW15904   1.811   4.714   4.068
 5002SOL    HW115905   1.757   4.646   4.018
 5002SOL    HW215906   1.751   4.789   4.095
 5003SOL     OW15907   4.108   0.312   3.318
 5003SOL    HW115908   4.145   0.350   3.234
 5003SOL    HW215909   4.042   0.377   3.357
 5004SOL     OW15910   3.508   5.299   6.981
 5004SOL    HW115911   3.604   5.320   6.963
 5004SOL    HW215912   3.451   5.333   6.906
 5005SOL     OW15913   2.810   2.926   6.808
 5005SOL    HW115914   2.750   2.923   6.728
 5005SOL    HW215915   2.755   2.922   6.892
 5006SOL     OW15916   5.086   1.741   2.162
 5006SOL    HW115917   5.044   1.782   2.081
 5006SOL    HW215918   5.185   1.751   2.157
 5007SOL     OW15919   5.737   6.173   1.720
 5007SOL    HW115920   5.705   6.116   1.644
 5007SOL    HW215921   5.702   6.136   1.806
 5008SOL     OW15922   5.476   0.430   2.855
 5008SOL    HW115923   5.383   0.426   2.819
 5008SOL    HW215924   5.515   0.520   2.838
 5009SOL     OW15925   6.475   2.351   0.537
 5009SOL    HW115926   6.565   2.383   0.508
 5009SOL    HW215927   6.481   2.255   0.566
 5010SOL     OW15928   3.628   3.723   0.775
 5010SOL    HW115929   3.611   3.660   0.851
 5010SOL    HW215930   3.718   3.765   0.786
 5011SOL     OW15931   1.767   3.124   6.380
 5011SOL    HW115932   1.683   3.173   6.402
 5011SOL    HW215933   1.825   3.182   6.323
 5012SOL     OW15934   6.099   1.636   6.223
 5012SOL    HW115935   6.163   1.572   6.266
 5012SOL    HW215936   6.087   1.611   6.126
 5013SOL     OW15937   5.928   0.148   6.005
 5013SOL    HW115938   5.974   0.195   6.080
 5013SOL    HW215939   5.921   0.050   6.027
 5014SOL     OW15940   6.026   3.174   2.130
 5014SOL    HW115941   5.937   3.216   2.149
 5014SOL    HW215942   6.021   3.076   2.148
 5015SOL     OW15943   6.093   6.550   4.209
 5015SOL    HW115944   6.038   6.622   4.168
 5015SOL    HW215945   6.047   6.515   4.291
 5016SOL     OW15946   1.849   3.546   5.518
 5016SOL    HW115947   1.926   3.482   5.507
 5016SOL    HW215948   1.875   3.619   5.581
 5017SOL     OW15949   0.382   3.234   2.029
 5017SOL    HW115950   0.310   3.282   2.079
 5017SOL    HW215951   0.416   3.158   2.084
 5018SOL     OW15952   0.925   0.094   0.113
 5018SOL    HW115953   0.992   0.160   0.147
 5018SOL    HW215954   0.848   0.142   0.070
 5019SOL     OW15955   1.053   5.184   4.803
 5019SOL    HW115956   1.082   5.092   4.779
 5019SOL    HW215957   0.963   5.203   4.764
 5020SOL     OW15958   2.586   0.184   4.883
 5020SOL    HW115959   2.611   0.240   4.962
 5020SOL    HW215960   2.541   0.100   4.915
 5021SOL     OW15961   2.119   0.850   0.520
 5021SOL    HW115962   2.197   0.791   0.544
 5021SOL    HW215963   2.153   0.936   0.484
 5022SOL     OW15964   6.947   2.965   1.508
 5022SOL    HW115965   6.929   2.871   1.535
 5022SOL    HW215966   6.907   3.027   1.576
 5023SOL     OW15967   0.152   4.383   2.595
 5023SOL    HW115968   0.086   4.381   2.670
 5023SOL    HW215969   0.166   4.478   2.565
 5024SOL     OW15970   4.460   4.060   1.033
 5024SOL    HW115971   4.366   4.052   1.066
 5024SOL    HW215972   4.493   4.153   1.047
 5025SOL     OW15973   4.562   1.497   4.609
 5025SOL    HW115974   4.571   1.423   4.542
 5025SOL    HW215975   4.586   1.584   4.566
 5026SOL     OW15976   4.655   6.649   4.596
 5026SOL    HW115977   4.653   6.739   4.553
 5026SOL    HW215978   4.746   6.609   4.584
 5027SOL     OW15979   4.818   6.361   1.072
 5027SOL    HW115980   4.918   6.350   1.067
 5027SOL    HW215981   4.774   6.293   1.013
 5028SOL     OW15982   6.332   1.661   2.415
 5028SOL    HW115983   6.326   1.611   2.502
 5028SOL    HW215984   6.415   1.634   2.367
 5029SOL     OW15985   5.801   1.925   2.493
 5029SOL    HW115986   5.814   2.022   2.515
 5029SOL    HW215987   5.889   1.884   2.468
 5030SOL     OW15988   6.806   4.274   6.727
 5030SOL    HW115989   6.796   4.345   6.798
 5030SOL    HW215990   6.824   4.318   6.639
 5031SOL     OW15991   6.546   6.890   6.259
 5031SOL    HW115992   6.569   6.987   6.246
 5031SOL    HW215993   6.447   6.880   6.265
 5032SOL     OW15994   3.123   3.333   5.626
 5032SOL    HW115995   3.167   3.423   5.628
 5032SOL    HW215996   3.058   3.327   5.701
 5033SOL     OW15997   2.155   0.543   6.414
 5033SOL    HW115998   2.120   0.532   6.321
 5033SOL    HW215999   2.223   0.616   6.416
 5034SOL     OW16000   4.967   6.634   4.836
 5034SOL    HW116001   4.944   6.731   4.842
 5034SOL    HW216002   4.932   6.597   4.750
 5035SOL     OW16003   2.148   3.342   3.926
 5035SOL    HW116004   2.157   3.362   4.023
 5035SOL    HW216005   2.119   3.425   3.877
 5036SOL     OW16006   0.364   2.098   4.972
 5036SOL    HW116007   0.446   2.136   5.015
 5036SOL    HW216008   0.337   2.156   4.895
 5037SOL     OW16009   4.214   3.953   1.140
 5037SOL    HW116010   4.114   3.948   1.137
 5037SOL    HW216011   4.245   3.937   1.234
 5038SOL     OW16012   4.009   3.900   3.772
 5038SOL    HW116013   4.085   3.924   3.711
 5038SOL    HW216014   3.924   3.898   3.720
 5039SOL     OW16015   1.091   3.643   6.323
 5039SOL    HW116016   1.057   3.723   6.273
 5039SOL    HW216017   1.040   3.634   6.409
 5040SOL     OW16018   0.146   1.066   5.633
 5040SOL    HW116019   0.086   1.145   5.630
 5040SOL    HW216020   0.228   1.084   5.579
 5041SOL     OW16021   0.048   2.846   1.916
 5041SOL    HW116022   0.066   2.752   1.886
 5041SOL    HW216023   6.978   2.849   1.966
 5042SOL     OW16024   0.565   2.555   6.198
 5042SOL    HW116025   0.622   2.585   6.274
 5042SOL    HW216026   0.500   2.627   6.175
 5043SOL     OW16027   4.086   6.764   1.636
 5043SOL    HW116028   4.151   6.788   1.709
 5043SOL    HW216029   4.137   6.738   1.554
 5044SOL     OW16030   6.783   4.606   0.655
 5044SOL    HW116031   6.794   4.701   0.684
 5044SOL    HW216032   6.704   4.566   0.702
 5045SOL     OW16033   6.341   3.183   6.668
 5045SOL    HW116034   6.359   3.110   6.602
 5045SOL    HW216035   6.259   3.234   6.639
 5046SOL     OW16036   3.483   3.350   2.964
 5046SOL    HW116037   3.557   3.353   3.032
 5046SOL    HW216038   3.498   3.271   2.903
 5047SOL     OW16039   1.245   3.934   3.926
 5047SOL    HW116040   1.249   3.839   3.896
 5047SOL    HW216041   1.151   3.959   3.947
 5048SOL     OW16042   1.937   1.162   6.351
 5048SOL    HW116043   1.982   1.252   6.349
 5048SOL    HW216044   1.945   1.119   6.261
 5049SOL     OW16045   4.811   1.811   6.902
 5049SOL    HW116046   4.805   1.716   6.933
 5049SOL    HW216047   4.752   1.868   6.957
 5050SOL     OW16048   1.467   0.019   1.025
 5050SOL    HW116049   1.513   0.087   1.082
 5050SOL    HW216050   1.534   6.994   0.963
 5051SOL     OW16051   4.472   5.144   1.244
 5051SOL    HW116052   4.460   5.161   1.342
 5051SOL    HW216053   4.469   5.045   1.227
 5052SOL     OW16054   2.581   1.491   5.138
 5052SOL    HW116055   2.616   1.546   5.214
 5052SOL    HW216056   2.559   1.399   5.171
 5053SOL     OW16057   0.358   0.618   1.936
 5053SOL    HW116058   0.290   0.690   1.953
 5053SOL    HW216059   0.311   0.536   1.904
 5054SOL     OW16060   3.857   5.262   3.971
 5054SOL    HW116061   3.843   5.352   4.011
 5054SOL    HW216062   3.850   5.192   4.042
 5055SOL     OW16063   7.008   3.793   6.426
 5055SOL    HW116064   0.033   3.836   6.507
 5055SOL    HW216065   0.022   3.698   6.419
 5056SOL     OW16066   5.304   4.145   4.115
 5056SOL    HW116067   5.360   4.143   4.032
 5056SOL    HW216068   5.248   4.228   4.116
 5057SOL     OW16069   1.035   6.119   2.216
 5057SOL    HW116070   0.957   6.058   2.224
 5057SOL    HW216071   1.023   6.179   2.137
 5058SOL     OW16072   2.717   5.642   5.262
 5058SOL    HW116073   2.635   5.619   5.314
 5058SOL    HW216074   2.787   5.572   5.277
 5059SOL     OW16075   0.107   0.336   2.040
 5059SOL    HW116076   0.188   0.357   1.985
 5059SOL    HW216077   0.065   0.252   2.006
 5060SOL     OW16078   6.338   1.988   5.610
 5060SOL    HW116079   6.312   2.022   5.701
 5060SOL    HW216080   6.378   2.062   5.557
 5061SOL     OW16081   5.530   4.425   0.230
 5061SOL    HW116082   5.433   4.424   0.207
 5061SOL    HW216083   5.551   4.506   0.284
 5062SOL     OW16084   0.275   0.397   1.063
 5062SOL    HW116085   0.286   0.448   0.978
 5062SOL    HW216086   0.357   0.408   1.120
 5063SOL     OW16087   1.557   6.021   1.332
 5063SOL    HW116088   1.466   5.983   1.343
 5063SOL    HW216089   1.572   6.092   1.400
 5064SOL     OW16090   4.944   3.641   0.235
 5064SOL    HW116091   4.863   3.654   0.292
 5064SOL    HW216092   4.922   3.667   0.140
 5065SOL     OW16093   2.445   5.872   5.492
 5065SOL    HW116094   2.444   5.843   5.396
 5065SOL    HW216095   2.520   5.936   5.506
 5066SOL     OW16096   4.733   5.065   1.180
 5066SOL    HW116097   4.822   5.105   1.202
 5066SOL    HW216098   4.663   5.100   1.242
 5067SOL     OW16099   5.301   1.456   6.769
 5067SOL    HW116100   5.361   1.399   6.713
 5067SOL    HW216101   5.216   1.474   6.719
 5068SOL     OW16102   2.877   5.211   1.790
 5068SOL    HW116103   2.895   5.191   1.694
 5068SOL    HW216104   2.953   5.177   1.846
 5069SOL     OW16105   0.473   5.005   2.862
 5069SOL    HW116106   0.506   4.951   2.785
 5069SOL    HW216107   0.423   4.946   2.925
 5070SOL     OW16108   4.868   3.178   4.166
 5070SOL    HW116109   4.797   3.113   4.193
 5070SOL    HW216110   4.886   3.169   4.068
 5071SOL     OW16111   4.191   0.836   6.598
 5071SOL    HW116112   4.210   0.934   6.602
 5071SOL    HW216113   4.231   0.791   6.678
 5072SOL     OW16114   1.344   3.970   0.893
 5072SOL    HW116115   1.302   3.882   0.874
 5072SOL    HW216116   1.273   4.040   0.900
 5073SOL     OW16117   4.159   1.531   3.822
 5073SOL    HW116118   4.071   1.502   3.860
 5073SOL    HW216119   4.167   1.631   3.829
 5074SOL     OW16120   2.961   4.172   5.635
 5074SOL    HW116121   2.908   4.158   5.719
 5074SOL    HW216122   2.986   4.083   5.597
 5075SOL     OW16123   6.647   6.090   4.213
 5075SOL    HW116124   6.566   6.148   4.210
 5075SOL    HW216125   6.729   6.144   4.195
 5076SOL     OW16126   3.496   0.483   1.150
 5076SOL    HW116127   3.488   0.529   1.062
 5076SOL    HW216128   3.586   0.442   1.158
 5077SOL     OW16129   0.651   2.315   2.283
 5077SOL    HW116130   0.688   2.370   2.358
 5077SOL    HW216131   0.651   2.369   2.199
 5078SOL     OW16132   1.216   1.211   4.084
 5078SOL    HW116133   1.273   1.129   4.083
 5078SOL    HW216134   1.120   1.184   4.076
 5079SOL     OW16135   4.235   5.041   5.073
 5079SOL    HW116136   4.149   5.087   5.053
 5079SOL    HW216137   4.275   5.078   5.157
 5080SOL     OW16138   6.135   6.735   5.941
 5080SOL    HW116139   6.151   6.641   5.971
 5080SOL    HW216140   6.187   6.752   5.856
 5081SOL     OW16141   3.300   3.535   3.087
 5081SOL    HW116142   3.355   3.550   3.005
 5081SOL    HW216143   3.272   3.623   3.125
 5082SOL     OW16144   6.381   6.863   5.380
 5082SOL    HW116145   6.295   6.913   5.381
 5082SOL    HW216146   6.364   6.768   5.355
 5083SOL     OW16147   1.541   5.765   1.682
 5083SOL    HW116148   1.636   5.775   1.652
 5083SOL    HW216149   1.534   5.784   1.780
 5084SOL     OW16150   2.186   6.240   2.788
 5084SOL    HW116151   2.172   6.193   2.875
 5084SOL    HW216152   2.099   6.252   2.741
 5085SOL     OW16153   6.345   3.207   5.952
 5085SOL    HW116154   6.436   3.242   5.974
 5085SOL    HW216155   6.336   3.197   5.853
 5086SOL     OW16156   6.758   5.238   3.655
 5086SOL    HW116157   6.674   5.290   3.674
 5086SOL    HW216158   6.801   5.274   3.572
 5087SOL     OW16159   0.265   5.907   5.355
 5087SOL    HW116160   0.356   5.866   5.345
 5087SOL    HW216161   0.204   5.869   5.286
 5088SOL     OW16162   5.663   0.251   6.783
 5088SOL    HW116163   5.675   0.202   6.696
 5088SOL    HW216164   5.598   0.326   6.770
 5089SOL     OW16165   4.977   2.728   3.802
 5089SOL    HW116166   4.883   2.762   3.793
 5089SOL    HW216167   5.021   2.771   3.881
 5090SOL     OW16168   1.320   4.794   0.495
 5090SOL    HW116169   1.223   4.821   0.500
 5090SOL    HW216170   1.326   4.703   0.454
 5091SOL     OW16171   1.598   6.053   2.954
 5091SOL    HW116172   1.654   6.086   2.878
 5091SOL    HW216173   1.507   6.093   2.949
 5092SOL     OW16174   3.692   2.813   1.804
 5092SOL    HW116175   3.705   2.866   1.720
 5092SOL    HW216176   3.732   2.862   1.881
 5093SOL     OW16177   0.844   2.178   0.931
 5093SOL    HW116178   0.853   2.133   0.842
 5093SOL    HW216179   0.928   2.162   0.984
 5094SOL     OW16180   6.628   0.348   6.428
 5094SOL    HW116181   6.534   0.316   6.440
 5094SOL    HW216182   6.628   0.443   6.395
 5095SOL     OW16183   3.118   0.123   5.083
 5095SOL    HW116184   3.076   0.094   4.997
 5095SOL    HW216185   3.085   0.215   5.107
 5096SOL     OW16186   4.294   5.102   2.426
 5096SOL    HW116187   4.314   5.077   2.332
 5096SOL    HW216188   4.199   5.134   2.433
 5097SOL     OW16189   0.894   0.871   6.786
 5097SOL    HW116190   0.951   0.889   6.866
 5097SOL    HW216191   0.888   0.773   6.770
 5098SOL     OW16192   6.743   2.588   2.534
 5098SOL    HW116193   6.746   2.565   2.437
 5098SOL    HW216194   6.815   2.655   2.554
 5099SOL     OW16195   1.078   6.804   4.592
 5099SOL    HW116196   1.172   6.837   4.589
 5099SOL    HW216197   1.029   6.834   4.510
 5100SOL     OW16198   5.283   6.403   6.446
 5100SOL    HW116199   5.281   6.308   6.478
 5100SOL    HW216200   5.192   6.444   6.457
 5101SOL     OW16201   3.992   6.270   0.328
 5101SOL    HW116202   4.039   6.278   0.240
 5101SOL    HW216203   3.904   6.225   0.315
 5102SOL     OW16204   3.817   5.796   4.701
 5102SOL    HW116205   3.864   5.826   4.784
 5102SOL    HW216206   3.719   5.792   4.718
 5103SOL     OW16207   1.293   0.675   4.498
 5103SOL    HW116208   1.363   0.670   4.427
 5103SOL    HW216209   1.231   0.751   4.479
 5104SOL     OW16210   1.344   6.765   1.019
 5104SOL    HW116211   1.282   6.843   1.013
 5104SOL    HW216212   1.438   6.795   1.003
 5105SOL     OW16213   2.541   3.128   6.524
 5105SOL    HW116214   2.454   3.106   6.480
 5105SOL    HW216215   2.533   3.217   6.570
 5106SOL     OW16216   3.114   0.445   2.267
 5106SOL    HW116217   3.161   0.513   2.211
 5106SOL    HW216218   3.137   0.459   2.363
 5107SOL     OW16219   1.358   0.080   6.019
 5107SOL    HW116220   1.437   0.051   5.964
 5107SOL    HW216221   1.274   0.043   5.980
 5108SOL     OW16222   2.890   3.663   3.707
 5108SOL    HW116223   2.874   3.581   3.652
 5108SOL    HW216224   2.808   3.684   3.760
 5109SOL     OW16225   0.179   1.497   0.945
 5109SOL    HW116226   0.249   1.432   0.914
 5109SOL    HW216227   0.188   1.583   0.893
 5110SOL     OW16228   1.746   5.987   5.501
 5110SOL    HW116229   1.811   6.006   5.428
 5110SOL    HW216230   1.773   6.037   5.584
 5111SOL     OW16231   1.799   1.175   6.949
 5111SOL    HW116232   1.801   1.144   6.854
 5111SOL    HW216233   1.704   1.182   6.979
 5112SOL     OW16234   0.604   0.033   3.587
 5112SOL    HW116235   0.659   6.972   3.557
 5112SOL    HW216236   0.586   0.093   3.509
 5113SOL     OW16237   0.819   6.965   6.436
 5113SOL    HW116238   0.830   0.040   6.473
 5113SOL    HW216239   0.893   6.946   6.370
 5114SOL     OW16240   3.801   5.372   6.922
 5114SOL    HW116241   3.855   5.409   6.846
 5114SOL    HW216242   3.852   5.385   7.007
 5115SOL     OW16243   2.051   4.154   5.053
 5115SOL    HW116244   1.995   4.075   5.080
 5115SOL    HW216245   2.128   4.122   4.997
 5116SOL     OW16246   6.837   3.386   1.344
 5116SOL    HW116247   6.821   3.401   1.442
 5116SOL    HW216248   6.913   3.323   1.332
 5117SOL     OW16249   2.541   4.528   3.868
 5117SOL    HW116250   2.459   4.487   3.827
 5117SOL    HW216251   2.543   4.507   3.966
 5118SOL     OW16252   4.489   6.816   1.416
 5118SOL    HW116253   4.502   6.830   1.318
 5118SOL    HW216254   4.427   6.887   1.451
 5119SOL     OW16255   6.486   0.055   2.822
 5119SOL    HW116256   6.485   0.154   2.811
 5119SOL    HW216257   6.526   0.013   2.740
 5120SOL     OW16258   4.032   1.384   2.815
 5120SOL    HW116259   3.947   1.425   2.849
 5120SOL    HW216260   4.010   1.312   2.750
 5121SOL     OW16261   1.232   3.593   4.574
 5121SOL    HW116262   1.144   3.639   4.579
 5121SOL    HW216263   1.239   3.526   4.648
 5122SOL     OW16264   2.305   5.847   3.141
 5122SOL    HW116265   2.353   5.845   3.228
 5122SOL    HW216266   2.269   5.939   3.125
 5123SOL     OW16267   6.150   4.278   1.870
 5123SOL    HW116268   6.194   4.194   1.839
 5123SOL    HW216269   6.053   4.275   1.850
 5124SOL     OW16270   3.007   5.911   0.493
 5124SOL    HW116271   3.055   5.922   0.580
 5124SOL    HW216272   3.046   5.833   0.444
 5125SOL     OW16273   6.621   2.104   5.805
 5125SOL    HW116274   6.638   2.059   5.892
 5125SOL    HW216275   6.702   2.098   5.747
 5126SOL     OW16276   4.500   2.652   6.341
 5126SOL    HW116277   4.536   2.644   6.248
 5126SOL    HW216278   4.567   2.699   6.399
 5127SOL     OW16279   5.365   3.243   6.698
 5127SOL    HW116280   5.380   3.340   6.713
 5127SOL    HW216281   5.396   3.191   6.777
 5128SOL     OW16282   0.203   0.125   0.278
 5128SOL    HW116283   0.288   0.075   0.262
 5128SOL    HW216284   0.149   0.128   0.194
 5129SOL     OW16285   4.310   2.303   2.479
 5129SOL    HW116286   4.293   2.306   2.578
 5129SOL    HW216287   4.393   2.354   2.458
 5130SOL     OW16288   0.777   6.710   5.328
 5130SOL    HW116289   0.801   6.807   5.336
 5130SOL    HW216290   0.689   6.701   5.282
 5131SOL     OW16291   3.721   4.961   3.654
 5131SOL    HW116292   3.679   4.935   3.741
 5131SOL    HW216293   3.811   4.917   3.646
 5132SOL     OW16294   3.734   1.669   6.780
 5132SOL    HW116295   3.739   1.701   6.685
 5132SOL    HW216296   3.658   1.605   6.789
 5133SOL     OW16297   4.926   4.606   0.165
 5133SOL    HW116298   4.985   4.681   0.136
 5133SOL    HW216299   4.850   4.641   0.219
 5134SOL     OW16300   5.748   5.912   0.527
 5134SOL    HW116301   5.679   5.984   0.536
 5134SOL    HW216302   5.839   5.954   0.526
 5135SOL     OW16303   6.947   2.777   2.569
 5135SOL    HW116304   6.968   2.714   2.645
 5135SOL    HW216305   6.955   2.871   2.600
 5136SOL     OW16306   1.043   1.452   5.735
 5136SOL    HW116307   0.956   1.416   5.702
 5136SOL    HW216308   1.072   1.528   5.677
 5137SOL     OW16309   5.546   0.353   3.438
 5137SOL    HW116310   5.471   0.390   3.492
 5137SOL    HW216311   5.522   0.261   3.406
 5138SOL     OW16312   2.996   3.314   2.622
 5138SOL    HW116313   3.048   3.236   2.656
 5138SOL    HW216314   2.998   3.315   2.522
 5139SOL     OW16315   2.657   0.473   5.779
 5139SOL    HW116316   2.601   0.398   5.814
 5139SOL    HW216317   2.640   0.556   5.833
 5140SOL     OW16318   3.418   3.260   6.168
 5140SOL    HW116319   3.485   3.328   6.138
 5140SOL    HW216320   3.465   3.178   6.200
 5141SOL     OW16321   0.174   2.978   1.345
 5141SOL    HW116322   0.157   2.932   1.258
 5141SOL    HW216323   0.089   2.982   1.397
 5142SOL     OW16324   0.578   7.004   2.297
 5142SOL    HW116325   0.567   0.003   2.199
 5142SOL    HW216326   0.488   6.989   2.339
 5143SOL     OW16327   0.270   6.347   2.873
 5143SOL    HW116328   0.335   6.321   2.802
 5143SOL    HW216329   0.269   6.277   2.944
 5144SOL     OW16330   2.349   2.911   5.380
 5144SOL    HW116331   2.297   2.858   5.314
 5144SOL    HW216332   2.421   2.962   5.333
 5145SOL     OW16333   2.566   5.568   6.030
 5145SOL    HW116334   2.561   5.666   6.010
 5145SOL    HW216335   2.523   5.516   5.955
 5146SOL     OW16336   5.875   6.225   6.804
 5146SOL    HW116337   5.868   6.324   6.808
 5146SOL    HW216338   5.795   6.187   6.758
 5147SOL     OW16339   4.989   1.905   3.686
 5147SOL    HW116340   4.982   1.974   3.758
 5147SOL    HW216341   4.944   1.821   3.716
 5148SOL     OW16342   0.391   0.712   6.844
 5148SOL    HW116343   0.381   0.802   6.803
 5148SOL    HW216344   0.379   0.718   6.943
 5149SOL     OW16345   3.951   5.777   4.254
 5149SOL    HW116346   3.878   5.760   4.189
 5149SOL    HW216347   4.036   5.738   4.219
 5150SOL     OW16348   6.132   6.915   3.445
 5150SOL    HW116349   6.085   6.893   3.530
 5150SOL    HW216350   6.093   6.998   3.405
 5151SOL     OW16351   5.542   5.987   2.158
 5151SOL    HW116352   5.477   5.926   2.113
 5151SOL    HW216353   5.537   5.974   2.257
 5152SOL     OW16354   2.156   1.747   0.188
 5152SOL    HW116355   2.162   1.725   0.090
 5152SOL    HW216356   2.063   1.779   0.208
 5153SOL     OW16357   1.206   1.886   0.677
 5153SOL    HW116358   1.244   1.902   0.586
 5153SOL    HW216359   1.271   1.833   0.732
 5154SOL     OW16360   0.302   2.898   0.929
 5154SOL    HW116361   0.351   2.835   0.989
 5154SOL    HW216362   0.208   2.909   0.962
 5155SOL     OW16363   1.645   1.530   0.012
 5155SOL    HW116364   1.718   1.465   0.033
 5155SOL    HW216365   1.560   1.481   7.010
 5156SOL     OW16366   6.159   6.169   5.470
 5156SOL    HW116367   6.120   6.243   5.416
 5156SOL    HW216368   6.103   6.087   5.462
 5157SOL     OW16369   3.364   0.512   1.390
 5157SOL    HW116370   3.411   0.509   1.301
 5157SOL    HW216371   3.272   0.475   1.380
 5158SOL     OW16372   1.404   2.261   2.211
 5158SOL    HW116373   1.395   2.342   2.268
 5158SOL    HW216374   1.381   2.284   2.116
 5159SOL     OW16375   5.793   3.329   5.648
 5159SOL    HW116376   5.698   3.305   5.629
 5159SOL    HW216377   5.805   3.428   5.634
 5160SOL     OW16378   6.464   6.636   3.526
 5160SOL    HW116379   6.394   6.607   3.591
 5160SOL    HW216380   6.509   6.556   3.488
 5161SOL     OW16381   1.171   2.363   6.857
 5161SOL    HW116382   1.083   2.381   6.812
 5161SOL    HW216383   1.160   2.290   6.924
 5162SOL     OW16384   0.085   0.051   4.922
 5162SOL    HW116385   0.138   0.130   4.889
 5162SOL    HW216386   0.001   0.084   4.966
 5163SOL     OW16387   3.382   0.523   1.872
 5163SOL    HW116388   3.318   0.598   1.887
 5163SOL    HW216389   3.473   0.550   1.903
 5164SOL     OW16390   3.051   4.011   0.597
 5164SOL    HW116391   3.032   3.916   0.573
 5164SOL    HW216392   2.968   4.053   0.633
 5165SOL     OW16393   1.449   4.220   5.677
 5165SOL    HW116394   1.494   4.286   5.617
 5165SOL    HW216395   1.485   4.128   5.659
 5166SOL     OW16396   0.758   4.471   0.695
 5166SOL    HW116397   0.703   4.457   0.778
 5166SOL    HW216398   0.790   4.382   0.661
 5167SOL     OW16399   5.514   3.102   5.345
 5167SOL    HW116400   5.606   3.073   5.371
 5167SOL    HW216401   5.461   3.022   5.317
 5168SOL     OW16402   4.332   2.296   3.038
 5168SOL    HW116403   4.370   2.388   3.039
 5168SOL    HW216404   4.312   2.267   3.132
 5169SOL     OW16405   5.027   5.530   4.532
 5169SOL    HW116406   5.015   5.466   4.608
 5169SOL    HW216407   4.982   5.494   4.450
 5170SOL     OW16408   2.236   3.958   6.262
 5170SOL    HW116409   2.212   4.008   6.178
 5170SOL    HW216410   2.229   4.020   6.340
 5171SOL     OW16411   1.859   6.519   5.806
 5171SOL    HW116412   1.879   6.617   5.798
 5171SOL    HW216413   1.944   6.468   5.815
 5172SOL     OW16414   5.791   5.775   5.633
 5172SOL    HW116415   5.825   5.722   5.555
 5172SOL    HW216416   5.703   5.737   5.663
 5173SOL     OW16417   4.545   5.493   5.313
 5173SOL    HW116418   4.637   5.530   5.308
 5173SOL    HW216419   4.518   5.457   5.223
 5174SOL     OW16420   2.233   6.921   3.224
 5174SOL    HW116421   2.251   6.823   3.213
 5174SOL    HW216422   2.167   6.935   3.297
 5175SOL     OW16423   3.036   3.057   6.693
 5175SOL    HW116424   2.963   3.125   6.684
 5175SOL    HW216425   3.010   2.990   6.762
 5176SOL     OW16426   6.478   5.847   6.672
 5176SOL    HW116427   6.410   5.777   6.693
 5176SOL    HW216428   6.447   5.935   6.709
 5177SOL     OW16429   6.247   6.859   0.646
 5177SOL    HW116430   6.213   6.775   0.688
 5177SOL    HW216431   6.317   6.900   0.704
 5178SOL     OW16432   0.845   4.339   1.622
 5178SOL    HW116433   0.818   4.249   1.586
 5178SOL    HW216434   0.834   4.408   1.551
 5179SOL     OW16435   4.842   5.963   3.416
 5179SOL    HW116436   4.792   6.049   3.427
 5179SOL    HW216437   4.781   5.894   3.379
 5180SOL     OW16438   1.734   4.446   2.360
 5180SOL    HW116439   1.720   4.534   2.316
 5180SOL    HW216440   1.828   4.438   2.392
 5181SOL     OW16441   6.295   1.042   5.408
 5181SOL    HW116442   6.287   0.945   5.384
 5181SOL    HW216443   6.271   1.055   5.505
 5182SOL     OW16444   2.350   6.459   2.703
 5182SOL    HW116445   2.433   6.407   2.684
 5182SOL    HW216446   2.277   6.396   2.728
 5183SOL     OW16447   4.150   2.279   3.867
 5183SOL    HW116448   4.236   2.237   3.838
 5183SOL    HW216449   4.143   2.371   3.828
 5184SOL     OW16450   1.723   1.272   3.456
 5184SOL    HW116451   1.641   1.215   3.460
 5184SOL    HW216452   1.774   1.251   3.372
 5185SOL     OW16453   0.015   0.556   2.593
 5185SOL    HW116454   6.982   0.520   2.514
 5185SOL    HW216455   0.108   0.518   2.594
 5186SOL     OW16456   6.457   3.802   6.624
 5186SOL    HW116457   6.431   3.783   6.719
 5186SOL    HW216458   6.453   3.900   6.607
 5187SOL     OW16459   1.446   4.670   4.988
 5187SOL    HW116460   1.416   4.662   4.893
 5187SOL    HW216461   1.545   4.678   4.991
 5188SOL     OW16462   5.894   0.329   2.290
 5188SOL    HW116463   5.835   0.346   2.369
 5188SOL    HW216464   5.938   0.415   2.263
 5189SOL     OW16465   4.363   6.743   6.704
 5189SOL    HW116466   4.291   6.734   6.772
 5189SOL    HW216467   4.450   6.712   6.742
 5190SOL     OW16468   2.112   4.434   0.089
 5190SOL    HW116469   2.163   4.410   0.171
 5190SOL    HW216470   2.105   4.533   0.081
 5191SOL     OW16471   2.566   4.672   2.162
 5191SOL    HW116472   2.648   4.664   2.106
 5191SOL    HW216473   2.551   4.768   2.184
 5192SOL     OW16474   1.031   4.484   2.252
 5192SOL    HW116475   1.021   4.537   2.337
 5192SOL    HW216476   0.959   4.510   2.188
 5193SOL     OW16477   5.250   0.822   5.761
 5193SOL    HW116478   5.309   0.840   5.840
 5193SOL    HW216479   5.254   0.899   5.698
 5194SOL     OW16480   4.676   1.210   5.550
 5194SOL    HW116481   4.584   1.238   5.524
 5194SOL    HW216482   4.725   1.288   5.590
 5195SOL     OW16483   0.537   0.600   5.538
 5195SOL    HW116484   0.561   0.661   5.462
 5195SOL    HW216485   0.442   0.616   5.564
 5196SOL     OW16486   5.548   6.510   3.560
 5196SOL    HW116487   5.643   6.540   3.566
 5196SOL    HW216488   5.523   6.463   3.645
 5197SOL     OW16489   0.715   3.129   4.656
 5197SOL    HW116490   0.814   3.123   4.643
 5197SOL    HW216491   0.669   3.073   4.588
 5198SOL     OW16492   5.781   5.101   3.069
 5198SOL    HW116493   5.788   5.175   3.003
 5198SOL    HW216494   5.692   5.104   3.114
 5199SOL     OW16495   0.242   4.832   1.001
 5199SOL    HW116496   0.290   4.820   0.914
 5199SOL    HW216497   0.166   4.896   0.987
 5200SOL     OW16498   6.901   3.814   5.257
 5200SOL    HW116499   6.805   3.841   5.264
 5200SOL    HW216500   6.932   3.823   5.163
 5201SOL     OW16501   6.983   5.613   4.381
 5201SOL    HW116502   0.024   5.542   4.424
 5201SOL    HW216503   7.009   5.702   4.417
 5202SOL     OW16504   1.086   4.806   1.432
 5202SOL    HW116505   1.178   4.790   1.396
 5202SOL    HW216506   1.024   4.831   1.357
 5203SOL     OW16507   0.066   3.020   6.931
 5203SOL    HW116508   0.020   2.937   6.961
 5203SOL    HW216509   0.153   3.030   6.980
 5204SOL     OW16510   4.994   4.765   6.749
 5204SOL    HW116511   4.976   4.864   6.751
 5204SOL    HW216512   5.034   4.740   6.661
 5205SOL     OW16513   1.249   0.189   0.493
 5205SOL    HW116514   1.319   0.210   0.425
 5205SOL    HW216515   1.283   0.119   0.556
 5206SOL     OW16516   0.511   3.602   5.164
 5206SOL    HW116517   0.451   3.582   5.086
 5206SOL    HW216518   0.537   3.698   5.161
 5207SOL     OW16519   1.885   4.545   3.619
 5207SOL    HW116520   1.809   4.491   3.655
 5207SOL    HW216521   1.969   4.523   3.669
 5208SOL     OW16522   4.842   0.734   0.018
 5208SOL    HW116523   4.857   0.672   0.095
 5208SOL    HW216524   4.772   0.696   6.974
 5209SOL     OW16525   5.827   5.641   3.210
 5209SOL    HW116526   5.831   5.648   3.310
 5209SOL    HW216527   5.791   5.727   3.173
 5210SOL     OW16528   4.798   4.009   3.066
 5210SOL    HW116529   4.781   3.937   3.133
 5210SOL    HW216530   4.865   4.073   3.102
 5211SOL     OW16531   3.687   3.892   2.296
 5211SOL    HW116532   3.640   3.846   2.221
 5211SOL    HW216533   3.738   3.825   2.350
 5212SOL     OW16534   1.321   0.828   0.350
 5212SOL    HW116535   1.378   0.902   0.314
 5212SOL    HW216536   1.335   0.821   0.449
 5213SOL     OW16537   4.282   2.570   6.492
 5213SOL    HW116538   4.371   2.596   6.455
 5213SOL    HW216539   4.287   2.570   6.592
 5214SOL     OW16540   5.873   1.466   0.144
 5214SOL    HW116541   5.970   1.456   0.169
 5214SOL    HW216542   5.817   1.420   0.212
 5215SOL     OW16543   5.654   5.309   2.646
 5215SOL    HW116544   5.722   5.261   2.591
 5215SOL    HW216545   5.671   5.408   2.642
 5216SOL     OW16546   4.406   5.631   1.343
 5216SOL    HW116547   4.405   5.614   1.245
 5216SOL    HW216548   4.353   5.713   1.363
 5217SOL     OW16549   2.943   4.767   3.597
 5217SOL    HW116550   2.876   4.695   3.578
 5217SOL    HW216551   2.941   4.789   3.695
 5218SOL     OW16552   2.285   0.019   4.564
 5218SOL    HW116553   2.279   0.089   4.492
 5218SOL    HW216554   2.282   6.945   4.522
 5219SOL     OW16555   2.978   5.885   0.804
 5219SOL    HW116556   2.929   5.892   0.890
 5219SOL    HW216557   2.960   5.797   0.761
 5220SOL     OW16558   1.076   6.828   2.300
 5220SOL    HW116559   1.112   6.759   2.363
 5220SOL    HW216560   1.150   6.859   2.239
 5221SOL     OW16561   4.632   1.853   5.246
 5221SOL    HW116562   4.629   1.830   5.149
 5221SOL    HW216563   4.539   1.861   5.282
 5222SOL     OW16564   0.726   6.784   2.771
 5222SOL    HW116565   0.668   6.710   2.806
 5222SOL    HW216566   0.715   6.865   2.829
 5223SOL     OW16567   4.864   6.792   0.587
 5223SOL    HW116568   4.841   6.884   0.617
 5223SOL    HW216569   4.960   6.790   0.557
 5224SOL     OW16570   5.261   1.230   3.018
 5224SOL    HW116571   5.169   1.269   3.025
 5224SOL    HW216572   5.278   1.171   3.097
 5225SOL     OW16573   6.064   6.483   5.592
 5225SOL    HW116574   6.042   6.579   5.574
 5225SOL    HW216575   6.040   6.428   5.512
 5226SOL     OW16576   2.108   6.580   3.791
 5226SOL    HW116577   2.174   6.507   3.805
 5226SOL    HW216578   2.032   6.546   3.735
 5227SOL     OW16579   5.408   3.301   3.456
 5227SOL    HW116580   5.337   3.268   3.394
 5227SOL    HW216581   5.445   3.225   3.509
 5228SOL     OW16582   5.273   0.524   1.227
 5228SOL    HW116583   5.177   0.503   1.208
 5228SOL    HW216584   5.323   0.532   1.141
 5229SOL     OW16585   0.898   4.424   4.003
 5229SOL    HW116586   0.987   4.411   4.047
 5229SOL    HW216587   0.830   4.365   4.046
 5230SOL     OW16588   1.354   6.503   6.401
 5230SOL    HW116589   1.355   6.429   6.334
 5230SOL    HW216590   1.262   6.512   6.440
 5231SOL     OW16591   3.660   3.250   3.502
 5231SOL    HW116592   3.713   3.335   3.500
 5231SOL    HW216593   3.722   3.173   3.520
 5232SOL     OW16594   5.089   3.133   5.259
 5232SOL    HW116595   5.112   3.121   5.356
 5232SOL    HW216596   5.123   3.054   5.207
 5233SOL     OW16597   0.569   0.634   3.013
 5233SOL    HW116598   0.500   0.674   2.952
 5233SOL    HW216599   0.647   0.603   2.959
 5234SOL     OW16600   4.223   5.830   1.332
 5234SOL    HW116601   4.284   5.906   1.357
 5234SOL    HW216602   4.139   5.867   1.294
 5235SOL     OW16603   0.964   3.644   1.001
 5235SOL    HW116604   0.973   3.546   0.986
 5235SOL    HW216605   0.922   3.660   1.091
 5236SOL     OW16606   5.042   3.439   0.903
 5236SOL    HW116607   5.103   3.361   0.891
 5236SOL    HW216608   4.995   3.459   0.818
 5237SOL     OW16609   2.212   2.093   4.190
 5237SOL    HW116610   2.211   2.044   4.278
 5237SOL    HW216611   2.277   2.048   4.128
 5238SOL     OW16612   1.892   4.087   1.094
 5238SOL    HW116613   1.835   4.156   1.138
 5238SOL    HW216614   1.833   4.018   1.051
 5239SOL     OW16615   3.316   3.512   5.114
 5239SOL    HW116616   3.269   3.497   5.028
 5239SOL    HW216617   3.360   3.602   5.114
 5240SOL     OW16618   2.518   1.931   4.982
 5240SOL    HW116619   2.451   1.869   4.943
 5240SOL    HW216620   2.521   1.918   5.082
 5241SOL     OW16621   2.985   5.626   5.573
 5241SOL    HW116622   2.917   5.697   5.592
 5241SOL    HW216623   3.074   5.669   5.558
 5242SOL     OW16624   4.336   0.945   5.835
 5242SOL    HW116625   4.278   0.877   5.880
 5242SOL    HW216626   4.371   1.010   5.903
 5243SOL     OW16627   0.603   4.122   0.104
 5243SOL    HW116628   0.674   4.058   0.132
 5243SOL    HW216629   0.610   4.206   0.158
 5244SOL     OW16630   6.076   3.707   6.757
 5244SOL    HW116631   6.063   3.661   6.669
 5244SOL    HW216632   6.028   3.657   6.828
 5245SOL     OW16633   4.617   4.334   6.653
 5245SOL    HW116634   4.535   4.279   6.637
 5245SOL    HW216635   4.678   4.286   6.716
 5246SOL     OW16636   0.887   3.413   2.874
 5246SOL    HW116637   0.897   3.374   2.782
 5246SOL    HW216638   0.976   3.441   2.908
 5247SOL     OW16639   0.395   5.440   0.952
 5247SOL    HW116640   0.359   5.359   0.905
 5247SOL    HW216641   0.343   5.521   0.923
 5248SOL     OW16642   4.501   0.017   6.812
 5248SOL    HW116643   4.471   0.040   6.720
 5248SOL    HW216644   4.601   0.023   6.818
 5249SOL     OW16645   1.463   5.284   5.657
 5249SOL    HW116646   1.508   5.208   5.610
 5249SOL    HW216647   1.366   5.264   5.667
 5250SOL     OW16648   0.425   1.323   5.846
 5250SOL    HW116649   0.425   1.385   5.768
 5250SOL    HW216650   0.443   1.375   5.930
 5251SOL     OW16651   0.425   3.018   1.439
 5251SOL    HW116652   0.337   2.989   1.403
 5251SOL    HW216653   0.415   3.105   1.488
 5252SOL     OW16654   4.152   6.256   0.562
 5252SOL    HW116655   4.083   6.297   0.503
 5252SOL    HW216656   4.215   6.327   0.594
 5253SOL     OW16657   5.930   2.615   3.901
 5253SOL    HW116658   5.835   2.620   3.932
 5253SOL    HW216659   5.932   2.603   3.802
 5254SOL     OW16660   4.368   0.932   4.033
 5254SOL    HW116661   4.306   0.854   4.047
 5254SOL    HW216662   4.440   0.929   4.102
 5255SOL     OW16663   3.445   6.705   4.438
 5255SOL    HW116664   3.428   6.714   4.339
 5255SOL    HW216665   3.511   6.632   4.453
 5256SOL     OW16666   5.770   6.663   2.387
 5256SOL    HW116667   5.800   6.728   2.457
 5256SOL    HW216668   5.711   6.594   2.428
 5257SOL     OW16669   3.238   1.253   2.607
 5257SOL    HW116670   3.248   1.220   2.513
 5257SOL    HW216671   3.185   1.337   2.607
 5258SOL     OW16672   5.923   2.332   1.956
 5258SOL    HW116673   5.982   2.375   1.888
 5258SOL    HW216674   5.979   2.291   2.028
 5259SOL     OW16675   5.255   4.157   2.030
 5259SOL    HW116676   5.298   4.176   2.118
 5259SOL    HW216677   5.162   4.192   2.029
 5260SOL     OW16678   5.206   3.150   1.923
 5260SOL    HW116679   5.257   3.229   1.888
 5260SOL    HW216680   5.152   3.110   1.849
 5261SOL     OW16681   2.272   2.433   4.460
 5261SOL    HW116682   2.285   2.520   4.508
 5261SOL    HW216683   2.203   2.379   4.507
 5262SOL     OW16684   2.293   0.403   2.166
 5262SOL    HW116685   2.291   0.455   2.081
 5262SOL    HW216686   2.204   0.362   2.182
 5263SOL     OW16687   0.753   6.435   1.017
 5263SOL    HW116688   0.730   6.430   0.920
 5263SOL    HW216689   0.789   6.346   1.048
 5264SOL     OW16690   0.582   2.283   0.634
 5264SOL    HW116691   0.667   2.331   0.657
 5264SOL    HW216692   0.540   2.248   0.717
 5265SOL     OW16693   6.037   4.748   2.551
 5265SOL    HW116694   6.033   4.782   2.645
 5265SOL    HW216695   6.129   4.762   2.514
 5266SOL     OW16696   1.235   6.740   1.246
 5266SOL    HW116697   1.188   6.824   1.272
 5266SOL    HW216698   1.274   6.750   1.154
 5267SOL     OW16699   5.090   4.128   4.947
 5267SOL    HW116700   5.040   4.209   4.916
 5267SOL    HW216701   5.039   4.084   5.021
 5268SOL     OW16702   5.544   4.858   5.509
 5268SOL    HW116703   5.627   4.893   5.552
 5268SOL    HW216704   5.534   4.761   5.531
 5269SOL     OW16705   1.177   4.742   5.091
 5269SOL    HW116706   1.179   4.695   5.180
 5269SOL    HW216707   1.268   4.778   5.071
 5270SOL     OW16708   6.678   3.248   2.964
 5270SOL    HW116709   6.725   3.234   3.051
 5270SOL    HW216710   6.657   3.159   2.923
 5271SOL     OW16711   4.946   4.498   5.096
 5271SOL    HW116712   4.984   4.443   5.171
 5271SOL    HW216713   5.021   4.536   5.041
 5272SOL     OW16714   1.703   1.141   4.047
 5272SOL    HW116715   1.644   1.107   4.120
 5272SOL    HW216716   1.648   1.196   3.984
 5273SOL     OW16717   0.863   0.549   4.586
 5273SOL    HW116718   0.941   0.565   4.647
 5273SOL    HW216719   0.875   0.603   4.503
 5274SOL     OW16720   6.579   5.061   4.538
 5274SOL    HW116721   6.503   5.002   4.512
 5274SOL    HW216722   6.650   5.057   4.468
 5275SOL     OW16723   2.440   6.256   6.460
 5275SOL    HW116724   2.345   6.243   6.487
 5275SOL    HW216725   2.498   6.259   6.542
 5276SOL     OW16726   6.994   0.494   1.342
 5276SOL    HW116727   6.918   0.435   1.312
 5276SOL    HW216728   6.962   0.554   1.415
 5277SOL     OW16729   1.274   1.701   2.672
 5277SOL    HW116730   1.209   1.672   2.602
 5277SOL    HW216731   1.297   1.624   2.731
 5278SOL     OW16732   0.742   4.062   6.343
 5278SOL    HW116733   0.724   4.083   6.247
 5278SOL    HW216734   0.662   4.085   6.398
 5279SOL     OW16735   2.278   6.612   6.470
 5279SOL    HW116736   2.182   6.590   6.488
 5279SOL    HW216737   2.334   6.531   6.485
 5280SOL     OW16738   4.590   6.609   5.122
 5280SOL    HW116739   4.680   6.611   5.078
 5280SOL    HW216740   4.574   6.518   5.160
 5281SOL     OW16741   2.736   6.873   5.246
 5281SOL    HW116742   2.714   6.831   5.334
 5281SOL    HW216743   2.780   6.805   5.188
 5282SOL     OW16744   0.994   6.349   1.793
 5282SOL    HW116745   0.944   6.262   1.789
 5282SOL    HW216746   0.937   6.421   1.754
 5283SOL     OW16747   1.128   0.858   4.206
 5283SOL    HW116748   1.097   0.764   4.193
 5283SOL    HW216749   1.061   0.921   4.167
 5284SOL     OW16750   4.628   2.881   1.640
 5284SOL    HW116751   4.619   2.938   1.721
 5284SOL    HW216752   4.721   2.846   1.634
 5285SOL     OW16753   1.465   2.119   4.496
 5285SOL    HW116754   1.405   2.150   4.570
 5285SOL    HW216755   1.522   2.044   4.529
 5286SOL     OW16756   5.681   2.844   1.243
 5286SOL    HW116757   5.720   2.839   1.335
 5286SOL    HW216758   5.739   2.794   1.179
 5287SOL     OW16759   2.005   5.006   1.358
 5287SOL    HW116760   2.049   4.979   1.444
 5287SOL    HW216761   1.979   4.924   1.307
 5288SOL     OW16762   4.037   0.542   1.329
 5288SOL    HW116763   4.040   0.477   1.405
 5288SOL    HW216764   3.973   0.616   1.352
 5289SOL     OW16765   2.445   5.003   5.876
 5289SOL    HW116766   2.360   4.951   5.866
 5289SOL    HW216767   2.453   5.034   5.971
 5290SOL     OW16768   1.598   3.352   4.394
 5290SOL    HW116769   1.605   3.442   4.352
 5290SOL    HW216770   1.685   3.328   4.438
 5291SOL     OW16771   2.651   4.640   4.593
 5291SOL    HW116772   2.680   4.698   4.669
 5291SOL    HW216773   2.575   4.582   4.623
 5292SOL     OW16774   0.375   4.082   5.391
 5292SOL    HW116775   0.361   4.080   5.490
 5292SOL    HW216776   0.414   4.170   5.365
 5293SOL     OW16777   2.508   6.994   4.273
 5293SOL    HW116778   2.492   0.055   4.333
 5293SOL    HW216779   2.433   6.985   4.208
 5294SOL     OW16780   3.946   0.172   5.318
 5294SOL    HW116781   3.959   0.256   5.265
 5294SOL    HW216782   4.031   0.149   5.365
 5295SOL     OW16783   2.964   1.556   2.421
 5295SOL    HW116784   2.968   1.649   2.386
 5295SOL    HW216785   2.969   1.490   2.346
 5296SOL     OW16786   4.588   4.821   1.465
 5296SOL    HW116787   4.640   4.741   1.434
 5296SOL    HW216788   4.638   4.866   1.539
 5297SOL     OW16789   3.054   5.001   0.174
 5297SOL    HW116790   3.071   4.903   0.165
 5297SOL    HW216791   2.974   5.016   0.232
 5298SOL     OW16792   1.885   0.432   0.328
 5298SOL    HW116793   1.912   0.337   0.344
 5298SOL    HW216794   1.879   0.480   0.416
 5299SOL     OW16795   2.615   1.221   1.472
 5299SOL    HW116796   2.669   1.157   1.527
 5299SOL    HW216797   2.554   1.273   1.533
 5300SOL     OW16798   2.713   4.788   6.682
 5300SOL    HW116799   2.730   4.739   6.597
 5300SOL    HW216800   2.777   4.757   6.752
 5301SOL     OW16801   5.233   6.809   5.907
 5301SOL    HW116802   5.271   6.882   5.851
 5301SOL    HW216803   5.164   6.847   5.969
 5302SOL     OW16804   5.644   6.072   3.553
 5302SOL    HW116805   5.557   6.101   3.512
 5302SOL    HW216806   5.717   6.082   3.485
 5303SOL     OW16807   0.975   5.391   6.115
 5303SOL    HW116808   1.035   5.407   6.193
 5303SOL    HW216809   0.897   5.453   6.119
 5304SOL     OW16810   6.827   0.759   2.367
 5304SOL    HW116811   6.894   0.740   2.439
 5304SOL    HW216812   6.757   0.688   2.368
 5305SOL     OW16813   0.672   5.094   3.474
 5305SOL    HW116814   0.716   5.004   3.471
 5305SOL    HW216815   0.626   5.105   3.562
 5306SOL     OW16816   0.068   3.222   6.011
 5306SOL    HW116817   0.057   3.319   6.030
 5306SOL    HW216818   0.094   3.208   5.916
 5307SOL     OW16819   6.609   1.686   1.664
 5307SOL    HW116820   6.680   1.638   1.716
 5307SOL    HW216821   6.564   1.754   1.723
 5308SOL     OW16822   1.792   4.159   3.053
 5308SOL    HW116823   1.886   4.167   3.085
 5308SOL    HW216824   1.788   4.096   2.976
 5309SOL     OW16825   6.152   5.779   2.463
 5309SOL    HW116826   6.237   5.821   2.434
 5309SOL    HW216827   6.082   5.849   2.475
 5310SOL     OW16828   5.209   2.644   2.586
 5310SOL    HW116829   5.118   2.634   2.545
 5310SOL    HW216830   5.231   2.561   2.638
 5311SOL     OW16831   5.677   0.140   0.594
 5311SOL    HW116832   5.688   0.236   0.621
 5311SOL    HW216833   5.738   0.082   0.649
 5312SOL     OW16834   6.760   6.742   0.641
 5312SOL    HW116835   6.845   6.717   0.688
 5312SOL    HW216836   6.777   6.821   0.582
 5313SOL     OW16837   1.236   5.969   5.501
 5313SOL    HW116838   1.289   5.887   5.478
 5313SOL    HW216839   1.141   5.943   5.519
 5314SOL     OW16840   6.072   0.962   2.137
 5314SOL    HW116841   6.084   0.870   2.172
 5314SOL    HW216842   6.150   0.988   2.080
 5315SOL     OW16843   4.613   1.322   4.379
 5315SOL    HW116844   4.708   1.351   4.370
 5315SOL    HW216845   4.598   1.240   4.323
 5316SOL     OW16846   0.599   2.189   4.400
 5316SOL    HW116847   0.543   2.255   4.449
 5316SOL    HW216848   0.691   2.225   4.388
 5317SOL     OW16849   5.854   2.207   6.514
 5317SOL    HW116850   5.781   2.148   6.480
 5317SOL    HW216851   5.815   2.289   6.556
 5318SOL     OW16852   6.747   3.963   6.463
 5318SOL    HW116853   6.663   4.018   6.469
 5318SOL    HW216854   6.743   3.889   6.530
 5319SOL     OW16855   4.186   6.727   1.380
 5319SOL    HW116856   4.279   6.731   1.342
 5319SOL    HW216857   4.120   6.748   1.308
 5320SOL     OW16858   3.105   6.154   0.818
 5320SOL    HW116859   3.057   6.069   0.838
 5320SOL    HW216860   3.090   6.179   0.723
 5321SOL     OW16861   1.678   4.410   4.400
 5321SOL    HW116862   1.654   4.419   4.496
 5321SOL    HW216863   1.769   4.450   4.384
 5322SOL     OW16864   5.492   6.591   2.175
 5322SOL    HW116865   5.581   6.622   2.141
 5322SOL    HW216866   5.504   6.549   2.265
 5323SOL     OW16867   3.910   1.176   5.916
 5323SOL    HW116868   3.956   1.205   5.999
 5323SOL    HW216869   3.974   1.127   5.857
 5324SOL     OW16870   2.115   1.278   0.903
 5324SOL    HW116871   2.100   1.184   0.873
 5324SOL    HW216872   2.213   1.299   0.902
 5325SOL     OW16873   2.113   1.735   4.712
 5325SOL    HW116874   2.188   1.759   4.774
 5325SOL    HW216875   2.142   1.663   4.650
 5326SOL     OW16876   6.238   6.157   2.557
 5326SOL    HW116877   6.334   6.169   2.532
 5326SOL    HW216878   6.188   6.241   2.536
 5327SOL     OW16879   6.010   2.324   4.852
 5327SOL    HW116880   6.030   2.338   4.949
 5327SOL    HW216881   6.094   2.331   4.799
 5328SOL     OW16882   4.490   4.975   6.719
 5328SOL    HW116883   4.556   4.982   6.795
 5328SOL    HW216884   4.399   4.998   6.753
 5329SOL     OW16885   1.122   6.587   6.518
 5329SOL    HW116886   1.155   6.671   6.562
 5329SOL    HW216887   1.045   6.608   6.459
 5330SOL     OW16888   2.683   3.951   0.763
 5330SOL    HW116889   2.598   3.958   0.814
 5330SOL    HW216890   2.720   3.859   0.773
 5331SOL     OW16891   5.995   0.600   6.696
 5331SOL    HW116892   5.957   0.657   6.623
 5331SOL    HW216893   6.091   0.625   6.712
 5332SOL     OW16894   1.254   4.862   2.257
 5332SOL    HW116895   1.202   4.858   2.342
 5332SOL    HW216896   1.191   4.874   2.180
 5333SOL     OW16897   0.539   6.034   4.211
 5333SOL    HW116898   0.605   6.012   4.140
 5333SOL    HW216899   0.448   6.045   4.170
 5334SOL     OW16900   2.941   0.157   4.316
 5334SOL    HW116901   3.002   0.083   4.344
 5334SOL    HW216902   2.891   0.191   4.395
 5335SOL     OW16903   6.658   5.780   0.371
 5335SOL    HW116904   6.676   5.862   0.317
 5335SOL    HW216905   6.587   5.799   0.439
 5336SOL     OW16906   1.261   3.936   1.436
 5336SOL    HW116907   1.248   3.845   1.477
 5336SOL    HW216908   1.220   4.005   1.495
 5337SOL     OW16909   5.397   4.411   1.216
 5337SOL    HW116910   5.400   4.499   1.263
 5337SOL    HW216911   5.303   4.376   1.218
 5338SOL     OW16912   6.185   2.381   6.145
 5338SOL    HW116913   6.123   2.365   6.222
 5338SOL    HW216914   6.259   2.441   6.174
 5339SOL     OW16915   6.376   1.486   3.313
 5339SOL    HW116916   6.376   1.397   3.267
 5339SOL    HW216917   6.336   1.555   3.253
 5340SOL     OW16918   5.190   2.114   6.273
 5340SOL    HW116919   5.287   2.093   6.262
 5340SOL    HW216920   5.136   2.039   6.238
 5341SOL     OW16921   4.246   0.562   0.482
 5341SOL    HW116922   4.260   0.661   0.481
 5341SOL    HW216923   4.335   0.516   0.479
 5342SOL     OW16924   3.342   0.904   5.435
 5342SOL    HW116925   3.250   0.918   5.471
 5342SOL    HW216926   3.367   0.808   5.443
 5343SOL     OW16927   3.785   3.688   2.471
 5343SOL    HW116928   3.878   3.726   2.476
 5343SOL    HW216929   3.772   3.621   2.544
 5344SOL     OW16930   2.495   2.136   3.074
 5344SOL    HW116931   2.410   2.120   3.124
 5344SOL    HW216932   2.476   2.192   2.993
 5345SOL     OW16933   4.629   6.682   1.617
 5345SOL    HW116934   4.722   6.714   1.636
 5345SOL    HW216935   4.590   6.736   1.542
 5346SOL     OW16936   2.479   6.415   3.197
 5346SOL    HW116937   2.475   6.403   3.297
 5346SOL    HW216938   2.410   6.357   3.154
 5347SOL     OW16939   6.988   1.655   1.457
 5347SOL    HW116940   7.014   1.560   1.438
 5347SOL    HW216941   6.896   1.672   1.421
 5348SOL     OW16942   0.483   1.346   0.154
 5348SOL    HW116943   0.458   1.249   0.159
 5348SOL    HW216944   0.479   1.376   0.059
 5349SOL     OW16945   6.209   0.763   1.592
 5349SOL    HW116946   6.280   0.786   1.659
 5349SOL    HW216947   6.201   0.663   1.585
 5350SOL     OW16948   2.969   1.347   6.385
 5350SOL    HW116949   2.885   1.311   6.426
 5350SOL    HW216950   2.962   1.447   6.378
 5351SOL     OW16951   4.517   0.060   2.293
 5351SOL    HW116952   4.518   0.099   2.385
 5351SOL    HW216953   4.424   0.064   2.256
 5352SOL     OW16954   3.392   5.661   3.657
 5352SOL    HW116955   3.402   5.697   3.750
 5352SOL    HW216956   3.397   5.561   3.660
 5353SOL     OW16957   5.836   6.128   5.344
 5353SOL    HW116958   5.789   6.061   5.401
 5353SOL    HW216959   5.781   6.148   5.263
 5354SOL     OW16960   0.731   4.038   1.042
 5354SOL    HW116961   0.740   4.137   1.036
 5354SOL    HW216962   0.651   4.015   1.098
 5355SOL     OW16963   4.396   2.016   5.044
 5355SOL    HW116964   4.353   1.933   5.079
 5355SOL    HW216965   4.387   2.089   5.112
 5356SOL     OW16966   6.210   3.458   1.096
 5356SOL    HW116967   6.112   3.442   1.107
 5356SOL    HW216968   6.249   3.486   1.183
 5357SOL     OW16969   3.420   6.776   0.407
 5357SOL    HW116970   3.468   6.725   0.336
 5357SOL    HW216971   3.391   6.865   0.370
 5358SOL     OW16972   4.775   2.981   0.888
 5358SOL    HW116973   4.713   2.905   0.908
 5358SOL    HW216974   4.853   2.977   0.950
 5359SOL     OW16975   1.970   0.636   6.625
 5359SOL    HW116976   2.025   0.592   6.554
 5359SOL    HW216977   2.022   0.711   6.666
 5360SOL     OW16978   3.337   0.036   6.874
 5360SOL    HW116979   3.408   0.098   6.840
 5360SOL    HW216980   3.348   0.023   6.973
 5361SOL     OW16981   2.004   0.805   5.667
 5361SOL    HW116982   1.927   0.830   5.608
 5361SOL    HW216983   2.048   0.888   5.701
 5362SOL     OW16984   4.603   5.438   2.950
 5362SOL    HW116985   4.642   5.348   2.971
 5362SOL    HW216986   4.602   5.451   2.851
 5363SOL     OW16987   0.722   5.536   6.110
 5363SOL    HW116988   0.652   5.477   6.069
 5363SOL    HW216989   0.706   5.631   6.081
 5364SOL     OW16990   0.677   6.059   0.606
 5364SOL    HW116991   0.646   6.148   0.639
 5364SOL    HW216992   0.711   6.005   0.682
 5365SOL     OW16993   4.238   2.157   6.182
 5365SOL    HW116994   4.269   2.222   6.251
 5365SOL    HW216995   4.311   2.143   6.114
 5366SOL     OW16996   4.186   3.198   0.094
 5366SOL    HW116997   4.218   3.191   7.016
 5366SOL    HW216998   4.093   3.236   0.095
 5367SOL     OW16999   0.025   4.988   0.971
 5367SOL    HW117000   6.987   5.025   1.046
 5367SOL    HW217001   6.998   4.906   0.934
 5368SOL     OW17002   6.036   1.304   3.708
 5368SOL    HW117003   6.058   1.288   3.612
 5368SOL    HW217004   6.114   1.278   3.765
 5369SOL     OW17005   2.030   3.880   2.741
 5369SOL    HW117006   2.058   3.805   2.681
 5369SOL    HW217007   2.104   3.948   2.745
 5370SOL     OW17008   4.111   3.033   1.498
 5370SOL    HW117009   4.113   2.999   1.592
 5370SOL    HW217010   4.062   3.120   1.495
 5371SOL     OW17011   0.822   3.753   5.234
 5371SOL    HW117012   0.751   3.796   5.290
 5371SOL    HW217013   0.841   3.810   5.154
 5372SOL     OW17014   2.839   5.298   2.866
 5372SOL    HW117015   2.797   5.209   2.850
 5372SOL    HW217016   2.845   5.349   2.780
 5373SOL     OW17017   2.985   4.820   3.144
 5373SOL    HW117018   2.911   4.762   3.111
 5373SOL    HW217019   2.978   4.911   3.102
 5374SOL     OW17020   2.702   2.191   0.680
 5374SOL    HW117021   2.675   2.274   0.727
 5374SOL    HW217022   2.744   2.127   0.745
 5375SOL     OW17023   1.737   4.845   3.821
 5375SOL    HW117024   1.814   4.866   3.761
 5375SOL    HW217025   1.764   4.861   3.916
 5376SOL     OW17026   2.059   3.881   0.767
 5376SOL    HW117027   1.966   3.856   0.742
 5376SOL    HW217028   2.122   3.807   0.740
 5377SOL     OW17029   0.357   1.859   1.074
 5377SOL    HW117030   0.455   1.841   1.085
 5377SOL    HW217031   0.334   1.946   1.118
 5378SOL     OW17032   5.227   0.533   0.639
 5378SOL    HW117033   5.208   0.631   0.639
 5378SOL    HW217034   5.187   0.491   0.721
 5379SOL     OW17035   0.043   6.445   1.895
 5379SOL    HW117036   0.122   6.462   1.955
 5379SOL    HW217037   0.073   6.447   1.800
 5380SOL     OW17038   3.213   0.326   4.391
 5380SOL    HW117039   3.288   0.375   4.348
 5380SOL    HW217040   3.128   0.344   4.340
 5381SOL     OW17041   5.840   4.061   1.613
 5381SOL    HW117042   5.922   4.043   1.559
 5381SOL    HW217043   5.759   4.055   1.554
 5382SOL     OW17044   1.818   0.137   1.537
 5382SOL    HW117045   1.799   0.080   1.617
 5382SOL    HW217046   1.901   0.190   1.553
 5383SOL     OW17047   2.180   2.105   5.170
 5383SOL    HW117048   2.268   2.105   5.218
 5383SOL    HW217049   2.123   2.179   5.204
 5384SOL     OW17050   5.862   6.554   4.394
 5384SOL    HW117051   5.781   6.541   4.451
 5384SOL    HW217052   5.924   6.476   4.406
 5385SOL     OW17053   3.502   4.124   2.343
 5385SOL    HW117054   3.535   4.170   2.425
 5385SOL    HW217055   3.567   4.054   2.315
 5386SOL     OW17056   5.272   6.130   5.150
 5386SOL    HW117057   5.356   6.112   5.099
 5386SOL    HW217058   5.295   6.157   5.244
 5387SOL     OW17059   2.667   5.652   1.880
 5387SOL    HW117060   2.673   5.748   1.854
 5387SOL    HW217061   2.758   5.611   1.875
 5388SOL     OW17062   5.692   0.267   2.833
 5388SOL    HW117063   5.726   0.311   2.916
 5388SOL    HW217064   5.610   0.315   2.802
 5389SOL     OW17065   4.937   2.150   1.210
 5389SOL    HW117066   5.014   2.206   1.240
 5389SOL    HW217067   4.956   2.054   1.230
 5390SOL     OW17068   6.143   5.098   6.344
 5390SOL    HW117069   6.207   5.074   6.271
 5390SOL    HW217070   6.148   5.030   6.417
 5391SOL     OW17071   2.478   3.300   6.785
 5391SOL    HW117072   2.417   3.377   6.774
 5391SOL    HW217073   2.556   3.327   6.843
 5392SOL     OW17074   6.066   2.894   2.380
 5392SOL    HW117075   6.003   2.888   2.303
 5392SOL    HW217076   6.158   2.912   2.347
 5393SOL     OW17077   6.655   0.123   6.884
 5393SOL    HW117078   6.705   0.037   6.875
 5393SOL    HW217079   6.666   0.177   6.801
 5394SOL     OW17080   0.913   3.986   5.833
 5394SOL    HW117081   0.878   3.973   5.740
 5394SOL    HW217082   0.986   3.919   5.851
 5395SOL     OW17083   4.296   1.696   0.129
 5395SOL    HW117084   4.383   1.663   0.167
 5395SOL    HW217085   4.290   1.672   0.033
 5396SOL     OW17086   5.322   3.328   2.629
 5396SOL    HW117087   5.371   3.397   2.575
 5396SOL    HW217088   5.229   3.318   2.594
 5397SOL     OW17089   0.197   3.319   1.536
 5397SOL    HW117090   0.254   3.375   1.475
 5397SOL    HW217091   0.115   3.290   1.487
 5398SOL     OW17092   3.358   2.875   1.915
 5398SOL    HW117093   3.395   2.788   1.882
 5398SOL    HW217094   3.296   2.858   1.991
 5399SOL     OW17095   1.260   5.609   0.907
 5399SOL    HW117096   1.347   5.561   0.903
 5399SOL    HW217097   1.275   5.707   0.903
 5400SOL     OW17098   2.723   4.702   0.547
 5400SOL    HW117099   2.793   4.772   0.559
 5400SOL    HW217100   2.632   4.742   0.557
 5401SOL     OW17101   5.987   3.058   1.448
 5401SOL    HW117102   5.965   2.961   1.444
 5401SOL    HW217103   6.085   3.070   1.436
 5402SOL     OW17104   1.212   6.189   2.412
 5402SOL    HW117105   1.129   6.157   2.365
 5402SOL    HW217106   1.229   6.284   2.387
 5403SOL     OW17107   6.992   2.783   6.356
 5403SOL    HW117108   0.074   2.787   6.344
 5403SOL    HW217109   6.967   2.823   6.444
 5404SOL     OW17110   1.817   3.302   3.046
 5404SOL    HW117111   1.910   3.328   3.024
 5404SOL    HW217112   1.799   3.209   3.013
 5405SOL     OW17113   6.756   4.845   6.198
 5405SOL    HW117114   6.738   4.759   6.246
 5405SOL    HW217115   6.694   4.916   6.233
 5406SOL     OW17116   2.116   0.394   5.222
 5406SOL    HW117117   2.115   0.390   5.322
 5406SOL    HW217118   2.209   0.378   5.189
 5407SOL     OW17119   3.723   3.516   6.423
 5407SOL    HW117120   3.642   3.563   6.458
 5407SOL    HW217121   3.719   3.419   6.446
 5408SOL     OW17122   2.817   1.124   6.865
 5408SOL    HW117123   2.719   1.143   6.864
 5408SOL    HW217124   2.832   1.025   6.866
 5409SOL     OW17125   3.852   1.050   2.381
 5409SOL    HW117126   3.806   0.993   2.313
 5409SOL    HW217127   3.802   1.137   2.390
 5410SOL     OW17128   2.507   2.183   2.181
 5410SOL    HW117129   2.550   2.134   2.257
 5410SOL    HW217130   2.574   2.246   2.140
 5411SOL     OW17131   0.467   5.441   4.743
 5411SOL    HW117132   0.533   5.384   4.792
 5411SOL    HW217133   0.393   5.468   4.805
 5412SOL     OW17134   6.150   2.890   1.137
 5412SOL    HW117135   6.117   2.800   1.107
 5412SOL    HW217136   6.075   2.956   1.132
 5413SOL     OW17137   2.110   0.590   1.859
 5413SOL    HW117138   2.057   0.505   1.851
 5413SOL    HW217139   2.188   0.586   1.797
 5414SOL     OW17140   3.923   0.882   5.248
 5414SOL    HW117141   4.020   0.899   5.230
 5414SOL    HW217142   3.894   0.799   5.199
 5415SOL     OW17143   5.955   5.154   1.999
 5415SOL    HW117144   5.957   5.247   2.036
 5415SOL    HW217145   6.045   5.128   1.966
 5416SOL     OW17146   4.643   5.485   4.414
 5416SOL    HW117147   4.695   5.409   4.453
 5416SOL    HW217148   4.555   5.451   4.379
 5417SOL     OW17149   3.214   6.870   4.852
 5417SOL    HW117150   3.231   6.839   4.758
 5417SOL    HW217151   3.166   6.958   4.850
 5418SOL     OW17152   3.781   0.518   2.885
 5418SOL    HW117153   3.763   0.593   2.949
 5418SOL    HW217154   3.731   0.436   2.914
 5419SOL     OW17155   3.542   4.224   6.819
 5419SOL    HW117156   3.551   4.300   6.883
 5419SOL    HW217157   3.446   4.195   6.814
 5420SOL     OW17158   1.045   1.083   3.016
 5420SOL    HW117159   1.057   1.148   2.941
 5420SOL    HW217160   1.065   0.991   2.984
 5421SOL     OW17161   1.599   3.605   1.858
 5421SOL    HW117162   1.566   3.600   1.764
 5421SOL    HW217163   1.681   3.663   1.861
 5422SOL     OW17164   2.357   3.542   0.910
 5422SOL    HW117165   2.316   3.517   0.998
 5422SOL    HW217166   2.393   3.460   0.865
 5423SOL     OW17167   5.889   3.528   6.888
 5423SOL    HW117168   5.877   3.580   6.972
 5423SOL    HW217169   5.811   3.542   6.828
 5424SOL     OW17170   5.289   4.338   5.060
 5424SOL    HW117171   5.357   4.269   5.035
 5424SOL    HW217172   5.230   4.302   5.132
 5425SOL     OW17173   5.128   0.389   4.836
 5425SOL    HW117174   5.219   0.400   4.795
 5425SOL    HW217175   5.138   0.356   4.930
 5426SOL     OW17176   6.110   0.398   5.232
 5426SOL    HW117177   6.081   0.483   5.189
 5426SOL    HW217178   6.030   0.342   5.252
 5427SOL     OW17179   3.879   5.914   6.775
 5427SOL    HW117180   3.855   5.862   6.857
 5427SOL    HW217181   3.972   5.950   6.785
 5428SOL     OW17182   1.106   0.417   6.955
 5428SOL    HW117183   1.026   0.396   6.898
 5428SOL    HW217184   1.160   0.490   6.912
 5429SOL     OW17185   1.269   2.496   6.627
 5429SOL    HW117186   1.289   2.593   6.636
 5429SOL    HW217187   1.229   2.462   6.712
 5430SOL     OW17188   2.530   2.746   5.519
 5430SOL    HW117189   2.588   2.702   5.451
 5430SOL    HW217190   2.463   2.805   5.473
 5431SOL     OW17191   3.929   5.947   4.504
 5431SOL    HW117192   4.022   5.943   4.467
 5431SOL    HW217193   3.924   5.892   4.587
 5432SOL     OW17194   5.361   6.530   1.194
 5432SOL    HW117195   5.323   6.518   1.103
 5432SOL    HW217196   5.353   6.445   1.246
 5433SOL     OW17197   0.102   1.503   4.641
 5433SOL    HW117198   0.123   1.430   4.576
 5433SOL    HW217199   0.141   1.480   4.731
 5434SOL     OW17200   2.726   7.010   5.771
 5434SOL    HW117201   2.713   6.911   5.778
 5434SOL    HW217202   2.725   0.033   5.863
 5435SOL     OW17203   4.658   1.114   1.750
 5435SOL    HW117204   4.643   1.017   1.733
 5435SOL    HW217205   4.618   1.139   1.838
 5436SOL     OW17206   5.432   4.307   2.231
 5436SOL    HW117207   5.350   4.287   2.285
 5436SOL    HW217208   5.418   4.391   2.179
 5437SOL     OW17209   2.927   3.355   6.855
 5437SOL    HW117210   2.947   3.302   6.937
 5437SOL    HW217211   2.889   3.295   6.785
 5438SOL     OW17212   6.682   2.556   0.952
 5438SOL    HW117213   6.684   2.655   0.936
 5438SOL    HW217214   6.727   2.535   1.038
 5439SOL     OW17215   1.225   2.166   1.346
 5439SOL    HW117216   1.195   2.072   1.365
 5439SOL    HW217217   1.324   2.172   1.357
 5440SOL     OW17218   1.122   1.708   0.963
 5440SOL    HW117219   1.175   1.786   0.996
 5440SOL    HW217220   1.076   1.663   1.040
 5441SOL     OW17221   3.497   2.110   3.625
 5441SOL    HW117222   3.441   2.134   3.545
 5441SOL    HW217223   3.587   2.080   3.595
 5442SOL     OW17224   4.039   0.665   2.309
 5442SOL    HW117225   4.016   0.687   2.214
 5442SOL    HW217226   3.997   0.578   2.334
 5443SOL     OW17227   3.333   0.040   5.251
 5443SOL    HW117228   3.395   7.014   5.185
 5443SOL    HW217229   3.257   0.082   5.201
 5444SOL     OW17230   6.835   0.036   3.477
 5444SOL    HW117231   6.815   0.125   3.518
 5444SOL    HW217232   6.916   0.044   3.418
 5445SOL     OW17233   5.770   3.588   2.221
 5445SOL    HW117234   5.831   3.668   2.226
 5445SOL    HW217235   5.697   3.606   2.156
 5446SOL     OW17236   6.526   5.342   5.690
 5446SOL    HW117237   6.439   5.312   5.652
 5446SOL    HW217238   6.510   5.398   5.771
 5447SOL     OW17239   3.511   1.850   0.430
 5447SOL    HW117240   3.552   1.772   0.477
 5447SOL    HW217241   3.426   1.822   0.386
 5448SOL     OW17242   5.496   2.278   5.667
 5448SOL    HW117243   5.579   2.225   5.657
 5448SOL    HW217244   5.518   2.367   5.707
 5449SOL     OW17245   0.827   3.422   6.544
 5449SOL    HW117246   0.901   3.355   6.543
 5449SOL    HW217247   0.768   3.405   6.623
 5450SOL     OW17248   1.820   6.826   0.771
 5450SOL    HW117249   1.866   6.903   0.816
 5450SOL    HW217250   1.878   6.745   0.776
 5451SOL     OW17251   1.559   0.381   2.549
 5451SOL    HW117252   1.493   0.409   2.479
 5451SOL    HW217253   1.588   0.462   2.601
 5452SOL     OW17254   2.737   3.803   6.165
 5452SOL    HW117255   2.827   3.800   6.209
 5452SOL    HW217256   2.684   3.878   6.204
 5453SOL     OW17257   6.038   4.953   6.783
 5453SOL    HW117258   5.961   4.908   6.738
 5453SOL    HW217259   6.121   4.898   6.769
 5454SOL     OW17260   6.820   4.504   6.913
 5454SOL    HW117261   6.892   4.558   6.956
 5454SOL    HW217262   6.757   4.470   6.984
 5455SOL     OW17263   6.392   3.585   1.711
 5455SOL    HW117264   6.319   3.522   1.688
 5455SOL    HW217265   6.448   3.546   1.785
 5456SOL     OW17266   3.322   6.652   0.624
 5456SOL    HW117267   3.248   6.698   0.673
 5456SOL    HW217268   3.358   6.713   0.553
 5457SOL     OW17269   6.513   3.384   0.565
 5457SOL    HW117270   6.475   3.359   0.654
 5457SOL    HW217271   6.613   3.374   0.568
 5458SOL     OW17272   2.638   3.872   6.977
 5458SOL    HW117273   2.691   3.925   6.911
 5458SOL    HW217274   2.673   3.778   6.980
 5459SOL     OW17275   2.001   4.922   6.151
 5459SOL    HW117276   1.979   4.925   6.249
 5459SOL    HW217277   2.008   5.016   6.117
 5460SOL     OW17278   2.867   0.598   1.275
 5460SOL    HW117279   2.942   0.649   1.318
 5460SOL    HW217280   2.805   0.565   1.347
 5461SOL     OW17281   4.515   6.864   5.228
 5461SOL    HW117282   4.575   6.889   5.305
 5461SOL    HW217283   4.526   6.767   5.208
 5462SOL     OW17284   0.614   0.184   1.253
 5462SOL    HW117285   0.572   0.132   1.178
 5462SOL    HW217286   0.589   0.280   1.244
 5463SOL     OW17287   6.949   2.901   0.769
 5463SOL    HW117288   6.984   2.975   0.826
 5463SOL    HW217289   6.849   2.906   0.765
 5464SOL     OW17290   2.057   0.017   4.266
 5464SOL    HW117291   2.106   0.077   4.329
 5464SOL    HW217292   2.123   6.989   4.205
 5465SOL     OW17293   2.651   6.765   5.527
 5465SOL    HW117294   2.653   6.775   5.627
 5465SOL    HW217295   2.573   6.707   5.502
 5466SOL     OW17296   4.413   4.585   4.557
 5466SOL    HW117297   4.336   4.633   4.598
 5466SOL    HW217298   4.379   4.514   4.494
 5467SOL     OW17299   6.117   1.824   2.034
 5467SOL    HW117300   6.180   1.855   2.105
 5467SOL    HW217301   6.147   1.734   2.001
 5468SOL     OW17302   4.234   1.394   5.298
 5468SOL    HW117303   4.190   1.469   5.347
 5468SOL    HW217304   4.253   1.423   5.204
 5469SOL     OW17305   4.073   4.442   6.405
 5469SOL    HW117306   4.170   4.437   6.381
 5469SOL    HW217307   4.065   4.485   6.495
 5470SOL     OW17308   1.284   5.244   3.510
 5470SOL    HW117309   1.308   5.341   3.511
 5470SOL    HW217310   1.292   5.206   3.602
 5471SOL     OW17311   6.154   5.667   2.108
 5471SOL    HW117312   6.216   5.600   2.149
 5471SOL    HW217313   6.092   5.621   2.045
 5472SOL     OW17314   3.842   4.953   5.599
 5472SOL    HW117315   3.869   4.857   5.595
 5472SOL    HW217316   3.915   5.009   5.562
 5473SOL     OW17317   1.221   3.368   3.640
 5473SOL    HW117318   1.300   3.428   3.649
 5473SOL    HW217319   1.238   3.302   3.567
 5474SOL     OW17320   1.865   5.510   3.851
 5474SOL    HW117321   1.802   5.587   3.845
 5474SOL    HW217322   1.891   5.481   3.759
 5475SOL     OW17323   3.031   2.562   1.403
 5475SOL    HW117324   3.049   2.589   1.497
 5475SOL    HW217325   3.087   2.617   1.341
 5476SOL     OW17326   1.264   3.196   5.786
 5476SOL    HW117327   1.171   3.188   5.822
 5476SOL    HW217328   1.282   3.120   5.723
 5477SOL     OW17329   2.045   3.170   2.920
 5477SOL    HW117330   1.963   3.115   2.906
 5477SOL    HW217331   2.096   3.176   2.834
 5478SOL     OW17332   6.716   6.366   6.048
 5478SOL    HW117333   6.756   6.279   6.077
 5478SOL    HW217334   6.639   6.348   5.986
 5479SOL     OW17335   4.702   0.569   4.650
 5479SOL    HW117336   4.741   0.515   4.724
 5479SOL    HW217337   4.668   0.656   4.686
 5480SOL     OW17338   0.360   3.535   4.261
 5480SOL    HW117339   0.299   3.611   4.237
 5480SOL    HW217340   0.352   3.463   4.192
 5481SOL     OW17341   4.807   6.711   4.282
 5481SOL    HW117342   4.788   6.700   4.185
 5481SOL    HW217343   4.753   6.645   4.335
 5482SOL     OW17344   1.856   4.404   1.504
 5482SOL    HW117345   1.886   4.486   1.553
 5482SOL    HW217346   1.930   4.337   1.502
 5483SOL     OW17347   0.085   2.495   5.564
 5483SOL    HW117348   7.010   2.524   5.537
 5483SOL    HW217349   0.142   2.576   5.579
 5484SOL     OW17350   4.572   0.415   5.130
 5484SOL    HW117351   4.656   0.407   5.182
 5484SOL    HW217352   4.507   0.346   5.161
 5485SOL     OW17353   3.395   0.351   4.821
 5485SOL    HW117354   3.378   0.371   4.724
 5485SOL    HW217355   3.331   0.402   4.878
 5486SOL     OW17356   2.688   6.096   5.239
 5486SOL    HW117357   2.744   6.014   5.228
 5486SOL    HW217358   2.627   6.085   5.317
 5487SOL     OW17359   2.950   5.518   5.318
 5487SOL    HW117360   2.950   5.520   5.418
 5487SOL    HW217361   3.009   5.591   5.283
 5488SOL     OW17362   5.853   2.413   0.771
 5488SOL    HW117363   5.906   2.354   0.831
 5488SOL    HW217364   5.756   2.389   0.778
 5489SOL     OW17365   6.483   3.721   3.161
 5489SOL    HW117366   6.442   3.772   3.236
 5489SOL    HW217367   6.566   3.675   3.193
 5490SOL     OW17368   1.687   6.240   2.764
 5490SOL    HW117369   1.631   6.290   2.698
 5490SOL    HW217370   1.762   6.195   2.716
 5491SOL     OW17371   6.608   4.231   0.833
 5491SOL    HW117372   6.553   4.154   0.801
 5491SOL    HW217373   6.649   4.207   0.921
 5492SOL     OW17374   6.690   1.939   6.005
 5492SOL    HW117375   6.689   1.870   5.933
 5492SOL    HW217376   6.776   1.934   6.055
 5493SOL     OW17377   3.910   3.939   1.123
 5493SOL    HW117378   3.840   3.887   1.172
 5493SOL    HW217379   3.884   4.036   1.120
 5494SOL     OW17380   6.163   3.861   5.362
 5494SOL    HW117381   6.201   3.803   5.291
 5494SOL    HW217382   6.230   3.929   5.390
 5495SOL     OW17383   5.590   6.792   0.247
 5495SOL    HW117384   5.549   6.701   0.245
 5495SOL    HW217385   5.687   6.786   0.225
 5496SOL     OW17386   4.043   0.198   4.163
 5496SOL    HW117387   3.951   0.226   4.191
 5496SOL    HW217388   4.066   0.241   4.076
 5497SOL     OW17389   1.195   0.716   5.750
 5497SOL    HW117390   1.154   0.626   5.737
 5497SOL    HW217391   1.130   0.787   5.722
 5498SOL     OW17392   0.882   5.494   1.150
 5498SOL    HW117393   0.788   5.524   1.135
 5498SOL    HW217394   0.917   5.533   1.235
 5499SOL     OW17395   1.996   0.439   4.519
 5499SOL    HW117396   2.043   0.508   4.573
 5499SOL    HW217397   1.942   0.380   4.580
 5500SOL     OW17398   2.572   0.245   0.778
 5500SOL    HW117399   2.579   0.316   0.708
 5500SOL    HW217400   2.487   0.194   0.766
 5501SOL     OW17401   3.808   3.718   6.767
 5501SOL    HW117402   3.716   3.721   6.806
 5501SOL    HW217403   3.858   3.641   6.807
 5502SOL     OW17404   4.735   2.755   0.120
 5502SOL    HW117405   4.809   2.743   0.186
 5502SOL    HW217406   4.648   2.732   0.163
 5503SOL     OW17407   6.462   3.606   0.941
 5503SOL    HW117408   6.423   3.611   1.033
 5503SOL    HW217409   6.474   3.510   0.916
 5504SOL     OW17410   4.011   1.607   6.850
 5504SOL    HW117411   4.004   1.657   6.936
 5504SOL    HW217412   3.932   1.629   6.792
 5505SOL     OW17413   2.853   5.132   3.620
 5505SOL    HW117414   2.846   5.033   3.626
 5505SOL    HW217415   2.905   5.157   3.538
 5506SOL     OW17416   0.167   3.288   5.737
 5506SOL    HW117417   0.256   3.252   5.767
 5506SOL    HW217418   0.166   3.387   5.745
 5507SOL     OW17419   2.934   6.865   6.784
 5507SOL    HW117420   2.999   6.855   6.709
 5507SOL    HW217421   2.958   6.802   6.858
 5508SOL     OW17422   6.738   0.934   6.540
 5508SOL    HW117423   6.762   0.837   6.549
 5508SOL    HW217424   6.640   0.942   6.524
 5509SOL     OW17425   6.448   5.041   0.738
 5509SOL    HW117426   6.379   5.078   0.675
 5509SOL    HW217427   6.468   4.946   0.712
 5510SOL     OW17428   4.278   5.074   0.093
 5510SOL    HW117429   4.196   5.097   0.145
 5510SOL    HW217430   4.272   4.978   0.063
 5511SOL     OW17431   0.123   2.067   5.421
 5511SOL    HW117432   0.142   1.994   5.486
 5511SOL    HW217433   0.138   2.034   5.327
 5512SOL     OW17434   2.369   0.656   2.285
 5512SOL    HW117435   2.341   0.572   2.239
 5512SOL    HW217436   2.401   0.722   2.217
 5513SOL     OW17437   4.024   4.063   0.168
 5513SOL    HW117438   4.015   4.157   0.136
 5513SOL    HW217439   4.120   4.043   0.185
 5514SOL     OW17440   3.118   1.126   0.393
 5514SOL    HW117441   3.103   1.055   0.462
 5514SOL    HW217442   3.032   1.173   0.375
 5515SOL     OW17443   2.914   5.484   2.683
 5515SOL    HW117444   2.890   5.578   2.709
 5515SOL    HW217445   2.977   5.485   2.606
 5516SOL     OW17446   1.544   2.254   5.057
 5516SOL    HW117447   1.558   2.344   5.015
 5516SOL    HW217448   1.566   2.259   5.155
 5517SOL     OW17449   1.350   2.018   3.238
 5517SOL    HW117450   1.348   1.945   3.170
 5517SOL    HW217451   1.434   2.011   3.292
 5518SOL     OW17452   4.959   5.019   6.717
 5518SOL    HW117453   4.898   5.098   6.729
 5518SOL    HW217454   4.988   5.015   6.621
 5519SOL     OW17455   4.929   2.707   4.121
 5519SOL    HW117456   4.901   2.793   4.164
 5519SOL    HW217457   5.029   2.699   4.126
 5520SOL     OW17458   4.950   0.241   1.729
 5520SOL    HW117459   4.887   0.308   1.767
 5520SOL    HW217460   5.037   0.243   1.779
 5521SOL     OW17461   4.504   6.318   2.351
 5521SOL    HW117462   4.559   6.399   2.373
 5521SOL    HW217463   4.529   6.284   2.261
 5522SOL     OW17464   5.881   5.863   1.455
 5522SOL    HW117465   5.956   5.928   1.462
 5522SOL    HW217466   5.901   5.783   1.512
 5523SOL     OW17467   5.258   1.537   1.046
 5523SOL    HW117468   5.220   1.543   0.954
 5523SOL    HW217469   5.355   1.562   1.043
 5524SOL     OW17470   2.599   1.315   3.521
 5524SOL    HW117471   2.566   1.372   3.446
 5524SOL    HW217472   2.530   1.246   3.544
 5525SOL     OW17473   6.212   1.126   1.764
 5525SOL    HW117474   6.152   1.097   1.689
 5525SOL    HW217475   6.268   1.202   1.734
 5526SOL     OW17476   5.522   5.219   4.099
 5526SOL    HW117477   5.545   5.128   4.134
 5526SOL    HW217478   5.436   5.249   4.138
 5527SOL     OW17479   5.959   0.510   3.578
 5527SOL    HW117480   5.941   0.589   3.638
 5527SOL    HW217481   5.888   0.441   3.591
 5528SOL     OW17482   0.818   1.309   7.014
 5528SOL    HW117483   0.732   1.262   6.992
 5528SOL    HW217484   0.863   1.337   6.929
 5529SOL     OW17485   3.661   0.640   2.313
 5529SOL    HW117486   3.728   0.565   2.314
 5529SOL    HW217487   3.681   0.703   2.388
 5530SOL     OW17488   0.130   2.428   1.056
 5530SOL    HW117489   0.226   2.454   1.063
 5530SOL    HW217490   0.118   2.365   0.979
 5531SOL     OW17491   2.323   4.392   1.601
 5531SOL    HW117492   2.382   4.324   1.644
 5531SOL    HW217493   2.339   4.481   1.644
 5532SOL     OW17494   1.259   2.742   6.723
 5532SOL    HW117495   1.306   2.760   6.809
 5532SOL    HW217496   1.160   2.736   6.740
 5533SOL     OW17497   3.114   1.609   2.130
 5533SOL    HW117498   3.157   1.552   2.199
 5533SOL    HW217499   3.183   1.672   2.092
 5534SOL     OW17500   1.562   0.352   4.548
 5534SOL    HW117501   1.609   0.285   4.605
 5534SOL    HW217502   1.497   0.404   4.604
 5535SOL     OW17503   7.010   1.708   3.129
 5535SOL    HW117504   7.007   1.793   3.076
 5535SOL    HW217505   0.076   1.707   3.185
 5536SOL     OW17506   4.213   6.265   4.425
 5536SOL    HW117507   4.212   6.357   4.386
 5536SOL    HW217508   4.238   6.269   4.521
 5537SOL     OW17509   2.977   1.982   3.573
 5537SOL    HW117510   3.023   2.028   3.649
 5537SOL    HW217511   3.006   1.887   3.569
 5538SOL     OW17512   4.543   5.184   4.460
 5538SOL    HW117513   4.585   5.094   4.465
 5538SOL    HW217514   4.579   5.233   4.380
 5539SOL     OW17515   2.455   4.748   0.496
 5539SOL    HW117516   2.377   4.719   0.551
 5539SOL    HW217517   2.485   4.672   0.438
 5540SOL     OW17518   4.839   5.649   1.689
 5540SOL    HW117519   4.909   5.599   1.740
 5540SOL    HW217520   4.794   5.587   1.625
 5541SOL     OW17521   4.811   1.417   5.684
 5541SOL    HW117522   4.774   1.492   5.738
 5541SOL    HW217523   4.886   1.374   5.733
 5542SOL     OW17524   5.320   4.687   6.950
 5542SOL    HW117525   5.290   4.648   6.863
 5542SOL    HW217526   5.408   4.733   6.938
 5543SOL     OW17527   6.943   1.839   5.688
 5543SOL    HW117528   0.002   1.879   5.739
 5543SOL    HW217529   6.881   1.792   5.751
 5544SOL     OW17530   5.800   0.513   6.846
 5544SOL    HW117531   5.712   0.553   6.820
 5544SOL    HW217532   5.872   0.549   6.788
 5545SOL     OW17533   2.724   2.468   1.694
 5545SOL    HW117534   2.807   2.456   1.749
 5545SOL    HW217535   2.687   2.560   1.709
 5546SOL     OW17536   3.359   4.884   5.566
 5546SOL    HW117537   3.422   4.849   5.497
 5546SOL    HW217538   3.321   4.807   5.618
 5547SOL     OW17539   3.479   5.558   3.985
 5547SOL    HW117540   3.426   5.549   4.069
 5547SOL    HW217541   3.476   5.653   3.953
 5548SOL     OW17542   0.676   2.411   4.697
 5548SOL    HW117543   0.668   2.499   4.743
 5548SOL    HW217544   0.622   2.413   4.613
 5549SOL     OW17545   3.883   4.660   0.196
 5549SOL    HW117546   3.901   4.604   0.277
 5549SOL    HW217547   3.820   4.735   0.220
 5550SOL     OW17548   3.211   6.573   2.239
 5550SOL    HW117549   3.127   6.626   2.233
 5550SOL    HW217550   3.289   6.635   2.242
 5551SOL     OW17551   0.460   1.138   2.888
 5551SOL    HW117552   0.448   1.077   2.966
 5551SOL    HW217553   0.557   1.145   2.864
 5552SOL     OW17554   0.979   2.380   1.976
 5552SOL    HW117555   0.912   2.380   1.902
 5552SOL    HW217556   1.037   2.299   1.968
 5553SOL     OW17557   4.497   6.420   6.854
 5553SOL    HW117558   4.448   6.446   6.937
 5553SOL    HW217559   4.570   6.486   6.836
 5554SOL     OW17560   3.582   0.822   4.254
 5554SOL    HW117561   3.488   0.795   4.233
 5554SOL    HW217562   3.646   0.765   4.202
 5555SOL     OW17563   0.761   5.726   1.921
 5555SOL    HW117564   0.691   5.656   1.930
 5555SOL    HW217565   0.753   5.770   1.832
 5556SOL     OW17566   0.877   0.882   4.603
 5556SOL    HW117567   0.961   0.902   4.552
 5556SOL    HW217568   0.899   0.825   4.682
 5557SOL     OW17569   2.563   0.472   3.085
 5557SOL    HW117570   2.653   0.516   3.078
 5557SOL    HW217571   2.494   0.534   3.048
 5558SOL     OW17572   5.125   2.527   5.461
 5558SOL    HW117573   5.058   2.500   5.392
 5558SOL    HW217574   5.180   2.447   5.487
 5559SOL     OW17575   2.348   0.590   1.686
 5559SOL    HW117576   2.405   0.561   1.609
 5559SOL    HW217577   2.363   0.688   1.704
 5560SOL     OW17578   6.898   1.227   4.274
 5560SOL    HW117579   6.970   1.294   4.260
 5560SOL    HW217580   6.832   1.262   4.341
 5561SOL     OW17581   1.731   3.757   2.284
 5561SOL    HW117582   1.798   3.728   2.352
 5561SOL    HW217583   1.704   3.852   2.301
 5562SOL     OW17584   2.956   2.182   6.686
 5562SOL    HW117585   3.029   2.210   6.747
 5562SOL    HW217586   2.987   2.103   6.632
 5563SOL     OW17587   4.118   4.205   1.661
 5563SOL    HW117588   4.125   4.190   1.562
 5563SOL    HW217589   4.036   4.258   1.681
 5564SOL     OW17590   5.630   2.421   1.765
 5564SOL    HW117591   5.717   2.395   1.807
 5564SOL    HW217592   5.555   2.406   1.830
 5565SOL     OW17593   3.254   2.910   5.383
 5565SOL    HW117594   3.292   2.998   5.412
 5565SOL    HW217595   3.327   2.851   5.350
 5566SOL     OW17596   2.258   4.384   0.699
 5566SOL    HW117597   2.357   4.371   0.689
 5566SOL    HW217598   2.212   4.295   0.688
 5567SOL     OW17599   1.758   5.454   3.225
 5567SOL    HW117600   1.753   5.485   3.130
 5567SOL    HW217601   1.835   5.391   3.236
 5568SOL     OW17602   3.727   2.318   1.007
 5568SOL    HW117603   3.722   2.355   0.915
 5568SOL    HW217604   3.815   2.271   1.020
 5569SOL     OW17605   5.156   2.125   6.531
 5569SOL    HW117606   5.221   2.182   6.581
 5569SOL    HW217607   5.177   2.129   6.433
 5570SOL     OW17608   0.760   3.324   5.163
 5570SOL    HW117609   0.853   3.353   5.143
 5570SOL    HW217610   0.727   3.372   5.245
 5571SOL     OW17611   6.295   4.654   6.891
 5571SOL    HW117612   6.236   4.573   6.897
 5571SOL    HW217613   6.387   4.631   6.921
 5572SOL     OW17614   6.336   3.000   4.765
 5572SOL    HW117615   6.396   2.957   4.698
 5572SOL    HW217616   6.261   3.046   4.718
 5573SOL     OW17617   6.887   4.208   0.017
 5573SOL    HW117618   6.966   4.240   0.071
 5573SOL    HW217619   6.920   4.166   6.949
 5574SOL     OW17620   1.094   6.614   4.236
 5574SOL    HW117621   1.074   6.550   4.162
 5574SOL    HW217622   1.189   6.603   4.265
 5575SOL     OW17623   0.810   1.421   1.613
 5575SOL    HW117624   0.906   1.401   1.632
 5575SOL    HW217625   0.797   1.436   1.515
 5576SOL     OW17626   5.546   6.143   6.324
 5576SOL    HW117627   5.618   6.089   6.368
 5576SOL    HW217628   5.567   6.240   6.332
 5577SOL     OW17629   2.412   4.638   4.781
 5577SOL    HW117630   2.367   4.551   4.762
 5577SOL    HW217631   2.460   4.633   4.868
 5578SOL     OW17632   3.321   1.953   6.517
 5578SOL    HW117633   3.300   2.050   6.509
 5578SOL    HW217634   3.389   1.940   6.590
 5579SOL     OW17635   4.939   5.405   1.904
 5579SOL    HW117636   5.015   5.469   1.889
 5579SOL    HW217637   4.915   5.403   2.001
 5580SOL     OW17638   5.340   1.589   1.562
 5580SOL    HW117639   5.314   1.682   1.586
 5580SOL    HW217640   5.271   1.550   1.500
 5581SOL     OW17641   2.792   2.630   0.672
 5581SOL    HW117642   2.759   2.720   0.700
 5581SOL    HW217643   2.722   2.562   0.690
 5582SOL     OW17644   3.217   2.912   3.811
 5582SOL    HW117645   3.314   2.908   3.789
 5582SOL    HW217646   3.193   2.836   3.871
 5583SOL     OW17647   4.433   0.574   0.072
 5583SOL    HW117648   4.340   0.538   0.076
 5583SOL    HW217649   4.434   0.669   0.102
 5584SOL     OW17650   4.974   3.387   3.003
 5584SOL    HW117651   5.046   3.319   3.021
 5584SOL    HW217652   4.924   3.405   3.088
 5585SOL     OW17653   0.405   6.509   4.654
 5585SOL    HW117654   0.502   6.503   4.673
 5585SOL    HW217655   0.355   6.443   4.710
 5586SOL     OW17656   3.115   1.163   6.511
 5586SOL    HW117657   3.039   1.221   6.481
 5586SOL    HW217658   3.123   1.168   6.610
 5587SOL     OW17659   3.564   6.461   4.166
 5587SOL    HW117660   3.540   6.374   4.123
 5587SOL    HW217661   3.486   6.523   4.164
 5588SOL     OW17662   4.874   0.094   5.851
 5588SOL    HW117663   4.913   0.186   5.841
 5588SOL    HW217664   4.795   0.099   5.912
 5589SOL     OW17665   2.923   3.563   0.163
 5589SOL    HW117666   2.970   3.648   0.184
 5589SOL    HW217667   2.849   3.581   0.098
 5590SOL     OW17668   6.673   0.511   3.670
 5590SOL    HW117669   6.695   0.445   3.742
 5590SOL    HW217670   6.607   0.471   3.607
 5591SOL     OW17671   5.556   0.023   0.146
 5591SOL    HW117672   5.541   0.021   0.047
 5591SOL    HW217673   5.564   6.946   0.181
 5592SOL     OW17674   1.240   2.570   2.708
 5592SOL    HW117675   1.211   2.666   2.707
 5592SOL    HW217676   1.233   2.531   2.617
 5593SOL     OW17677   2.432   4.403   4.480
 5593SOL    HW117678   2.531   4.415   4.470
 5593SOL    HW217679   2.410   4.306   4.487
 5594SOL     OW17680   3.196   1.490   6.244
 5594SOL    HW117681   3.282   1.542   6.251
 5594SOL    HW217682   3.209   1.398   6.281
 5595SOL     OW17683   0.542   2.213   6.017
 5595SOL    HW117684   0.590   2.150   5.956
 5595SOL    HW217685   0.501   2.286   5.963
 5596SOL     OW17686   4.540   2.519   4.184
 5596SOL    HW117687   4.562   2.529   4.281
 5596SOL    HW217688   4.574   2.430   4.152
 5597SOL     OW17689   0.115   1.993   6.465
 5597SOL    HW117690   0.105   2.050   6.546
 5597SOL    HW217691   0.191   1.929   6.478
 5598SOL     OW17692   6.744   2.072   3.627
 5598SOL    HW117693   6.795   2.054   3.542
 5598SOL    HW217694   6.787   2.148   3.676
 5599SOL     OW17695   5.470   2.292   3.281
 5599SOL    HW117696   5.461   2.194   3.299
 5599SOL    HW217697   5.467   2.308   3.182
 5600SOL     OW17698   1.827   2.569   2.048
 5600SOL    HW117699   1.922   2.540   2.046
 5600SOL    HW217700   1.784   2.536   2.133
 5601SOL     OW17701   5.514   3.326   5.800
 5601SOL    HW117702   5.583   3.311   5.871
 5601SOL    HW217703   5.487   3.422   5.799
 5602SOL     OW17704   6.373   2.418   2.652
 5602SOL    HW117705   6.459   2.458   2.685
 5602SOL    HW217706   6.390   2.323   2.625
 5603SOL     OW17707   3.786   2.144   6.176
 5603SOL    HW117708   3.699   2.142   6.226
 5603SOL    HW217709   3.769   2.124   6.080
 5604SOL     OW17710   1.137   6.138   3.945
 5604SOL    HW117711   1.089   6.089   4.018
 5604SOL    HW217712   1.199   6.205   3.986
 5605SOL     OW17713   4.601   0.313   3.818
 5605SOL    HW117714   4.630   0.303   3.723
 5605SOL    HW217715   4.643   0.395   3.857
 5606SOL     OW17716   4.560   3.176   0.667
 5606SOL    HW117717   4.600   3.204   0.754
 5606SOL    HW217718   4.516   3.087   0.678
 5607SOL     OW17719   0.142   2.510   3.382
 5607SOL    HW117720   0.121   2.430   3.439
 5607SOL    HW217721   0.060   2.566   3.372
 5608SOL     OW17722   5.258   0.280   4.161
 5608SOL    HW117723   5.164   0.314   4.166
 5608SOL    HW217724   5.300   0.285   4.252
 5609SOL     OW17725   6.621   1.252   6.823
 5609SOL    HW117726   6.657   1.299   6.904
 5609SOL    HW217727   6.547   1.190   6.850
 5610SOL     OW17728   5.808   5.833   6.184
 5610SOL    HW117729   5.880   5.782   6.230
 5610SOL    HW217730   5.808   5.810   6.086
 5611SOL     OW17731   5.964   3.897   1.821
 5611SOL    HW117732   6.048   3.868   1.775
 5611SOL    HW217733   5.909   3.952   1.758
 5612SOL     OW17734   3.888   2.279   0.711
 5612SOL    HW117735   3.915   2.221   0.788
 5612SOL    HW217736   3.910   2.375   0.733
 5613SOL     OW17737   6.213   5.580   6.204
 5613SOL    HW117738   6.293   5.593   6.145
 5613SOL    HW217739   6.215   5.490   6.246
 5614SOL     OW17740   4.894   1.957   5.063
 5614SOL    HW117741   4.811   1.962   5.118
 5614SOL    HW217742   4.878   2.000   4.974
 5615SOL     OW17743   0.496   3.124   3.616
 5615SOL    HW117744   0.544   3.108   3.702
 5615SOL    HW217745   0.444   3.209   3.623
 5616SOL     OW17746   1.873   3.573   2.427
 5616SOL    HW117747   1.944   3.508   2.401
 5616SOL    HW217748   1.790   3.523   2.453
 5617SOL     OW17749   1.412   4.980   6.140
 5617SOL    HW117750   1.331   5.036   6.160
 5617SOL    HW217751   1.454   4.952   6.226
 5618SOL     OW17752   4.850   6.857   2.789
 5618SOL    HW117753   4.937   6.840   2.835
 5618SOL    HW217754   4.793   6.917   2.846
 5619SOL     OW17755   3.136   3.380   3.254
 5619SOL    HW117756   3.208   3.418   3.196
 5619SOL    HW217757   3.099   3.297   3.211
 5620SOL     OW17758   4.949   4.346   4.844
 5620SOL    HW117759   4.983   4.411   4.912
 5620SOL    HW217760   4.849   4.344   4.846
 5621SOL     OW17761   0.730   2.604   6.422
 5621SOL    HW117762   0.742   2.673   6.494
 5621SOL    HW217763   0.807   2.541   6.422
 5622SOL     OW17764   4.785   5.291   4.087
 5622SOL    HW117765   4.703   5.270   4.035
 5622SOL    HW217766   4.778   5.383   4.125
 5623SOL     OW17767   4.752   4.821   3.674
 5623SOL    HW117768   4.790   4.757   3.741
 5623SOL    HW217769   4.655   4.800   3.660
 5624SOL     OW17770   4.944   4.158   3.435
 5624SOL    HW117771   5.024   4.196   3.483
 5624SOL    HW217772   4.883   4.233   3.409
 5625SOL     OW17773   2.775   6.555   6.272
 5625SOL    HW117774   2.788   6.652   6.289
 5625SOL    HW217775   2.680   6.538   6.247
 5626SOL     OW17776   1.198   4.709   6.352
 5626SOL    HW117777   1.265   4.697   6.424
 5626SOL    HW217778   1.224   4.655   6.272
 5627SOL     OW17779   1.256   5.074   0.325
 5627SOL    HW117780   1.286   5.127   0.405
 5627SOL    HW217781   1.183   5.123   0.277
 5628SOL     OW17782   1.673   3.265   0.136
 5628SOL    HW117783   1.660   3.350   0.188
 5628SOL    HW217784   1.768   3.258   0.106
 5629SOL     OW17785   6.627   3.353   3.665
 5629SOL    HW117786   6.590   3.260   3.667
 5629SOL    HW217787   6.663   3.375   3.756
 5630SOL     OW17788   1.017   3.445   0.639
 5630SOL    HW117789   1.110   3.420   0.667
 5630SOL    HW217790   1.022   3.515   0.568
 5631SOL     OW17791   3.619   1.083   1.323
 5631SOL    HW117792   3.712   1.090   1.289
 5631SOL    HW217793   3.595   1.166   1.373
 5632SOL     OW17794   4.213   6.238   6.244
 5632SOL    HW117795   4.252   6.154   6.207
 5632SOL    HW217796   4.279   6.313   6.234
 5633SOL     OW17797   1.068   5.216   5.471
 5633SOL    HW117798   1.112   5.238   5.558
 5633SOL    HW217799   1.138   5.202   5.401
 5634SOL     OW17800   2.861   0.980   1.468
 5634SOL    HW117801   2.852   1.004   1.371
 5634SOL    HW217802   2.870   0.881   1.478
 5635SOL     OW17803   3.595   0.671   1.680
 5635SOL    HW117804   3.670   0.715   1.729
 5635SOL    HW217805   3.611   0.572   1.677
 5636SOL     OW17806   5.294   0.327   5.730
 5636SOL    HW117807   5.291   0.411   5.784
 5636SOL    HW217808   5.226   0.331   5.657
 5637SOL     OW17809   5.404   0.056   4.829
 5637SOL    HW117810   5.425   0.099   4.741
 5637SOL    HW217811   5.309   0.027   4.831
 5638SOL     OW17812   5.929   5.547   0.644
 5638SOL    HW117813   6.007   5.497   0.607
 5638SOL    HW217814   5.886   5.494   0.717
 5639SOL     OW17815   3.053   0.636   1.712
 5639SOL    HW117816   3.004   0.699   1.654
 5639SOL    HW217817   3.091   0.684   1.791
 5640SOL     OW17818   2.922   6.926   3.169
 5640SOL    HW117819   2.969   6.948   3.254
 5640SOL    HW217820   2.966   6.847   3.126
 5641SOL     OW17821   6.843   4.256   3.621
 5641SOL    HW117822   6.803   4.187   3.561
 5641SOL    HW217823   6.924   4.295   3.577
 5642SOL     OW17824   2.339   3.416   6.297
 5642SOL    HW117825   2.325   3.509   6.262
 5642SOL    HW217826   2.258   3.385   6.345
 5643SOL     OW17827   5.976   2.375   4.426
 5643SOL    HW117828   6.023   2.445   4.479
 5643SOL    HW217829   6.037   2.340   4.354
 5644SOL     OW17830   3.984   0.474   5.443
 5644SOL    HW117831   3.902   0.425   5.472
 5644SOL    HW217832   4.010   0.445   5.351
 5645SOL     OW17833   6.070   6.460   3.622
 5645SOL    HW117834   6.102   6.546   3.663
 5645SOL    HW217835   6.149   6.400   3.606
 5646SOL     OW17836   6.588   6.650   3.982
 5646SOL    HW117837   6.506   6.677   3.932
 5646SOL    HW217838   6.659   6.624   3.917
 5647SOL     OW17839   6.667   4.062   6.821
 5647SOL    HW117840   6.714   4.137   6.773
 5647SOL    HW217841   6.736   4.003   6.864
 5648SOL     OW17842   2.925   1.187   4.493
 5648SOL    HW117843   2.965   1.240   4.568
 5648SOL    HW217844   2.842   1.232   4.461
 5649SOL     OW17845   1.161   0.111   5.616
 5649SOL    HW117846   1.197   0.025   5.652
 5649SOL    HW217847   1.186   0.119   5.519
 5650SOL     OW17848   6.611   4.796   5.972
 5650SOL    HW117849   6.654   4.784   6.062
 5650SOL    HW217850   6.654   4.873   5.925
 5651SOL     OW17851   5.720   1.599   2.214
 5651SOL    HW117852   5.809   1.574   2.253
 5651SOL    HW217853   5.697   1.692   2.242
 5652SOL     OW17854   5.829   4.415   0.676
 5652SOL    HW117855   5.870   4.477   0.609
 5652SOL    HW217856   5.898   4.347   0.705
 5653SOL     OW17857   2.132   6.048   6.325
 5653SOL    HW117858   2.033   6.033   6.337
 5653SOL    HW217859   2.154   6.047   6.227
 5654SOL     OW17860   1.709   5.986   6.610
 5654SOL    HW117861   1.767   5.982   6.528
 5654SOL    HW217862   1.616   6.013   6.583
 5655SOL     OW17863   6.664   5.389   3.011
 5655SOL    HW117864   6.631   5.295   3.018
 5655SOL    HW217865   6.718   5.412   3.092
 5656SOL     OW17866   3.693   5.728   6.521
 5656SOL    HW117867   3.688   5.818   6.563
 5656SOL    HW217868   3.651   5.731   6.430
 5657SOL     OW17869   4.396   5.469   1.991
 5657SOL    HW117870   4.388   5.562   1.956
 5657SOL    HW217871   4.315   5.417   1.965
 5658SOL     OW17872   5.373   6.620   5.642
 5658SOL    HW117873   5.356   6.676   5.723
 5658SOL    HW217874   5.421   6.536   5.670
 5659SOL     OW17875   3.025   3.983   2.806
 5659SOL    HW117876   2.983   3.920   2.871
 5659SOL    HW217877   2.974   3.981   2.720
 5660SOL     OW17878   6.326   6.183   1.613
 5660SOL    HW117879   6.392   6.138   1.551
 5660SOL    HW217880   6.247   6.214   1.560
 5661SOL     OW17881   6.121   5.715   4.486
 5661SOL    HW117882   6.129   5.760   4.397
 5661SOL    HW217883   6.159   5.623   4.481
 5662SOL     OW17884   2.493   4.943   5.045
 5662SOL    HW117885   2.520   4.966   5.138
 5662SOL    HW217886   2.574   4.916   4.993
 5663SOL     OW17887   2.678   4.086   1.311
 5663SOL    HW117888   2.763   4.096   1.362
 5663SOL    HW217889   2.621   4.167   1.325
 5664SOL     OW17890   0.011   5.739   2.737
 5664SOL    HW117891   6.981   5.651   2.741
 5664SOL    HW217892   6.967   5.808   2.697
 5665SOL     OW17893   1.558   1.363   6.122
 5665SOL    HW117894   1.618   1.427   6.169
 5665SOL    HW217895   1.463   1.383   6.146
 5666SOL     OW17896   6.039   5.788   0.319
 5666SOL    HW117897   6.052   5.888   0.317
 5666SOL    HW217898   5.994   5.759   0.234
 5667SOL     OW17899   6.448   5.501   2.908
 5667SOL    HW117900   6.383   5.433   2.873
 5667SOL    HW217901   6.528   5.454   2.946
 5668SOL     OW17902   6.065   3.630   5.924
 5668SOL    HW117903   6.119   3.556   5.964
 5668SOL    HW217904   6.033   3.603   5.833
 5669SOL     OW17905   6.712   3.398   5.076
 5669SOL    HW117906   6.806   3.430   5.065
 5669SOL    HW217907   6.648   3.474   5.061
 5670SOL     OW17908   1.363   3.743   2.375
 5670SOL    HW117909   1.459   3.717   2.385
 5670SOL    HW217910   1.355   3.842   2.370
 5671SOL     OW17911   1.224   0.999   5.525
 5671SOL    HW117912   1.205   0.999   5.427
 5671SOL    HW217913   1.273   0.915   5.549
 5672SOL     OW17914   5.101   3.725   6.074
 5672SOL    HW117915   5.018   3.771   6.106
 5672SOL    HW217916   5.085   3.686   5.983
 5673SOL     OW17917   1.446   0.327   1.130
 5673SOL    HW117918   1.469   0.352   1.036
 5673SOL    HW217919   1.359   0.279   1.131
 5674SOL     OW17920   6.271   3.092   1.290
 5674SOL    HW117921   6.253   3.002   1.250
 5674SOL    HW217922   6.317   3.149   1.222
 5675SOL     OW17923   3.735   1.221   6.289
 5675SOL    HW117924   3.739   1.134   6.338
 5675SOL    HW217925   3.673   1.284   6.337
 5676SOL     OW17926   3.465   0.065   1.342
 5676SOL    HW117927   3.508   0.075   1.432
 5676SOL    HW217928   3.366   0.079   1.351
 5677SOL     OW17929   6.873   1.129   3.763
 5677SOL    HW117930   6.964   1.114   3.800
 5677SOL    HW217931   6.862   1.225   3.740
 5678SOL     OW17932   1.889   5.278   3.604
 5678SOL    HW117933   1.915   5.235   3.517
 5678SOL    HW217934   1.819   5.224   3.649
 5679SOL     OW17935   3.298   5.471   5.274
 5679SOL    HW117936   3.256   5.394   5.225
 5679SOL    HW217937   3.305   5.449   5.371
 5680SOL     OW17938   2.052   6.822   6.426
 5680SOL    HW117939   2.115   6.894   6.454
 5680SOL    HW217940   2.040   6.757   6.501
 5681SOL     OW17941   2.854   3.959   0.322
 5681SOL    HW117942   2.872   4.052   0.290
 5681SOL    HW217943   2.757   3.938   0.308
 5682SOL     OW17944   0.968   3.889   4.138
 5682SOL    HW117945   1.056   3.918   4.175
 5682SOL    HW217946   0.943   3.947   4.061
 5683SOL     OW17947   4.120   3.356   4.643
 5683SOL    HW117948   4.050   3.389   4.580
 5683SOL    HW217949   4.091   3.375   4.737
 5684SOL     OW17950   2.929   3.791   2.997
 5684SOL    HW117951   2.848   3.791   3.054
 5684SOL    HW217952   2.953   3.696   2.973
 5685SOL     OW17953   0.606   5.432   1.942
 5685SOL    HW117954   0.662   5.370   1.887
 5685SOL    HW217955   0.648   5.443   2.032
 5686SOL     OW17956   3.474   4.888   6.880
 5686SOL    HW117957   3.537   4.959   6.848
 5686SOL    HW217958   3.383   4.904   6.841
 5687SOL     OW17959   4.209   5.667   6.284
 5687SOL    HW117960   4.126   5.701   6.329
 5687SOL    HW217961   4.249   5.739   6.228
 5688SOL     OW17962   5.629   1.854   2.296
 5688SOL    HW117963   5.705   1.859   2.360
 5688SOL    HW217964   5.554   1.911   2.328
 5689SOL     OW17965   4.508   3.077   6.547
 5689SOL    HW117966   4.447   3.152   6.574
 5689SOL    HW217967   4.509   3.008   6.619
 5690SOL     OW17968   4.257   6.616   2.248
 5690SOL    HW117969   4.211   6.632   2.161
 5690SOL    HW217970   4.301   6.526   2.246
 5691SOL     OW17971   2.703   0.450   3.550
 5691SOL    HW117972   2.653   0.522   3.502
 5691SOL    HW217973   2.796   0.444   3.513
 5692SOL     OW17974   5.664   3.235   6.996
 5692SOL    HW117975   5.716   3.154   6.971
 5692SOL    HW217976   5.574   3.207   0.014
 5693SOL     OW17977   4.903   2.413   2.641
 5693SOL    HW117978   4.968   2.338   2.651
 5693SOL    HW217979   4.939   2.480   2.576
 5694SOL     OW17980   1.664   1.753   4.057
 5694SOL    HW117981   1.705   1.711   3.976
 5694SOL    HW217982   1.735   1.803   4.108
 5695SOL     OW17983   1.851   3.991   3.600
 5695SOL    HW117984   1.851   3.993   3.500
 5695SOL    HW217985   1.861   3.897   3.632
 5696SOL     OW17986   3.433   0.555   6.020
 5696SOL    HW117987   3.522   0.534   6.061
 5696SOL    HW217988   3.373   0.475   6.027
 5697SOL     OW17989   6.387   3.547   0.014
 5697SOL    HW117990   6.291   3.532   0.040
 5697SOL    HW217991   6.391   3.611   6.954
 5698SOL     OW17992   0.962   4.229   2.900
 5698SOL    HW117993   0.988   4.283   2.980
 5698SOL    HW217994   0.948   4.134   2.927
 5699SOL     OW17995   6.506   1.687   4.791
 5699SOL    HW117996   6.576   1.655   4.727
 5699SOL    HW217997   6.457   1.764   4.751
 5700SOL     OW17998   0.979   5.384   2.836
 5700SOL    HW117999   1.009   5.461   2.780
 5700SOL    HW218000   0.974   5.411   2.932
 5701SOL     OW18001   5.440   4.913   2.252
 5701SOL    HW118002   5.410   4.827   2.212
 5701SOL    HW218003   5.397   4.989   2.203
 5702SOL     OW18004   2.156   0.499   6.871
 5702SOL    HW118005   2.192   0.502   6.778
 5702SOL    HW218006   2.063   0.535   6.872
 5703SOL     OW18007   4.775   4.290   1.731
 5703SOL    HW118008   4.698   4.255   1.785
 5703SOL    HW218009   4.859   4.241   1.757
 5704SOL     OW18010   4.983   4.208   3.128
 5704SOL    HW118011   4.997   4.296   3.084
 5704SOL    HW218012   5.070   4.160   3.135
 5705SOL     OW18013   5.743   1.573   2.629
 5705SOL    HW118014   5.759   1.672   2.640
 5705SOL    HW218015   5.811   1.536   2.566
 5706SOL     OW18016   2.108   0.914   7.017
 5706SOL    HW118017   2.108   1.010   0.029
 5706SOL    HW218018   2.034   0.865   0.046
 5707SOL     OW18019   3.325   1.756   6.336
 5707SOL    HW118020   3.323   1.832   6.401
 5707SOL    HW218021   3.385   1.780   6.260
 5708SOL     OW18022   6.500   6.801   1.830
 5708SOL    HW118023   6.592   6.793   1.792
 5708SOL    HW218024   6.438   6.741   1.781
 5709SOL     OW18025   1.353   1.324   2.202
 5709SOL    HW118026   1.396   1.382   2.271
 5709SOL    HW218027   1.254   1.332   2.209
 5710SOL     OW18028   3.257   4.304   6.478
 5710SOL    HW118029   3.211   4.310   6.389
 5710SOL    HW218030   3.237   4.385   6.532
 5711SOL     OW18031   4.681   1.136   4.953
 5711SOL    HW118032   4.646   1.148   5.046
 5711SOL    HW218033   4.757   1.199   4.938
 5712SOL     OW18034   6.708   6.299   6.809
 5712SOL    HW118035   6.700   6.398   6.818
 5712SOL    HW218036   6.800   6.270   6.836
 5713SOL     OW18037   6.974   2.605   2.767
 5713SOL    HW118038   0.050   2.630   2.797
 5713SOL    HW218039   6.931   2.548   2.836
 5714SOL     OW18040   2.069   0.865   6.329
 5714SOL    HW118041   2.038   0.941   6.386
 5714SOL    HW218042   2.160   0.836   6.359
 5715SOL     OW18043   1.345   6.846   3.404
 5715SOL    HW118044   1.314   6.776   3.340
 5715SOL    HW218045   1.306   6.935   3.379
 5716SOL     OW18046   1.784   2.676   4.913
 5716SOL    HW118047   1.867   2.685   4.967
 5716SOL    HW218048   1.803   2.622   4.831
 5717SOL     OW18049   0.431   3.519   0.038
 5717SOL    HW118050   0.354   3.583   0.031
 5717SOL    HW218051   0.515   3.571   0.054
 5718SOL     OW18052   2.363   5.428   4.943
 5718SOL    HW118053   2.368   5.343   4.994
 5718SOL    HW218054   2.335   5.409   4.849
 5719SOL     OW18055   2.630   0.664   0.125
 5719SOL    HW118056   2.709   0.607   0.101
 5719SOL    HW218057   2.549   0.606   0.137
 5720SOL     OW18058   2.065   5.860   4.124
 5720SOL    HW118059   2.139   5.827   4.065
 5720SOL    HW218060   2.104   5.899   4.207
 5721SOL     OW18061   0.262   4.109   0.452
 5721SOL    HW118062   0.319   4.191   0.462
 5721SOL    HW218063   0.267   4.055   0.536
 5722SOL     OW18064   5.524   1.256   3.619
 5722SOL    HW118065   5.490   1.189   3.684
 5722SOL    HW218066   5.617   1.283   3.644
 5723SOL     OW18067   1.270   4.516   0.695
 5723SOL    HW118068   1.313   4.590   0.745
 5723SOL    HW218069   1.199   4.473   0.752
 5724SOL     OW18070   5.036   2.350   6.421
 5724SOL    HW118071   4.943   2.387   6.414
 5724SOL    HW218072   5.077   2.346   6.330
 5725SOL     OW18073   5.091   5.754   5.836
 5725SOL    HW118074   5.041   5.796   5.761
 5725SOL    HW218075   5.058   5.661   5.851
 5726SOL     OW18076   4.362   3.923   5.398
 5726SOL    HW118077   4.296   3.860   5.440
 5726SOL    HW218078   4.426   3.870   5.343
 5727SOL     OW18079   6.183   2.078   3.821
 5727SOL    HW118080   6.267   2.032   3.792
 5727SOL    HW218081   6.155   2.142   3.750
 5728SOL     OW18082   4.703   0.597   5.923
 5728SOL    HW118083   4.716   0.695   5.936
 5728SOL    HW218084   4.619   0.582   5.870
 5729SOL     OW18085   1.253   3.217   4.852
 5729SOL    HW118086   1.223   3.159   4.928
 5729SOL    HW218087   1.321   3.168   4.797
 5730SOL     OW18088   3.999   5.553   0.108
 5730SOL    HW118089   4.056   5.607   0.169
 5730SOL    HW218090   3.970   5.469   0.154
 5731SOL     OW18091   4.327   1.406   4.773
 5731SOL    HW118092   4.391   1.480   4.755
 5731SOL    HW218093   4.354   1.325   4.720
 5732SOL     OW18094   5.669   4.118   4.052
 5732SOL    HW118095   5.624   4.041   4.098
 5732SOL    HW218096   5.697   4.186   4.119
 5733SOL     OW18097   2.275   6.707   1.263
 5733SOL    HW118098   2.333   6.789   1.264
 5733SOL    HW218099   2.180   6.734   1.280
 5734SOL     OW18100   1.563   6.549   6.538
 5734SOL    HW118101   1.586   6.640   6.503
 5734SOL    HW218102   1.478   6.518   6.497
 5735SOL     OW18103   5.127   0.726   2.352
 5735SOL    HW118104   5.154   0.822   2.354
 5735SOL    HW218105   5.034   0.716   2.387
 5736SOL     OW18106   6.097   4.451   6.697
 5736SOL    HW118107   6.137   4.409   6.779
 5736SOL    HW218108   6.001   4.473   6.715
 5737SOL     OW18109   4.586   5.541   1.655
 5737SOL    HW118110   4.495   5.566   1.621
 5737SOL    HW218111   4.592   5.563   1.752
 5738SOL     OW18112   2.207   0.455   0.910
 5738SOL    HW118113   2.224   0.388   0.837
 5738SOL    HW218114   2.293   0.473   0.959
 5739SOL     OW18115   2.329   1.432   5.906
 5739SOL    HW118116   2.288   1.346   5.935
 5739SOL    HW218117   2.403   1.412   5.842
 5740SOL     OW18118   4.976   3.530   2.522
 5740SOL    HW118119   4.961   3.491   2.613
 5740SOL    HW218120   4.962   3.459   2.453
 5741SOL     OW18121   0.482   3.333   3.963
 5741SOL    HW118122   0.457   3.238   3.942
 5741SOL    HW218123   0.399   3.386   3.980
 5742SOL     OW18124   5.822   6.964   3.297
 5742SOL    HW118125   5.865   0.022   3.247
 5742SOL    HW218126   5.872   6.879   3.281
 5743SOL     OW18127   3.139   5.311   6.828
 5743SOL    HW118128   3.124   5.394   6.882
 5743SOL    HW218129   3.229   5.315   6.785
 5744SOL     OW18130   5.190   6.706   3.349
 5744SOL    HW118131   5.183   6.799   3.312
 5744SOL    HW218132   5.104   6.658   3.333
 5745SOL     OW18133   1.083   2.896   1.814
 5745SOL    HW118134   1.016   2.872   1.884
 5745SOL    HW218135   1.144   2.967   1.849
 5746SOL     OW18136   4.937   6.584   3.176
 5746SOL    HW118137   5.004   6.510   3.171
 5746SOL    HW218138   4.873   6.577   3.099
 5747SOL     OW18139   1.627   6.784   0.961
 5747SOL    HW118140   1.615   6.686   0.970
 5747SOL    HW218141   1.683   6.804   0.880
 5748SOL     OW18142   0.110   6.345   0.981
 5748SOL    HW118143   0.135   6.305   0.893
 5748SOL    HW218144   0.115   6.275   1.052
 5749SOL     OW18145   1.822   5.525   6.257
 5749SOL    HW118146   1.763   5.574   6.321
 5749SOL    HW218147   1.911   5.570   6.253
 5750SOL     OW18148   7.010   3.053   4.615
 5750SOL    HW118149   0.086   3.025   4.591
 5750SOL    HW218150   6.998   3.150   4.593
 5751SOL     OW18151   1.328   3.862   4.786
 5751SOL    HW118152   1.384   3.789   4.824
 5751SOL    HW218153   1.381   3.947   4.784
 5752SOL     OW18154   5.385   0.544   0.966
 5752SOL    HW118155   5.405   0.497   0.880
 5752SOL    HW218156   5.438   0.628   0.971
 5753SOL     OW18157   3.656   4.139   4.738
 5753SOL    HW118158   3.751   4.127   4.708
 5753SOL    HW218159   3.653   4.146   4.838
 5754SOL     OW18160   0.490   5.704   1.270
 5754SOL    HW118161   0.445   5.633   1.324
 5754SOL    HW218162   0.502   5.672   1.176
 5755SOL     OW18163   0.864   2.879   6.257
 5755SOL    HW118164   0.811   2.939   6.196
 5755SOL    HW218165   0.801   2.833   6.320
 5756SOL     OW18166   5.681   6.057   1.460
 5756SOL    HW118167   5.702   6.151   1.433
 5756SOL    HW218168   5.736   5.994   1.406
 5757SOL     OW18169   6.872   1.033   4.088
 5757SOL    HW118170   6.858   1.068   3.996
 5757SOL    HW218171   6.915   1.103   4.145
 5758SOL     OW18172   6.093   6.545   3.186
 5758SOL    HW118173   6.145   6.601   3.250
 5758SOL    HW218174   6.014   6.597   3.153
 5759SOL     OW18175   2.981   0.204   1.476
 5759SOL    HW118176   3.026   0.293   1.489
 5759SOL    HW218177   2.949   0.170   1.564
 5760SOL     OW18178   1.775   2.604   0.131
 5760SOL    HW118179   1.848   2.566   0.075
 5760SOL    HW218180   1.793   2.700   0.150
 5761SOL     OW18181   6.325   6.910   4.702
 5761SOL    HW118182   6.369   6.921   4.791
 5761SOL    HW218183   6.348   6.820   4.665
 5762SOL     OW18184   0.431   5.400   6.376
 5762SOL    HW118185   0.487   5.325   6.340
 5762SOL    HW218186   0.446   5.483   6.322
 5763SOL     OW18187   5.749   0.075   0.345
 5763SOL    HW118188   5.667   0.088   0.288
 5763SOL    HW218189   5.734   0.120   0.433
 5764SOL     OW18190   4.893   6.408   3.991
 5764SOL    HW118191   4.796   6.419   4.014
 5764SOL    HW218192   4.936   6.498   3.989
 5765SOL     OW18193   5.941   5.216   2.537
 5765SOL    HW118194   5.895   5.128   2.549
 5765SOL    HW218195   6.003   5.210   2.459
 5766SOL     OW18196   0.397   1.236   4.613
 5766SOL    HW118197   0.395   1.332   4.586
 5766SOL    HW218198   0.313   1.214   4.663
 5767SOL     OW18199   4.013   6.816   6.398
 5767SOL    HW118200   4.063   6.867   6.328
 5767SOL    HW218201   3.915   6.820   6.378
 5768SOL     OW18202   0.538   0.791   5.276
 5768SOL    HW118203   0.453   0.792   5.222
 5768SOL    HW218204   0.616   0.790   5.214
 5769SOL     OW18205   1.688   4.020   5.636
 5769SOL    HW118206   1.747   3.941   5.652
 5769SOL    HW218207   1.742   4.104   5.642
 5770SOL     OW18208   2.355   4.208   1.838
 5770SOL    HW118209   2.257   4.230   1.839
 5770SOL    HW218210   2.366   4.109   1.830
 5771SOL     OW18211   3.653   4.948   3.919
 5771SOL    HW118212   3.564   4.906   3.940
 5771SOL    HW218213   3.718   4.924   3.990
 5772SOL     OW18214   3.508   0.008   2.067
 5772SOL    HW118215   3.595   7.015   2.018
 5772SOL    HW218216   3.512   0.087   2.127
 5773SOL     OW18217   4.981   1.483   2.625
 5773SOL    HW118218   4.980   1.557   2.558
 5773SOL    HW218219   5.054   1.418   2.602
 5774SOL     OW18220   0.639   6.678   2.251
 5774SOL    HW118221   0.719   6.659   2.309
 5774SOL    HW218222   0.580   6.744   2.297
 5775SOL     OW18223   6.264   5.497   1.636
 5775SOL    HW118224   6.286   5.588   1.602
 5775SOL    HW218225   6.166   5.479   1.622
 5776SOL     OW18226   2.942   1.225   4.075
 5776SOL    HW118227   3.004   1.190   4.145
 5776SOL    HW218228   2.990   1.290   4.016
 5777SOL     OW18229   1.977   6.402   2.204
 5777SOL    HW118230   2.010   6.468   2.136
 5777SOL    HW218231   2.047   6.389   2.275
 5778SOL     OW18232   0.603   1.611   0.764
 5778SOL    HW118233   0.659   1.604   0.681
 5778SOL    HW218234   0.640   1.551   0.834
 5779SOL     OW18235   5.731   1.140   6.009
 5779SOL    HW118236   5.820   1.109   5.975
 5779SOL    HW218237   5.743   1.227   6.057
 5780SOL     OW18238   5.217   5.342   4.446
 5780SOL    HW118239   5.219   5.258   4.502
 5780SOL    HW218240   5.179   5.417   4.500
 5781SOL     OW18241   1.099   4.979   5.235
 5781SOL    HW118242   1.149   5.065   5.224
 5781SOL    HW218243   1.120   4.919   5.158
 5782SOL     OW18244   0.285   0.685   0.401
 5782SOL    HW118245   0.357   0.724   0.344
 5782SOL    HW218246   0.302   0.709   0.497
 5783SOL     OW18247   1.889   2.230   0.701
 5783SOL    HW118248   1.806   2.259   0.750
 5783SOL    HW218249   1.926   2.308   0.650
 5784SOL     OW18250   6.781   5.906   6.764
 5784SOL    HW118251   6.704   5.863   6.716
 5784SOL    HW218252   6.816   5.981   6.709
 5785SOL     OW18253   0.857   1.234   0.500
 5785SOL    HW118254   0.788   1.292   0.459
 5785SOL    HW218255   0.896   1.280   0.580
 5786SOL     OW18256   5.609   5.382   1.743
 5786SOL    HW118257   5.650   5.437   1.817
 5786SOL    HW218258   5.640   5.288   1.751
 5787SOL     OW18259   2.328   2.675   6.352
 5787SOL    HW118260   2.354   2.767   6.323
 5787SOL    HW218261   2.383   2.648   6.431
 5788SOL     OW18262   2.430   1.078   3.533
 5788SOL    HW118263   2.377   1.000   3.500
 5788SOL    HW218264   2.460   1.060   3.627
 5789SOL     OW18265   3.849   4.643   6.159
 5789SOL    HW118266   3.795   4.669   6.239
 5789SOL    HW218267   3.913   4.717   6.137
 5790SOL     OW18268   1.236   3.130   3.525
 5790SOL    HW118269   1.334   3.129   3.504
 5790SOL    HW218270   1.183   3.125   3.440
 5791SOL     OW18271   2.010   0.853   2.859
 5791SOL    HW118272   2.058   0.881   2.776
 5791SOL    HW218273   1.996   0.754   2.859
 5792SOL     OW18274   6.804   2.095   2.666
 5792SOL    HW118275   6.896   2.079   2.703
 5792SOL    HW218276   6.788   2.034   2.589
 5793SOL     OW18277   0.285   0.745   4.119
 5793SOL    HW118278   0.323   0.720   4.029
 5793SOL    HW218279   0.189   0.717   4.123
 5794SOL     OW18280   4.891   4.400   6.513
 5794SOL    HW118281   4.866   4.372   6.606
 5794SOL    HW218282   4.810   4.435   6.466
 5795SOL     OW18283   5.672   4.476   6.941
 5795SOL    HW118284   5.629   4.454   0.012
 5795SOL    HW218285   5.643   4.409   6.872
 5796SOL     OW18286   3.663   2.021   0.779
 5796SOL    HW118287   3.602   2.028   0.859
 5796SOL    HW218288   3.751   1.983   0.807
 5797SOL     OW18289   3.163   2.104   5.866
 5797SOL    HW118290   3.110   2.026   5.833
 5797SOL    HW218291   3.104   2.166   5.917
 5798SOL     OW18292   6.600   4.636   4.042
 5798SOL    HW118293   6.622   4.548   4.000
 5798SOL    HW218294   6.665   4.705   4.011
 5799SOL     OW18295   5.768   0.324   3.603
 5799SOL    HW118296   5.791   0.227   3.591
 5799SOL    HW218297   5.686   0.345   3.550
 5800SOL     OW18298   5.659   5.203   0.874
 5800SOL    HW118299   5.660   5.260   0.957
 5800SOL    HW218300   5.568   5.162   0.863
 5801SOL     OW18301   2.695   1.222   3.009
 5801SOL    HW118302   2.761   1.298   3.008
 5801SOL    HW218303   2.647   1.219   2.922
 5802SOL     OW18304   0.652   2.665   4.816
 5802SOL    HW118305   0.695   2.750   4.785
 5802SOL    HW218306   0.558   2.661   4.780
 5803SOL     OW18307   2.033   4.421   0.440
 5803SOL    HW118308   2.128   4.393   0.450
 5803SOL    HW218309   1.997   4.386   0.354
 5804SOL     OW18310   6.310   3.257   4.958
 5804SOL    HW118311   6.323   3.168   4.914
 5804SOL    HW218312   6.213   3.280   4.957
 5805SOL     OW18313   5.846   3.424   0.182
 5805SOL    HW118314   5.801   3.507   0.215
 5805SOL    HW218315   5.791   3.383   0.109
 5806SOL     OW18316   0.209   6.482   0.393
 5806SOL    HW118317   0.164   6.467   0.481
 5806SOL    HW218318   0.299   6.522   0.408
 5807SOL     OW18319   2.061   3.625   1.783
 5807SOL    HW118320   2.120   3.568   1.840
 5807SOL    HW218321   2.109   3.709   1.758
 5808SOL     OW18322   6.762   3.316   3.267
 5808SOL    HW118323   6.676   3.327   3.317
 5808SOL    HW218324   6.768   3.223   3.230
 5809SOL     OW18325   6.445   3.427   4.129
 5809SOL    HW118326   6.397   3.474   4.203
 5809SOL    HW218327   6.416   3.331   4.126
 5810SOL     OW18328   2.327   2.352   2.430
 5810SOL    HW118329   2.293   2.336   2.337
 5810SOL    HW218330   2.385   2.433   2.431
 5811SOL     OW18331   2.510   1.509   3.334
 5811SOL    HW118332   2.422   1.480   3.297
 5811SOL    HW218333   2.524   1.606   3.315
 5812SOL     OW18334   4.275   0.815   4.740
 5812SOL    HW118335   4.256   0.742   4.805
 5812SOL    HW218336   4.316   0.893   4.789
 5813SOL     OW18337   1.465   0.817   5.693
 5813SOL    HW118338   1.477   0.788   5.598
 5813SOL    HW218339   1.398   0.759   5.737
 5814SOL     OW18340   0.508   5.037   0.760
 5814SOL    HW118341   0.587   5.079   0.716
 5814SOL    HW218342   0.530   5.015   0.855
 5815SOL     OW18343   3.155   1.838   2.909
 5815SOL    HW118344   3.178   1.934   2.929
 5815SOL    HW218345   3.230   1.796   2.857
 5816SOL     OW18346   4.755   0.242   1.055
 5816SOL    HW118347   4.715   0.277   0.971
 5816SOL    HW218348   4.839   0.192   1.034
 5817SOL     OW18349   5.140   1.805   5.054
 5817SOL    HW118350   5.200   1.855   4.992
 5817SOL    HW218351   5.057   1.859   5.071
 5818SOL     OW18352   6.017   6.198   6.037
 5818SOL    HW118353   6.074   6.116   6.044
 5818SOL    HW218354   5.985   6.208   5.943
 5819SOL     OW18355   6.078   0.257   0.854
 5819SOL    HW118356   6.155   0.247   0.791
 5819SOL    HW218357   6.026   0.339   0.830
 5820SOL     OW18358   5.489   6.235   3.093
 5820SOL    HW118359   5.525   6.244   3.186
 5820SOL    HW218360   5.416   6.302   3.078
 5821SOL     OW18361   2.708   0.523   1.493
 5821SOL    HW118362   2.715   0.481   1.584
 5821SOL    HW218363   2.712   0.622   1.502
 5822SOL     OW18364   0.318   1.428   1.983
 5822SOL    HW118365   0.355   1.335   1.980
 5822SOL    HW218366   0.372   1.483   2.047
 5823SOL     OW18367   2.674   2.173   4.061
 5823SOL    HW118368   2.730   2.143   3.983
 5823SOL    HW218369   2.590   2.215   4.027
 5824SOL     OW18370   4.909   0.251   3.941
 5824SOL    HW118371   4.846   0.186   3.898
 5824SOL    HW218372   4.881   0.266   4.036
 5825SOL     OW18373   2.554   0.656   0.891
 5825SOL    HW118374   2.585   0.644   0.796
 5825SOL    HW218375   2.633   0.659   0.952
 5826SOL     OW18376   6.605   1.006   4.663
 5826SOL    HW118377   6.701   0.987   4.685
 5826SOL    HW218378   6.547   0.972   4.736
 5827SOL     OW18379   0.866   5.460   5.000
 5827SOL    HW118380   0.791   5.423   4.945
 5827SOL    HW218381   0.937   5.390   5.011
 5828SOL     OW18382   0.027   3.315   1.743
 5828SOL    HW118383   0.060   3.331   1.836
 5828SOL    HW218384   0.105   3.314   1.680
 5829SOL     OW18385   1.755   1.227   1.594
 5829SOL    HW118386   1.838   1.180   1.561
 5829SOL    HW218387   1.758   1.323   1.566
 5830SOL     OW18388   1.866   1.604   5.932
 5830SOL    HW118389   1.832   1.550   5.855
 5830SOL    HW218390   1.834   1.699   5.923
 5831SOL     OW18391   5.668   6.567   3.142
 5831SOL    HW118392   5.683   6.489   3.203
 5831SOL    HW218393   5.577   6.605   3.159
 5832SOL     OW18394   3.514   4.001   4.975
 5832SOL    HW118395   3.432   4.054   4.999
 5832SOL    HW218396   3.493   3.940   4.899
 5833SOL     OW18397   3.719   3.327   4.847
 5833SOL    HW118398   3.724   3.254   4.779
 5833SOL    HW218399   3.732   3.415   4.801
 5834SOL     OW18400   6.010   0.879   0.349
 5834SOL    HW118401   5.953   0.905   0.271
 5834SOL    HW218402   6.101   0.920   0.338
 5835SOL     OW18403   5.117   2.392   4.142
 5835SOL    HW118404   5.132   2.488   4.165
 5835SOL    HW218405   5.186   2.362   4.076
 5836SOL     OW18406   3.414   5.944   2.344
 5836SOL    HW118407   3.480   5.897   2.404
 5836SOL    HW218408   3.458   6.023   2.301
 5837SOL     OW18409   4.630   4.516   6.442
 5837SOL    HW118410   4.633   4.465   6.527
 5837SOL    HW218411   4.537   4.547   6.424
 5838SOL     OW18412   0.881   1.056   5.491
 5838SOL    HW118413   0.856   1.144   5.533
 5838SOL    HW218414   0.911   1.071   5.397
 5839SOL     OW18415   0.151   3.470   2.735
 5839SOL    HW118416   0.227   3.435   2.790
 5839SOL    HW218417   0.069   3.416   2.751
 5840SOL     OW18418   1.967   4.931   6.472
 5840SOL    HW118419   2.032   4.981   6.529
 5840SOL    HW218420   1.890   4.991   6.449
 5841SOL     OW18421   0.002   2.362   3.049
 5841SOL    HW118422   0.078   2.403   3.099
 5841SOL    HW218423   6.939   2.422   3.054
 5842SOL     OW18424   3.908   3.294   0.607
 5842SOL    HW118425   3.955   3.300   0.695
 5842SOL    HW218426   3.976   3.287   0.534
 5843SOL     OW18427   1.386   3.321   1.790
 5843SOL    HW118428   1.457   3.255   1.765
 5843SOL    HW218429   1.383   3.394   1.722
 5844SOL     OW18430   1.103   6.139   6.950
 5844SOL    HW118431   1.081   6.227   6.991
 5844SOL    HW218432   1.038   6.120   6.875
 5845SOL     OW18433   0.867   2.268   4.430
 5845SOL    HW118434   0.895   2.185   4.478
 5845SOL    HW218435   0.944   2.331   4.424
 5846SOL     OW18436   6.843   3.049   6.071
 5846SOL    HW118437   6.932   3.087   6.049
 5846SOL    HW218438   6.826   2.967   6.015
 5847SOL     OW18439   2.035   2.776   2.972
 5847SOL    HW118440   2.050   2.692   3.023
 5847SOL    HW218441   2.078   2.853   3.020
 5848SOL     OW18442   1.545   4.652   3.805
 5848SOL    HW118443   1.597   4.575   3.770
 5848SOL    HW218444   1.607   4.724   3.835
 5849SOL     OW18445   2.405   6.620   5.542
 5849SOL    HW118446   2.386   6.556   5.616
 5849SOL    HW218447   2.384   6.713   5.572
 5850SOL     OW18448   0.904   4.473   2.642
 5850SOL    HW118449   0.953   4.398   2.598
 5850SOL    HW218450   0.813   4.483   2.602
 5851SOL     OW18451   6.173   3.380   2.011
 5851SOL    HW118452   6.110   3.457   2.025
 5851SOL    HW218453   6.139   3.300   2.059
 5852SOL     OW18454   4.086   5.642   2.969
 5852SOL    HW118455   3.990   5.669   2.983
 5852SOL    HW218456   4.109   5.566   3.029
 5853SOL     OW18457   3.510   4.133   5.782
 5853SOL    HW118458   3.544   4.085   5.702
 5853SOL    HW218459   3.414   4.158   5.767
 5854SOL     OW18460   0.034   0.976   6.556
 5854SOL    HW118461   0.021   0.931   6.644
 5854SOL    HW218462   0.058   0.908   6.487
 5855SOL     OW18463   1.754   0.978   4.832
 5855SOL    HW118464   1.690   1.033   4.779
 5855SOL    HW218465   1.781   0.897   4.780
 5856SOL     OW18466   2.298   4.880   3.862
 5856SOL    HW118467   2.274   4.961   3.916
 5856SOL    HW218468   2.304   4.801   3.923
 5857SOL     OW18469   6.901   2.669   5.481
 5857SOL    HW118470   6.891   2.694   5.384
 5857SOL    HW218471   6.916   2.752   5.535
 5858SOL     OW18472   3.703   0.804   2.523
 5858SOL    HW118473   3.798   0.816   2.550
 5858SOL    HW218474   3.647   0.875   2.565
 5859SOL     OW18475   6.353   6.389   1.107
 5859SOL    HW118476   6.296   6.308   1.094
 5859SOL    HW218477   6.299   6.471   1.088
 5860SOL     OW18478   1.754   3.683   1.235
 5860SOL    HW118479   1.659   3.676   1.264
 5860SOL    HW218480   1.786   3.777   1.248
 5861SOL     OW18481   6.189   2.246   4.037
 5861SOL    HW118482   6.108   2.302   4.052
 5861SOL    HW218483   6.167   2.172   3.973
 5862SOL     OW18484   4.653   4.297   2.982
 5862SOL    HW118485   4.574   4.285   3.041
 5862SOL    HW218486   4.708   4.214   2.981
 5863SOL     OW18487   2.185   1.435   0.046
 5863SOL    HW118488   2.109   1.396   7.011
 5863SOL    HW218489   2.272   1.400   0.011
 5864SOL     OW18490   4.738   5.037   0.886
 5864SOL    HW118491   4.707   5.129   0.862
 5864SOL    HW218492   4.729   5.024   0.985
 5865SOL     OW18493   4.042   0.597   2.858
 5865SOL    HW118494   4.065   0.692   2.838
 5865SOL    HW218495   3.943   0.587   2.866
 5866SOL     OW18496   3.836   0.233   6.790
 5866SOL    HW118497   3.882   0.286   6.718
 5866SOL    HW218498   3.821   0.140   6.757
 5867SOL     OW18499   0.057   2.661   1.221
 5867SOL    HW118500   0.141   2.677   1.273
 5867SOL    HW218501   0.075   2.595   1.148
 5868SOL     OW18502   1.339   6.973   5.183
 5868SOL    HW118503   1.409   6.902   5.186
 5868SOL    HW218504   1.381   0.043   5.153
 5869SOL     OW18505   2.629   4.685   3.652
 5869SOL    HW118506   2.609   4.688   3.554
 5869SOL    HW218507   2.562   4.627   3.698
 5870SOL     OW18508   5.581   4.921   4.868
 5870SOL    HW118509   5.589   5.005   4.813
 5870SOL    HW218510   5.608   4.842   4.813
 5871SOL     OW18511   3.210   3.014   6.495
 5871SOL    HW118512   3.258   3.100   6.476
 5871SOL    HW218513   3.152   3.025   6.576
 5872SOL     OW18514   3.550   5.804   4.758
 5872SOL    HW118515   3.484   5.805   4.683
 5872SOL    HW218516   3.521   5.871   4.828
 5873SOL     OW18517   2.718   3.473   0.328
 5873SOL    HW118518   2.796   3.527   0.299
 5873SOL    HW218519   2.676   3.515   0.409
 5874SOL     OW18520   1.684   4.159   0.633
 5874SOL    HW118521   1.769   4.107   0.639
 5874SOL    HW218522   1.610   4.099   0.604
 5875SOL     OW18523   4.342   2.024   0.202
 5875SOL    HW118524   4.308   1.931   0.183
 5875SOL    HW218525   4.285   2.066   0.272
 5876SOL     OW18526   3.745   4.515   5.846
 5876SOL    HW118527   3.833   4.477   5.820
 5876SOL    HW218528   3.749   4.544   5.942
 5877SOL     OW18529   6.901   6.974   2.872
 5877SOL    HW118530   6.858   0.044   2.899
 5877SOL    HW218531   6.852   6.898   2.915
 5878SOL     OW18532   4.951   4.638   2.174
 5878SOL    HW118533   4.971   4.572   2.246
 5878SOL    HW218534   4.974   4.598   2.085
 5879SOL     OW18535   3.763   3.395   5.665
 5879SOL    HW118536   3.746   3.343   5.748
 5879SOL    HW218537   3.822   3.343   5.603
 5880SOL     OW18538   5.622   2.435   5.956
 5880SOL    HW118539   5.704   2.399   5.911
 5880SOL    HW218540   5.648   2.492   6.034
 5881SOL     OW18541   1.439   6.023   2.377
 5881SOL    HW118542   1.491   6.010   2.461
 5881SOL    HW218543   1.353   6.069   2.397
 5882SOL     OW18544   1.544   4.974   5.199
 5882SOL    HW118545   1.621   4.923   5.162
 5882SOL    HW218546   1.471   4.911   5.224
 5883SOL     OW18547   6.479   4.976   0.141
 5883SOL    HW118548   6.517   5.064   0.113
 5883SOL    HW218549   6.492   4.964   0.239
 5884SOL     OW18550   6.157   2.228   3.018
 5884SOL    HW118551   6.081   2.165   3.030
 5884SOL    HW218552   6.179   2.272   3.105
 5885SOL     OW18553   6.353   5.529   0.553
 5885SOL    HW118554   6.302   5.496   0.474
 5885SOL    HW218555   6.327   5.477   0.634
 5886SOL     OW18556   2.153   4.379   3.302
 5886SOL    HW118557   2.173   4.459   3.359
 5886SOL    HW218558   2.064   4.341   3.328
 5887SOL     OW18559   2.721   2.842   0.957
 5887SOL    HW118560   2.755   2.926   0.998
 5887SOL    HW218561   2.779   2.766   0.985
 5888SOL     OW18562   3.341   6.603   1.308
 5888SOL    HW118563   3.339   6.696   1.345
 5888SOL    HW218564   3.279   6.545   1.362
 5889SOL     OW18565   6.097   1.588   1.896
 5889SOL    HW118566   6.125   1.492   1.896
 5889SOL    HW218567   6.015   1.599   1.951
 5890SOL     OW18568   1.267   5.540   2.496
 5890SOL    HW118569   1.328   5.557   2.419
 5890SOL    HW218570   1.309   5.475   2.559
 5891SOL     OW18571   2.332   3.576   0.010
 5891SOL    HW118572   2.398   3.508   0.039
 5891SOL    HW218573   2.239   3.539   0.019
 5892SOL     OW18574   1.301   2.844   0.250
 5892SOL    HW118575   1.202   2.852   0.239
 5892SOL    HW218576   1.323   2.815   0.343
 5893SOL     OW18577   1.014   6.552   0.900
 5893SOL    HW118578   1.071   6.487   0.950
 5893SOL    HW218579   0.954   6.503   0.838
 5894SOL     OW18580   2.224   5.562   6.783
 5894SOL    HW118581   2.214   5.656   6.751
 5894SOL    HW218582   2.254   5.504   6.708
 5895SOL     OW18583   5.266   3.878   3.662
 5895SOL    HW118584   5.222   3.844   3.578
 5895SOL    HW218585   5.206   3.944   3.707
 5896SOL     OW18586   5.672   2.688   2.503
 5896SOL    HW118587   5.575   2.673   2.481
 5896SOL    HW218588   5.679   2.735   2.591
 5897SOL     OW18589   3.786   2.337   0.450
 5897SOL    HW118590   3.748   2.248   0.424
 5897SOL    HW218591   3.837   2.327   0.535
 5898SOL     OW18592   2.043   1.422   6.363
 5898SOL    HW118593   2.022   1.479   6.283
 5898SOL    HW218594   2.141   1.404   6.367
 5899SOL     OW18595   0.437   6.431   6.672
 5899SOL    HW118596   0.497   6.511   6.674
 5899SOL    HW218597   0.444   6.382   6.760
 5900SOL     OW18598   5.779   6.375   3.318
 5900SOL    HW118599   5.795   6.437   3.395
 5900SOL    HW218600   5.706   6.311   3.341
 5901SOL     OW18601   2.418   0.810   5.290
 5901SOL    HW118602   2.375   0.735   5.239
 5901SOL    HW218603   2.351   0.852   5.351
 5902SOL     OW18604   4.533   3.970   6.232
 5902SOL    HW118605   4.532   3.873   6.257
 5902SOL    HW218606   4.501   3.980   6.138
 5903SOL     OW18607   6.050   1.740   5.491
 5903SOL    HW118608   6.024   1.657   5.441
 5903SOL    HW218609   5.968   1.791   5.514
 5904SOL     OW18610   1.362   4.611   1.501
 5904SOL    HW118611   1.316   4.602   1.412
 5904SOL    HW218612   1.457   4.582   1.492
 5905SOL     OW18613   5.640   1.507   4.306
 5905SOL    HW118614   5.560   1.447   4.312
 5905SOL    HW218615   5.669   1.533   4.398
 5906SOL     OW18616   4.819   0.981   5.697
 5906SOL    HW118617   4.764   1.047   5.646
 5906SOL    HW218618   4.890   1.029   5.749
 5907SOL     OW18619   1.620   3.809   5.226
 5907SOL    HW118620   1.613   3.824   5.127
 5907SOL    HW218621   1.667   3.723   5.243
 5908SOL     OW18622   5.089   3.726   6.547
 5908SOL    HW118623   5.070   3.635   6.510
 5908SOL    HW218624   5.116   3.718   6.644
 5909SOL     OW18625   6.655   4.547   3.647
 5909SOL    HW118626   6.604   4.631   3.668
 5909SOL    HW218627   6.743   4.570   3.606
 5910SOL     OW18628   2.823   4.876   0.801
 5910SOL    HW118629   2.735   4.915   0.774
 5910SOL    HW218630   2.813   4.830   0.890
 5911SOL     OW18631   5.395   6.619   0.112
 5911SOL    HW118632   5.318   6.579   0.161
 5911SOL    HW218633   5.361   6.686   0.045
 5912SOL     OW18634   0.204   2.750   5.623
 5912SOL    HW118635   0.176   2.821   5.558
 5912SOL    HW218636   0.178   2.779   5.715
 5913SOL     OW18637   1.088   2.295   5.296
 5913SOL    HW118638   1.171   2.295   5.352
 5913SOL    HW218639   1.058   2.200   5.282
 5914SOL     OW18640   2.030   5.683   0.982
 5914SOL    HW118641   2.026   5.590   0.944
 5914SOL    HW218642   2.027   5.679   1.082
 5915SOL     OW18643   5.180   3.257   3.702
 5915SOL    HW118644   5.163   3.191   3.629
 5915SOL    HW218645   5.159   3.349   3.670
 5916SOL     OW18646   3.285   0.346   6.113
 5916SOL    HW118647   3.262   0.294   6.031
 5916SOL    HW218648   3.261   0.293   6.194
 5917SOL     OW18649   4.067   3.347   2.777
 5917SOL    HW118650   3.968   3.356   2.779
 5917SOL    HW218651   4.106   3.389   2.859
 5918SOL     OW18652   2.452   2.601   3.591
 5918SOL    HW118653   2.503   2.569   3.511
 5918SOL    HW218654   2.397   2.526   3.628
 5919SOL     OW18655   1.401   2.793   6.975
 5919SOL    HW118656   1.445   2.881   6.957
 5919SOL    HW218657   1.326   2.805   0.024
 5920SOL     OW18658   2.903   5.216   6.991
 5920SOL    HW118659   2.915   5.176   0.065
 5920SOL    HW218660   2.991   5.245   6.955
 5921SOL     OW18661   3.921   5.367   5.545
 5921SOL    HW118662   4.002   5.352   5.489
 5921SOL    HW218663   3.865   5.438   5.504
 5922SOL     OW18664   5.889   4.232   1.835
 5922SOL    HW118665   5.882   4.169   1.758
 5922SOL    HW218666   5.807   4.225   1.892
 5923SOL     OW18667   0.034   0.162   3.335
 5923SOL    HW118668   0.005   0.196   3.245
 5923SOL    HW218669   0.118   0.109   3.325
 5924SOL     OW18670   5.315   2.312   4.759
 5924SOL    HW118671   5.378   2.389   4.763
 5924SOL    HW218672   5.241   2.325   4.825
 5925SOL     OW18673   6.437   6.024   1.093
 5925SOL    HW118674   6.482   6.005   1.005
 5925SOL    HW218675   6.338   6.025   1.080
 5926SOL     OW18676   3.766   4.974   2.063
 5926SOL    HW118677   3.797   5.042   1.997
 5926SOL    HW218678   3.685   4.927   2.027
 5927SOL     OW18679   2.314   5.615   2.286
 5927SOL    HW118680   2.218   5.593   2.268
 5927SOL    HW218681   2.362   5.628   2.200
 5928SOL     OW18682   1.062   6.625   1.981
 5928SOL    HW118683   1.039   6.531   1.957
 5928SOL    HW218684   0.989   6.687   1.953
 5929SOL     OW18685   1.490   0.013   5.601
 5929SOL    HW118686   1.487   6.933   5.624
 5929SOL    HW218687   1.403   0.041   5.560
 5930SOL     OW18688   0.002   1.256   5.366
 5930SOL    HW118689   6.975   1.317   5.432
 5930SOL    HW218690   6.998   1.288   5.273
 5931SOL     OW18691   5.699   5.463   1.462
 5931SOL    HW118692   5.630   5.492   1.527
 5931SOL    HW218693   5.748   5.384   1.498
 5932SOL     OW18694   2.226   6.866   0.031
 5932SOL    HW118695   2.174   6.790   0.070
 5932SOL    HW218696   2.323   6.855   0.051
 5933SOL     OW18697   6.069   3.409   2.760
 5933SOL    HW118698   6.161   3.378   2.735
 5933SOL    HW218699   6.039   3.363   2.843
 5934SOL     OW18700   3.554   4.143   2.977
 5934SOL    HW118701   3.611   4.135   2.895
 5934SOL    HW218702   3.458   4.129   2.953
 5935SOL     OW18703   3.944   3.084   3.029
 5935SOL    HW118704   3.953   3.033   2.943
 5935SOL    HW218705   3.902   3.024   3.098
 5936SOL     OW18706   5.571   6.102   6.041
 5936SOL    HW118707   5.578   6.129   6.137
 5936SOL    HW218708   5.662   6.104   5.999
 5937SOL     OW18709   0.838   3.856   0.466
 5937SOL    HW118710   0.798   3.785   0.523
 5937SOL    HW218711   0.875   3.929   0.524
 5938SOL     OW18712   1.786   4.294   1.238
 5938SOL    HW118713   1.882   4.322   1.238
 5938SOL    HW218714   1.741   4.329   1.320
 5939SOL     OW18715   2.407   0.988   2.979
 5939SOL    HW118716   2.479   1.017   2.916
 5939SOL    HW218717   2.389   1.061   3.044
 5940SOL     OW18718   4.528   5.056   3.642
 5940SOL    HW118719   4.529   5.155   3.629
 5940SOL    HW218720   4.622   5.022   3.649
 5941SOL     OW18721   6.404   4.460   2.511
 5941SOL    HW118722   6.422   4.452   2.413
 5941SOL    HW218723   6.391   4.368   2.550
 5942SOL     OW18724   5.642   1.665   5.679
 5942SOL    HW118725   5.579   1.742   5.687
 5942SOL    HW218726   5.602   1.585   5.723
 5943SOL     OW18727   1.146   5.297   0.155
 5943SOL    HW118728   1.204   5.252   0.087
 5943SOL    HW218729   1.050   5.288   0.128
 5944SOL     OW18730   4.710   1.848   2.723
 5944SOL    HW118731   4.611   1.858   2.715
 5944SOL    HW218732   4.749   1.823   2.635
 5945SOL     OW18733   0.229   5.097   5.737
 5945SOL    HW118734   0.302   5.095   5.805
 5945SOL    HW218735   0.233   5.183   5.687
 5946SOL     OW18736   4.050   2.817   5.289
 5946SOL    HW118737   4.036   2.759   5.209
 5946SOL    HW218738   4.114   2.772   5.352
 5947SOL     OW18739   4.282   3.694   1.748
 5947SOL    HW118740   4.246   3.717   1.839
 5947SOL    HW218741   4.243   3.757   1.680
 5948SOL     OW18742   3.804   4.842   3.050
 5948SOL    HW118743   3.758   4.931   3.059
 5948SOL    HW218744   3.780   4.802   2.961
 5949SOL     OW18745   4.440   4.743   2.197
 5949SOL    HW118746   4.416   4.689   2.278
 5949SOL    HW218747   4.530   4.715   2.164
 5950SOL     OW18748   6.423   2.572   3.407
 5950SOL    HW118749   6.394   2.548   3.315
 5950SOL    HW218750   6.446   2.489   3.458
 5951SOL     OW18751   2.048   6.129   3.484
 5951SOL    HW118752   1.984   6.140   3.560
 5951SOL    HW218753   2.072   6.219   3.447
 5952SOL     OW18754   6.927   6.870   4.905
 5952SOL    HW118755   6.997   6.938   4.922
 5952SOL    HW218756   6.966   6.793   4.854
 5953SOL     OW18757   0.321   3.208   6.309
 5953SOL    HW118758   0.239   3.228   6.362
 5953SOL    HW218759   0.402   3.222   6.365
 5954SOL     OW18760   1.485   4.853   6.702
 5954SOL    HW118761   1.434   4.776   6.665
 5954SOL    HW218762   1.421   4.927   6.725
 5955SOL     OW18763   5.230   5.743   2.569
 5955SOL    HW118764   5.302   5.681   2.600
 5955SOL    HW218765   5.148   5.690   2.547
 5956SOL     OW18766   6.025   2.559   6.878
 5956SOL    HW118767   6.046   2.548   6.975
 5956SOL    HW218768   6.106   2.593   6.829
 5957SOL     OW18769   4.763   6.565   5.626
 5957SOL    HW118770   4.751   6.590   5.530
 5957SOL    HW218771   4.684   6.596   5.679
 5958SOL     OW18772   0.858   5.862   2.380
 5958SOL    HW118773   0.813   5.837   2.465
 5958SOL    HW218774   0.953   5.830   2.381
 5959SOL     OW18775   1.853   1.434   6.611
 5959SOL    HW118776   1.922   1.411   6.543
 5959SOL    HW218777   1.815   1.350   6.649
 5960SOL     OW18778   3.666   0.598   4.623
 5960SOL    HW118779   3.742   0.541   4.655
 5960SOL    HW218780   3.702   0.672   4.566
 5961SOL     OW18781   2.872   0.872   6.105
 5961SOL    HW118782   2.866   0.969   6.127
 5961SOL    HW218783   2.968   0.846   6.096
 5962SOL     OW18784   5.321   5.475   2.371
 5962SOL    HW118785   5.340   5.498   2.466
 5962SOL    HW218786   5.285   5.382   2.365
 5963SOL     OW18787   3.993   3.928   2.123
 5963SOL    HW118788   4.018   3.882   2.208
 5963SOL    HW218789   3.940   4.010   2.143
 5964SOL     OW18790   1.184   4.195   5.846
 5964SOL    HW118791   1.268   4.212   5.796
 5964SOL    HW218792   1.114   4.260   5.817
 5965SOL     OW18793   2.259   1.580   4.322
 5965SOL    HW118794   2.329   1.652   4.324
 5965SOL    HW218795   2.240   1.549   4.415
 5966SOL     OW18796   1.655   6.756   4.104
 5966SOL    HW118797   1.584   6.821   4.130
 5966SOL    HW218798   1.643   6.731   4.008
 5967SOL     OW18799   4.727   6.821   2.346
 5967SOL    HW118800   4.681   6.868   2.271
 5967SOL    HW218801   4.753   6.887   2.416
 5968SOL     OW18802   0.418   2.147   4.203
 5968SOL    HW118803   0.481   2.134   4.280
 5968SOL    HW218804   0.341   2.203   4.232
 5969SOL     OW18805   5.675   2.837   2.731
 5969SOL    HW118806   5.670   2.802   2.824
 5969SOL    HW218807   5.711   2.930   2.732
 5970SOL     OW18808   1.995   2.797   3.764
 5970SOL    HW118809   1.911   2.798   3.819
 5970SOL    HW218810   2.073   2.821   3.822
 5971SOL     OW18811   2.562   6.877   2.718
 5971SOL    HW118812   2.520   6.965   2.739
 5971SOL    HW218813   2.492   6.813   2.687
 5972SOL     OW18814   4.402   6.555   1.218
 5972SOL    HW118815   4.415   6.490   1.143
 5972SOL    HW218816   4.489   6.600   1.238
 5973SOL     OW18817   0.821   4.596   3.598
 5973SOL    HW118818   0.887   4.576   3.525
 5973SOL    HW218819   0.871   4.610   3.684
 5974SOL     OW18820   1.060   3.935   6.182
 5974SOL    HW118821   0.996   3.991   6.130
 5974SOL    HW218822   1.030   3.930   6.278
 5975SOL     OW18823   1.768   2.969   7.010
 5975SOL    HW118824   1.799   3.062   0.013
 5975SOL    HW218825   1.688   2.972   6.950
 5976SOL     OW18826   3.208   3.844   4.933
 5976SOL    HW118827   3.113   3.839   4.966
 5976SOL    HW218828   3.235   3.755   4.897
 5977SOL     OW18829   0.961   3.191   3.333
 5977SOL    HW118830   0.962   3.131   3.253
 5977SOL    HW218831   0.906   3.150   3.405
 5978SOL     OW18832   5.390   5.561   3.073
 5978SOL    HW118833   5.297   5.525   3.058
 5978SOL    HW218834   5.437   5.503   3.139
 5979SOL     OW18835   0.406   0.787   2.814
 5979SOL    HW118836   0.370   0.833   2.894
 5979SOL    HW218837   0.385   0.841   2.732
 5980SOL     OW18838   6.483   3.719   5.993
 5980SOL    HW118839   6.548   3.795   5.994
 5980SOL    HW218840   6.435   3.715   6.080
 5981SOL     OW18841   3.761   1.381   1.293
 5981SOL    HW118842   3.780   1.405   1.388
 5981SOL    HW218843   3.839   1.332   1.255
 5982SOL     OW18844   5.959   2.817   6.754
 5982SOL    HW118845   6.029   2.856   6.694
 5982SOL    HW218846   5.993   2.730   6.792
 5983SOL     OW18847   1.118   1.454   4.893
 5983SOL    HW118848   1.211   1.487   4.875
 5983SOL    HW218849   1.079   1.416   4.809
 5984SOL     OW18850   0.341   0.155   5.254
 5984SOL    HW118851   0.242   0.144   5.253
 5984SOL    HW218852   0.372   0.164   5.349
 5985SOL     OW18853   4.805   2.927   4.263
 5985SOL    HW118854   4.837   2.992   4.332
 5985SOL    HW218855   4.719   2.886   4.294
 5986SOL     OW18856   3.742   3.092   2.362
 5986SOL    HW118857   3.703   3.182   2.344
 5986SOL    HW218858   3.676   3.021   2.336
 5987SOL     OW18859   4.282   0.006   5.270
 5987SOL    HW118860   4.202   6.973   5.236
 5987SOL    HW218861   4.366   6.977   5.240
 5988SOL     OW18862   4.291   0.603   3.846
 5988SOL    HW118863   4.232   0.660   3.903
 5988SOL    HW218864   4.380   0.647   3.834
 5989SOL     OW18865   2.617   0.946   6.527
 5989SOL    HW118866   2.705   0.899   6.520
 5989SOL    HW218867   2.585   0.970   6.435
 5990SOL     OW18868   3.096   4.847   2.008
 5990SOL    HW118869   3.168   4.795   1.962
 5990SOL    HW218870   3.013   4.845   1.952
 5991SOL     OW18871   3.078   5.176   3.819
 5991SOL    HW118872   3.007   5.162   3.750
 5991SOL    HW218873   3.142   5.100   3.818
 5992SOL     OW18874   4.571   0.887   4.248
 5992SOL    HW118875   4.584   0.882   4.347
 5992SOL    HW218876   4.579   0.982   4.218
 5993SOL     OW18877   3.701   5.426   4.524
 5993SOL    HW118878   3.605   5.441   4.500
 5993SOL    HW218879   3.756   5.499   4.485
 5994SOL     OW18880   6.763   2.563   1.765
 5994SOL    HW118881   6.795   2.587   1.856
 5994SOL    HW218882   6.787   2.468   1.744
 5995SOL     OW18883   0.107   4.645   1.106
 5995SOL    HW118884   0.030   4.604   1.056
 5995SOL    HW218885   0.158   4.706   1.046
 5996SOL     OW18886   0.592   5.196   6.264
 5996SOL    HW118887   0.617   5.153   6.350
 5996SOL    HW218888   0.656   5.169   6.192
 5997SOL     OW18889   0.804   0.289   1.958
 5997SOL    HW118890   0.764   0.263   1.870
 5997SOL    HW218891   0.866   0.216   1.989
 5998SOL     OW18892   4.260   2.065   3.574
 5998SOL    HW118893   4.292   2.154   3.542
 5998SOL    HW218894   4.201   2.024   3.504
 5999SOL     OW18895   1.869   1.685   2.851
 5999SOL    HW118896   1.868   1.610   2.784
 5999SOL    HW218897   1.781   1.732   2.849
 6000SOL     OW18898   4.392   6.320   2.913
 6000SOL    HW118899   4.473   6.336   2.856
 6000SOL    HW218900   4.337   6.247   2.872
 6001SOL     OW18901   6.308   2.121   6.768
 6001SOL    HW118902   6.256   2.185   6.826
 6001SOL    HW218903   6.257   2.036   6.758
 6002SOL     OW18904   1.743   7.001   1.928
 6002SOL    HW118905   1.651   6.995   1.967
 6002SOL    HW218906   1.739   6.983   1.830
 6003SOL     OW18907   4.597   4.343   3.800
 6003SOL    HW118908   4.588   4.399   3.718
 6003SOL    HW218909   4.663   4.269   3.783
 6004SOL     OW18910   0.099   3.998   1.510
 6004SOL    HW118911   0.056   3.968   1.595
 6004SOL    HW218912   0.168   4.068   1.531
 6005SOL     OW18913   2.525   6.137   2.387
 6005SOL    HW118914   2.450   6.085   2.347
 6005SOL    HW218915   2.560   6.090   2.468
 6006SOL     OW18916   2.350   5.898   6.918
 6006SOL    HW118917   2.328   5.988   6.880
 6006SOL    HW218918   2.449   5.889   6.930
 6007SOL     OW18919   5.542   2.326   3.969
 6007SOL    HW118920   5.522   2.242   3.919
 6007SOL    HW218921   5.492   2.326   4.056
 6008SOL     OW18922   3.932   4.707   6.941
 6008SOL    HW118923   3.926   4.660   0.012
 6008SOL    HW218924   3.874   4.661   6.874
 6009SOL     OW18925   3.177   1.532   4.185
 6009SOL    HW118926   3.201   1.614   4.237
 6009SOL    HW218927   3.124   1.470   4.243
 6010SOL     OW18928   1.934   2.504   3.374
 6010SOL    HW118929   1.972   2.500   3.466
 6010SOL    HW218930   2.007   2.522   3.308
 6011SOL     OW18931   6.768   3.348   2.559
 6011SOL    HW118932   6.832   3.362   2.634
 6011SOL    HW218933   6.811   3.373   2.473
 6012SOL     OW18934   6.667   3.312   0.943
 6012SOL    HW118935   6.701   3.354   0.859
 6012SOL    HW218936   6.742   3.269   0.992
 6013SOL     OW18937   5.857   1.043   2.500
 6013SOL    HW118938   5.898   0.952   2.506
 6013SOL    HW218939   5.757   1.034   2.498
 6014SOL     OW18940   5.568   0.168   1.317
 6014SOL    HW118941   5.592   0.261   1.288
 6014SOL    HW218942   5.472   0.164   1.342
 6015SOL     OW18943   4.985   1.758   4.722
 6015SOL    HW118944   4.899   1.801   4.697
 6015SOL    HW218945   5.061   1.815   4.692
 6016SOL     OW18946   1.863   6.960   5.309
 6016SOL    HW118947   1.834   0.034   5.341
 6016SOL    HW218948   1.891   6.966   5.213
 6017SOL     OW18949   6.796   4.047   2.647
 6017SOL    HW118950   6.828   4.113   2.715
 6017SOL    HW218951   6.808   4.085   2.556
 6018SOL     OW18952   2.436   4.948   0.985
 6018SOL    HW118953   2.513   5.004   0.953
 6018SOL    HW218954   2.471   4.865   1.028
 6019SOL     OW18955   5.266   6.806   4.019
 6019SOL    HW118956   5.309   6.727   3.974
 6019SOL    HW218957   5.327   6.885   4.013
 6020SOL     OW18958   3.342   0.670   2.832
 6020SOL    HW118959   3.417   0.734   2.849
 6020SOL    HW218960   3.377   0.577   2.827
 6021SOL     OW18961   4.177   0.471   2.661
 6021SOL    HW118962   4.129   0.409   2.599
 6021SOL    HW218963   4.110   0.523   2.715
 6022SOL     OW18964   4.112   1.575   5.470
 6022SOL    HW118965   4.208   1.596   5.489
 6022SOL    HW218966   4.073   1.524   5.547
 6023SOL     OW18967   6.645   1.956   2.449
 6023SOL    HW118968   6.576   1.946   2.520
 6023SOL    HW218969   6.611   1.919   2.363
 6024SOL     OW18970   0.609   4.746   2.109
 6024SOL    HW118971   0.569   4.759   2.199
 6024SOL    HW218972   0.555   4.794   2.040
 6025SOL     OW18973   4.103   1.940   2.116
 6025SOL    HW118974   4.160   1.864   2.147
 6025SOL    HW218975   4.117   2.019   2.176
 6026SOL     OW18976   1.181   4.547   5.313
 6026SOL    HW118977   1.093   4.549   5.362
 6026SOL    HW218978   1.253   4.578   5.375
 6027SOL     OW18979   3.068   3.588   1.188
 6027SOL    HW118980   2.997   3.603   1.120
 6027SOL    HW218981   3.148   3.644   1.165
 6028SOL     OW18982   1.603   3.787   6.955
 6028SOL    HW118983   1.536   3.857   6.979
 6028SOL    HW218984   1.556   3.705   6.922
 6029SOL     OW18985   1.305   4.980   1.359
 6029SOL    HW118986   1.361   4.934   1.290
 6029SOL    HW218987   1.217   5.006   1.319
 6030SOL     OW18988   1.916   0.082   0.891
 6030SOL    HW118989   2.008   0.099   0.925
 6030SOL    HW218990   1.849   0.106   0.961
 6031SOL     OW18991   5.580   0.199   5.032
 6031SOL    HW118992   5.566   0.134   4.958
 6031SOL    HW218993   5.491   0.222   5.073
 6032SOL     OW18994   0.500   3.619   2.781
 6032SOL    HW118995   0.523   3.711   2.748
 6032SOL    HW218996   0.539   3.551   2.719
 6033SOL     OW18997   1.148   0.433   4.434
 6033SOL    HW118998   1.146   0.532   4.425
 6033SOL    HW218999   1.224   0.396   4.381
 6034SOL     OW19000   2.209   4.070   4.747
 6034SOL    HW119001   2.260   4.064   4.833
 6034SOL    HW219002   2.186   3.978   4.716
 6035SOL     OW19003   5.939   0.719   4.045
 6035SOL    HW119004   5.974   0.742   3.954
 6035SOL    HW219005   5.998   0.650   4.087
 6036SOL     OW19006   0.315   1.181   4.329
 6036SOL    HW119007   0.400   1.191   4.276
 6036SOL    HW219008   0.335   1.195   4.426
 6037SOL     OW19009   6.638   5.094   5.143
 6037SOL    HW119010   6.640   4.997   5.169
 6037SOL    HW219011   6.609   5.102   5.048
 6038SOL     OW19012   5.024   4.198   6.400
 6038SOL    HW119013   5.116   4.194   6.440
 6038SOL    HW219014   4.972   4.271   6.444
 6039SOL     OW19015   3.369   3.427   3.562
 6039SOL    HW119016   3.305   3.504   3.569
 6039SOL    HW219017   3.427   3.438   3.481
 6040SOL     OW19018   0.858   1.830   0.244
 6040SOL    HW119019   0.853   1.917   0.292
 6040SOL    HW219020   0.863   1.847   0.145
 6041SOL     OW19021   0.748   2.863   0.231
 6041SOL    HW119022   0.762   2.962   0.227
 6041SOL    HW219023   0.701   2.839   0.316
 6042SOL     OW19024   5.763   4.927   4.547
 6042SOL    HW119025   5.808   5.012   4.574
 6042SOL    HW219026   5.800   4.851   4.600
 6043SOL     OW19027   0.345   4.877   3.990
 6043SOL    HW119028   0.333   4.785   3.952
 6043SOL    HW219029   0.436   4.883   4.032
 6044SOL     OW19030   1.102   0.766   1.337
 6044SOL    HW119031   1.057   0.769   1.426
 6044SOL    HW219032   1.134   0.673   1.319
 6045SOL     OW19033   0.328   3.929   1.044
 6045SOL    HW119034   0.414   3.883   1.021
 6045SOL    HW219035   0.264   3.918   0.968
 6046SOL     OW19036   2.947   2.734   0.407
 6046SOL    HW119037   2.965   2.821   0.453
 6046SOL    HW219038   2.957   2.659   0.473
 6047SOL     OW19039   0.209   6.355   5.116
 6047SOL    HW119040   0.274   6.431   5.104
 6047SOL    HW219041   0.259   6.271   5.134
 6048SOL     OW19042   4.891   6.080   4.949
 6048SOL    HW119043   4.909   6.033   5.035
 6048SOL    HW219044   4.957   6.154   4.937
 6049SOL     OW19045   6.001   5.457   1.630
 6049SOL    HW119046   5.949   5.375   1.605
 6049SOL    HW219047   5.937   5.533   1.647
 6050SOL     OW19048   4.826   4.383   5.542
 6050SOL    HW119049   4.911   4.430   5.516
 6050SOL    HW219050   4.843   4.328   5.624
 6051SOL     OW19051   2.013   2.264   3.542
 6051SOL    HW119052   2.022   2.275   3.443
 6051SOL    HW219053   2.028   2.352   3.587
 6052SOL     OW19054   6.299   0.842   0.123
 6052SOL    HW119055   6.366   0.770   0.105
 6052SOL    HW219056   6.311   0.877   0.215
 6053SOL     OW19057   1.820   0.595   6.142
 6053SOL    HW119058   1.763   0.643   6.075
 6053SOL    HW219059   1.876   0.662   6.191
 6054SOL     OW19060   2.623   4.870   0.108
 6054SOL    HW119061   2.661   4.801   0.170
 6054SOL    HW219062   2.644   4.961   0.142
 6055SOL     OW19063   5.125   0.640   3.937
 6055SOL    HW119064   5.206   0.650   3.880
 6055SOL    HW219065   5.088   0.730   3.958
 6056SOL     OW19066   4.937   3.056   6.347
 6056SOL    HW119067   4.969   3.078   6.439
 6056SOL    HW219068   4.845   3.092   6.335
 6057SOL     OW19069   3.499   0.773   6.300
 6057SOL    HW119070   3.426   0.765   6.368
 6057SOL    HW219071   3.459   0.780   6.209
 6058SOL     OW19072   5.640   1.621   3.891
 6058SOL    HW119073   5.571   1.606   3.820
 6058SOL    HW219074   5.718   1.560   3.874
 6059SOL     OW19075   0.079   5.828   6.446
 6059SOL    HW119076   0.125   5.741   6.462
 6059SOL    HW219077   0.139   5.887   6.392
 6060SOL     OW19078   3.308   6.531   6.240
 6060SOL    HW119079   3.239   6.603   6.239
 6060SOL    HW219080   3.337   6.514   6.334
 6061SOL     OW19081   2.185   1.897   6.490
 6061SOL    HW119082   2.149   1.805   6.476
 6061SOL    HW219083   2.198   1.914   6.587
 6062SOL     OW19084   2.581   0.875   4.439
 6062SOL    HW119085   2.543   0.967   4.434
 6062SOL    HW219086   2.628   0.853   4.353
 6063SOL     OW19087   4.431   0.142   0.239
 6063SOL    HW119088   4.501   0.071   0.243
 6063SOL    HW219089   4.393   0.147   0.147
 6064SOL     OW19090   0.885   5.843   3.609
 6064SOL    HW119091   0.893   5.898   3.526
 6064SOL    HW219092   0.902   5.747   3.587
 6065SOL     OW19093   6.401   0.344   0.872
 6065SOL    HW119094   6.377   0.296   0.788
 6065SOL    HW219095   6.467   0.290   0.924
 6066SOL     OW19096   4.651   2.372   0.162
 6066SOL    HW119097   4.718   2.405   0.096
 6066SOL    HW219098   4.587   2.445   0.185
 6067SOL     OW19099   5.762   2.127   0.068
 6067SOL    HW119100   5.782   2.190   0.144
 6067SOL    HW219101   5.731   2.039   0.104
 6068SOL     OW19102   4.739   2.285   5.032
 6068SOL    HW119103   4.700   2.256   5.119
 6068SOL    HW219104   4.665   2.297   4.965
 6069SOL     OW19105   6.060   3.783   4.413
 6069SOL    HW119106   5.963   3.791   4.392
 6069SOL    HW219107   6.073   3.718   4.488
 6070SOL     OW19108   3.568   2.263   6.594
 6070SOL    HW119109   3.563   2.333   6.665
 6070SOL    HW219110   3.578   2.306   6.504
 6071SOL     OW19111   4.655   6.099   5.311
 6071SOL    HW119112   4.618   6.126   5.222
 6071SOL    HW219113   4.751   6.125   5.317
 6072SOL     OW19114   6.853   2.197   1.018
 6072SOL    HW119115   6.812   2.112   0.986
 6072SOL    HW219116   6.923   2.228   0.953
 6073SOL     OW19117   0.085   2.169   1.679
 6073SOL    HW119118   0.066   2.265   1.659
 6073SOL    HW219119   0.164   2.163   1.740
 6074SOL     OW19120   0.741   0.390   4.794
 6074SOL    HW119121   0.766   0.466   4.735
 6074SOL    HW219122   0.796   0.310   4.772
 6075SOL     OW19123   5.191   4.362   6.793
 6075SOL    HW119124   5.251   4.410   6.730
 6075SOL    HW219125   5.152   4.427   6.859
 6076SOL     OW19126   2.539   6.488   3.716
 6076SOL    HW119127   2.524   6.565   3.654
 6076SOL    HW219128   2.549   6.523   3.809
 6077SOL     OW19129   5.577   5.823   2.526
 6077SOL    HW119130   5.658   5.842   2.470
 6077SOL    HW219131   5.495   5.848   2.475
 6078SOL     OW19132   2.459   4.910   3.105
 6078SOL    HW119133   2.396   4.843   3.144
 6078SOL    HW219134   2.475   4.887   3.009
 6079SOL     OW19135   1.797   1.334   0.166
 6079SOL    HW119136   1.852   1.281   0.101
 6079SOL    HW219137   1.855   1.360   0.243
 6080SOL     OW19138   5.914   2.083   2.765
 6080SOL    HW119139   5.901   2.181   2.781
 6080SOL    HW219140   5.853   2.032   2.826
 6081SOL     OW19141   0.633   4.368   2.993
 6081SOL    HW119142   0.663   4.300   2.926
 6081SOL    HW219143   0.685   4.356   3.078
 6082SOL     OW19144   3.854   1.683   4.514
 6082SOL    HW119145   3.862   1.600   4.458
 6082SOL    HW219146   3.943   1.729   4.518
 6083SOL     OW19147   1.839   6.901   0.257
 6083SOL    HW119148   1.885   6.831   0.312
 6083SOL    HW219149   1.746   6.914   0.290
 6084SOL     OW19150   0.377   5.018   6.227
 6084SOL    HW119151   0.401   4.923   6.248
 6084SOL    HW219152   0.446   5.079   6.265
 6085SOL     OW19153   4.915   4.235   1.440
 6085SOL    HW119154   4.856   4.250   1.519
 6085SOL    HW219155   4.860   4.200   1.364
 6086SOL     OW19156   2.479   1.784   3.252
 6086SOL    HW119157   2.388   1.781   3.212
 6086SOL    HW219158   2.540   1.837   3.193
 6087SOL     OW19159   4.755   6.707   0.149
 6087SOL    HW119160   4.684   6.739   0.086
 6087SOL    HW219161   4.800   6.626   0.111
 6088SOL     OW19162   6.824   0.154   5.006
 6088SOL    HW119163   6.765   0.172   4.927
 6088SOL    HW219164   6.809   0.222   5.077
 6089SOL     OW19165   6.832   3.250   0.080
 6089SOL    HW119166   6.762   3.305   0.126
 6089SOL    HW219167   6.825   3.155   0.110
 6090SOL     OW19168   0.199   5.978   4.173
 6090SOL    HW119169   0.111   5.990   4.129
 6090SOL    HW219170   0.267   5.948   4.106
 6091SOL     OW19171   5.965   1.981   1.681
 6091SOL    HW119172   5.899   1.962   1.609
 6091SOL    HW219173   5.918   2.015   1.762
 6092SOL     OW19174   1.527   2.623   1.091
 6092SOL    HW119175   1.554   2.530   1.064
 6092SOL    HW219176   1.429   2.633   1.077
 6093SOL     OW19177   1.079   3.122   0.928
 6093SOL    HW119178   1.061   3.113   1.026
 6093SOL    HW219179   1.060   3.216   0.900
 6094SOL     OW19180   0.840   0.613   0.929
 6094SOL    HW119181   0.790   0.681   0.875
 6094SOL    HW219182   0.926   0.653   0.962
 6095SOL     OW19183   6.942   4.270   5.305
 6095SOL    HW119184   6.864   4.276   5.242
 6095SOL    HW219185   7.004   4.198   5.274
 6096SOL     OW19186   3.593   1.845   2.604
 6096SOL    HW119187   3.497   1.823   2.623
 6096SOL    HW219188   3.651   1.769   2.632
 6097SOL     OW19189   3.144   2.051   2.040
 6097SOL    HW119190   3.122   1.992   1.962
 6097SOL    HW219191   3.060   2.093   2.074
 6098SOL     OW19192   1.656   1.500   5.762
 6098SOL    HW119193   1.567   1.499   5.717
 6098SOL    HW219194   1.653   1.445   5.845
 6099SOL     OW19195   6.209   5.085   5.178
 6099SOL    HW119196   6.282   5.113   5.241
 6099SOL    HW219197   6.244   5.085   5.084
 6100SOL     OW19198   6.518   2.711   0.205
 6100SOL    HW119199   6.463   2.765   0.141
 6100SOL    HW219200   6.479   2.720   0.297
 6101SOL     OW19201   5.626   1.761   4.108
 6101SOL    HW119202   5.632   1.693   4.182
 6101SOL    HW219203   5.625   1.714   4.020
 6102SOL     OW19204   3.070   0.711   5.296
 6102SOL    HW119205   3.092   0.617   5.323
 6102SOL    HW219206   3.112   0.730   5.207
 6103SOL     OW19207   6.289   0.527   5.480
 6103SOL    HW119208   6.248   0.477   5.555
 6103SOL    HW219209   6.265   0.484   5.393
 6104SOL     OW19210   1.875   3.183   0.770
 6104SOL    HW119211   1.834   3.169   0.680
 6104SOL    HW219212   1.805   3.171   0.841
 6105SOL     OW19213   3.377   5.481   4.217
 6105SOL    HW119214   3.347   5.389   4.190
 6105SOL    HW219215   3.383   5.486   4.316
 6106SOL     OW19216   3.418   5.371   4.485
 6106SOL    HW119217   3.320   5.353   4.495
 6106SOL    HW219218   3.468   5.285   4.487
 6107SOL     OW19219   2.310   5.168   5.032
 6107SOL    HW119220   2.382   5.098   5.033
 6107SOL    HW219221   2.269   5.172   4.941
 6108SOL     OW19222   6.885   2.239   4.223
 6108SOL    HW119223   6.827   2.158   4.228
 6108SOL    HW219224   6.901   2.263   4.127
 6109SOL     OW19225   6.647   4.383   2.001
 6109SOL    HW119226   6.566   4.402   1.946
 6109SOL    HW219227   6.721   4.349   1.942
 6110SOL     OW19228   3.197   2.149   3.991
 6110SOL    HW119229   3.162   2.074   4.048
 6110SOL    HW219230   3.289   2.174   4.023
 6111SOL     OW19231   0.606   4.866   3.138
 6111SOL    HW119232   0.596   4.945   3.199
 6111SOL    HW219233   0.676   4.885   3.069
 6112SOL     OW19234   1.044   1.882   2.431
 6112SOL    HW119235   1.056   1.879   2.331
 6112SOL    HW219236   1.023   1.975   2.459
 6113SOL     OW19237   1.872   5.776   5.283
 6113SOL    HW119238   1.866   5.753   5.380
 6113SOL    HW219239   1.808   5.718   5.232
 6114SOL     OW19240   5.252   5.342   0.718
 6114SOL    HW119241   5.295   5.346   0.628
 6114SOL    HW219242   5.296   5.271   0.773
 6115SOL     OW19243   6.340   4.740   2.582
 6115SOL    HW119244   6.340   4.653   2.532
 6115SOL    HW219245   6.411   4.799   2.544
 6116SOL     OW19246   3.511   1.825   1.441
 6116SOL    HW119247   3.571   1.750   1.469
 6116SOL    HW219248   3.439   1.837   1.509
 6117SOL     OW19249   5.443   6.735   4.467
 6117SOL    HW119250   5.521   6.749   4.528
 6117SOL    HW219251   5.401   6.823   4.445
 6118SOL     OW19252   5.701   7.009   2.768
 6118SOL    HW119253   5.785   6.972   2.807
 6118SOL    HW219254   5.692   0.089   2.792
 6119SOL     OW19255   6.336   5.042   3.738
 6119SOL    HW119256   6.383   4.953   3.741
 6119SOL    HW219257   6.299   5.063   3.829
 6120SOL     OW19258   2.772   0.606   3.015
 6120SOL    HW119259   2.862   0.562   3.024
 6120SOL    HW219260   2.783   0.693   2.968
 6121SOL     OW19261   6.368   2.484   4.407
 6121SOL    HW119262   6.403   2.539   4.332
 6121SOL    HW219263   6.275   2.454   4.387
 6122SOL     OW19264   4.280   5.560   3.655
 6122SOL    HW119265   4.310   5.655   3.661
 6122SOL    HW219266   4.210   5.543   3.724
 6123SOL     OW19267   6.946   1.224   1.800
 6123SOL    HW119268   6.867   1.247   1.743
 6123SOL    HW219269   7.006   1.303   1.808
 6124SOL     OW19270   2.829   0.359   5.611
 6124SOL    HW119271   2.750   0.393   5.663
 6124SOL    HW219272   2.798   0.329   5.520
 6125SOL     OW19273   1.714   5.137   2.390
 6125SOL    HW119274   1.738   5.043   2.366
 6125SOL    HW219275   1.796   5.195   2.385
 6126SOL     OW19276   5.121   5.492   2.183
 6126SOL    HW119277   5.201   5.488   2.243
 6126SOL    HW219278   5.055   5.422   2.211
 6127SOL     OW19279   2.080   4.301   1.910
 6127SOL    HW119280   2.008   4.274   1.845
 6127SOL    HW219281   2.070   4.398   1.932
 6128SOL     OW19282   5.347   2.598   1.085
 6128SOL    HW119283   5.248   2.586   1.081
 6128SOL    HW219284   5.385   2.595   0.992
 6129SOL     OW19285   6.154   3.982   3.520
 6129SOL    HW119286   6.097   3.941   3.591
 6129SOL    HW219287   6.110   3.969   3.430
 6130SOL     OW19288   5.737   4.163   2.750
 6130SOL    HW119289   5.733   4.232   2.679
 6130SOL    HW219290   5.832   4.149   2.778
 6131SOL     OW19291   6.753   1.147   5.088
 6131SOL    HW119292   6.656   1.129   5.074
 6131SOL    HW219293   6.795   1.177   5.002
 6132SOL     OW19294   6.404   2.423   0.265
 6132SOL    HW119295   6.421   2.379   0.353
 6132SOL    HW219296   6.442   2.516   0.266
 6133SOL     OW19297   1.827   4.150   0.166
 6133SOL    HW119298   1.903   4.134   0.229
 6133SOL    HW219299   1.745   4.106   0.202
 6134SOL     OW19300   4.957   2.762   0.324
 6134SOL    HW119301   5.056   2.771   0.330
 6134SOL    HW219302   4.913   2.838   0.372
 6135SOL     OW19303   5.392   0.245   1.617
 6135SOL    HW119304   5.479   0.294   1.613
 6135SOL    HW219305   5.323   0.295   1.564
 6136SOL     OW19306   0.341   1.512   1.469
 6136SOL    HW119307   0.324   1.509   1.370
 6136SOL    HW219308   0.345   1.607   1.499
 6137SOL     OW19309   2.641   6.722   5.802
 6137SOL    HW119310   2.691   6.637   5.785
 6137SOL    HW219311   2.558   6.701   5.855
 6138SOL     OW19312   4.487   6.925   2.805
 6138SOL    HW119313   4.517   7.012   2.844
 6138SOL    HW219314   4.389   6.914   2.820
 6139SOL     OW19315   2.024   5.341   4.418
 6139SOL    HW119316   1.933   5.381   4.405
 6139SOL    HW219317   2.055   5.301   4.332
 6140SOL     OW19318   1.949   6.374   0.938
 6140SOL    HW119319   2.023   6.315   0.905
 6140SOL    HW219320   1.895   6.325   1.005
 6141SOL     OW19321   6.341   6.457   5.663
 6141SOL    HW119322   6.346   6.550   5.698
 6141SOL    HW219323   6.246   6.436   5.637
 6142SOL     OW19324   0.442   4.583   2.745
 6142SOL    HW119325   0.470   4.606   2.838
 6142SOL    HW219326   0.416   4.486   2.741
 6143SOL     OW19327   6.491   4.314   6.497
 6143SOL    HW119328   6.510   4.412   6.487
 6143SOL    HW219329   6.443   4.281   6.415
 6144SOL     OW19330   0.084   5.257   4.158
 6144SOL    HW119331   0.011   5.255   4.090
 6144SOL    HW219332   0.100   5.352   4.187
 6145SOL     OW19333   5.186   5.625   3.763
 6145SOL    HW119334   5.099   5.667   3.737
 6145SOL    HW219335   5.253   5.639   3.691
 6146SOL     OW19336   5.495   0.794   3.180
 6146SOL    HW119337   5.568   0.862   3.169
 6146SOL    HW219338   5.535   0.707   3.211
 6147SOL     OW19339   1.448   3.596   2.999
 6147SOL    HW119340   1.511   3.531   3.041
 6147SOL    HW219341   1.499   3.653   2.934
 6148SOL     OW19342   6.196   6.313   4.132
 6148SOL    HW119343   6.139   6.392   4.156
 6148SOL    HW219344   6.255   6.291   4.210
 6149SOL     OW19345   2.505   6.746   3.861
 6149SOL    HW119346   2.585   6.769   3.806
 6149SOL    HW219347   2.422   6.760   3.807
 6150SOL     OW19348   4.109   5.641   5.979
 6150SOL    HW119349   4.069   5.695   6.053
 6150SOL    HW219350   4.040   5.582   5.940
 6151SOL     OW19351   4.410   1.436   5.829
 6151SOL    HW119352   4.434   1.493   5.907
 6151SOL    HW219353   4.324   1.389   5.846
 6152SOL     OW19354   6.804   5.070   6.580
 6152SOL    HW119355   6.792   5.165   6.552
 6152SOL    HW219356   6.902   5.050   6.591
 6153SOL     OW19357   4.772   4.349   6.989
 6153SOL    HW119358   4.851   4.360   0.032
 6153SOL    HW219359   4.802   4.318   6.899
 6154SOL     OW19360   5.244   2.823   2.855
 6154SOL    HW119361   5.239   2.828   2.955
 6154SOL    HW219362   5.189   2.745   2.823
 6155SOL     OW19363   1.470   3.835   4.129
 6155SOL    HW119364   1.452   3.800   4.221
 6155SOL    HW219365   1.403   3.798   4.065
 6156SOL     OW19366   6.564   0.457   4.150
 6156SOL    HW119367   6.503   0.432   4.225
 6156SOL    HW219368   6.641   0.509   4.186
 6157SOL     OW19369   1.655   1.566   3.372
 6157SOL    HW119370   1.646   1.621   3.455
 6157SOL    HW219371   1.704   1.481   3.394
 6158SOL     OW19372   4.580   1.145   0.718
 6158SOL    HW119373   4.552   1.191   0.634
 6158SOL    HW219374   4.500   1.129   0.776
 6159SOL     OW19375   5.241   3.216   0.185
 6159SOL    HW119376   5.204   3.125   0.167
 6159SOL    HW219377   5.327   3.207   0.235
 6160SOL     OW19378   6.583   4.893   2.259
 6160SOL    HW119379   6.646   4.815   2.255
 6160SOL    HW219380   6.524   4.891   2.179
 6161SOL     OW19381   5.453   0.323   6.496
 6161SOL    HW119382   5.359   0.348   6.520
 6161SOL    HW219383   5.477   0.365   6.408
 6162SOL     OW19384   5.908   5.391   3.950
 6162SOL    HW119385   5.916   5.296   3.919
 6162SOL    HW219386   5.874   5.393   4.044
 6163SOL     OW19387   6.973   3.914   1.745
 6163SOL    HW119388   6.873   3.921   1.748
 6163SOL    HW219389   7.009   3.921   1.838
 6164SOL     OW19390   4.602   2.765   0.890
 6164SOL    HW119391   4.563   2.768   0.982
 6164SOL    HW219392   4.550   2.702   0.833
 6165SOL     OW19393   4.670   6.292   0.078
 6165SOL    HW119394   4.764   6.270   0.052
 6165SOL    HW219395   4.633   6.358   0.014
 6166SOL     OW19396   3.693   1.684   0.066
 6166SOL    HW119397   3.758   1.700   0.140
 6166SOL    HW219398   3.743   1.657   7.000
 6167SOL     OW19399   6.746   4.921   3.412
 6167SOL    HW119400   6.713   4.834   3.376
 6167SOL    HW219401   6.796   4.970   3.340
 6168SOL     OW19402   0.554   2.462   2.021
 6168SOL    HW119403   0.586   2.368   2.009
 6168SOL    HW219404   0.472   2.462   2.079
 6169SOL     OW19405   1.943   4.018   2.360
 6169SOL    HW119406   1.991   3.934   2.335
 6169SOL    HW219407   1.893   4.053   2.281
 6170SOL     OW19408   6.837   2.489   3.640
 6170SOL    HW119409   6.820   2.415   3.706
 6170SOL    HW219410   6.935   2.494   3.622
 6171SOL     OW19411   6.601   0.596   6.331
 6171SOL    HW119412   6.670   0.614   6.261
 6171SOL    HW219413   6.515   0.570   6.287
 6172SOL     OW19414   0.995   4.619   3.843
 6172SOL    HW119415   0.939   4.678   3.902
 6172SOL    HW219416   1.004   4.529   3.886
 6173SOL     OW19417   5.879   6.034   3.382
 6173SOL    HW119418   5.964   5.983   3.392
 6173SOL    HW219419   5.870   6.067   3.288
 6174SOL     OW19420   5.888   3.011   1.851
 6174SOL    HW119421   5.950   2.964   1.789
 6174SOL    HW219422   5.915   2.992   1.946
 6175SOL     OW19423   3.535   2.118   6.255
 6175SOL    HW119424   3.515   2.020   6.264
 6175SOL    HW219425   3.460   2.163   6.207
 6176SOL     OW19426   3.715   4.374   6.158
 6176SOL    HW119427   3.748   4.468   6.148
 6176SOL    HW219428   3.624   4.375   6.197
 6177SOL     OW19429   5.850   6.849   1.302
 6177SOL    HW119430   5.757   6.813   1.292
 6177SOL    HW219431   5.849   6.948   1.288
 6178SOL     OW19432   4.080   4.609   1.510
 6178SOL    HW119433   4.159   4.568   1.557
 6178SOL    HW219434   4.071   4.569   1.419
 6179SOL     OW19435   6.087   4.876   4.899
 6179SOL    HW119436   6.058   4.837   4.987
 6179SOL    HW219437   6.172   4.927   4.911
 6180SOL     OW19438   3.136   4.534   6.585
 6180SOL    HW119439   3.173   4.577   6.667
 6180SOL    HW219440   3.092   4.603   6.527
 6181SOL     OW19441   5.919   6.152   0.055
 6181SOL    HW119442   6.017   6.157   0.072
 6181SOL    HW219443   5.900   6.179   6.977
 6182SOL     OW19444   3.433   2.476   0.647
 6182SOL    HW119445   3.445   2.379   0.627
 6182SOL    HW219446   3.456   2.531   0.566
 6183SOL     OW19447   6.999   6.936   0.462
 6183SOL    HW119448   0.006   0.017   0.469
 6183SOL    HW219449   7.007   6.894   0.552
 6184SOL     OW19450   2.667   6.366   5.599
 6184SOL    HW119451   2.766   6.368   5.607
 6184SOL    HW219452   2.642   6.369   5.502
 6185SOL     OW19453   3.893   3.095   4.745
 6185SOL    HW119454   3.832   3.060   4.816
 6185SOL    HW219455   3.883   3.040   4.662
 6186SOL     OW19456   0.556   1.899   2.057
 6186SOL    HW119457   0.557   1.971   2.126
 6186SOL    HW219458   0.537   1.811   2.101
 6187SOL     OW19459   3.239   1.239   5.960
 6187SOL    HW119460   3.187   1.294   5.895
 6187SOL    HW219461   3.333   1.274   5.966
 6188SOL     OW19462   1.753   1.246   5.018
 6188SOL    HW119463   1.668   1.198   5.039
 6188SOL    HW219464   1.737   1.344   5.017
 6189SOL     OW19465   6.460   5.569   1.206
 6189SOL    HW119466   6.473   5.631   1.284
 6189SOL    HW219467   6.434   5.479   1.239
 6190SOL     OW19468   0.437   3.158   4.672
 6190SOL    HW119469   0.374   3.130   4.744
 6190SOL    HW219470   0.531   3.156   4.707
 6191SOL     OW19471   3.366   3.625   0.278
 6191SOL    HW119472   3.306   3.613   0.357
 6191SOL    HW219473   3.350   3.551   0.212
 6192SOL     OW19474   2.991   1.736   0.732
 6192SOL    HW119475   3.065   1.724   0.799
 6192SOL    HW219476   2.961   1.646   0.700
 6193SOL     OW19477   4.159   5.940   6.589
 6193SOL    HW119478   4.165   5.918   6.686
 6193SOL    HW219479   4.245   5.982   6.559
 6194SOL     OW19480   5.472   6.784   6.870
 6194SOL    HW119481   5.451   6.712   6.805
 6194SOL    HW219482   5.395   6.847   6.876
 6195SOL     OW19483   6.106   6.203   6.424
 6195SOL    HW119484   6.133   6.134   6.491
 6195SOL    HW219485   6.099   6.161   6.334
 6196SOL     OW19486   5.779   3.580   2.737
 6196SOL    HW119487   5.850   3.583   2.807
 6196SOL    HW219488   5.771   3.670   2.693
 6197SOL     OW19489   1.033   5.431   0.914
 6197SOL    HW119490   0.978   5.445   0.997
 6197SOL    HW219491   1.112   5.492   0.917
 6198SOL     OW19492   5.692   1.129   6.777
 6198SOL    HW119493   5.747   1.212   6.789
 6198SOL    HW219494   5.741   1.051   6.817
 6199SOL     OW19495   2.121   0.137   5.925
 6199SOL    HW119496   2.182   0.087   5.864
 6199SOL    HW219497   2.073   0.209   5.874
 6200SOL     OW19498   1.465   0.584   1.256
 6200SOL    HW119499   1.515   0.611   1.339
 6200SOL    HW219500   1.486   0.489   1.234
 6201SOL     OW19501   0.585   4.810   2.661
 6201SOL    HW119502   0.620   4.803   2.568
 6201SOL    HW219503   0.524   4.732   2.680
 6202SOL     OW19504   5.864   1.292   2.600
 6202SOL    HW119505   5.952   1.339   2.600
 6202SOL    HW219506   5.874   1.202   2.557
 6203SOL     OW19507   6.424   0.220   1.971
 6203SOL    HW119508   6.521   0.219   1.996
 6203SOL    HW219509   6.370   0.247   2.050
 6204SOL     OW19510   1.260   6.434   5.290
 6204SOL    HW119511   1.166   6.400   5.286
 6204SOL    HW219512   1.258   6.533   5.307
 6205SOL     OW19513   5.446   4.305   3.883
 6205SOL    HW119514   5.463   4.239   3.809
 6205SOL    HW219515   5.520   4.299   3.950
 6206SOL     OW19516   5.406   1.581   3.441
 6206SOL    HW119517   5.502   1.606   3.449
 6206SOL    HW219518   5.349   1.663   3.444
 6207SOL     OW19519   0.815   5.714   4.166
 6207SOL    HW119520   0.905   5.692   4.205
 6207SOL    HW219521   0.744   5.690   4.232
 6208SOL     OW19522   4.487   4.375   5.654
 6208SOL    HW119523   4.510   4.283   5.622
 6208SOL    HW219524   4.484   4.438   5.576
 6209SOL     OW19525   3.405   2.388   1.707
 6209SOL    HW119526   3.490   2.379   1.760
 6209SOL    HW219527   3.340   2.318   1.737
 6210SOL     OW19528   5.192   1.904   4.663
 6210SOL    HW119529   5.265   1.882   4.729
 6210SOL    HW219530   5.232   1.915   4.572
 6211SOL     OW19531   5.721   4.426   4.986
 6211SOL    HW119532   5.695   4.343   4.936
 6211SOL    HW219533   5.676   4.426   5.075
 6212SOL     OW19534   5.257   5.112   5.279
 6212SOL    HW119535   5.208   5.168   5.213
 6212SOL    HW219536   5.335   5.069   5.235
 6213SOL     OW19537   4.139   5.846   0.354
 6213SOL    HW119538   4.055   5.791   0.353
 6213SOL    HW219539   4.116   5.940   0.328
 6214SOL     OW19540   6.117   6.865   6.966
 6214SOL    HW119541   6.177   6.930   6.920
 6214SOL    HW219542   6.025   6.904   6.975
 6215SOL     OW19543   5.669   2.518   5.250
 6215SOL    HW119544   5.696   2.489   5.158
 6215SOL    HW219545   5.684   2.617   5.259
 6216SOL     OW19546   4.458   1.540   4.271
 6216SOL    HW119547   4.503   1.467   4.322
 6216SOL    HW219548   4.489   1.540   4.176
 6217SOL     OW19549   0.360   4.388   3.057
 6217SOL    HW119550   0.440   4.385   2.997
 6217SOL    HW219551   0.301   4.465   3.031
 6218SOL     OW19552   4.719   5.649   0.128
 6218SOL    HW119553   4.657   5.607   0.063
 6218SOL    HW219554   4.775   5.578   0.172
 6219SOL     OW19555   2.271   1.363   6.800
 6219SOL    HW119556   2.292   1.442   6.742
 6219SOL    HW219557   2.268   1.280   6.744
 6220SOL     OW19558   3.463   6.253   0.552
 6220SOL    HW119559   3.364   6.250   0.565
 6220SOL    HW219560   3.494   6.348   0.551
 6221SOL     OW19561   5.370   5.801   6.628
 6221SOL    HW119562   5.357   5.826   6.532
 6221SOL    HW219563   5.466   5.816   6.653
 6222SOL     OW19564   6.884   1.581   2.213
 6222SOL    HW119565   6.943   1.506   2.184
 6222SOL    HW219566   6.915   1.666   2.170
 6223SOL     OW19567   0.047   4.840   4.119
 6223SOL    HW119568   0.105   4.870   4.044
 6223SOL    HW219569   0.101   4.831   4.202
 6224SOL     OW19570   4.025   0.148   0.318
 6224SOL    HW119571   3.941   0.109   0.280
 6224SOL    HW219572   4.098   0.080   0.315
 6225SOL     OW19573   4.867   6.298   6.491
 6225SOL    HW119574   4.905   6.276   6.581
 6225SOL    HW219575   4.904   6.235   6.423
 6226SOL     OW19576   1.142   0.909   4.459
 6226SOL    HW119577   1.141   0.888   4.361
 6226SOL    HW219578   1.145   1.008   4.471
 6227SOL     OW19579   3.043   4.946   5.630
 6227SOL    HW119580   3.109   4.874   5.609
 6227SOL    HW219581   2.952   4.917   5.603
 6228SOL     OW19582   1.012   3.261   3.866
 6228SOL    HW119583   1.039   3.270   3.770
 6228SOL    HW219584   0.918   3.292   3.877
 6229SOL     OW19585   0.640   3.075   3.855
 6229SOL    HW119586   0.708   3.138   3.892
 6229SOL    HW219587   0.562   3.069   3.918
 6230SOL     OW19588   0.210   0.988   1.526
 6230SOL    HW119589   0.278   1.031   1.585
 6230SOL    HW219590   0.256   0.930   1.459
 6231SOL     OW19591   2.503   5.054   6.157
 6231SOL    HW119592   2.550   4.966   6.156
 6231SOL    HW219593   2.547   5.114   6.224
 6232SOL     OW19594   3.900   0.376   6.559
 6232SOL    HW119595   3.982   0.359   6.505
 6232SOL    HW219596   3.909   0.463   6.608
 6233SOL     OW19597   6.642   3.453   1.179
 6233SOL    HW119598   6.647   3.396   1.097
 6233SOL    HW219599   6.708   3.420   1.247
 6234SOL     OW19600   5.058   4.850   4.647
 6234SOL    HW119601   4.984   4.916   4.634
 6234SOL    HW219602   5.044   4.801   4.733
 6235SOL     OW19603   0.546   0.309   2.810
 6235SOL    HW119604   0.555   0.359   2.723
 6235SOL    HW219605   0.453   0.274   2.818
 6236SOL     OW19606   6.554   5.805   2.094
 6236SOL    HW119607   6.648   5.838   2.105
 6236SOL    HW219608   6.556   5.707   2.073
 6237SOL     OW19609   3.275   1.014   2.265
 6237SOL    HW119610   3.316   0.941   2.319
 6237SOL    HW219611   3.290   1.101   2.311
 6238SOL     OW19612   2.670   0.707   3.851
 6238SOL    HW119613   2.697   0.722   3.756
 6238SOL    HW219614   2.683   0.611   3.875
 6239SOL     OW19615   4.705   1.156   4.621
 6239SOL    HW119616   4.655   1.229   4.574
 6239SOL    HW219617   4.756   1.195   4.698
 6240SOL     OW19618   4.109   3.237   3.850
 6240SOL    HW119619   4.127   3.325   3.896
 6240SOL    HW219620   4.025   3.198   3.886
 6241SOL     OW19621   3.478   6.840   3.456
 6241SOL    HW119622   3.456   6.936   3.440
 6241SOL    HW219623   3.524   6.802   3.376
 6242SOL     OW19624   2.721   2.025   3.485
 6242SOL    HW119625   2.806   2.003   3.533
 6242SOL    HW219626   2.732   2.111   3.435
 6243SOL     OW19627   4.571   1.642   6.752
 6243SOL    HW119628   4.582   1.654   6.654
 6243SOL    HW219629   4.582   1.730   6.799
 6244SOL     OW19630   4.628   2.435   1.751
 6244SOL    HW119631   4.574   2.432   1.835
 6244SOL    HW219632   4.688   2.515   1.753
 6245SOL     OW19633   0.224   5.200   1.867
 6245SOL    HW119634   0.313   5.159   1.889
 6245SOL    HW219635   0.179   5.147   1.795
 6246SOL     OW19636   6.989   0.186   4.534
 6246SOL    HW119637   7.016   0.090   4.543
 6246SOL    HW219638   6.945   0.200   4.445
 6247SOL     OW19639   6.414   5.960   3.793
 6247SOL    HW119640   6.494   5.906   3.769
 6247SOL    HW219641   6.336   5.931   3.738
 6248SOL     OW19642   3.849   2.994   5.144
 6248SOL    HW119643   3.818   3.089   5.142
 6248SOL    HW219644   3.948   2.990   5.135
 6249SOL     OW19645   6.243   3.525   2.389
 6249SOL    HW119646   6.179   3.588   2.433
 6249SOL    HW219647   6.193   3.444   2.356
 6250SOL     OW19648   5.733   7.001   6.623
 6250SOL    HW119649   5.788   0.059   6.584
 6250SOL    HW219650   5.641   7.004   6.585
 6251SOL     OW19651   2.660   0.478   4.311
 6251SOL    HW119652   2.657   0.459   4.213
 6251SOL    HW219653   2.756   0.487   4.340
 6252SOL     OW19654   3.287   5.152   6.515
 6252SOL    HW119655   3.268   5.060   6.550
 6252SOL    HW219656   3.306   5.214   6.591
 6253SOL     OW19657   3.721   5.884   3.758
 6253SOL    HW119658   3.818   5.901   3.771
 6253SOL    HW219659   3.689   5.928   3.674
 6254SOL     OW19660   0.367   0.164   1.605
 6254SOL    HW119661   0.318   0.123   1.529
 6254SOL    HW219662   0.441   0.103   1.634
 6255SOL     OW19663   1.440   1.734   0.498
 6255SOL    HW119664   1.511   1.676   0.537
 6255SOL    HW219665   1.479   1.822   0.470
 6256SOL     OW19666   5.758   5.894   2.347
 6256SOL    HW119667   5.700   5.893   2.265
 6256SOL    HW219668   5.831   5.961   2.335
 6257SOL     OW19669   3.398   4.807   0.616
 6257SOL    HW119670   3.323   4.836   0.557
 6257SOL    HW219671   3.441   4.725   0.578
 6258SOL     OW19672   4.582   5.098   5.229
 6258SOL    HW119673   4.588   5.029   5.157
 6258SOL    HW219674   4.614   5.060   5.315
 6259SOL     OW19675   4.184   1.150   4.828
 6259SOL    HW119676   4.134   1.142   4.915
 6259SOL    HW219677   4.197   1.247   4.806
 6260SOL     OW19678   1.846   1.510   0.452
 6260SOL    HW119679   1.882   1.576   0.386
 6260SOL    HW219680   1.803   1.559   0.528
 6261SOL     OW19681   3.540   0.133   0.574
 6261SOL    HW119682   3.558   0.187   0.492
 6261SOL    HW219683   3.574   0.181   0.654
 6262SOL     OW19684   5.976   1.171   2.291
 6262SOL    HW119685   5.931   1.135   2.373
 6262SOL    HW219686   5.998   1.095   2.229
 6263SOL     OW19687   6.383   5.832   5.821
 6263SOL    HW119688   6.369   5.910   5.759
 6263SOL    HW219689   6.294   5.795   5.849
 6264SOL     OW19690   2.334   6.128   6.800
 6264SOL    HW119691   2.302   6.217   6.833
 6264SOL    HW219692   2.312   6.120   6.702
 6265SOL     OW19693   4.439   6.792   6.079
 6265SOL    HW119694   4.402   6.853   6.149
 6265SOL    HW219695   4.486   6.716   6.123
 6266SOL     OW19696   3.247   5.235   2.625
 6266SOL    HW119697   3.187   5.212   2.549
 6266SOL    HW219698   3.330   5.279   2.591
 6267SOL     OW19699   1.663   6.666   4.833
 6267SOL    HW119700   1.630   6.701   4.745
 6267SOL    HW219701   1.588   6.664   4.899
 6268SOL     OW19702   3.296   1.738   0.806
 6268SOL    HW119703   3.379   1.718   0.857
 6268SOL    HW219704   3.297   1.834   0.776
 6269SOL     OW19705   0.013   5.431   6.714
 6269SOL    HW119706   6.994   5.410   6.805
 6269SOL    HW219707   0.034   5.528   6.708
 6270SOL     OW19708   2.172   6.233   0.897
 6270SOL    HW119709   2.139   6.139   0.892
 6270SOL    HW219710   2.203   6.253   0.990
 6271SOL     OW19711   6.602   2.979   5.544
 6271SOL    HW119712   6.590   2.990   5.643
 6271SOL    HW219713   6.643   3.062   5.506
 6272SOL     OW19714   0.266   0.766   0.084
 6272SOL    HW119715   0.243   0.860   0.059
 6272SOL    HW219716   0.196   0.730   0.146
 6273SOL     OW19717   0.877   6.618   2.424
 6273SOL    HW119718   0.909   6.523   2.428
 6273SOL    HW219719   0.938   6.676   2.477
 6274SOL     OW19720   2.717   5.764   3.677
 6274SOL    HW119721   2.774   5.718   3.744
 6274SOL    HW219722   2.652   5.824   3.724
 6275SOL     OW19723   3.068   5.814   6.414
 6275SOL    HW119724   3.099   5.832   6.321
 6275SOL    HW219725   3.088   5.719   6.438
 6276SOL     OW19726   1.113   5.775   2.404
 6276SOL    HW119727   1.180   5.702   2.419
 6276SOL    HW219728   1.149   5.839   2.335
 6277SOL     OW19729   5.714   2.453   1.374
 6277SOL    HW119730   5.625   2.414   1.351
 6277SOL    HW219731   5.770   2.459   1.292
 6278SOL     OW19732   4.418   2.071   0.636
 6278SOL    HW119733   4.468   2.120   0.707
 6278SOL    HW219734   4.396   2.134   0.561
 6279SOL     OW19735   3.564   6.832   1.256
 6279SOL    HW119736   3.489   6.771   1.231
 6279SOL    HW219737   3.529   6.923   1.278
 6280SOL     OW19738   5.215   2.773   6.543
 6280SOL    HW119739   5.240   2.762   6.447
 6280SOL    HW219740   5.293   2.745   6.601
 6281SOL     OW19741   4.884   4.335   6.134
 6281SOL    HW119742   4.807   4.276   6.158
 6281SOL    HW219743   4.952   4.333   6.207
 6282SOL     OW19744   0.330   3.767   6.144
 6282SOL    HW119745   0.261   3.725   6.203
 6282SOL    HW219746   0.420   3.759   6.187
 6283SOL     OW19747   2.503   6.667   4.506
 6283SOL    HW119748   2.470   6.595   4.444
 6283SOL    HW219749   2.580   6.633   4.559
 6284SOL     OW19750   1.393   3.177   5.375
 6284SOL    HW119751   1.293   3.173   5.376
 6284SOL    HW219752   1.426   3.160   5.282
 6285SOL     OW19753   1.272   3.295   2.687
 6285SOL    HW119754   1.259   3.393   2.704
 6285SOL    HW219755   1.342   3.283   2.616
 6286SOL     OW19756   0.971   2.402   6.674
 6286SOL    HW119757   0.972   2.462   6.593
 6286SOL    HW219758   0.964   2.307   6.644
 6287SOL     OW19759   4.819   4.707   5.218
 6287SOL    HW119760   4.721   4.720   5.206
 6287SOL    HW219761   4.846   4.619   5.177
 6288SOL     OW19762   2.439   3.973   5.983
 6288SOL    HW119763   2.454   3.952   6.080
 6288SOL    HW219764   2.365   4.039   5.975
 6289SOL     OW19765   2.236   4.830   5.182
 6289SOL    HW119766   2.213   4.745   5.134
 6289SOL    HW219767   2.309   4.877   5.133
 6290SOL     OW19768   5.973   6.761   4.102
 6290SOL    HW119769   5.980   6.856   4.072
 6290SOL    HW219770   5.881   6.743   4.135
 6291SOL     OW19771   3.819   3.645   2.172
 6291SOL    HW119772   3.829   3.636   2.272
 6291SOL    HW219773   3.909   3.661   2.131
 6292SOL     OW19774   1.591   4.848   4.168
 6292SOL    HW119775   1.592   4.940   4.206
 6292SOL    HW219776   1.497   4.812   4.172
 6293SOL     OW19777   3.053   1.884   6.270
 6293SOL    HW119778   3.108   1.804   6.295
 6293SOL    HW219779   3.104   1.967   6.291
 6294SOL     OW19780   1.965   1.532   2.255
 6294SOL    HW119781   2.022   1.549   2.174
 6294SOL    HW219782   1.972   1.436   2.281
 6295SOL     OW19783   4.457   3.346   6.276
 6295SOL    HW119784   4.385   3.279   6.263
 6295SOL    HW219785   4.457   3.410   6.199
 6296SOL     OW19786   0.996   2.740   6.769
 6296SOL    HW119787   0.912   2.766   6.722
 6296SOL    HW219788   0.979   2.660   6.826
 6297SOL     OW19789   6.569   1.525   3.839
 6297SOL    HW119790   6.521   1.611   3.856
 6297SOL    HW219791   6.525   1.477   3.763
 6298SOL     OW19792   0.390   6.510   1.252
 6298SOL    HW119793   0.370   6.434   1.189
 6298SOL    HW219794   0.465   6.565   1.214
 6299SOL     OW19795   3.806   1.601   3.832
 6299SOL    HW119796   3.721   1.590   3.884
 6299SOL    HW219797   3.862   1.519   3.842
 6300SOL     OW19798   2.664   1.824   0.046
 6300SOL    HW119799   2.688   1.728   0.034
 6300SOL    HW219800   2.626   1.860   6.978
 6301SOL     OW19801   4.253   6.252   6.804
 6301SOL    HW119802   4.309   6.295   6.733
 6301SOL    HW219803   4.287   6.160   6.823
 6302SOL     OW19804   1.931   2.992   6.777
 6302SOL    HW119805   1.860   2.950   6.834
 6302SOL    HW219806   2.011   2.933   6.774
 6303SOL     OW19807   0.671   5.595   4.589
 6303SOL    HW119808   0.639   5.632   4.501
 6303SOL    HW219809   0.593   5.561   4.641
 6304SOL     OW19810   3.252   0.833   4.522
 6304SOL    HW119811   3.161   0.873   4.527
 6304SOL    HW219812   3.249   0.739   4.556
 6305SOL     OW19813   0.896   5.657   5.900
 6305SOL    HW119814   0.951   5.602   5.837
 6305SOL    HW219815   0.851   5.730   5.850
 6306SOL     OW19816   0.590   4.589   5.237
 6306SOL    HW119817   0.565   4.554   5.146
 6306SOL    HW219818   0.666   4.536   5.273
 6307SOL     OW19819   3.966   3.091   2.208
 6307SOL    HW119820   4.028   3.141   2.268
 6307SOL    HW219821   3.886   3.062   2.261
 6308SOL     OW19822   0.485   2.514   0.120
 6308SOL    HW119823   0.547   2.576   0.072
 6308SOL    HW219824   0.486   2.425   0.076
 6309SOL     OW19825   2.005   6.287   4.776
 6309SOL    HW119826   2.076   6.316   4.712
 6309SOL    HW219827   2.047   6.240   4.854
 6310SOL     OW19828   1.224   6.955   3.694
 6310SOL    HW119829   1.318   6.925   3.677
 6310SOL    HW219830   1.225   0.028   3.738
 6311SOL     OW19831   6.294   1.114   6.608
 6311SOL    HW119832   6.216   1.123   6.671
 6311SOL    HW219833   6.336   1.204   6.596
 6312SOL     OW19834   2.991   5.529   0.231
 6312SOL    HW119835   3.036   5.603   0.281
 6312SOL    HW219836   3.048   5.500   0.154
 6313SOL     OW19837   6.283   4.244   3.842
 6313SOL    HW119838   6.229   4.297   3.777
 6313SOL    HW219839   6.301   4.299   3.924
 6314SOL     OW19840   1.867   6.587   2.836
 6314SOL    HW119841   1.946   6.545   2.792
 6314SOL    HW219842   1.894   6.675   2.875
 6315SOL     OW19843   1.996   1.568   3.723
 6315SOL    HW119844   2.015   1.624   3.643
 6315SOL    HW219845   2.082   1.533   3.761
 6316SOL     OW19846   4.478   0.572   4.925
 6316SOL    HW119847   4.493   0.659   4.970
 6316SOL    HW219848   4.527   0.500   4.974
 6317SOL     OW19849   5.592   4.601   2.743
 6317SOL    HW119850   5.667   4.640   2.689
 6317SOL    HW219851   5.629   4.549   2.819
 6318SOL     OW19852   6.465   6.848   6.960
 6318SOL    HW119853   6.433   6.756   6.982
 6318SOL    HW219854   6.509   6.848   6.870
 6319SOL     OW19855   4.966   2.112   4.343
 6319SOL    HW119856   4.940   2.171   4.419
 6319SOL    HW219857   5.034   2.046   4.374
 6320SOL     OW19858   6.091   1.472   5.374
 6320SOL    HW119859   6.073   1.402   5.304
 6320SOL    HW219860   6.061   1.438   5.463
 6321SOL     OW19861   0.116   2.529   0.240
 6321SOL    HW119862   0.132   2.516   0.142
 6321SOL    HW219863   0.113   2.627   0.260
 6322SOL     OW19864   1.219   1.185   3.199
 6322SOL    HW119865   1.287   1.218   3.134
 6322SOL    HW219866   1.138   1.155   3.150
 6323SOL     OW19867   2.224   4.876   0.798
 6323SOL    HW119868   2.200   4.799   0.739
 6323SOL    HW219869   2.316   4.863   0.835
 6324SOL     OW19870   5.014   3.599   1.447
 6324SOL    HW119871   5.017   3.504   1.417
 6324SOL    HW219872   4.935   3.613   1.506
 6325SOL     OW19873   1.601   3.102   4.129
 6325SOL    HW119874   1.670   3.099   4.200
 6325SOL    HW219875   1.629   3.166   4.057
 6326SOL     OW19876   5.309   5.276   5.563
 6326SOL    HW119877   5.335   5.335   5.488
 6326SOL    HW219878   5.379   5.279   5.635
 6327SOL     OW19879   0.469   1.243   3.670
 6327SOL    HW119880   0.454   1.209   3.763
 6327SOL    HW219881   0.551   1.300   3.669
 6328SOL     OW19882   4.787   3.775   5.298
 6328SOL    HW119883   4.753   3.694   5.251
 6328SOL    HW219884   4.872   3.754   5.345
 6329SOL     OW19885   0.932   1.985   5.912
 6329SOL    HW119886   0.944   1.975   5.813
 6329SOL    HW219887   0.846   1.942   5.939
 6330SOL     OW19888   4.560   1.157   4.170
 6330SOL    HW119889   4.480   1.205   4.134
 6330SOL    HW219890   4.638   1.172   4.110
 6331SOL     OW19891   1.154   3.302   4.106
 6331SOL    HW119892   1.145   3.396   4.138
 6331SOL    HW219893   1.128   3.298   4.009
 6332SOL     OW19894   3.302   1.613   6.806
 6332SOL    HW119895   3.321   1.647   6.898
 6332SOL    HW219896   3.235   1.673   6.762
 6333SOL     OW19897   5.586   1.050   1.212
 6333SOL    HW119898   5.511   1.116   1.204
 6333SOL    HW219899   5.594   0.998   1.127
 6334SOL     OW19900   1.625   0.900   1.315
 6334SOL    HW119901   1.713   0.931   1.279
 6334SOL    HW219902   1.583   0.972   1.370
 6335SOL     OW19903   6.580   3.023   5.857
 6335SOL    HW119904   6.652   3.056   5.918
 6335SOL    HW219905   6.586   2.923   5.850
 6336SOL     OW19906   0.668   3.763   5.614
 6336SOL    HW119907   0.683   3.862   5.612
 6336SOL    HW219908   0.642   3.732   5.523
 6337SOL     OW19909   5.336   0.187   5.334
 6337SOL    HW119910   5.383   0.265   5.373
 6337SOL    HW219911   5.315   0.120   5.406
 6338SOL     OW19912   0.919   0.738   3.269
 6338SOL    HW119913   0.848   0.670   3.254
 6338SOL    HW219914   0.886   0.829   3.243
 6339SOL     OW19915   0.245   3.741   3.481
 6339SOL    HW119916   0.190   3.800   3.422
 6339SOL    HW219917   0.198   3.654   3.494
 6340SOL     OW19918   2.889   4.505   0.616
 6340SOL    HW119919   2.855   4.448   0.691
 6340SOL    HW219920   2.827   4.581   0.601
 6341SOL     OW19921   0.383   5.621   1.919
 6341SOL    HW119922   0.364   5.649   1.824
 6341SOL    HW219923   0.465   5.565   1.921
 6342SOL     OW19924   1.935   0.976   1.873
 6342SOL    HW119925   1.952   0.998   1.777
 6342SOL    HW219926   1.877   0.894   1.878
 6343SOL     OW19927   1.060   5.786   0.516
 6343SOL    HW119928   1.128   5.727   0.560
 6343SOL    HW219929   1.087   5.804   0.422
 6344SOL     OW19930   0.999   1.439   4.411
 6344SOL    HW119931   1.020   1.397   4.322
 6344SOL    HW219932   1.033   1.533   4.412
 6345SOL     OW19933   5.786   2.425   3.028
 6345SOL    HW119934   5.743   2.337   3.050
 6345SOL    HW219935   5.856   2.411   2.958
 6346SOL     OW19936   0.016   4.142   5.003
 6346SOL    HW119937   0.056   4.094   4.926
 6346SOL    HW219938   0.071   4.127   5.085
 6347SOL     OW19939   2.165   2.162   3.310
 6347SOL    HW119940   2.159   2.234   3.241
 6347SOL    HW219941   2.201   2.079   3.269
 6348SOL     OW19942   0.932   2.689   6.015
 6348SOL    HW119943   0.952   2.714   6.110
 6348SOL    HW219944   1.002   2.728   5.955
 6349SOL     OW19945   6.269   0.989   0.803
 6349SOL    HW119946   6.343   0.962   0.741
 6349SOL    HW219947   6.181   0.969   0.760
 6350SOL     OW19948   1.114   5.982   1.921
 6350SOL    HW119949   1.114   5.892   1.877
 6350SOL    HW219950   1.207   6.004   1.952
 6351SOL     OW19951   5.830   3.770   1.468
 6351SOL    HW119952   5.868   3.716   1.393
 6351SOL    HW219953   5.895   3.842   1.494
 6352SOL     OW19954   3.954   0.708   4.822
 6352SOL    HW119955   3.906   0.796   4.815
 6352SOL    HW219956   4.013   0.697   4.743
 6353SOL     OW19957   3.793   6.069   5.154
 6353SOL    HW119958   3.819   6.036   5.063
 6353SOL    HW219959   3.862   6.133   5.187
 6354SOL     OW19960   5.020   5.264   2.397
 6354SOL    HW119961   5.001   5.191   2.462
 6354SOL    HW219962   5.018   5.228   2.304
 6355SOL     OW19963   3.146   5.433   0.830
 6355SOL    HW119964   3.068   5.444   0.891
 6355SOL    HW219965   3.171   5.336   0.825
 6356SOL     OW19966   0.199   6.040   6.304
 6356SOL    HW119967   0.154   6.045   6.214
 6356SOL    HW219968   0.163   6.113   6.362
 6357SOL     OW19969   5.227   0.819   2.754
 6357SOL    HW119970   5.246   0.740   2.696
 6357SOL    HW219971   5.201   0.897   2.697
 6358SOL     OW19972   0.974   2.146   4.845
 6358SOL    HW119973   0.998   2.242   4.826
 6358SOL    HW219974   0.875   2.135   4.839
 6359SOL     OW19975   5.436   6.103   1.629
 6359SOL    HW119976   5.504   6.113   1.557
 6359SOL    HW219977   5.378   6.024   1.611
 6360SOL     OW19978   1.295   1.898   1.098
 6360SOL    HW119979   1.338   1.808   1.108
 6360SOL    HW219980   1.361   1.962   1.059
 6361SOL     OW19981   0.402   1.354   0.844
 6361SOL    HW119982   0.442   1.266   0.817
 6361SOL    HW219983   0.475   1.413   0.879
 6362SOL     OW19984   1.694   5.483   0.747
 6362SOL    HW119985   1.681   5.580   0.727
 6362SOL    HW219986   1.783   5.470   0.790
 6363SOL     OW19987   1.837   3.735   1.892
 6363SOL    HW119988   1.817   3.830   1.868
 6363SOL    HW219989   1.917   3.703   1.840
 6364SOL     OW19990   2.909   2.271   4.514
 6364SOL    HW119991   2.847   2.289   4.590
 6364SOL    HW219992   2.862   2.286   4.428
 6365SOL     OW19993   5.933   6.943   2.971
 6365SOL    HW119994   5.984   6.888   2.906
 6365SOL    HW219995   5.969   0.020   2.972
 6366SOL     OW19996   5.744   0.974   4.689
 6366SOL    HW119997   5.718   1.071   4.693
 6366SOL    HW219998   5.723   0.931   4.777
 6367SOL     OW19999   1.296   2.313   3.220
 6367SOL    HW120000   1.349   2.229   3.230
 6367SOL    HW220001   1.341   2.387   3.270
 6368SOL     OW20002   4.878   3.701   4.774
 6368SOL    HW120003   4.978   3.696   4.785
 6368SOL    HW220004   4.834   3.664   4.855
 6369SOL     OW20005   4.407   4.629   0.466
 6369SOL    HW120006   4.392   4.530   0.463
 6369SOL    HW220007   4.476   4.654   0.397
 6370SOL     OW20008   5.394   4.313   4.385
 6370SOL    HW120009   5.444   4.399   4.370
 6370SOL    HW220010   5.355   4.282   4.298
 6371SOL     OW20011   5.475   4.850   1.165
 6371SOL    HW120012   5.484   4.943   1.199
 6371SOL    HW220013   5.437   4.792   1.237
 6372SOL     OW20014   6.371   1.667   1.548
 6372SOL    HW120015   6.311   1.736   1.589
 6372SOL    HW220016   6.462   1.674   1.589
 6373SOL     OW20017   4.887   3.343   2.315
 6373SOL    HW120018   4.834   3.263   2.287
 6373SOL    HW220019   4.894   3.407   2.238
 6374SOL     OW20020   4.893   3.638   6.990
 6374SOL    HW120021   4.827   3.619   6.917
 6374SOL    HW220022   4.961   3.565   6.993
 6375SOL     OW20023   5.006   1.004   2.191
 6375SOL    HW120024   5.063   0.969   2.265
 6375SOL    HW220025   5.055   0.998   2.104
 6376SOL     OW20026   2.502   0.331   0.523
 6376SOL    HW120027   2.476   0.234   0.525
 6376SOL    HW220028   2.495   0.365   0.429
 6377SOL     OW20029   0.505   0.784   0.221
 6377SOL    HW120030   0.583   0.763   0.161
 6377SOL    HW220031   0.420   0.757   0.176
 6378SOL     OW20032   5.773   4.735   2.579
 6378SOL    HW120033   5.870   4.735   2.554
 6378SOL    HW220034   5.721   4.686   2.509
 6379SOL     OW20035   1.748   5.077   6.437
 6379SOL    HW120036   1.761   5.138   6.359
 6379SOL    HW220037   1.658   5.033   6.431
 6380SOL     OW20038   0.988   3.516   5.164
 6380SOL    HW120039   0.959   3.611   5.175
 6380SOL    HW220040   1.085   3.508   5.187
 6381SOL     OW20041   4.120   3.587   0.385
 6381SOL    HW120042   4.139   3.494   0.352
 6381SOL    HW220043   4.025   3.611   0.364
 6382SOL     OW20044   1.351   1.287   0.264
 6382SOL    HW120045   1.441   1.318   0.295
 6382SOL    HW220046   1.362   1.233   0.181
 6383SOL     OW20047   2.386   2.645   2.082
 6383SOL    HW120048   2.465   2.607   2.034
 6383SOL    HW220049   2.306   2.588   2.064
 6384SOL     OW20050   6.477   2.731   2.042
 6384SOL    HW120051   6.452   2.739   1.945
 6384SOL    HW220052   6.461   2.637   2.073
 6385SOL     OW20053   6.750   3.995   0.191
 6385SOL    HW120054   6.733   3.907   0.147
 6385SOL    HW220055   6.824   4.043   0.143
 6386SOL     OW20056   3.020   2.927   0.712
 6386SOL    HW120057   2.984   2.857   0.773
 6386SOL    HW220058   3.112   2.903   0.683
 6387SOL     OW20059   0.074   6.537   6.848
 6387SOL    HW120060   0.161   6.586   6.843
 6387SOL    HW220061   0.045   6.510   6.756
 6388SOL     OW20062   5.421   5.328   1.925
 6388SOL    HW120063   5.486   5.356   1.854
 6388SOL    HW220064   5.448   5.366   2.013
 6389SOL     OW20065   6.557   6.735   0.843
 6389SOL    HW120066   6.594   6.757   0.753
 6389SOL    HW220067   6.630   6.701   0.902
 6390SOL     OW20068   5.343   0.616   0.341
 6390SOL    HW120069   5.375   0.680   0.410
 6390SOL    HW220070   5.339   0.524   0.380
 6391SOL     OW20071   1.450   2.003   4.983
 6391SOL    HW120072   1.475   2.096   5.010
 6391SOL    HW220073   1.519   1.939   5.018
 6392SOL     OW20074   4.820   6.990   4.118
 6392SOL    HW120075   4.899   6.988   4.179
 6392SOL    HW220076   4.742   6.947   4.163
 6393SOL     OW20077   1.709   4.751   0.437
 6393SOL    HW120078   1.689   4.654   0.452
 6393SOL    HW220079   1.655   4.806   0.502
 6394SOL     OW20080   1.742   5.043   1.720
 6394SOL    HW120081   1.837   5.073   1.728
 6394SOL    HW220082   1.729   4.992   1.635
 6395SOL     OW20083   2.010   4.167   3.787
 6395SOL    HW120084   1.957   4.150   3.869
 6395SOL    HW220085   1.963   4.126   3.708
 6396SOL     OW20086   1.976   3.022   5.361
 6396SOL    HW120087   1.979   3.013   5.461
 6396SOL    HW220088   2.068   3.043   5.327
 6397SOL     OW20089   5.804   4.110   4.924
 6397SOL    HW120090   5.777   4.045   4.995
 6397SOL    HW220091   5.880   4.166   4.958
 6398SOL     OW20092   2.439   0.085   2.797
 6398SOL    HW120093   2.358   0.077   2.738
 6398SOL    HW220094   2.468   0.180   2.800
 6399SOL     OW20095   3.360   0.041   0.138
 6399SOL    HW120096   3.322   0.074   0.224
 6399SOL    HW220097   3.460   0.051   0.140
 6400SOL     OW20098   0.820   6.562   3.123
 6400SOL    HW120099   0.731   6.556   3.078
 6400SOL    HW220100   0.876   6.483   3.099
 6401SOL     OW20101   4.385   5.168   2.670
 6401SOL    HW120102   4.364   5.133   2.579
 6401SOL    HW220103   4.383   5.268   2.668
 6402SOL     OW20104   2.879   4.635   5.640
 6402SOL    HW120105   2.935   4.556   5.666
 6402SOL    HW220106   2.853   4.685   5.723
 6403SOL     OW20107   5.575   5.274   5.663
 6403SOL    HW120108   5.553   5.209   5.736
 6403SOL    HW220109   5.653   5.240   5.610
 6404SOL     OW20110   5.077   6.511   1.276
 6404SOL    HW120111   5.127   6.426   1.258
 6404SOL    HW220112   5.094   6.541   1.370
 6405SOL     OW20113   4.421   1.183   2.799
 6405SOL    HW120114   4.434   1.126   2.880
 6405SOL    HW220115   4.472   1.145   2.722
 6406SOL     OW20116   0.324   3.446   2.969
 6406SOL    HW120117   0.403   3.499   2.936
 6406SOL    HW220118   0.265   3.504   3.023
 6407SOL     OW20119   0.339   6.705   2.807
 6407SOL    HW120120   0.279   6.625   2.797
 6407SOL    HW220121   0.285   6.783   2.839
 6408SOL     OW20122   0.390   1.152   1.902
 6408SOL    HW120123   0.398   1.185   1.809
 6408SOL    HW220124   0.298   1.115   1.917
 6409SOL     OW20125   5.326   4.780   3.644
 6409SOL    HW120126   5.328   4.686   3.680
 6409SOL    HW220127   5.375   4.840   3.707
 6410SOL     OW20128   2.112   1.154   0.107
 6410SOL    HW120129   2.188   1.189   0.052
 6410SOL    HW220130   2.127   1.176   0.203
 6411SOL     OW20131   0.454   2.974   2.151
 6411SOL    HW120132   0.404   2.946   2.069
 6411SOL    HW220133   0.389   2.981   2.227
 6412SOL     OW20134   3.870   1.160   6.731
 6412SOL    HW120135   3.863   1.068   6.769
 6412SOL    HW220136   3.960   1.172   6.689
 6413SOL     OW20137   4.653   6.126   3.707
 6413SOL    HW120138   4.581   6.196   3.703
 6413SOL    HW220139   4.741   6.170   3.726
 6414SOL     OW20140   2.572   0.609   0.613
 6414SOL    HW120141   2.608   0.676   0.549
 6414SOL    HW220142   2.579   0.517   0.573
 6415SOL     OW20143   0.792   1.990   3.998
 6415SOL    HW120144   0.882   2.015   4.034
 6415SOL    HW220145   0.789   2.005   3.900
 6416SOL     OW20146   3.197   4.745   0.019
 6416SOL    HW120147   3.267   4.746   0.091
 6416SOL    HW220148   3.113   4.706   0.056
 6417SOL     OW20149   4.277   2.930   6.784
 6417SOL    HW120150   4.303   3.019   6.820
 6417SOL    HW220151   4.358   2.873   6.773
 6418SOL     OW20152   5.083   4.817   0.385
 6418SOL    HW120153   5.096   4.796   0.288
 6418SOL    HW220154   5.007   4.881   0.395
 6419SOL     OW20155   0.924   6.645   6.344
 6419SOL    HW120156   0.915   6.710   6.269
 6419SOL    HW220157   0.835   6.601   6.362
 6420SOL     OW20158   2.708   4.735   3.989
 6420SOL    HW120159   2.651   4.670   3.938
 6420SOL    HW220160   2.804   4.718   3.967
 6421SOL     OW20161   4.549   0.415   1.841
 6421SOL    HW120162   4.634   0.459   1.811
 6421SOL    HW220163   4.519   0.350   1.772
 6422SOL     OW20164   6.381   2.466   4.955
 6422SOL    HW120165   6.440   2.537   4.917
 6422SOL    HW220166   6.355   2.402   4.883
 6423SOL     OW20167   1.150   4.962   4.702
 6423SOL    HW120168   1.249   4.949   4.698
 6423SOL    HW220169   1.104   4.875   4.688
 6424SOL     OW20170   6.809   4.569   6.209
 6424SOL    HW120171   6.870   4.630   6.159
 6424SOL    HW220172   6.861   4.496   6.252
 6425SOL     OW20173   6.880   6.223   4.220
 6425SOL    HW120174   6.912   6.201   4.312
 6425SOL    HW220175   6.860   6.320   4.214
 6426SOL     OW20176   4.655   4.961   4.615
 6426SOL    HW120177   4.667   4.875   4.564
 6426SOL    HW220178   4.600   4.945   4.696
 6427SOL     OW20179   3.821   2.945   3.511
 6427SOL    HW120180   3.884   2.998   3.454
 6427SOL    HW220181   3.874   2.889   3.575
 6428SOL     OW20182   5.706   2.449   0.213
 6428SOL    HW120183   5.683   2.517   0.282
 6428SOL    HW220184   5.658   2.363   0.233
 6429SOL     OW20185   2.316   1.365   5.433
 6429SOL    HW120186   2.370   1.283   5.412
 6429SOL    HW220187   2.284   1.406   5.347
 6430SOL     OW20188   6.251   0.778   5.363
 6430SOL    HW120189   6.291   0.696   5.405
 6430SOL    HW220190   6.309   0.808   5.287
 6431SOL     OW20191   3.280   5.001   2.322
 6431SOL    HW120192   3.241   4.920   2.368
 6431SOL    HW220193   3.307   4.976   2.229
 6432SOL     OW20194   4.920   3.251   5.958
 6432SOL    HW120195   4.982   3.252   6.036
 6432SOL    HW220196   4.825   3.252   5.990
 6433SOL     OW20197   3.469   4.713   5.358
 6433SOL    HW120198   3.496   4.623   5.390
 6433SOL    HW220199   3.550   4.771   5.346
 6434SOL     OW20200   5.217   5.926   5.984
 6434SOL    HW120201   5.239   6.012   5.939
 6434SOL    HW220202   5.183   5.860   5.916
 6435SOL     OW20203   4.556   1.377   1.350
 6435SOL    HW120204   4.552   1.307   1.279
 6435SOL    HW220205   4.518   1.462   1.315
 6436SOL     OW20206   0.121   3.194   3.711
 6436SOL    HW120207   0.130   3.114   3.770
 6436SOL    HW220208   0.038   3.185   3.655
 6437SOL     OW20209   1.413   2.403   5.672
 6437SOL    HW120210   1.504   2.392   5.712
 6437SOL    HW220211   1.405   2.494   5.632
 6438SOL     OW20212   0.529   5.517   0.207
 6438SOL    HW120213   0.452   5.496   0.146
 6438SOL    HW220214   0.615   5.508   0.156
 6439SOL     OW20215   5.285   6.500   2.494
 6439SOL    HW120216   5.371   6.503   2.545
 6439SOL    HW220217   5.297   6.445   2.411
 6440SOL     OW20218   2.997   1.478   6.047
 6440SOL    HW120219   3.079   1.488   6.103
 6440SOL    HW220220   2.939   1.406   6.085
 6441SOL     OW20221   0.146   1.990   2.063
 6441SOL    HW120222   0.166   1.942   1.978
 6441SOL    HW220223   0.204   2.071   2.069
 6442SOL     OW20224   2.457   2.107   4.566
 6442SOL    HW120225   2.476   2.186   4.508
 6442SOL    HW220226   2.540   2.080   4.614
 6443SOL     OW20227   3.949   2.699   6.688
 6443SOL    HW120228   3.900   2.612   6.686
 6443SOL    HW220229   3.956   2.735   6.595
 6444SOL     OW20230   0.029   4.316   4.516
 6444SOL    HW120231   0.093   4.325   4.593
 6444SOL    HW220232   0.026   4.402   4.465
 6445SOL     OW20233   2.884   3.529   3.305
 6445SOL    HW120234   2.976   3.498   3.280
 6445SOL    HW220235   2.863   3.498   3.397
 6446SOL     OW20236   1.241   1.723   6.944
 6446SOL    HW120237   1.211   1.729   0.022
 6446SOL    HW220238   1.291   1.807   6.919
 6447SOL     OW20239   5.653   3.392   2.422
 6447SOL    HW120240   5.699   3.458   2.362
 6447SOL    HW220241   5.554   3.407   2.419
 6448SOL     OW20242   4.604   4.769   1.000
 6448SOL    HW120243   4.676   4.715   1.043
 6448SOL    HW220244   4.537   4.708   0.957
 6449SOL     OW20245   3.236   5.095   0.571
 6449SOL    HW120246   3.303   5.033   0.531
 6449SOL    HW220247   3.245   5.185   0.529
 6450SOL     OW20248   6.212   4.474   6.444
 6450SOL    HW120249   6.254   4.387   6.419
 6450SOL    HW220250   6.175   4.467   6.537
 6451SOL     OW20251   4.279   2.552   1.756
 6451SOL    HW120252   4.308   2.646   1.770
 6451SOL    HW220253   4.179   2.548   1.754
 6452SOL     OW20254   3.727   2.080   4.608
 6452SOL    HW120255   3.747   1.983   4.590
 6452SOL    HW220256   3.813   2.130   4.619
 6453SOL     OW20257   2.161   0.330   2.453
 6453SOL    HW120258   2.243   0.288   2.413
 6453SOL    HW220259   2.101   0.258   2.487
 6454SOL     OW20260   5.134   2.499   3.744
 6454SOL    HW120261   5.076   2.575   3.775
 6454SOL    HW220262   5.222   2.534   3.712
 6455SOL     OW20263   6.943   2.865   4.059
 6455SOL    HW120264   0.003   2.873   4.122
 6455SOL    HW220265   6.877   2.938   4.077
 6456SOL     OW20266   6.322   1.908   2.221
 6456SOL    HW120267   6.312   1.815   2.256
 6456SOL    HW220268   6.307   1.973   2.295
 6457SOL     OW20269   2.991   6.635   2.798
 6457SOL    HW120270   3.087   6.636   2.770
 6457SOL    HW220271   2.962   6.541   2.813
 6458SOL     OW20272   0.255   0.203   4.618
 6458SOL    HW120273   0.240   0.234   4.712
 6458SOL    HW220274   0.169   0.210   4.567
 6459SOL     OW20275   0.781   3.264   3.065
 6459SOL    HW120276   0.763   3.313   3.150
 6459SOL    HW220277   0.805   3.329   2.993
 6460SOL     OW20278   0.834   5.534   6.571
 6460SOL    HW120279   0.843   5.595   6.493
 6460SOL    HW220280   0.823   5.587   6.655
 6461SOL     OW20281   1.247   6.486   1.026
 6461SOL    HW120282   1.233   6.576   1.066
 6461SOL    HW220283   1.337   6.482   0.984
 6462SOL     OW20284   1.944   3.925   5.117
 6462SOL    HW120285   2.026   3.868   5.108
 6462SOL    HW220286   1.888   3.890   5.192
 6463SOL     OW20287   4.457   3.398   0.884
 6463SOL    HW120288   4.541   3.369   0.929
 6463SOL    HW220289   4.396   3.320   0.873
 6464SOL     OW20290   0.671   4.147   3.995
 6464SOL    HW120291   0.638   4.105   4.080
 6464SOL    HW220292   0.618   4.112   3.918
 6465SOL     OW20293   3.221   0.941   3.981
 6465SOL    HW120294   3.202   0.908   3.889
 6465SOL    HW220295   3.283   1.019   3.977
 6466SOL     OW20296   0.070   5.040   6.852
 6466SOL    HW120297   7.015   5.074   6.913
 6466SOL    HW220298   0.028   4.994   6.774
 6467SOL     OW20299   1.767   2.169   6.395
 6467SOL    HW120300   1.860   2.141   6.419
 6467SOL    HW220301   1.754   2.265   6.419
 6468SOL     OW20302   1.751   0.139   1.096
 6468SOL    HW120303   1.786   0.229   1.123
 6468SOL    HW220304   1.733   0.086   1.179
 6469SOL     OW20305   2.043   1.219   1.754
 6469SOL    HW120306   1.980   1.297   1.753
 6469SOL    HW220307   2.034   1.167   1.669
 6470SOL     OW20308   6.680   2.110   6.757
 6470SOL    HW120309   6.765   2.060   6.768
 6470SOL    HW220310   6.603   2.054   6.789
 6471SOL     OW20311   0.449   6.588   5.981
 6471SOL    HW120312   0.439   6.631   5.891
 6471SOL    HW220313   0.528   6.527   5.980
 6472SOL     OW20314   6.967   6.222   3.085
 6472SOL    HW120315   6.949   6.165   3.005
 6472SOL    HW220316   6.889   6.217   3.148
 6473SOL     OW20317   2.321   0.820   3.217
 6473SOL    HW120318   2.268   0.800   3.300
 6473SOL    HW220319   2.327   0.919   3.205
 6474SOL     OW20320   3.786   6.376   4.315
 6474SOL    HW120321   3.774   6.289   4.363
 6474SOL    HW220322   3.711   6.389   4.251
 6475SOL     OW20323   5.709   5.584   2.631
 6475SOL    HW120324   5.801   5.598   2.595
 6475SOL    HW220325   5.647   5.654   2.595
 6476SOL     OW20326   3.896   2.680   6.365
 6476SOL    HW120327   3.808   2.632   6.365
 6476SOL    HW220328   3.970   2.616   6.387
 6477SOL     OW20329   0.153   6.579   1.351
 6477SOL    HW120330   0.095   6.574   1.270
 6477SOL    HW220331   0.248   6.560   1.325
 6478SOL     OW20332   2.624   6.077   1.069
 6478SOL    HW120333   2.554   6.127   1.017
 6478SOL    HW220334   2.580   6.009   1.128
 6479SOL     OW20335   4.734   5.569   3.163
 6479SOL    HW120336   4.664   5.580   3.233
 6479SOL    HW220337   4.692   5.547   3.076
 6480SOL     OW20338   4.164   1.419   6.182
 6480SOL    HW120339   4.139   1.473   6.102
 6480SOL    HW220340   4.094   1.349   6.198
 6481SOL     OW20341   4.185   3.288   2.094
 6481SOL    HW120342   4.261   3.226   2.113
 6481SOL    HW220343   4.113   3.239   2.045
 6482SOL     OW20344   4.740   3.757   5.884
 6482SOL    HW120345   4.829   3.729   5.848
 6482SOL    HW220346   4.739   3.855   5.898
 6483SOL     OW20347   2.034   5.904   5.068
 6483SOL    HW120348   2.021   5.844   5.147
 6483SOL    HW220349   1.976   5.873   4.993
 6484SOL     OW20350   3.194   1.319   3.314
 6484SOL    HW120351   3.153   1.292   3.227
 6484SOL    HW220352   3.153   1.267   3.389
 6485SOL     OW20353   2.326   5.822   4.905
 6485SOL    HW120354   2.338   5.762   4.985
 6485SOL    HW220355   2.400   5.804   4.839
 6486SOL     OW20356   0.207   4.677   2.578
 6486SOL    HW120357   0.297   4.675   2.535
 6486SOL    HW220358   0.212   4.729   2.663
 6487SOL     OW20359   6.692   4.857   3.907
 6487SOL    HW120360   6.594   4.880   3.903
 6487SOL    HW220361   6.739   4.899   3.830
 6488SOL     OW20362   3.450   5.175   4.007
 6488SOL    HW120363   3.463   5.236   3.928
 6488SOL    HW220364   3.497   5.089   3.991
 6489SOL     OW20365   5.358   3.273   4.937
 6489SOL    HW120366   5.334   3.370   4.947
 6489SOL    HW220367   5.278   3.222   4.907
 6490SOL     OW20368   2.275   2.312   0.556
 6490SOL    HW120369   2.222   2.359   0.485
 6490SOL    HW220370   2.261   2.213   0.548
 6491SOL     OW20371   1.532   6.791   1.807
 6491SOL    HW120372   1.439   6.823   1.826
 6491SOL    HW220373   1.533   6.692   1.799
 6492SOL     OW20374   4.091   3.502   3.920
 6492SOL    HW120375   4.074   3.566   3.845
 6492SOL    HW220376   4.147   3.546   3.990
 6493SOL     OW20377   1.140   4.422   4.156
 6493SOL    HW120378   1.152   4.489   4.229
 6493SOL    HW220379   1.208   4.437   4.085
 6494SOL     OW20380   6.983   0.965   1.618
 6494SOL    HW120381   0.057   0.972   1.577
 6494SOL    HW220382   6.949   1.057   1.639
 6495SOL     OW20383   6.593   0.109   3.160
 6495SOL    HW120384   6.624   0.044   3.229
 6495SOL    HW220385   6.535   0.061   3.093
 6496SOL     OW20386   3.286   2.044   2.273
 6496SOL    HW120387   3.247   2.042   2.181
 6496SOL    HW220388   3.384   2.029   2.268
 6497SOL     OW20389   6.748   1.082   0.357
 6497SOL    HW120390   6.778   1.024   0.432
 6497SOL    HW220391   6.804   1.165   0.354
 6498SOL     OW20392   2.288   4.233   4.037
 6498SOL    HW120393   2.346   4.310   4.063
 6498SOL    HW220394   2.194   4.250   4.069
 6499SOL     OW20395   4.581   2.501   3.585
 6499SOL    HW120396   4.650   2.430   3.598
 6499SOL    HW220397   4.561   2.511   3.488
 6500SOL     OW20398   1.292   3.608   3.245
 6500SOL    HW120399   1.330   3.602   3.153
 6500SOL    HW220400   1.209   3.552   3.250
 6501SOL     OW20401   6.153   1.814   3.393
 6501SOL    HW120402   6.205   1.891   3.358
 6501SOL    HW220403   6.211   1.759   3.454
 6502SOL     OW20404   6.960   3.703   1.415
 6502SOL    HW120405   6.862   3.691   1.400
 6502SOL    HW220406   6.973   3.776   1.482
 6503SOL     OW20407   6.924   3.282   5.690
 6503SOL    HW120408   6.908   3.311   5.595
 6503SOL    HW220409   0.005   3.263   5.702
 6504SOL     OW20410   3.594   6.941   6.259
 6504SOL    HW120411   3.625   6.991   6.179
 6504SOL    HW220412   3.507   6.895   6.239
 6505SOL     OW20413   0.002   6.695   0.772
 6505SOL    HW120414   0.044   6.647   0.695
 6505SOL    HW220415   0.037   6.788   0.776
 6506SOL     OW20416   0.953   3.812   2.207
 6506SOL    HW120417   1.035   3.779   2.161
 6506SOL    HW220418   0.892   3.734   2.225
 6507SOL     OW20419   4.283   5.476   0.594
 6507SOL    HW120420   4.233   5.400   0.552
 6507SOL    HW220421   4.339   5.522   0.525
 6508SOL     OW20422   6.818   0.734   3.578
 6508SOL    HW120423   6.751   0.670   3.616
 6508SOL    HW220424   6.839   0.708   3.484
 6509SOL     OW20425   2.575   1.898   6.777
 6509SOL    HW120426   2.571   1.834   6.700
 6509SOL    HW220427   2.588   1.991   6.743
 6510SOL     OW20428   3.235   5.836   4.954
 6510SOL    HW120429   3.191   5.825   4.865
 6510SOL    HW220430   3.329   5.867   4.940
 6511SOL     OW20431   3.021   2.494   0.625
 6511SOL    HW120432   2.985   2.419   0.569
 6511SOL    HW220433   2.950   2.562   0.639
 6512SOL     OW20434   4.760   1.111   0.293
 6512SOL    HW120435   4.841   1.084   0.345
 6512SOL    HW220436   4.767   1.075   0.200
 6513SOL     OW20437   2.621   4.573   2.721
 6513SOL    HW120438   2.533   4.531   2.744
 6513SOL    HW220439   2.635   4.570   2.622
 6514SOL     OW20440   5.172   6.348   5.683
 6514SOL    HW120441   5.249   6.376   5.740
 6514SOL    HW220442   5.165   6.409   5.604
 6515SOL     OW20443   0.716   4.779   2.899
 6515SOL    HW120444   0.642   4.738   2.953
 6515SOL    HW220445   0.692   4.777   2.802
 6516SOL     OW20446   6.259   2.566   2.457
 6516SOL    HW120447   6.204   2.627   2.514
 6516SOL    HW220448   6.322   2.514   2.516
 6517SOL     OW20449   6.770   3.262   0.650
 6517SOL    HW120450   6.808   3.336   0.705
 6517SOL    HW220451   6.834   3.239   0.576
 6518SOL     OW20452   1.215   0.834   2.289
 6518SOL    HW120453   1.233   0.885   2.373
 6518SOL    HW220454   1.123   0.854   2.256
 6519SOL     OW20455   1.281   1.023   3.413
 6519SOL    HW120456   1.260   1.089   3.341
 6519SOL    HW220457   1.195   0.985   3.449
 6520SOL     OW20458   0.092   5.685   0.360
 6520SOL    HW120459   0.002   5.689   0.403
 6520SOL    HW220460   0.134   5.596   0.380
 6521SOL     OW20461   2.063   4.605   4.004
 6521SOL    HW120462   1.968   4.631   4.020
 6521SOL    HW220463   2.067   4.529   3.940
 6522SOL     OW20464   2.718   2.930   5.318
 6522SOL    HW120465   2.797   2.991   5.332
 6522SOL    HW220466   2.635   2.985   5.310
 6523SOL     OW20467   6.175   6.607   0.746
 6523SOL    HW120468   6.149   6.603   0.842
 6523SOL    HW220469   6.259   6.555   0.733
 6524SOL     OW20470   3.038   2.885   1.248
 6524SOL    HW120471   2.949   2.842   1.265
 6524SOL    HW220472   3.065   2.868   1.153
 6525SOL     OW20473   1.085   4.797   3.536
 6525SOL    HW120474   1.135   4.710   3.532
 6525SOL    HW220475   1.144   4.868   3.575
 6526SOL     OW20476   0.073   6.211   0.759
 6526SOL    HW120477   0.163   6.168   0.749
 6526SOL    HW220478   0.007   6.162   0.702
 6527SOL     OW20479   6.479   1.470   0.655
 6527SOL    HW120480   6.427   1.434   0.732
 6527SOL    HW220481   6.506   1.395   0.595
 6528SOL     OW20482   4.111   6.272   0.089
 6528SOL    HW120483   4.202   6.243   0.121
 6528SOL    HW220484   4.098   6.244   7.011
 6529SOL     OW20485   5.015   0.024   2.202
 6529SOL    HW120486   4.956   7.003   2.130
 6529SOL    HW220487   5.059   6.967   2.251
 6530SOL     OW20488   0.744   2.581   3.327
 6530SOL    HW120489   0.681   2.602   3.253
 6530SOL    HW220490   0.736   2.649   3.399
 6531SOL     OW20491   3.893   3.954   4.199
 6531SOL    HW120492   3.817   3.891   4.213
 6531SOL    HW220493   3.972   3.903   4.166
 6532SOL     OW20494   1.184   6.179   0.865
 6532SOL    HW120495   1.272   6.220   0.838
 6532SOL    HW220496   1.182   6.167   0.964
 6533SOL     OW20497   4.850   4.565   1.638
 6533SOL    HW120498   4.832   4.472   1.670
 6533SOL    HW220499   4.845   4.628   1.716
 6534SOL     OW20500   6.885   4.400   3.240
 6534SOL    HW120501   6.835   4.395   3.153
 6534SOL    HW220502   6.955   4.328   3.243
 6535SOL     OW20503   5.006   3.950   5.461
 6535SOL    HW120504   5.061   3.963   5.544
 6535SOL    HW220505   4.909   3.955   5.485
 6536SOL     OW20506   0.732   4.238   5.811
 6536SOL    HW120507   0.739   4.159   5.871
 6536SOL    HW220508   0.658   4.297   5.842
 6537SOL     OW20509   6.462   5.299   3.766
 6537SOL    HW120510   6.422   5.208   3.751
 6537SOL    HW220511   6.414   5.365   3.708
 6538SOL     OW20512   0.899   2.670   4.557
 6538SOL    HW120513   0.855   2.741   4.503
 6538SOL    HW220514   0.962   2.619   4.499
 6539SOL     OW20515   4.530   6.596   6.237
 6539SOL    HW120516   4.611   6.537   6.241
 6539SOL    HW220517   4.467   6.572   6.311
 6540SOL     OW20518   6.914   2.310   5.375
 6540SOL    HW120519   6.961   2.333   5.290
 6540SOL    HW220520   6.980   2.293   5.447
 6541SOL     OW20521   4.893   1.809   5.604
 6541SOL    HW120522   4.878   1.767   5.693
 6541SOL    HW220523   4.968   1.764   5.558
 6542SOL     OW20524   1.619   3.808   2.906
 6542SOL    HW120525   1.682   3.886   2.911
 6542SOL    HW220526   1.536   3.835   2.858
 6543SOL     OW20527   4.019   1.396   4.916
 6543SOL    HW120528   4.021   1.409   4.816
 6543SOL    HW220529   4.074   1.467   4.959
 6544SOL     OW20530   0.349   0.136   0.841
 6544SOL    HW120531   0.372   0.232   0.854
 6544SOL    HW220532   0.361   0.112   0.745
 6545SOL     OW20533   4.867   6.832   1.454
 6545SOL    HW120534   4.788   6.893   1.450
 6545SOL    HW220535   4.857   6.760   1.385
 6546SOL     OW20536   5.136   4.460   6.236
 6546SOL    HW120537   5.103   4.495   6.324
 6546SOL    HW220538   5.233   4.437   6.245
 6547SOL     OW20539   1.032   6.297   5.244
 6547SOL    HW120540   0.953   6.354   5.268
 6547SOL    HW220541   1.004   6.201   5.242
 6548SOL     OW20542   0.222   1.428   6.219
 6548SOL    HW120543   0.200   1.331   6.215
 6548SOL    HW220544   0.321   1.440   6.210
 6549SOL     OW20545   4.138   1.959   3.335
 6549SOL    HW120546   4.058   1.964   3.276
 6549SOL    HW220547   4.165   1.863   3.347
 6550SOL     OW20548   6.186   6.454   2.914
 6550SOL    HW120549   6.095   6.479   2.881
 6550SOL    HW220550   6.190   6.466   3.013
 6551SOL     OW20551   2.751   4.343   0.824
 6551SOL    HW120552   2.673   4.382   0.872
 6551SOL    HW220553   2.825   4.326   0.889
 6552SOL     OW20554   1.980   4.954   0.162
 6552SOL    HW120555   2.002   5.035   0.108
 6552SOL    HW220556   1.892   4.966   0.207
 6553SOL     OW20557   0.836   2.027   3.726
 6553SOL    HW120558   0.835   2.067   3.635
 6553SOL    HW220559   0.897   1.949   3.728
 6554SOL     OW20560   1.491   2.701   4.148
 6554SOL    HW120561   1.424   2.757   4.197
 6554SOL    HW220562   1.570   2.757   4.124
 6555SOL     OW20563   0.301   3.728   3.993
 6555SOL    HW120564   0.284   3.759   3.900
 6555SOL    HW220565   0.379   3.777   4.031
 6556SOL     OW20566   4.740   2.767   2.666
 6556SOL    HW120567   4.678   2.690   2.651
 6556SOL    HW220568   4.757   2.814   2.579
 6557SOL     OW20569   1.827   0.921   2.527
 6557SOL    HW120570   1.867   0.945   2.439
 6557SOL    HW220571   1.845   0.825   2.547
 6558SOL     OW20572   5.274   6.142   0.344
 6558SOL    HW120573   5.249   6.194   0.425
 6558SOL    HW220574   5.255   6.045   0.359
 6559SOL     OW20575   6.602   2.682   5.811
 6559SOL    HW120576   6.568   2.703   5.720
 6559SOL    HW220577   6.535   2.626   5.860
 6560SOL     OW20578   6.211   4.837   0.085
 6560SOL    HW120579   6.307   4.865   0.090
 6560SOL    HW220580   6.193   4.800   7.010
 6561SOL     OW20581   3.114   4.187   0.363
 6561SOL    HW120582   3.184   4.162   0.296
 6561SOL    HW220583   3.092   4.107   0.418
 6562SOL     OW20584   4.848   2.599   1.801
 6562SOL    HW120585   4.932   2.585   1.749
 6562SOL    HW220586   4.862   2.570   1.895
 6563SOL     OW20587   6.270   5.301   5.591
 6563SOL    HW120588   6.290   5.387   5.545
 6563SOL    HW220589   6.255   5.229   5.524
 6564SOL     OW20590   5.811   3.067   2.762
 6564SOL    HW120591   5.759   3.151   2.747
 6564SOL    HW220592   5.903   3.078   2.724
 6565SOL     OW20593   5.195   6.627   2.928
 6565SOL    HW120594   5.224   6.722   2.931
 6565SOL    HW220595   5.095   6.622   2.927
 6566SOL     OW20596   5.076   5.376   3.931
 6566SOL    HW120597   5.119   5.439   3.866
 6566SOL    HW220598   5.047   5.427   4.012
 6567SOL     OW20599   3.878   0.458   2.334
 6567SOL    HW120600   3.906   0.393   2.264
 6567SOL    HW220601   3.928   0.440   2.418
 6568SOL     OW20602   4.674   1.224   1.135
 6568SOL    HW120603   4.759   1.232   1.188
 6568SOL    HW220604   4.657   1.311   1.088
 6569SOL     OW20605   1.100   4.996   4.398
 6569SOL    HW120606   1.067   5.052   4.474
 6569SOL    HW220607   1.200   4.996   4.398
 6570SOL     OW20608   4.257   6.907   2.356
 6570SOL    HW120609   4.222   6.940   2.268
 6570SOL    HW220610   4.314   6.827   2.341
 6571SOL     OW20611   3.177   6.329   3.347
 6571SOL    HW120612   3.168   6.231   3.329
 6571SOL    HW220613   3.273   6.355   3.339
 6572SOL     OW20614   1.898   6.187   3.713
 6572SOL    HW120615   1.801   6.170   3.731
 6572SOL    HW220616   1.949   6.179   3.799
 6573SOL     OW20617   0.493   2.086   3.238
 6573SOL    HW120618   0.395   2.076   3.224
 6573SOL    HW220619   0.535   2.119   3.153
 6574SOL     OW20620   1.402   4.627   2.154
 6574SOL    HW120621   1.476   4.636   2.088
 6574SOL    HW220622   1.349   4.712   2.156
 6575SOL     OW20623   0.088   1.500   3.609
 6575SOL    HW120624   0.110   1.510   3.706
 6575SOL    HW220625   0.170   1.517   3.554
 6576SOL     OW20626   4.013   0.046   1.584
 6576SOL    HW120627   3.970   7.000   1.519
 6576SOL    HW220628   4.003   0.009   1.676
 6577SOL     OW20629   3.726   1.091   4.233
 6577SOL    HW120630   3.727   1.134   4.323
 6577SOL    HW220631   3.716   0.992   4.244
 6578SOL     OW20632   0.939   4.547   0.466
 6578SOL    HW120633   0.987   4.469   0.427
 6578SOL    HW220634   0.873   4.515   0.534
 6579SOL     OW20635   0.944   0.979   3.737
 6579SOL    HW120636   0.938   1.077   3.756
 6579SOL    HW220637   0.922   0.927   3.820
 6580SOL     OW20638   2.591   1.902   0.289
 6580SOL    HW120639   2.632   1.890   0.199
 6580SOL    HW220640   2.496   1.933   0.279
 6581SOL     OW20641   0.661   2.383   1.036
 6581SOL    HW120642   0.701   2.334   0.959
 6581SOL    HW220643   0.723   2.378   1.114
 6582SOL     OW20644   5.799   0.884   2.813
 6582SOL    HW120645   5.722   0.822   2.829
 6582SOL    HW220646   5.837   0.867   2.722
 6583SOL     OW20647   3.305   4.410   0.138
 6583SOL    HW120648   3.390   4.399   0.087
 6583SOL    HW220649   3.319   4.477   0.212
 6584SOL     OW20650   4.410   1.887   6.462
 6584SOL    HW120651   4.461   1.803   6.446
 6584SOL    HW220652   4.458   1.964   6.419
 6585SOL     OW20653   5.660   0.057   2.214
 6585SOL    HW120654   5.609   0.121   2.271
 6585SOL    HW220655   5.744   0.101   2.183
 6586SOL     OW20656   6.745   1.258   6.586
 6586SOL    HW120657   6.769   1.353   6.568
 6586SOL    HW220658   6.669   1.255   6.651
 6587SOL     OW20659   2.874   5.234   4.857
 6587SOL    HW120660   2.971   5.212   4.852
 6587SOL    HW220661   2.848   5.287   4.777
 6588SOL     OW20662   0.378   2.457   0.406
 6588SOL    HW120663   0.355   2.501   0.319
 6588SOL    HW220664   0.424   2.522   0.465
 6589SOL     OW20665   6.930   6.444   2.332
 6589SOL    HW120666   6.854   6.380   2.346
 6589SOL    HW220667   6.949   6.492   2.418
 6590SOL     OW20668   0.949   6.396   4.482
 6590SOL    HW120669   0.925   6.342   4.401
 6590SOL    HW220670   1.032   6.449   4.463
 6591SOL     OW20671   5.945   3.551   3.645
 6591SOL    HW120672   5.925   3.531   3.741
 6591SOL    HW220673   6.040   3.527   3.626
 6592SOL     OW20674   6.369   6.794   3.821
 6592SOL    HW120675   6.319   6.838   3.896
 6592SOL    HW220676   6.305   6.742   3.765
 6593SOL     OW20677   1.870   1.428   1.860
 6593SOL    HW120678   1.787   1.483   1.855
 6593SOL    HW220679   1.855   1.349   1.918
 6594SOL     OW20680   5.025   6.800   6.975
 6594SOL    HW120681   4.963   6.877   6.989
 6594SOL    HW220682   5.118   6.835   6.964
 6595SOL     OW20683   1.022   1.804   5.190
 6595SOL    HW120684   0.994   1.763   5.277
 6595SOL    HW220685   1.068   1.891   5.208
 6596SOL     OW20686   4.855   0.758   2.411
 6596SOL    HW120687   4.831   0.854   2.421
 6596SOL    HW220688   4.800   0.717   2.338
 6597SOL     OW20689   0.537   4.868   1.045
 6597SOL    HW120690   0.548   4.798   1.115
 6597SOL    HW220691   0.614   4.865   0.982
 6598SOL     OW20692   1.811   4.944   3.263
 6598SOL    HW120693   1.906   4.946   3.291
 6598SOL    HW220694   1.800   4.883   3.185
 6599SOL     OW20695   0.368   5.701   5.833
 6599SOL    HW120696   0.390   5.604   5.840
 6599SOL    HW220697   0.285   5.720   5.886
 6600SOL     OW20698   4.705   6.919   5.438
 6600SOL    HW120699   4.798   6.882   5.433
 6600SOL    HW220700   4.702   7.007   5.390
 6601SOL     OW20701   1.581   2.168   1.863
 6601SOL    HW120702   1.488   2.201   1.878
 6601SOL    HW220703   1.633   2.174   1.948
 6602SOL     OW20704   0.276   5.307   1.597
 6602SOL    HW120705   0.241   5.215   1.612
 6602SOL    HW220706   0.205   5.374   1.618
 6603SOL     OW20707   0.267   4.510   2.269
 6603SOL    HW120708   0.295   4.600   2.304
 6603SOL    HW220709   0.328   4.440   2.306
 6604SOL     OW20710   1.747   5.541   3.525
 6604SOL    HW120711   1.722   5.554   3.429
 6604SOL    HW220712   1.770   5.445   3.540
 6605SOL     OW20713   6.899   5.943   0.946
 6605SOL    HW120714   6.893   6.043   0.955
 6605SOL    HW220715   6.971   5.920   0.880
 6606SOL     OW20716   1.525   3.455   2.775
 6606SOL    HW120717   1.476   3.503   2.847
 6606SOL    HW220718   1.532   3.358   2.798
 6607SOL     OW20719   6.305   3.232   3.806
 6607SOL    HW120720   6.240   3.227   3.731
 6607SOL    HW220721   6.394   3.198   3.776
 6608SOL     OW20722   1.515   6.742   5.701
 6608SOL    HW120723   1.515   6.643   5.716
 6608SOL    HW220724   1.510   6.790   5.789
 6609SOL     OW20725   4.186   1.891   6.662
 6609SOL    HW120726   4.127   1.811   6.667
 6609SOL    HW220727   4.265   1.870   6.603
 6610SOL     OW20728   2.889   5.742   1.156
 6610SOL    HW120729   2.979   5.781   1.137
 6610SOL    HW220730   2.863   5.762   1.250
 6611SOL     OW20731   2.725   1.789   4.917
 6611SOL    HW120732   2.660   1.860   4.943
 6611SOL    HW220733   2.782   1.821   4.842
 6612SOL     OW20734   0.452   0.399   6.914
 6612SOL    HW120735   0.510   0.481   6.910
 6612SOL    HW220736   0.408   0.393   7.003
 6613SOL     OW20737   4.495   6.693   0.316
 6613SOL    HW120738   4.589   6.698   0.280
 6613SOL    HW220739   4.497   6.703   0.415
 6614SOL     OW20740   4.037   5.141   0.706
 6614SOL    HW120741   3.944   5.156   0.740
 6614SOL    HW220742   4.054   5.203   0.629
 6615SOL     OW20743   3.687   5.988   5.868
 6615SOL    HW120744   3.718   5.986   5.963
 6615SOL    HW220745   3.734   6.061   5.819
 6616SOL     OW20746   4.368   1.299   0.049
 6616SOL    HW120747   4.275   1.330   0.027
 6616SOL    HW220748   4.391   1.219   7.009
 6617SOL     OW20749   3.517   0.558   3.717
 6617SOL    HW120750   3.485   0.598   3.631
 6617SOL    HW220751   3.460   0.589   3.792
 6618SOL     OW20752   5.556   2.212   4.409
 6618SOL    HW120753   5.606   2.138   4.363
 6618SOL    HW220754   5.511   2.176   4.490
 6619SOL     OW20755   5.003   5.111   4.026
 6619SOL    HW120756   4.952   5.196   4.010
 6619SOL    HW220757   5.098   5.124   3.998
 6620SOL     OW20758   1.449   2.501   3.333
 6620SOL    HW120759   1.541   2.508   3.372
 6620SOL    HW220760   1.421   2.591   3.300
 6621SOL     OW20761   2.944   3.434   3.961
 6621SOL    HW120762   2.884   3.463   4.035
 6621SOL    HW220763   2.962   3.336   3.969
 6622SOL     OW20764   0.016   5.476   1.077
 6622SOL    HW120765   0.053   5.412   1.009
 6622SOL    HW220766   7.005   5.560   1.032
 6623SOL     OW20767   3.129   3.967   4.119
 6623SOL    HW120768   3.068   3.903   4.073
 6623SOL    HW220769   3.087   3.998   4.204
 6624SOL     OW20770   2.257   2.375   2.688
 6624SOL    HW120771   2.274   2.370   2.590
 6624SOL    HW220772   2.161   2.398   2.704
 6625SOL     OW20773   6.660   4.130   5.396
 6625SOL    HW120774   6.665   4.208   5.334
 6625SOL    HW220775   6.727   4.141   5.469
 6626SOL     OW20776   3.083   5.993   5.672
 6626SOL    HW120777   3.159   5.931   5.653
 6626SOL    HW220778   3.106   6.051   5.750
 6627SOL     OW20779   2.303   6.412   3.916
 6627SOL    HW120780   2.250   6.365   3.987
 6627SOL    HW220781   2.372   6.470   3.960
 6628SOL     OW20782   3.783   6.421   3.177
 6628SOL    HW120783   3.725   6.421   3.259
 6628SOL    HW220784   3.879   6.420   3.205
 6629SOL     OW20785   5.123   5.567   5.484
 6629SOL    HW120786   5.197   5.536   5.424
 6629SOL    HW220787   5.100   5.494   5.548
 6630SOL     OW20788   1.773   1.023   0.152
 6630SOL    HW120789   1.840   0.958   0.116
 6630SOL    HW220790   1.784   1.111   0.107
 6631SOL     OW20791   1.861   3.125   5.753
 6631SOL    HW120792   1.790   3.064   5.787
 6631SOL    HW220793   1.863   3.123   5.653
 6632SOL     OW20794   1.312   0.050   6.974
 6632SOL    HW120795   1.404   0.010   6.978
 6632SOL    HW220796   1.294   0.101   0.041
 6633SOL     OW20797   4.174   5.418   6.422
 6633SOL    HW120798   4.163   5.357   6.344
 6633SOL    HW220799   4.200   5.509   6.389
 6634SOL     OW20800   3.455   2.141   4.100
 6634SOL    HW120801   3.506   2.200   4.163
 6634SOL    HW220802   3.499   2.144   4.010
 6635SOL     OW20803   5.132   5.256   5.086
 6635SOL    HW120804   5.132   5.356   5.096
 6635SOL    HW220805   5.126   5.233   4.989
 6636SOL     OW20806   4.407   1.039   6.995
 6636SOL    HW120807   4.421   1.004   0.071
 6636SOL    HW220808   4.425   0.966   6.929
 6637SOL     OW20809   6.994   2.301   0.314
 6637SOL    HW120810   6.915   2.259   0.271
 6637SOL    HW220811   0.010   2.377   0.257
 6638SOL     OW20812   3.052   3.882   3.752
 6638SOL    HW120813   3.000   3.797   3.741
 6638SOL    HW220814   3.072   3.897   3.848
 6639SOL     OW20815   5.194   2.580   1.377
 6639SOL    HW120816   5.281   2.536   1.400
 6639SOL    HW220817   5.211   2.676   1.355
 6640SOL     OW20818   1.786   4.175   4.839
 6640SOL    HW120819   1.735   4.198   4.756
 6640SOL    HW220820   1.772   4.079   4.861
 6641SOL     OW20821   6.036   2.216   0.905
 6641SOL    HW120822   6.009   2.135   0.957
 6641SOL    HW220823   6.128   2.244   0.934
 6642SOL     OW20824   1.501   5.685   0.088
 6642SOL    HW120825   1.410   5.648   0.108
 6642SOL    HW220826   1.508   5.778   0.124
 6643SOL     OW20827   3.150   5.899   6.165
 6643SOL    HW120828   3.191   5.829   6.106
 6643SOL    HW220829   3.164   5.989   6.124
 6644SOL     OW20830   2.296   6.957   4.107
 6644SOL    HW120831   2.333   0.027   4.075
 6644SOL    HW220832   2.299   6.890   4.032
 6645SOL     OW20833   5.415   2.957   6.236
 6645SOL    HW120834   5.424   3.033   6.301
 6645SOL    HW220835   5.462   2.877   6.272
 6646SOL     OW20836   3.498   0.245   5.667
 6646SOL    HW120837   3.528   0.153   5.641
 6646SOL    HW220838   3.531   0.311   5.600
 6647SOL     OW20839   4.047   4.893   0.779
 6647SOL    HW120840   4.041   4.982   0.735
 6647SOL    HW220841   4.130   4.846   0.747
 6648SOL     OW20842   3.101   5.756   5.175
 6648SOL    HW120843   3.108   5.782   5.079
 6648SOL    HW220844   3.192   5.731   5.210
 6649SOL     OW20845   4.686   2.605   6.152
 6649SOL    HW120846   4.730   2.531   6.103
 6649SOL    HW220847   4.755   2.664   6.194
 6650SOL     OW20848   1.399   1.485   5.670
 6650SOL    HW120849   1.314   1.529   5.696
 6650SOL    HW220850   1.385   1.386   5.664
 6651SOL     OW20851   6.733   1.731   5.826
 6651SOL    HW120852   6.654   1.725   5.766
 6651SOL    HW220853   6.732   1.655   5.891
 6652SOL     OW20854   6.902   4.914   0.586
 6652SOL    HW120855   6.955   4.842   0.631
 6652SOL    HW220856   6.930   5.003   0.622
 6653SOL     OW20857   5.940   4.604   0.470
 6653SOL    HW120858   5.921   4.667   0.545
 6653SOL    HW220859   5.925   4.649   0.383
 6654SOL     OW20860   6.243   3.483   3.681
 6654SOL    HW120861   6.267   3.570   3.723
 6654SOL    HW220862   6.287   3.409   3.732
 6655SOL     OW20863   6.718   5.890   1.626
 6655SOL    HW120864   6.667   5.976   1.639
 6655SOL    HW220865   6.814   5.904   1.652
 6656SOL     OW20866   4.183   1.336   3.347
 6656SOL    HW120867   4.109   1.268   3.348
 6656SOL    HW220868   4.269   1.292   3.320
 6657SOL     OW20869   5.220   1.793   4.186
 6657SOL    HW120870   5.295   1.808   4.121
 6657SOL    HW220871   5.147   1.742   4.142
 6658SOL     OW20872   6.647   6.261   5.435
 6658SOL    HW120873   6.622   6.192   5.503
 6658SOL    HW220874   6.644   6.220   5.343
 6659SOL     OW20875   0.753   4.978   1.554
 6659SOL    HW120876   0.690   5.056   1.554
 6659SOL    HW220877   0.733   4.918   1.632
 6660SOL     OW20878   6.850   0.407   4.644
 6660SOL    HW120879   6.890   0.496   4.620
 6660SOL    HW220880   6.912   0.334   4.616
 6661SOL     OW20881   4.099   5.645   3.843
 6661SOL    HW120882   4.011   5.611   3.811
 6661SOL    HW220883   4.107   5.742   3.820
 6662SOL     OW20884   3.573   6.506   2.621
 6662SOL    HW120885   3.621   6.534   2.704
 6662SOL    HW220886   3.476   6.494   2.640
 6663SOL     OW20887   0.883   4.471   6.013
 6663SOL    HW120888   0.786   4.451   5.999
 6663SOL    HW220889   0.937   4.389   5.997
 6664SOL     OW20890   2.711   0.297   1.322
 6664SOL    HW120891   2.672   0.355   1.393
 6664SOL    HW220892   2.790   0.248   1.358
 6665SOL     OW20893   2.806   0.485   0.024
 6665SOL    HW120894   2.838   0.436   6.960
 6665SOL    HW220895   2.870   0.468   0.100
 6666SOL     OW20896   3.892   6.056   4.910
 6666SOL    HW120897   3.987   6.082   4.927
 6666SOL    HW220898   3.880   5.958   4.929
 6667SOL     OW20899   1.360   5.677   6.534
 6667SOL    HW120900   1.359   5.747   6.606
 6667SOL    HW220901   1.405   5.714   6.452
 6668SOL     OW20902   0.418   4.336   0.566
 6668SOL    HW120903   0.334   4.378   0.531
 6668SOL    HW220904   0.464   4.401   0.627
 6669SOL     OW20905   1.611   1.959   3.060
 6669SOL    HW120906   1.569   2.050   3.052
 6669SOL    HW220907   1.704   1.968   3.096
 6670SOL     OW20908   3.671   3.108   0.422
 6670SOL    HW120909   3.680   3.130   0.519
 6670SOL    HW220910   3.761   3.098   0.381
 6671SOL     OW20911   4.740   4.857   0.208
 6671SOL    HW120912   4.696   4.771   0.232
 6671SOL    HW220913   4.695   4.897   0.129
 6672SOL     OW20914   0.997   2.058   1.549
 6672SOL    HW120915   1.005   2.158   1.552
 6672SOL    HW220916   1.007   2.027   1.454
 6673SOL     OW20917   6.292   2.786   4.192
 6673SOL    HW120918   6.270   2.825   4.281
 6673SOL    HW220919   6.217   2.728   4.162
 6674SOL     OW20920   0.379   1.490   0.582
 6674SOL    HW120921   0.339   1.565   0.635
 6674SOL    HW220922   0.404   1.415   0.643
 6675SOL     OW20923   4.847   0.439   6.565
 6675SOL    HW120924   4.910   0.512   6.591
 6675SOL    HW220925   4.772   0.434   6.631
 6676SOL     OW20926   0.509   4.366   4.431
 6676SOL    HW120927   0.509   4.274   4.470
 6676SOL    HW220928   0.585   4.376   4.367
 6677SOL     OW20929   0.981   1.886   6.420
 6677SOL    HW120930   0.964   1.803   6.367
 6677SOL    HW220931   1.054   1.939   6.377
 6678SOL     OW20932   2.728   4.330   6.104
 6678SOL    HW120933   2.781   4.370   6.178
 6678SOL    HW220934   2.672   4.401   6.061
 6679SOL     OW20935   1.710   0.456   3.863
 6679SOL    HW120936   1.680   0.394   3.790
 6679SOL    HW220937   1.798   0.497   3.838
 6680SOL     OW20938   6.528   6.031   1.349
 6680SOL    HW120939   6.522   5.937   1.383
 6680SOL    HW220940   6.488   6.037   1.258
 6681SOL     OW20941   3.440   6.442   1.544
 6681SOL    HW120942   3.492   6.422   1.461
 6681SOL    HW220943   3.345   6.414   1.532
 6682SOL     OW20944   3.226   5.749   5.541
 6682SOL    HW120945   3.275   5.663   5.549
 6682SOL    HW220946   3.286   5.818   5.500
 6683SOL     OW20947   0.040   5.245   5.951
 6683SOL    HW120948   0.060   5.180   5.878
 6683SOL    HW220949   0.007   5.195   6.032
 6684SOL     OW20950   2.839   5.634   6.921
 6684SOL    HW120951   2.767   5.617   6.989
 6684SOL    HW220952   2.841   5.732   6.899
 6685SOL     OW20953   5.142   2.953   0.709
 6685SOL    HW120954   5.150   2.989   0.802
 6685SOL    HW220955   5.188   3.015   0.645
 6686SOL     OW20956   5.318   5.206   4.860
 6686SOL    HW120957   5.366   5.147   4.795
 6686SOL    HW220958   5.384   5.263   4.908
 6687SOL     OW20959   7.015   1.419   1.356
 6687SOL    HW120960   6.931   1.367   1.376
 6687SOL    HW220961   0.068   1.356   1.322
 6688SOL     OW20962   4.178   4.840   0.396
 6688SOL    HW120963   4.261   4.786   0.381
 6688SOL    HW220964   4.112   4.786   0.448
 6689SOL     OW20965   2.623   4.144   5.626
 6689SOL    HW120966   2.661   4.063   5.581
 6689SOL    HW220967   2.669   4.157   5.714
 6690SOL     OW20968   0.661   0.424   6.511
 6690SOL    HW120969   0.658   0.514   6.555
 6690SOL    HW220970   0.584   0.368   6.543
 6691SOL     OW20971   2.899   1.822   2.304
 6691SOL    HW120972   2.820   1.884   2.301
 6691SOL    HW220973   2.982   1.874   2.287
 6692SOL     OW20974   4.393   5.518   2.266
 6692SOL    HW120975   4.299   5.533   2.297
 6692SOL    HW220976   4.393   5.499   2.168
 6693SOL     OW20977   3.485   1.621   5.218
 6693SOL    HW120978   3.467   1.534   5.172
 6693SOL    HW220979   3.550   1.606   5.292
 6694SOL     OW20980   4.141   4.130   1.386
 6694SOL    HW120981   4.048   4.150   1.355
 6694SOL    HW220982   4.206   4.182   1.331
 6695SOL     OW20983   2.560   2.237   0.455
 6695SOL    HW120984   2.464   2.252   0.478
 6695SOL    HW220985   2.610   2.208   0.536
 6696SOL     OW20986   4.091   3.372   4.226
 6696SOL    HW120987   4.121   3.466   4.242
 6696SOL    HW220988   4.089   3.355   4.127
 6697SOL     OW20989   4.601   2.023   2.068
 6697SOL    HW120990   4.609   1.996   2.164
 6697SOL    HW220991   4.509   2.059   2.051
 6698SOL     OW20992   3.849   4.286   1.634
 6698SOL    HW120993   3.857   4.207   1.695
 6698SOL    HW220994   3.767   4.338   1.658
 6699SOL     OW20995   1.210   3.448   5.543
 6699SOL    HW120996   1.219   3.405   5.633
 6699SOL    HW220997   1.174   3.541   5.553
 6700SOL     OW20998   5.577   0.312   0.971
 6700SOL    HW120999   5.587   0.331   1.069
 6700SOL    HW221000   5.605   0.217   0.953
 6701SOL     OW21001   6.335   6.902   1.575
 6701SOL    HW121002   6.382   6.843   1.509
 6701SOL    HW221003   6.320   6.852   1.660
 6702SOL     OW21004   3.785   3.309   1.227
 6702SOL    HW121005   3.882   3.306   1.206
 6702SOL    HW221006   3.756   3.404   1.240
 6703SOL     OW21007   6.982   1.445   0.228
 6703SOL    HW121008   0.020   1.520   0.266
 6703SOL    HW221009   6.915   1.415   0.296
 6704SOL     OW21010   3.265   6.946   5.816
 6704SOL    HW121011   3.326   6.876   5.855
 6704SOL    HW221012   3.291   6.962   5.721
 6705SOL     OW21013   0.151   4.223   2.221
 6705SOL    HW121014   0.113   4.130   2.227
 6705SOL    HW221015   0.249   4.217   2.200
 6706SOL     OW21016   0.173   6.815   1.507
 6706SOL    HW121017   0.165   6.739   1.442
 6706SOL    HW221018   0.249   6.875   1.480
 6707SOL     OW21019   4.763   1.270   2.482
 6707SOL    HW121020   4.804   1.329   2.552
 6707SOL    HW221021   4.670   1.301   2.463
 6708SOL     OW21022   0.774   3.131   0.246
 6708SOL    HW121023   0.726   3.215   0.219
 6708SOL    HW221024   0.851   3.155   0.305
 6709SOL     OW21025   2.346   4.282   2.136
 6709SOL    HW121026   2.319   4.205   2.194
 6709SOL    HW221027   2.345   4.254   2.040
 6710SOL     OW21028   4.564   1.458   1.018
 6710SOL    HW121029   4.564   1.496   0.925
 6710SOL    HW221030   4.487   1.496   1.069
 6711SOL     OW21031   3.207   6.149   5.844
 6711SOL    HW121032   3.171   6.238   5.815
 6711SOL    HW221033   3.191   6.137   5.942
 6712SOL     OW21034   5.337   4.654   1.339
 6712SOL    HW121035   5.287   4.741   1.343
 6712SOL    HW221036   5.365   4.628   1.431
 6713SOL     OW21037   1.521   5.475   4.543
 6713SOL    HW121038   1.488   5.538   4.472
 6713SOL    HW221039   1.443   5.434   4.589
 6714SOL     OW21040   5.588   1.181   1.752
 6714SOL    HW121041   5.682   1.158   1.779
 6714SOL    HW221042   5.560   1.122   1.677
 6715SOL     OW21043   1.586   0.329   6.319
 6715SOL    HW121044   1.627   0.253   6.270
 6715SOL    HW221045   1.518   0.295   6.383
 6716SOL     OW21046   6.955   5.978   2.361
 6716SOL    HW121047   0.035   5.968   2.339
 6716SOL    HW221048   6.899   5.939   2.288
 6717SOL     OW21049   5.731   1.539   5.993
 6717SOL    HW121050   5.811   1.509   5.941
 6717SOL    HW221051   5.703   1.630   5.961
 6718SOL     OW21052   4.390   1.564   1.220
 6718SOL    HW121053   4.331   1.484   1.231
 6718SOL    HW221054   4.343   1.633   1.165
 6719SOL     OW21055   1.883   1.615   6.864
 6719SOL    HW121056   1.905   1.525   6.827
 6719SOL    HW221057   1.803   1.608   6.924
 6720SOL     OW21058   1.572   0.935   6.080
 6720SOL    HW121059   1.545   0.886   6.163
 6720SOL    HW221060   1.629   0.875   6.023
 6721SOL     OW21061   5.899   0.070   0.964
 6721SOL    HW121062   5.974   0.124   0.926
 6721SOL    HW221063   5.891   0.089   1.062
 6722SOL     OW21064   5.432   3.529   0.489
 6722SOL    HW121065   5.344   3.560   0.454
 6722SOL    HW221066   5.459   3.585   0.567
 6723SOL     OW21067   1.038   2.930   5.650
 6723SOL    HW121068   1.044   2.896   5.744
 6723SOL    HW221069   1.129   2.926   5.608
 6724SOL     OW21070   2.004   3.603   4.210
 6724SOL    HW121071   2.053   3.535   4.155
 6724SOL    HW221072   1.909   3.608   4.178
 6725SOL     OW21073   4.809   2.855   3.425
 6725SOL    HW121074   4.894   2.817   3.460
 6725SOL    HW221075   4.822   2.952   3.402
 6726SOL     OW21076   0.583   0.682   5.792
 6726SOL    HW121077   0.569   0.645   5.700
 6726SOL    HW221078   0.554   0.615   5.860
 6727SOL     OW21079   1.499   4.825   5.585
 6727SOL    HW121080   1.546   4.775   5.658
 6727SOL    HW221081   1.563   4.889   5.543
 6728SOL     OW21082   3.476   1.130   3.285
 6728SOL    HW121083   3.468   1.148   3.187
 6728SOL    HW221084   3.402   1.176   3.334
 6729SOL     OW21085   4.032   1.229   2.202
 6729SOL    HW121086   3.947   1.263   2.242
 6729SOL    HW221087   4.015   1.140   2.159
 6730SOL     OW21088   6.768   1.844   0.727
 6730SOL    HW121089   6.838   1.871   0.661
 6730SOL    HW221090   6.811   1.818   0.813
 6731SOL     OW21091   3.665   0.268   6.478
 6731SOL    HW121092   3.668   0.193   6.412
 6731SOL    HW221093   3.753   0.316   6.478
 6732SOL     OW21094   7.007   4.960   5.706
 6732SOL    HW121095   7.000   4.861   5.718
 6732SOL    HW221096   0.085   4.989   5.721
 6733SOL     OW21097   4.863   4.802   5.545
 6733SOL    HW121098   4.877   4.814   5.643
 6733SOL    HW221099   4.932   4.853   5.494
 6734SOL     OW21100   6.191   1.702   4.044
 6734SOL    HW121101   6.251   1.706   4.124
 6734SOL    HW221102   6.098   1.727   4.071
 6735SOL     OW21103   6.733   2.693   2.957
 6735SOL    HW121104   6.644   2.734   2.978
 6735SOL    HW221105   6.751   2.617   3.020
 6736SOL     OW21106   3.633   3.465   0.899
 6736SOL    HW121107   3.675   3.381   0.865
 6736SOL    HW221108   3.549   3.443   0.950
 6737SOL     OW21109   6.651   3.765   0.115
 6737SOL    HW121110   6.703   3.693   0.067
 6737SOL    HW221111   6.606   3.726   0.195
 6738SOL     OW21112   1.230   5.874   4.147
 6738SOL    HW121113   1.298   5.847   4.079
 6738SOL    HW221114   1.276   5.912   4.227
 6739SOL     OW21115   0.093   0.069   5.305
 6739SOL    HW121116   0.036   7.006   5.328
 6739SOL    HW221117   0.035   0.150   5.298
 6740SOL     OW21118   0.433   6.852   3.054
 6740SOL    HW121119   0.502   6.914   3.091
 6740SOL    HW221120   0.348   6.902   3.038
 6741SOL     OW21121   3.846   1.975   0.155
 6741SOL    HW121122   3.915   1.917   0.112
 6741SOL    HW221123   3.757   1.956   0.114
 6742SOL     OW21124   5.851   4.149   3.446
 6742SOL    HW121125   5.860   4.248   3.461
 6742SOL    HW221126   5.939   4.111   3.419
 6743SOL     OW21127   3.834   3.623   1.028
 6743SOL    HW121128   3.846   3.711   0.983
 6743SOL    HW221129   3.747   3.582   0.998
 6744SOL     OW21130   6.301   6.878   6.148
 6744SOL    HW121131   6.225   6.829   6.105
 6744SOL    HW221132   6.357   6.922   6.078
 6745SOL     OW21133   0.111   4.639   5.150
 6745SOL    HW121134   0.088   4.564   5.087
 6745SOL    HW221135   0.030   4.662   5.205
 6746SOL     OW21136   1.035   2.386   2.848
 6746SOL    HW121137   1.091   2.393   2.766
 6746SOL    HW221138   0.997   2.294   2.854
 6747SOL     OW21139   1.276   6.215   5.943
 6747SOL    HW121140   1.183   6.214   5.907
 6747SOL    HW221141   1.300   6.125   5.979
 6748SOL     OW21142   1.996   1.134   4.770
 6748SOL    HW121143   1.979   1.230   4.747
 6748SOL    HW221144   1.910   1.089   4.793
 6749SOL     OW21145   4.188   4.993   1.896
 6749SOL    HW121146   4.140   4.963   1.813
 6749SOL    HW221147   4.141   4.956   1.976
 6750SOL     OW21148   3.853   0.965   4.826
 6750SOL    HW121149   3.913   0.975   4.747
 6750SOL    HW221150   3.884   1.026   4.899
 6751SOL     OW21151   4.695   0.155   4.479
 6751SOL    HW121152   4.762   0.203   4.423
 6751SOL    HW221153   4.628   0.220   4.515
 6752SOL     OW21154   2.180   4.587   2.378
 6752SOL    HW121155   2.208   4.491   2.381
 6752SOL    HW221156   2.217   4.630   2.296
 6753SOL     OW21157   3.973   3.218   6.196
 6753SOL    HW121158   4.060   3.193   6.155
 6753SOL    HW221159   3.929   3.136   6.233
 6754SOL     OW21160   6.051   1.982   0.635
 6754SOL    HW121161   6.001   1.971   0.720
 6754SOL    HW221162   6.000   1.938   0.560
 6755SOL     OW21163   2.880   5.930   6.139
 6755SOL    HW121164   2.833   5.842   6.145
 6755SOL    HW221165   2.979   5.914   6.145
 6756SOL     OW21166   3.335   2.157   6.074
 6756SOL    HW121167   3.273   2.115   6.008
 6756SOL    HW221168   3.309   2.253   6.088
 6757SOL     OW21169   4.290   0.122   1.102
 6757SOL    HW121170   4.213   0.163   1.151
 6757SOL    HW221171   4.274   0.024   1.090
 6758SOL     OW21172   5.119   2.034   3.469
 6758SOL    HW121173   5.126   2.131   3.488
 6758SOL    HW221174   5.073   1.988   3.545
 6759SOL     OW21175   0.662   1.871   2.782
 6759SOL    HW121176   0.664   1.965   2.750
 6759SOL    HW221177   0.647   1.870   2.881
 6760SOL     OW21178   5.118   2.291   4.967
 6760SOL    HW121179   5.112   2.306   5.065
 6760SOL    HW221180   5.032   2.250   4.934
 6761SOL     OW21181   3.607   1.491   4.925
 6761SOL    HW121182   3.655   1.510   4.840
 6761SOL    HW221183   3.509   1.483   4.907
 6762SOL     OW21184   6.814   5.383   4.307
 6762SOL    HW121185   6.856   5.473   4.303
 6762SOL    HW221186   6.855   5.330   4.382
 6763SOL     OW21187   5.740   5.691   4.707
 6763SOL    HW121188   5.667   5.702   4.775
 6763SOL    HW221189   5.708   5.633   4.632
 6764SOL     OW21190   1.070   4.971   0.617
 6764SOL    HW121191   1.132   5.049   0.620
 6764SOL    HW221192   1.007   4.982   0.540
 6765SOL     OW21193   0.155   4.536   2.948
 6765SOL    HW121194   0.090   4.475   2.903
 6765SOL    HW221195   0.108   4.617   2.981
 6766SOL     OW21196   5.867   0.794   1.369
 6766SOL    HW121197   5.808   0.778   1.289
 6766SOL    HW221198   5.884   0.892   1.379
 6767SOL     OW21199   3.169   0.379   0.759
 6767SOL    HW121200   3.103   0.433   0.707
 6767SOL    HW221201   3.137   0.284   0.765
 6768SOL     OW21202   1.828   0.980   0.453
 6768SOL    HW121203   1.810   0.971   0.355
 6768SOL    HW221204   1.924   0.958   0.472
 6769SOL     OW21205   4.380   2.799   1.709
 6769SOL    HW121206   4.361   2.897   1.717
 6769SOL    HW221207   4.471   2.786   1.671
 6770SOL     OW21208   0.493   0.755   1.639
 6770SOL    HW121209   0.527   0.808   1.561
 6770SOL    HW221210   0.505   0.808   1.723
 6771SOL     OW21211   4.397   2.136   3.272
 6771SOL    HW121212   4.483   2.108   3.315
 6771SOL    HW221213   4.342   2.054   3.253
 6772SOL     OW21214   3.409   1.840   3.140
 6772SOL    HW121215   3.355   1.894   3.075
 6772SOL    HW221216   3.360   1.835   3.227
 6773SOL     OW21217   0.592   3.960   1.495
 6773SOL    HW121218   0.494   3.945   1.508
 6773SOL    HW221219   0.613   3.960   1.398
 6774SOL     OW21220   0.379   2.009   6.143
 6774SOL    HW121221   0.386   1.962   6.055
 6774SOL    HW221222   0.392   2.107   6.130
 6775SOL     OW21223   2.360   4.719   0.104
 6775SOL    HW121224   2.438   4.664   0.076
 6775SOL    HW221225   2.347   4.710   0.203
 6776SOL     OW21226   5.697   5.623   6.946
 6776SOL    HW121227   5.686   5.527   6.973
 6776SOL    HW221228   5.775   5.631   6.884
 6777SOL     OW21229   4.990   5.003   6.446
 6777SOL    HW121230   4.920   4.941   6.411
 6777SOL    HW221231   5.024   5.061   6.372
 6778SOL     OW21232   0.446   6.252   2.713
 6778SOL    HW121233   0.516   6.305   2.666
 6778SOL    HW221234   0.380   6.217   2.647
 6779SOL     OW21235   0.629   4.381   0.216
 6779SOL    HW121236   0.649   4.452   0.149
 6779SOL    HW221237   0.676   4.401   0.302
 6780SOL     OW21238   0.258   2.689   2.162
 6780SOL    HW121239   0.187   2.705   2.231
 6780SOL    HW221240   0.298   2.777   2.135
 6781SOL     OW21241   6.302   5.328   6.310
 6781SOL    HW121242   6.340   5.265   6.242
 6781SOL    HW221243   6.205   5.307   6.325
 6782SOL     OW21244   6.090   1.344   2.787
 6782SOL    HW121245   6.031   1.359   2.866
 6782SOL    HW221246   6.144   1.260   2.801
 6783SOL     OW21247   0.612   6.038   6.761
 6783SOL    HW121248   0.537   6.104   6.761
 6783SOL    HW221249   0.583   5.955   6.809
 6784SOL     OW21250   3.543   3.145   0.144
 6784SOL    HW121251   3.622   3.206   0.145
 6784SOL    HW221252   3.561   3.067   0.205
 6785SOL     OW21253   6.132   6.424   2.493
 6785SOL    HW121254   6.044   6.402   2.452
 6785SOL    HW221255   6.194   6.460   2.423
 6786SOL     OW21256   1.980   3.225   6.208
 6786SOL    HW121257   2.063   3.209   6.155
 6786SOL    HW221258   2.001   3.286   6.285
 6787SOL     OW21259   1.178   3.707   1.581
 6787SOL    HW121260   1.097   3.657   1.549
 6787SOL    HW221261   1.176   3.711   1.681
 6788SOL     OW21262   2.512   4.379   0.965
 6788SOL    HW121263   2.441   4.446   0.988
 6788SOL    HW221264   2.539   4.330   1.047
 6789SOL     OW21265   0.290   6.595   3.148
 6789SOL    HW121266   0.321   6.528   3.081
 6789SOL    HW221267   0.341   6.680   3.135
 6790SOL     OW21268   1.895   3.250   6.974
 6790SOL    HW121269   1.911   3.172   6.915
 6790SOL    HW221270   1.961   3.322   6.954
 6791SOL     OW21271   4.121   3.556   6.100
 6791SOL    HW121272   4.070   3.512   6.174
 6791SOL    HW221273   4.068   3.632   6.063
 6792SOL     OW21274   0.079   5.250   0.627
 6792SOL    HW121275   0.135   5.294   0.557
 6792SOL    HW221276   0.135   5.233   0.708
 6793SOL     OW21277   6.389   1.792   0.838
 6793SOL    HW121278   6.438   1.760   0.757
 6793SOL    HW221279   6.453   1.839   0.899
 6794SOL     OW21280   4.767   0.868   4.993
 6794SOL    HW121281   4.769   0.962   4.960
 6794SOL    HW221282   4.717   0.864   5.080
 6795SOL     OW21283   3.082   5.534   6.968
 6795SOL    HW121284   3.143   5.613   6.973
 6795SOL    HW221285   2.993   5.563   6.935
 6796SOL     OW21286   4.175   1.721   2.807
 6796SOL    HW121287   4.267   1.700   2.840
 6796SOL    HW221288   4.114   1.735   2.885
 6797SOL     OW21289   6.893   3.411   2.313
 6797SOL    HW121290   6.971   3.460   2.352
 6797SOL    HW221291   6.925   3.331   2.262
 6798SOL     OW21292   6.522   6.116   2.545
 6798SOL    HW121293   6.592   6.181   2.515
 6798SOL    HW221294   6.487   6.066   2.466
 6799SOL     OW21295   5.124   6.170   1.379
 6799SOL    HW121296   5.113   6.129   1.289
 6799SOL    HW221297   5.034   6.192   1.416
 6800SOL     OW21298   3.262   4.542   6.838
 6800SOL    HW121299   3.232   4.609   6.906
 6800SOL    HW221300   3.362   4.542   6.832
 6801SOL     OW21301   1.693   1.839   2.555
 6801SOL    HW121302   1.678   1.841   2.654
 6801SOL    HW221303   1.780   1.885   2.534
 6802SOL     OW21304   2.221   6.041   2.342
 6802SOL    HW121305   2.241   5.963   2.401
 6802SOL    HW221306   2.127   6.033   2.308
 6803SOL     OW21307   5.301   2.744   6.927
 6803SOL    HW121308   5.351   2.740   6.841
 6803SOL    HW221309   5.294   2.652   6.966
 6804SOL     OW21310   1.626   6.697   3.844
 6804SOL    HW121311   1.703   6.760   3.842
 6804SOL    HW221312   1.544   6.743   3.809
 6805SOL     OW21313   5.473   0.282   4.358
 6805SOL    HW121314   5.496   0.377   4.378
 6805SOL    HW221315   5.547   0.240   4.306
 6806SOL     OW21316   4.189   0.613   5.829
 6806SOL    HW121317   4.228   0.660   5.909
 6806SOL    HW221318   4.104   0.567   5.856
 6807SOL     OW21319   3.281   3.049   7.006
 6807SOL    HW121320   3.319   2.957   7.016
 6807SOL    HW221321   3.321   3.109   0.059
 6808SOL     OW21322   1.618   3.150   5.019
 6808SOL    HW121323   1.687   3.162   4.948
 6808SOL    HW221324   1.588   3.054   5.020
 6809SOL     OW21325   1.850   3.774   6.424
 6809SOL    HW121326   1.777   3.796   6.358
 6809SOL    HW221327   1.891   3.859   6.456
 6810SOL     OW21328   5.919   1.534   2.415
 6810SOL    HW121329   5.957   1.624   2.439
 6810SOL    HW221330   5.983   1.486   2.355
 6811SOL     OW21331   5.020   5.624   1.083
 6811SOL    HW121332   5.100   5.569   1.058
 6811SOL    HW221333   4.938   5.567   1.076
 6812SOL     OW21334   3.171   3.678   2.722
 6812SOL    HW121335   3.211   3.716   2.805
 6812SOL    HW221336   3.085   3.633   2.745
 6813SOL     OW21337   4.472   3.837   0.867
 6813SOL    HW121338   4.479   3.760   0.930
 6813SOL    HW221339   4.463   3.922   0.919
 6814SOL     OW21340   2.635   3.595   0.577
 6814SOL    HW121341   2.546   3.603   0.532
 6814SOL    HW221342   2.624   3.608   0.676
 6815SOL     OW21343   2.193   0.184   1.978
 6815SOL    HW121344   2.261   0.251   1.948
 6815SOL    HW221345   2.113   0.232   2.014
 6816SOL     OW21346   6.348   4.527   1.561
 6816SOL    HW121347   6.254   4.537   1.594
 6816SOL    HW221348   6.353   4.449   1.498
 6817SOL     OW21349   0.057   1.300   5.910
 6817SOL    HW121350   7.013   1.226   5.880
 6817SOL    HW221351   0.078   1.288   6.007
 6818SOL     OW21352   3.387   6.180   2.759
 6818SOL    HW121353   3.290   6.195   2.780
 6818SOL    HW221354   3.411   6.231   2.676
 6819SOL     OW21355   3.323   1.386   3.825
 6819SOL    HW121356   3.233   1.392   3.869
 6819SOL    HW221357   3.324   1.445   3.744
 6820SOL     OW21358   0.975   4.278   3.756
 6820SOL    HW121359   0.902   4.321   3.810
 6820SOL    HW221360   1.058   4.333   3.763
 6821SOL     OW21361   2.242   1.992   4.445
 6821SOL    HW121362   2.312   2.030   4.506
 6821SOL    HW221363   2.282   1.919   4.390
 6822SOL     OW21364   5.139   2.224   5.792
 6822SOL    HW121365   5.184   2.252   5.707
 6822SOL    HW221366   5.153   2.295   5.861
 6823SOL     OW21367   3.007   3.323   2.143
 6823SOL    HW121368   3.100   3.316   2.109
 6823SOL    HW221369   2.953   3.381   2.081
 6824SOL     OW21370   1.609   4.099   6.357
 6824SOL    HW121371   1.708   4.116   6.349
 6824SOL    HW221372   1.562   4.137   6.277
 6825SOL     OW21373   4.995   6.782   3.815
 6825SOL    HW121374   4.986   6.882   3.815
 6825SOL    HW221375   5.031   6.752   3.727
 6826SOL     OW21376   1.404   2.992   2.534
 6826SOL    HW121377   1.478   2.961   2.594
 6826SOL    HW221378   1.440   3.008   2.442
 6827SOL     OW21379   5.780   5.954   4.790
 6827SOL    HW121380   5.862   6.006   4.764
 6827SOL    HW221381   5.785   5.862   4.752
 6828SOL     OW21382   1.641   2.775   1.282
 6828SOL    HW121383   1.581   2.845   1.245
 6828SOL    HW221384   1.629   2.689   1.233
 6829SOL     OW21385   4.884   5.301   3.766
 6829SOL    HW121386   4.797   5.273   3.808
 6829SOL    HW221387   4.946   5.334   3.837
 6830SOL     OW21388   5.836   1.944   3.918
 6830SOL    HW121389   5.916   1.930   3.860
 6830SOL    HW221390   5.819   1.862   3.972
 6831SOL     OW21391   0.316   1.204   6.405
 6831SOL    HW121392   0.329   1.114   6.363
 6831SOL    HW221393   0.391   1.224   6.467
 6832SOL     OW21394   3.129   5.216   2.385
 6832SOL    HW121395   3.195   5.150   2.350
 6832SOL    HW221396   3.036   5.185   2.363
 6833SOL     OW21397   3.934   5.329   0.223
 6833SOL    HW121398   3.836   5.335   0.244
 6833SOL    HW221399   3.961   5.233   0.218
 6834SOL     OW21400   3.770   5.223   2.398
 6834SOL    HW121401   3.683   5.173   2.407
 6834SOL    HW221402   3.805   5.245   2.489
 6835SOL     OW21403   3.832   6.847   4.713
 6835SOL    HW121404   3.826   6.926   4.775
 6835SOL    HW221405   3.758   6.784   4.734
 6836SOL     OW21406   3.532   6.178   6.847
 6836SOL    HW121407   3.550   6.124   6.765
 6836SOL    HW221408   3.433   6.181   6.865
 6837SOL     OW21409   1.290   3.080   1.865
 6837SOL    HW121410   1.369   3.020   1.878
 6837SOL    HW221411   1.321   3.173   1.847
 6838SOL     OW21412   2.308   1.610   6.672
 6838SOL    HW121413   2.236   1.631   6.738
 6838SOL    HW221414   2.283   1.648   6.583
 6839SOL     OW21415   4.114   1.028   1.114
 6839SOL    HW121416   4.093   0.949   1.171
 6839SOL    HW221417   4.211   1.024   1.086
 6840SOL     OW21418   0.977   2.131   6.638
 6840SOL    HW121419   0.885   2.100   6.617
 6840SOL    HW221420   1.011   2.082   6.718
 6841SOL     OW21421   6.662   3.936   6.175
 6841SOL    HW121422   6.598   3.901   6.242
 6841SOL    HW221423   6.614   3.954   6.089
 6842SOL     OW21424   2.058   4.612   2.903
 6842SOL    HW121425   2.142   4.622   2.956
 6842SOL    HW221426   1.987   4.570   2.960
 6843SOL     OW21427   4.136   6.629   0.109
 6843SOL    HW121428   4.049   6.597   0.148
 6843SOL    HW221429   4.131   6.627   0.009
 6844SOL     OW21430   4.957   0.533   5.641
 6844SOL    HW121431   4.892   0.591   5.591
 6844SOL    HW221432   5.005   0.587   5.710
 6845SOL     OW21433   5.202   1.988   2.437
 6845SOL    HW121434   5.231   2.042   2.515
 6845SOL    HW221435   5.272   1.918   2.418
 6846SOL     OW21436   2.581   3.915   0.319
 6846SOL    HW121437   2.533   3.920   0.406
 6846SOL    HW221438   2.519   3.883   0.248
 6847SOL     OW21439   6.714   3.416   3.900
 6847SOL    HW121440   6.645   3.485   3.924
 6847SOL    HW221441   6.802   3.442   3.938
 6848SOL     OW21442   5.587   4.457   3.280
 6848SOL    HW121443   5.571   4.496   3.370
 6848SOL    HW221444   5.500   4.446   3.233
 6849SOL     OW21445   2.770   4.000   6.751
 6849SOL    HW121446   2.861   3.959   6.757
 6849SOL    HW221447   2.714   3.950   6.685
 6850SOL     OW21448   3.956   1.338   3.911
 6850SOL    HW121449   3.985   1.243   3.899
 6850SOL    HW221450   3.922   1.351   4.004
 6851SOL     OW21451   2.149   2.951   3.541
 6851SOL    HW121452   2.128   3.036   3.591
 6851SOL    HW221453   2.139   2.873   3.603
 6852SOL     OW21454   2.737   4.681   0.262
 6852SOL    HW121455   2.701   4.589   0.241
 6852SOL    HW221456   2.748   4.690   0.361
 6853SOL     OW21457   4.968   3.947   0.121
 6853SOL    HW121458   5.036   3.946   0.047
 6853SOL    HW221459   4.982   3.868   0.180
 6854SOL     OW21460   6.179   5.983   6.034
 6854SOL    HW121461   6.277   5.998   6.029
 6854SOL    HW221462   6.156   5.895   5.993
 6855SOL     OW21463   4.174   5.125   3.403
 6855SOL    HW121464   4.264   5.082   3.395
 6855SOL    HW221465   4.173   5.211   3.352
 6856SOL     OW21466   0.558   1.878   6.351
 6856SOL    HW121467   0.518   1.938   6.282
 6856SOL    HW221468   0.620   1.931   6.409
 6857SOL     OW21469   0.928   3.823   4.954
 6857SOL    HW121470   0.925   3.747   4.890
 6857SOL    HW221471   1.013   3.874   4.941
 6858SOL     OW21472   2.365   3.746   1.729
 6858SOL    HW121473   2.319   3.661   1.754
 6858SOL    HW221474   2.458   3.725   1.698
 6859SOL     OW21475   1.415   1.498   2.426
 6859SOL    HW121476   1.477   1.547   2.364
 6859SOL    HW221477   1.392   1.557   2.503
 6860SOL     OW21478   0.747   6.239   2.289
 6860SOL    HW121479   0.686   6.216   2.213
 6860SOL    HW221480   0.730   6.177   2.366
 6861SOL     OW21481   5.959   2.932   5.231
 6861SOL    HW121482   6.013   3.004   5.187
 6861SOL    HW221483   5.975   2.932   5.329
 6862SOL     OW21484   0.969   4.487   4.861
 6862SOL    HW121485   1.056   4.479   4.910
 6862SOL    HW221486   0.925   4.573   4.887
 6863SOL     OW21487   5.975   0.732   5.461
 6863SOL    HW121488   6.066   0.747   5.421
 6863SOL    HW221489   5.956   0.634   5.462
 6864SOL     OW21490   1.118   3.783   5.828
 6864SOL    HW121491   1.175   3.702   5.837
 6864SOL    HW221492   1.170   3.864   5.857
 6865SOL     OW21493   2.436   0.169   3.744
 6865SOL    HW121494   2.361   0.157   3.680
 6865SOL    HW221495   2.523   0.172   3.694
 6866SOL     OW21496   1.003   4.734   0.740
 6866SOL    HW121497   1.017   4.703   0.647
 6866SOL    HW221498   0.997   4.834   0.741
 6867SOL     OW21499   2.404   3.848   0.096
 6867SOL    HW121500   2.480   3.884   0.041
 6867SOL    HW221501   2.372   3.762   0.058
 6868SOL     OW21502   2.760   5.276   3.973
 6868SOL    HW121503   2.751   5.290   3.874
 6868SOL    HW221504   2.821   5.346   4.010
 6869SOL     OW21505   3.162   1.034   6.104
 6869SOL    HW121506   3.233   0.964   6.105
 6869SOL    HW221507   3.192   1.111   6.046
 6870SOL     OW21508   6.028   2.327   0.535
 6870SOL    HW121509   6.060   2.234   0.549
 6870SOL    HW221510   5.945   2.342   0.590
 6871SOL     OW21511   0.069   3.810   2.239
 6871SOL    HW121512   0.064   3.719   2.279
 6871SOL    HW221513   0.037   3.878   2.306
 6872SOL     OW21514   1.809   3.901   0.681
 6872SOL    HW121515   1.746   3.846   0.736
 6872SOL    HW221516   1.800   3.876   0.585
 6873SOL     OW21517   0.424   4.415   3.311
 6873SOL    HW121518   0.491   4.340   3.303
 6873SOL    HW221519   0.388   4.437   3.221
 6874SOL     OW21520   5.516   6.285   3.393
 6874SOL    HW121521   5.531   6.366   3.449
 6874SOL    HW221522   5.425   6.248   3.409
 6875SOL     OW21523   2.763   1.566   0.411
 6875SOL    HW121524   2.709   1.511   0.474
 6875SOL    HW221525   2.768   1.661   0.444
 6876SOL     OW21526   5.178   4.850   3.433
 6876SOL    HW121527   5.234   4.824   3.511
 6876SOL    HW221528   5.234   4.901   3.367
 6877SOL     OW21529   1.000   3.521   1.799
 6877SOL    HW121530   1.049   3.436   1.819
 6877SOL    HW221531   1.052   3.598   1.835
 6878SOL     OW21532   2.028   0.870   4.719
 6878SOL    HW121533   2.032   0.968   4.736
 6878SOL    HW221534   1.977   0.853   4.635
 6879SOL     OW21535   1.939   0.946   0.946
 6879SOL    HW121536   1.999   0.981   0.874
 6879SOL    HW221537   1.851   0.919   0.906
 6880SOL     OW21538   1.673   5.322   6.614
 6880SOL    HW121539   1.599   5.339   6.549
 6880SOL    HW221540   1.725   5.242   6.585
 6881SOL     OW21541   0.952   2.779   0.606
 6881SOL    HW121542   0.921   2.764   0.700
 6881SOL    HW221543   1.034   2.724   0.589
 6882SOL     OW21544   2.364   6.852   6.539
 6882SOL    HW121545   2.313   6.906   6.472
 6882SOL    HW221546   2.343   6.755   6.525
 6883SOL     OW21547   4.541   0.855   0.684
 6883SOL    HW121548   4.611   0.925   0.682
 6883SOL    HW221549   4.574   0.776   0.735
 6884SOL     OW21550   2.188   3.958   3.081
 6884SOL    HW121551   2.149   3.930   3.169
 6884SOL    HW221552   2.201   3.878   3.023
 6885SOL     OW21553   5.897   5.170   4.545
 6885SOL    HW121554   5.943   5.234   4.607
 6885SOL    HW221555   5.846   5.222   4.477
 6886SOL     OW21556   5.191   2.077   0.218
 6886SOL    HW121557   5.201   2.032   0.129
 6886SOL    HW221558   5.096   2.070   0.249
 6887SOL     OW21559   5.565   5.410   5.898
 6887SOL    HW121560   5.470   5.406   5.930
 6887SOL    HW221561   5.571   5.373   5.805
 6888SOL     OW21562   6.205   4.908   6.516
 6888SOL    HW121563   6.240   4.912   6.610
 6888SOL    HW221564   6.219   4.817   6.479
 6889SOL     OW21565   6.978   2.664   6.729
 6889SOL    HW121566   6.927   2.638   6.811
 6889SOL    HW221567   7.006   2.581   6.680
 6890SOL     OW21568   4.661   4.202   3.422
 6890SOL    HW121569   4.692   4.112   3.391
 6890SOL    HW221570   4.635   4.197   3.519
 6891SOL     OW21571   1.859   0.986   1.239
 6891SOL    HW121572   1.903   1.023   1.157
 6891SOL    HW221573   1.917   1.004   1.318
 6892SOL     OW21574   2.967   0.910   4.564
 6892SOL    HW121575   2.957   1.005   4.534
 6892SOL    HW221576   2.907   0.851   4.510
 6893SOL     OW21577   5.972   3.262   0.749
 6893SOL    HW121578   5.907   3.198   0.789
 6893SOL    HW221579   6.062   3.248   0.791
 6894SOL     OW21580   5.611   5.422   0.705
 6894SOL    HW121581   5.685   5.488   0.713
 6894SOL    HW221582   5.616   5.356   0.780
 6895SOL     OW21583   0.245   6.563   2.067
 6895SOL    HW121584   0.191   6.645   2.045
 6895SOL    HW221585   0.343   6.585   2.059
 6896SOL     OW21586   4.508   1.614   4.878
 6896SOL    HW121587   4.551   1.581   4.793
 6896SOL    HW221588   4.522   1.547   4.951
 6897SOL     OW21589   4.932   2.926   5.049
 6897SOL    HW121590   4.875   2.953   5.127
 6897SOL    HW221591   4.880   2.939   4.964
 6898SOL     OW21592   1.859   6.695   1.621
 6898SOL    HW121593   1.868   6.618   1.685
 6898SOL    HW221594   1.783   6.677   1.559
 6899SOL     OW21595   6.356   5.518   2.270
 6899SOL    HW121596   6.435   5.495   2.213
 6899SOL    HW221597   6.287   5.447   2.259
 6900SOL     OW21598   6.640   3.878   5.319
 6900SOL    HW121599   6.549   3.850   5.288
 6900SOL    HW221600   6.641   3.976   5.336
 6901SOL     OW21601   5.133   4.796   0.092
 6901SOL    HW121602   5.191   4.723   0.057
 6901SOL    HW221603   5.150   4.880   0.041
 6902SOL     OW21604   0.751   6.056   5.991
 6902SOL    HW121605   0.828   6.090   6.045
 6902SOL    HW221606   0.673   6.117   6.003
 6903SOL     OW21607   1.025   6.012   4.843
 6903SOL    HW121608   0.970   5.964   4.773
 6903SOL    HW221609   1.067   5.945   4.904
 6904SOL     OW21610   6.969   6.925   5.645
 6904SOL    HW121611   6.893   6.985   5.620
 6904SOL    HW221612   0.035   6.980   5.661
 6905SOL     OW21613   4.886   6.015   6.083
 6905SOL    HW121614   4.970   5.962   6.098
 6905SOL    HW221615   4.903   6.089   6.018
 6906SOL     OW21616   3.286   1.149   3.674
 6906SOL    HW121617   3.300   1.225   3.737
 6906SOL    HW221618   3.204   1.165   3.619
 6907SOL     OW21619   5.905   2.648   0.668
 6907SOL    HW121620   5.973   2.675   0.736
 6907SOL    HW221621   5.871   2.557   0.690
 6908SOL     OW21622   2.681   5.056   0.296
 6908SOL    HW121623   2.583   5.042   0.312
 6908SOL    HW221624   2.706   5.150   0.320
 6909SOL     OW21625   6.245   5.146   1.916
 6909SOL    HW121626   6.266   5.155   1.819
 6909SOL    HW221627   6.259   5.233   1.962
 6910SOL     OW21628   1.109   2.815   2.723
 6910SOL    HW121629   1.011   2.798   2.732
 6910SOL    HW221630   1.130   2.907   2.754
 6911SOL     OW21631   1.680   6.591   5.343
 6911SOL    HW121632   1.726   6.505   5.322
 6911SOL    HW221633   1.592   6.573   5.385
 6912SOL     OW21634   2.650   3.581   6.707
 6912SOL    HW121635   2.639   3.541   6.616
 6912SOL    HW221636   2.562   3.615   6.739
 6913SOL     OW21637   5.010   6.198   5.880
 6913SOL    HW121638   5.064   6.274   5.843
 6913SOL    HW221639   4.915   6.207   5.851
 6914SOL     OW21640   5.937   2.599   2.443
 6914SOL    HW121641   5.841   2.596   2.470
 6914SOL    HW221642   5.964   2.694   2.427
 6915SOL     OW21643   6.400   3.545   3.458
 6915SOL    HW121644   6.497   3.566   3.464
 6915SOL    HW221645   6.371   3.495   3.540
 6916SOL     OW21646   4.992   6.193   6.698
 6916SOL    HW121647   5.040   6.263   6.752
 6916SOL    HW221648   5.035   6.104   6.712
 6917SOL     OW21649   4.549   6.320   1.736
 6917SOL    HW121650   4.465   6.320   1.682
 6917SOL    HW221651   4.555   6.405   1.789
 6918SOL     OW21652   2.124   3.016   1.049
 6918SOL    HW121653   2.109   2.982   0.956
 6918SOL    HW221654   2.105   2.943   1.115
 6919SOL     OW21655   5.372   5.692   3.585
 6919SOL    HW121656   5.398   5.741   3.502
 6919SOL    HW221657   5.412   5.737   3.664
 6920SOL     OW21658   6.137   1.139   6.111
 6920SOL    HW121659   6.084   1.098   6.037
 6920SOL    HW221660   6.131   1.081   6.192
 6921SOL     OW21661   4.312   0.083   4.669
 6921SOL    HW121662   4.363   7.013   4.672
 6921SOL    HW221663   4.363   0.149   4.614
 6922SOL     OW21664   1.806   4.294   5.903
 6922SOL    HW121665   1.855   4.236   5.968
 6922SOL    HW221666   1.712   4.308   5.936
 6923SOL     OW21667   5.970   6.903   2.501
 6923SOL    HW121668   6.037   6.949   2.442
 6923SOL    HW221669   5.878   6.935   2.478
 6924SOL     OW21670   3.111   5.666   1.770
 6924SOL    HW121671   3.019   5.628   1.780
 6924SOL    HW221672   3.105   5.766   1.761
 6925SOL     OW21673   5.603   6.784   5.568
 6925SOL    HW121674   5.555   6.697   5.575
 6925SOL    HW221675   5.539   6.855   5.538
 6926SOL     OW21676   3.205   2.233   0.493
 6926SOL    HW121677   3.267   2.196   0.562
 6926SOL    HW221678   3.111   2.210   0.517
 6927SOL     OW21679   4.599   0.746   0.375
 6927SOL    HW121680   4.692   0.713   0.387
 6927SOL    HW221681   4.562   0.775   0.464
 6928SOL     OW21682   4.284   5.060   0.527
 6928SOL    HW121683   4.332   5.028   0.609
 6928SOL    HW221684   4.244   4.981   0.480
 6929SOL     OW21685   5.773   4.954   1.966
 6929SOL    HW121686   5.818   4.912   1.887
 6929SOL    HW221687   5.810   5.046   1.980
 6930SOL     OW21688   0.562   7.002   1.656
 6930SOL    HW121689   0.623   0.021   1.585
 6930SOL    HW221690   0.609   6.928   1.706
 6931SOL     OW21691   2.852   3.313   1.153
 6931SOL    HW121692   2.896   3.313   1.243
 6931SOL    HW221693   2.918   3.342   1.084
 6932SOL     OW21694   4.002   6.280   6.676
 6932SOL    HW121695   4.091   6.272   6.722
 6932SOL    HW221696   4.003   6.229   6.590
 6933SOL     OW21697   3.406   6.066   6.251
 6933SOL    HW121698   3.327   6.034   6.303
 6933SOL    HW221699   3.422   6.005   6.173
 6934SOL     OW21700   5.327   4.595   6.629
 6934SOL    HW121701   5.406   4.555   6.582
 6934SOL    HW221702   5.345   4.691   6.651
 6935SOL     OW21703   4.268   6.402   1.797
 6935SOL    HW121704   4.205   6.378   1.723
 6935SOL    HW221705   4.294   6.498   1.789
 6936SOL     OW21706   0.169   1.600   5.331
 6936SOL    HW121707   0.079   1.616   5.372
 6936SOL    HW221708   0.162   1.607   5.232
 6937SOL     OW21709   5.583   5.365   7.000
 6937SOL    HW121710   5.484   5.350   6.993
 6937SOL    HW221711   5.617   5.323   0.068
 6938SOL     OW21712   2.338   1.078   4.877
 6938SOL    HW121713   2.252   1.059   4.924
 6938SOL    HW221714   2.401   1.127   4.938
 6939SOL     OW21715   5.622   3.499   3.564
 6939SOL    HW121716   5.525   3.492   3.543
 6939SOL    HW221717   5.639   3.469   3.658
 6940SOL     OW21718   2.959   6.197   0.559
 6940SOL    HW121719   2.888   6.235   0.618
 6940SOL    HW221720   2.924   6.117   0.511
 6941SOL     OW21721   3.707   3.721   3.195
 6941SOL    HW121722   3.726   3.819   3.196
 6941SOL    HW221723   3.655   3.696   3.276
 6942SOL     OW21724   6.008   5.552   2.384
 6942SOL    HW121725   5.999   5.534   2.482
 6942SOL    HW221726   6.068   5.631   2.370
 6943SOL     OW21727   4.134   4.610   6.142
 6943SOL    HW121728   4.077   4.593   6.221
 6943SOL    HW221729   4.119   4.539   6.073
 6944SOL     OW21730   1.512   4.315   4.891
 6944SOL    HW121731   1.458   4.294   4.972
 6944SOL    HW221732   1.599   4.355   4.918
 6945SOL     OW21733   4.824   1.747   1.200
 6945SOL    HW121734   4.883   1.672   1.171
 6945SOL    HW221735   4.877   1.812   1.254
 6946SOL     OW21736   5.039   6.061   3.294
 6946SOL    HW121737   4.972   6.018   3.355
 6946SOL    HW221738   5.027   6.025   3.201
 6947SOL     OW21739   6.047   4.697   5.519
 6947SOL    HW121740   6.071   4.624   5.455
 6947SOL    HW221741   5.983   4.760   5.474
 6948SOL     OW21742   0.356   4.575   6.948
 6948SOL    HW121743   0.403   4.609   0.012
 6948SOL    HW221744   0.257   4.571   6.965
 6949SOL     OW21745   2.382   2.219   3.934
 6949SOL    HW121746   2.375   2.151   4.007
 6949SOL    HW221747   2.461   2.198   3.876
 6950SOL     OW21748   0.339   0.924   4.550
 6950SOL    HW121749   0.422   0.867   4.547
 6950SOL    HW221750   0.362   1.015   4.584
 6951SOL     OW21751   0.743   4.252   6.894
 6951SOL    HW121752   0.648   4.232   6.918
 6951SOL    HW221753   0.745   4.328   6.829
 6952SOL     OW21754   4.936   5.739   4.109
 6952SOL    HW121755   4.852   5.703   4.068
 6952SOL    HW221756   4.914   5.787   4.194
 6953SOL     OW21757   6.552   1.945   0.997
 6953SOL    HW121758   6.638   1.946   1.049
 6953SOL    HW221759   6.494   2.020   1.028
 6954SOL     OW21760   6.548   4.592   0.022
 6954SOL    HW121761   6.576   4.497   0.036
 6954SOL    HW221762   6.554   4.642   0.108
 6955SOL     OW21763   4.678   6.201   3.072
 6955SOL    HW121764   4.725   6.207   2.984
 6955SOL    HW221765   4.609   6.273   3.079
 6956SOL     OW21766   5.882   5.382   2.231
 6956SOL    HW121767   5.800   5.337   2.265
 6956SOL    HW221768   5.914   5.448   2.298
 6957SOL     OW21769   6.580   5.650   5.799
 6957SOL    HW121770   6.506   5.714   5.819
 6957SOL    HW221771   6.597   5.648   5.700
 6958SOL     OW21772   3.197   3.704   3.280
 6958SOL    HW121773   3.160   3.612   3.293
 6958SOL    HW221774   3.131   3.772   3.312
 6959SOL     OW21775   1.763   4.247   2.689
 6959SOL    HW121776   1.686   4.273   2.631
 6959SOL    HW221777   1.757   4.297   2.776
 6960SOL     OW21778   3.840   4.154   0.764
 6960SOL    HW121779   3.812   4.067   0.723
 6960SOL    HW221780   3.928   4.143   0.810
 6961SOL     OW21781   4.585   2.719   4.960
 6961SOL    HW121782   4.533   2.793   4.918
 6961SOL    HW221783   4.604   2.649   4.891
 6962SOL     OW21784   2.245   0.045   6.399
 6962SOL    HW121785   2.211   0.109   6.330
 6962SOL    HW221786   2.338   0.070   6.427
 6963SOL     OW21787   6.201   5.813   0.921
 6963SOL    HW121788   6.301   5.822   0.926
 6963SOL    HW221789   6.172   5.817   0.825
 6964SOL     OW21790   1.720   1.353   5.479
 6964SOL    HW121791   1.786   1.394   5.417
 6964SOL    HW221792   1.757   1.355   5.572
 6965SOL     OW21793   0.973   1.568   0.286
 6965SOL    HW121794   1.053   1.556   0.344
 6965SOL    HW221795   0.954   1.665   0.273
 6966SOL     OW21796   1.501   6.397   1.227
 6966SOL    HW121797   1.576   6.340   1.262
 6966SOL    HW221798   1.421   6.386   1.286
 6967SOL     OW21799   4.404   1.146   6.425
 6967SOL    HW121800   4.489   1.197   6.433
 6967SOL    HW221801   4.327   1.204   6.453
 6968SOL     OW21802   4.143   6.487   2.975
 6968SOL    HW121803   4.194   6.520   2.896
 6968SOL    HW221804   4.073   6.554   3.000
 6969SOL     OW21805   2.033   1.739   2.473
 6969SOL    HW121806   2.050   1.705   2.381
 6969SOL    HW221807   1.985   1.827   2.468
 6970SOL     OW21808   3.599   5.350   5.024
 6970SOL    HW121809   3.548   5.391   4.948
 6970SOL    HW221810   3.615   5.419   5.095
 6971SOL     OW21811   6.733   4.000   0.482
 6971SOL    HW121812   6.687   3.911   0.482
 6971SOL    HW221813   6.756   4.025   0.388
 6972SOL     OW21814   5.609   4.094   1.443
 6972SOL    HW121815   5.633   4.184   1.409
 6972SOL    HW221816   5.582   4.035   1.367
 6973SOL     OW21817   1.744   2.414   2.771
 6973SOL    HW121818   1.652   2.437   2.802
 6973SOL    HW221819   1.804   2.401   2.850
 6974SOL     OW21820   3.889   3.584   2.919
 6974SOL    HW121821   3.846   3.526   2.989
 6974SOL    HW221822   3.817   3.630   2.866
 6975SOL     OW21823   2.899   5.472   4.093
 6975SOL    HW121824   2.828   5.543   4.091
 6975SOL    HW221825   2.987   5.514   4.118
 6976SOL     OW21826   4.643   4.229   6.200
 6976SOL    HW121827   4.619   4.134   6.179
 6976SOL    HW221828   4.646   4.241   6.299
 6977SOL     OW21829   4.837   5.386   2.172
 6977SOL    HW121830   4.795   5.295   2.181
 6977SOL    HW221831   4.870   5.416   2.261
 6978SOL     OW21832   6.904   4.029   1.321
 6978SOL    HW121833   6.963   3.994   1.394
 6978SOL    HW221834   6.957   4.036   1.236
 6979SOL     OW21835   1.653   3.106   2.070
 6979SOL    HW121836   1.732   3.158   2.101
 6979SOL    HW221837   1.617   3.147   1.986
 6980SOL     OW21838   1.716   5.545   2.472
 6980SOL    HW121839   1.791   5.610   2.469
 6980SOL    HW221840   1.739   5.470   2.534
 6981SOL     OW21841   4.282   2.574   6.773
 6981SOL    HW121842   4.333   2.600   6.856
 6981SOL    HW221843   4.193   2.620   6.773
 6982SOL     OW21844   1.410   0.665   2.519
 6982SOL    HW121845   1.454   0.654   2.608
 6982SOL    HW221846   1.460   0.732   2.465
 6983SOL     OW21847   5.857   1.083   4.174
 6983SOL    HW121848   5.916   1.042   4.105
 6983SOL    HW221849   5.827   1.012   4.238
 6984SOL     OW21850   1.168   3.056   2.860
 6984SOL    HW121851   1.108   3.084   2.935
 6984SOL    HW221852   1.216   3.136   2.824
 6985SOL     OW21853   5.627   3.639   6.716
 6985SOL    HW121854   5.596   3.732   6.696
 6985SOL    HW221855   5.661   3.596   6.632
 6986SOL     OW21856   4.636   4.648   5.509
 6986SOL    HW121857   4.708   4.717   5.513
 6986SOL    HW221858   4.677   4.557   5.512
 6987SOL     OW21859   0.669   0.994   6.710
 6987SOL    HW121860   0.692   1.081   6.667
 6987SOL    HW221861   0.754   0.945   6.732
 6988SOL     OW21862   2.774   1.630   6.812
 6988SOL    HW121863   2.788   1.729   6.824
 6988SOL    HW221864   2.860   1.582   6.832
 6989SOL     OW21865   0.696   4.441   2.495
 6989SOL    HW121866   0.686   4.446   2.396
 6989SOL    HW221867   0.621   4.388   2.534
 6990SOL     OW21868   3.770   3.526   0.484
 6990SOL    HW121869   3.687   3.476   0.507
 6990SOL    HW221870   3.841   3.506   0.551
 6991SOL     OW21871   6.864   3.046   2.602
 6991SOL    HW121872   6.780   3.027   2.552
 6991SOL    HW221873   6.939   3.061   2.537
 6992SOL     OW21874   0.900   5.740   0.172
 6992SOL    HW121875   0.835   5.792   0.227
 6992SOL    HW221876   0.994   5.764   0.199
 6993SOL     OW21877   4.340   1.743   1.503
 6993SOL    HW121878   4.298   1.652   1.509
 6993SOL    HW221879   4.418   1.740   1.441
 6994SOL     OW21880   2.773   1.162   3.854
 6994SOL    HW121881   2.792   1.216   3.771
 6994SOL    HW221882   2.818   1.205   3.932
 6995SOL     OW21883   0.383   4.236   0.923
 6995SOL    HW121884   0.309   4.278   0.975
 6995SOL    HW221885   0.345   4.189   0.843
 6996SOL     OW21886   1.056   1.320   6.701
 6996SOL    HW121887   1.065   1.294   6.605
 6996SOL    HW221888   1.071   1.418   6.712
 6997SOL     OW21889   6.144   5.705   5.924
 6997SOL    HW121890   6.112   5.627   5.870
 6997SOL    HW221891   6.186   5.670   6.009
 6998SOL     OW21892   6.731   1.390   0.016
 6998SOL    HW121893   6.826   1.412   0.040
 6998SOL    HW221894   6.682   1.474   7.010
 6999SOL     OW21895   0.143   2.960   6.561
 6999SOL    HW121896   0.070   2.958   6.629
 6999SOL    HW221897   0.135   3.044   6.506
 7000SOL     OW21898   0.085   5.576   3.402
 7000SOL    HW121899   0.002   5.608   3.449
 7000SOL    HW221900   0.088   5.614   3.310
 7001SOL     OW21901   6.992   2.348   3.986
 7001SOL    HW121902   0.014   2.438   4.005
 7001SOL    HW221903   0.048   2.282   3.972
 7002SOL     OW21904   0.979   5.456   2.529
 7002SOL    HW121905   1.039   5.534   2.513
 7002SOL    HW221906   1.004   5.381   2.467
 7003SOL     OW21907   6.900   3.935   0.839
 7003SOL    HW121908   6.845   4.012   0.807
 7003SOL    HW221909   6.862   3.900   0.925
 7004SOL     OW21910   1.618   6.807   0.569
 7004SOL    HW121911   1.687   6.817   0.641
 7004SOL    HW221912   1.597   6.710   0.557
 7005SOL     OW21913   1.231   5.578   0.619
 7005SOL    HW121914   1.307   5.518   0.594
 7005SOL    HW221915   1.216   5.573   0.718
 7006SOL     OW21916   1.112   0.379   4.132
 7006SOL    HW121917   1.030   0.338   4.091
 7006SOL    HW221918   1.153   0.313   4.194
 7007SOL     OW21919   2.146   0.639   6.139
 7007SOL    HW121920   2.105   0.622   6.049
 7007SOL    HW221921   2.106   0.722   6.178
 7008SOL     OW21922   5.445   3.624   2.872
 7008SOL    HW121923   5.379   3.550   2.883
 7008SOL    HW221924   5.399   3.706   2.838
 7009SOL     OW21925   4.741   5.563   2.438
 7009SOL    HW121926   4.698   5.639   2.389
 7009SOL    HW221927   4.683   5.482   2.430
 7010SOL     OW21928   5.279   3.617   1.874
 7010SOL    HW121929   5.209   3.667   1.924
 7010SOL    HW221930   5.366   3.665   1.881
 7011SOL     OW21931   3.049   6.776   6.520
 7011SOL    HW121932   3.122   6.844   6.519
 7011SOL    HW221933   3.088   6.684   6.527
 7012SOL     OW21934   6.704   3.000   0.218
 7012SOL    HW121935   6.711   2.909   0.176
 7012SOL    HW221936   6.620   3.044   0.188
 7013SOL     OW21937   3.210   2.516   0.049
 7013SOL    HW121938   3.137   2.574   0.012
 7013SOL    HW221939   3.173   2.461   0.124
 7014SOL     OW21940   5.716   3.191   0.401
 7014SOL    HW121941   5.800   3.186   0.347
 7014SOL    HW221942   5.694   3.099   0.434
 7015SOL     OW21943   5.919   6.655   1.089
 7015SOL    HW121944   5.928   6.696   0.998
 7015SOL    HW221945   5.877   6.722   1.151
 7016SOL     OW21946   3.388   4.972   0.958
 7016SOL    HW121947   3.334   4.917   0.894
 7016SOL    HW221948   3.448   4.912   1.011
 7017SOL     OW21949   5.888   4.712   5.731
 7017SOL    HW121950   5.954   4.689   5.658
 7017SOL    HW221951   5.927   4.686   5.819
 7018SOL     OW21952   5.206   3.741   4.793
 7018SOL    HW121953   5.219   3.763   4.696
 7018SOL    HW221954   5.202   3.826   4.846
 7019SOL     OW21955   4.150   5.561   2.364
 7019SOL    HW121956   4.113   5.601   2.447
 7019SOL    HW221957   4.085   5.574   2.289
 7020SOL     OW21958   0.434   2.840   6.219
 7020SOL    HW121959   0.497   2.901   6.266
 7020SOL    HW221960   0.368   2.893   6.167
 7021SOL     OW21961   0.642   1.978   4.560
 7021SOL    HW121962   0.637   2.065   4.511
 7021SOL    HW221963   0.664   1.996   4.656
 7022SOL     OW21964   2.863   2.312   1.029
 7022SOL    HW121965   2.806   2.238   0.994
 7022SOL    HW221966   2.921   2.277   1.103
 7023SOL     OW21967   0.330   1.827   0.582
 7023SOL    HW121968   0.376   1.767   0.647
 7023SOL    HW221969   0.397   1.887   0.538
 7024SOL     OW21970   3.651   3.876   4.594
 7024SOL    HW121971   3.739   3.828   4.598
 7024SOL    HW221972   3.663   3.969   4.628
 7025SOL     OW21973   2.798   0.284   0.920
 7025SOL    HW121974   2.724   0.223   0.889
 7025SOL    HW221975   2.779   0.313   1.013
 7026SOL     OW21976   3.527   2.784   1.142
 7026SOL    HW121977   3.498   2.690   1.154
 7026SOL    HW221978   3.463   2.845   1.188
 7027SOL     OW21979   2.797   5.002   2.505
 7027SOL    HW121980   2.770   4.913   2.470
 7027SOL    HW221981   2.872   4.990   2.571
 7028SOL     OW21982   2.988   6.952   3.516
 7028SOL    HW121983   3.014   6.931   3.610
 7028SOL    HW221984   3.008   0.031   3.496
 7029SOL     OW21985   3.461   3.818   3.688
 7029SOL    HW121986   3.408   3.900   3.707
 7029SOL    HW221987   3.529   3.804   3.759
 7030SOL     OW21988   6.504   0.870   4.431
 7030SOL    HW121989   6.545   0.902   4.516
 7030SOL    HW221990   6.576   0.854   4.364
 7031SOL     OW21991   4.714   6.522   0.560
 7031SOL    HW121992   4.792   6.571   0.600
 7031SOL    HW221993   4.732   6.503   0.464
 7032SOL     OW21994   4.887   5.296   4.351
 7032SOL    HW121995   4.938   5.225   4.400
 7032SOL    HW221996   4.864   5.264   4.259
 7033SOL     OW21997   1.846   2.006   4.800
 7033SOL    HW121998   1.850   2.041   4.893
 7033SOL    HW221999   1.936   2.011   4.758
 7034SOL     OW22000   6.359   1.169   3.377
 7034SOL    HW122001   6.459   1.170   3.381
 7034SOL    HW222002   6.327   1.078   3.352
 7035SOL     OW22003   1.852   0.259   0.666
 7035SOL    HW122004   1.875   0.177   0.718
 7035SOL    HW222005   1.753   0.273   0.668
 7036SOL     OW22006   6.573   1.475   2.493
 7036SOL    HW122007   6.597   1.427   2.577
 7036SOL    HW222008   6.636   1.551   2.479
 7037SOL     OW22009   1.285   0.381   5.649
 7037SOL    HW122010   1.260   0.287   5.627
 7037SOL    HW222011   1.306   0.388   5.747
 7038SOL     OW22012   1.131   4.079   0.056
 7038SOL    HW122013   1.102   3.997   0.007
 7038SOL    HW222014   1.226   4.101   0.032
 7039SOL     OW22015   0.324   6.905   2.392
 7039SOL    HW122016   0.360   6.837   2.455
 7039SOL    HW222017   0.269   6.860   2.321
 7040SOL     OW22018   5.313   2.927   4.895
 7040SOL    HW122019   5.238   2.993   4.888
 7040SOL    HW222020   5.378   2.943   4.821
 7041SOL     OW22021   1.358   6.594   4.292
 7041SOL    HW122022   1.443   6.630   4.330
 7041SOL    HW222023   1.344   6.631   4.200
 7042SOL     OW22024   5.657   6.264   5.135
 7042SOL    HW122025   5.622   6.313   5.215
 7042SOL    HW222026   5.598   6.185   5.116
 7043SOL     OW22027   2.298   5.174   1.069
 7043SOL    HW122028   2.362   5.181   1.145
 7043SOL    HW222029   2.321   5.095   1.013
 7044SOL     OW22030   5.381   6.922   5.184
 7044SOL    HW122031   5.470   6.878   5.176
 7044SOL    HW222032   5.391   0.003   5.163
 7045SOL     OW22033   6.423   5.785   2.364
 7045SOL    HW122034   6.460   5.794   2.271
 7045SOL    HW222035   6.386   5.693   2.376
 7046SOL     OW22036   2.463   1.634   3.975
 7046SOL    HW122037   2.364   1.649   3.978
 7046SOL    HW222038   2.486   1.549   4.024
 7047SOL     OW22039   0.990   6.321   0.722
 7047SOL    HW122040   1.056   6.261   0.768
 7047SOL    HW222041   1.030   6.354   0.636
 7048SOL     OW22042   0.203   6.123   4.411
 7048SOL    HW122043   0.214   6.070   4.327
 7048SOL    HW222044   0.106   6.140   4.428
 7049SOL     OW22045   3.926   1.033   3.659
 7049SOL    HW122046   4.010   0.979   3.664
 7049SOL    HW222047   3.860   0.987   3.600
 7050SOL     OW22048   3.877   3.849   0.874
 7050SOL    HW122049   3.915   3.870   0.783
 7050SOL    HW222050   3.927   3.900   0.943
 7051SOL     OW22051   1.146   1.172   1.853
 7051SOL    HW122052   1.089   1.095   1.882
 7051SOL    HW222053   1.236   1.166   1.898
 7052SOL     OW22054   3.963   1.106   2.960
 7052SOL    HW122055   3.978   1.025   2.904
 7052SOL    HW222056   4.034   1.173   2.941
 7053SOL     OW22057   1.705   3.721   3.181
 7053SOL    HW122058   1.671   3.774   3.103
 7053SOL    HW222059   1.637   3.722   3.255
 7054SOL     OW22060   5.919   0.638   0.042
 7054SOL    HW122061   5.879   0.577   6.990
 7054SOL    HW222062   5.979   0.704   7.014
 7055SOL     OW22063   2.407   0.995   0.312
 7055SOL    HW122064   2.342   0.920   0.298
 7055SOL    HW222065   2.448   1.019   0.224
 7056SOL     OW22066   6.769   5.417   1.273
 7056SOL    HW122067   6.853   5.368   1.249
 7056SOL    HW222068   6.734   5.464   1.193
 7057SOL     OW22069   2.571   5.787   4.746
 7057SOL    HW122070   2.580   5.876   4.791
 7057SOL    HW222071   2.663   5.753   4.724
 7058SOL     OW22072   5.734   2.673   6.212
 7058SOL    HW122073   5.720   2.669   6.311
 7058SOL    HW222074   5.832   2.665   6.192
 7059SOL     OW22075   2.093   0.168   5.017
 7059SOL    HW122076   2.120   0.237   5.084
 7059SOL    HW222077   2.076   0.211   4.929
 7060SOL     OW22078   3.004   1.667   1.249
 7060SOL    HW122079   2.949   1.667   1.333
 7060SOL    HW222080   3.064   1.746   1.248
 7061SOL     OW22081   1.031   1.464   1.883
 7061SOL    HW122082   1.106   1.517   1.922
 7061SOL    HW222083   1.065   1.374   1.855
 7062SOL     OW22084   3.546   0.042   3.827
 7062SOL    HW122085   3.626   0.100   3.836
 7062SOL    HW222086   3.571   6.972   3.784
 7063SOL     OW22087   0.368   0.894   1.077
 7063SOL    HW122088   0.407   0.986   1.081
 7063SOL    HW222089   0.441   0.828   1.056
 7064SOL     OW22090   3.341   1.367   4.980
 7064SOL    HW122091   3.328   1.324   5.070
 7064SOL    HW222092   3.365   1.297   4.913
 7065SOL     OW22093   4.120   5.370   5.353
 7065SOL    HW122094   4.121   5.400   5.258
 7065SOL    HW222095   4.176   5.432   5.408
 7066SOL     OW22096   3.705   0.386   0.690
 7066SOL    HW122097   3.736   0.473   0.729
 7066SOL    HW222098   3.778   0.344   0.638
 7067SOL     OW22099   1.536   3.594   6.295
 7067SOL    HW122100   1.577   3.680   6.325
 7067SOL    HW222101   1.560   3.578   6.199
 7068SOL     OW22102   5.236   3.900   4.544
 7068SOL    HW122103   5.170   3.972   4.565
 7068SOL    HW222104   5.243   3.889   4.445
 7069SOL     OW22105   5.163   0.763   6.220
 7069SOL    HW122106   5.078   0.738   6.174
 7069SOL    HW222107   5.148   0.763   6.319
 7070SOL     OW22108   0.283   0.555   5.659
 7070SOL    HW122109   0.189   0.534   5.633
 7070SOL    HW222110   0.316   0.485   5.722
 7071SOL     OW22111   5.107   5.569   7.000
 7071SOL    HW122112   5.112   5.669   7.009
 7071SOL    HW222113   5.085   5.545   6.906
 7072SOL     OW22114   0.594   3.772   6.272
 7072SOL    HW122115   0.671   3.777   6.208
 7072SOL    HW222116   0.615   3.827   6.353
 7073SOL     OW22117   4.603   1.475   4.012
 7073SOL    HW122118   4.595   1.380   3.984
 7073SOL    HW222119   4.549   1.533   3.951
 7074SOL     OW22120   5.196   4.041   3.009
 7074SOL    HW122121   5.117   3.983   2.991
 7074SOL    HW222122   5.221   4.034   3.106
 7075SOL     OW22123   2.652   4.985   3.294
 7075SOL    HW122124   2.563   4.979   3.249
 7075SOL    HW222125   2.714   5.041   3.240
 7076SOL     OW22126   5.836   2.575   1.594
 7076SOL    HW122127   5.803   2.539   1.506
 7076SOL    HW222128   5.766   2.560   1.664
 7077SOL     OW22129   3.946   5.552   2.200
 7077SOL    HW122130   3.940   5.603   2.114
 7077SOL    HW222131   3.943   5.454   2.181
 7078SOL     OW22132   6.427   0.561   6.867
 7078SOL    HW122133   6.414   0.464   6.846
 7078SOL    HW222134   6.489   0.570   6.945
 7079SOL     OW22135   1.360   6.465   4.756
 7079SOL    HW122136   1.294   6.537   4.734
 7079SOL    HW222137   1.317   6.398   4.816
 7080SOL     OW22138   3.994   1.829   5.857
 7080SOL    HW122139   3.936   1.802   5.780
 7080SOL    HW222140   3.946   1.815   5.943
 7081SOL     OW22141   2.213   0.164   0.244
 7081SOL    HW122142   2.259   0.219   0.174
 7081SOL    HW222143   2.149   0.101   0.200
 7082SOL     OW22144   0.656   4.032   2.892
 7082SOL    HW122145   0.564   4.016   2.857
 7082SOL    HW222146   0.722   3.981   2.838
 7083SOL     OW22147   5.215   2.126   3.088
 7083SOL    HW122148   5.151   2.187   3.041
 7083SOL    HW222149   5.164   2.052   3.132
 7084SOL     OW22150   1.151   5.583   0.135
 7084SOL    HW122151   1.055   5.572   0.108
 7084SOL    HW222152   1.192   5.494   0.151
 7085SOL     OW22153   0.722   3.866   1.835
 7085SOL    HW122154   0.675   3.940   1.884
 7085SOL    HW222155   0.817   3.862   1.865
 7086SOL     OW22156   5.271   1.037   3.712
 7086SOL    HW122157   5.191   1.097   3.716
 7086SOL    HW222158   5.253   0.962   3.650
 7087SOL     OW22159   4.797   2.891   2.915
 7087SOL    HW122160   4.805   2.869   2.818
 7087SOL    HW222161   4.701   2.902   2.939
 7088SOL     OW22162   5.924   1.996   5.304
 7088SOL    HW122163   5.859   1.986   5.380
 7088SOL    HW222164   5.955   2.091   5.300
 7089SOL     OW22165   2.680   5.577   1.608
 7089SOL    HW122166   2.658   5.594   1.704
 7089SOL    HW222167   2.770   5.532   1.602
 7090SOL     OW22168   4.650   2.708   1.297
 7090SOL    HW122169   4.672   2.801   1.266
 7090SOL    HW222170   4.586   2.713   1.373
 7091SOL     OW22171   0.182   6.916   0.787
 7091SOL    HW122172   0.213   7.002   0.825
 7091SOL    HW222173   0.240   6.890   0.710
 7092SOL     OW22174   4.420   0.400   6.235
 7092SOL    HW122175   4.474   0.446   6.165
 7092SOL    HW222176   4.394   0.465   6.306
 7093SOL     OW22177   3.662   3.107   0.728
 7093SOL    HW122178   3.756   3.139   0.744
 7093SOL    HW222179   3.628   3.062   0.811
 7094SOL     OW22180   3.623   0.388   6.157
 7094SOL    HW122181   3.702   0.338   6.193
 7094SOL    HW222182   3.556   0.402   6.229
 7095SOL     OW22183   2.364   4.937   4.500
 7095SOL    HW122184   2.401   5.029   4.484
 7095SOL    HW222185   2.324   4.933   4.591
 7096SOL     OW22186   6.757   0.322   1.347
 7096SOL    HW122187   6.733   0.333   1.443
 7096SOL    HW222188   6.702   0.384   1.291
 7097SOL     OW22189   4.715   1.299   2.163
 7097SOL    HW122190   4.814   1.303   2.173
 7097SOL    HW222191   4.672   1.336   2.246
 7098SOL     OW22192   0.894   0.329   3.633
 7098SOL    HW122193   0.949   0.330   3.550
 7098SOL    HW222194   0.806   0.374   3.616
 7099SOL     OW22195   2.912   1.886   4.427
 7099SOL    HW122196   2.836   1.910   4.367
 7099SOL    HW222197   2.998   1.905   4.380
 7100SOL     OW22198   6.691   3.920   1.674
 7100SOL    HW122199   6.634   3.891   1.751
 7100SOL    HW222200   6.687   3.851   1.602
 7101SOL     OW22201   2.370   6.065   5.081
 7101SOL    HW122202   2.360   6.010   4.998
 7101SOL    HW222203   2.405   6.007   5.154
 7102SOL     OW22204   5.739   1.355   2.054
 7102SOL    HW122205   5.684   1.378   1.974
 7102SOL    HW222206   5.736   1.431   2.120
 7103SOL     OW22207   4.963   3.650   3.277
 7103SOL    HW122208   5.017   3.643   3.193
 7103SOL    HW222209   4.922   3.741   3.282
 7104SOL     OW22210   4.693   2.654   3.996
 7104SOL    HW122211   4.787   2.670   4.025
 7104SOL    HW222212   4.637   2.631   4.076
 7105SOL     OW22213   3.210   4.048   3.452
 7105SOL    HW122214   3.286   4.091   3.405
 7105SOL    HW222215   3.190   4.098   3.536
 7106SOL     OW22216   3.576   1.841   1.974
 7106SOL    HW122217   3.675   1.844   1.962
 7106SOL    HW222218   3.547   1.919   2.030
 7107SOL     OW22219   3.927   0.582   6.727
 7107SOL    HW122220   3.888   0.666   6.691
 7107SOL    HW222221   3.928   0.585   6.827
 7108SOL     OW22222   4.821   0.761   1.885
 7108SOL    HW122223   4.882   0.828   1.844
 7108SOL    HW222224   4.839   0.755   1.983
 7109SOL     OW22225   2.521   5.318   0.094
 7109SOL    HW122226   2.436   5.270   0.116
 7109SOL    HW222227   2.557   5.285   0.007
 7110SOL     OW22228   3.204   0.098   4.555
 7110SOL    HW122229   3.203   0.181   4.500
 7110SOL    HW222230   3.231   0.020   4.498
 7111SOL     OW22231   6.962   0.742   4.995
 7111SOL    HW122232   0.031   0.778   4.958
 7111SOL    HW222233   6.926   0.806   5.063
 7112SOL     OW22234   0.862   4.706   4.971
 7112SOL    HW122235   0.956   4.732   4.991
 7112SOL    HW222236   0.801   4.753   5.036
 7113SOL     OW22237   3.667   6.230   4.814
 7113SOL    HW122238   3.758   6.190   4.815
 7113SOL    HW222239   3.651   6.280   4.899
 7114SOL     OW22240   5.829   3.848   1.190
 7114SOL    HW122241   5.827   3.946   1.209
 7114SOL    HW222242   5.904   3.828   1.127
 7115SOL     OW22243   6.088   3.623   6.239
 7115SOL    HW122244   6.178   3.665   6.242
 7115SOL    HW222245   6.043   3.646   6.153
 7116SOL     OW22246   6.313   3.645   4.654
 7116SOL    HW122247   6.214   3.649   4.648
 7116SOL    HW222248   6.340   3.601   4.740
 7117SOL     OW22249   5.183   6.986   3.294
 7117SOL    HW122250   5.255   6.963   3.229
 7117SOL    HW222251   5.117   0.031   3.251
 7118SOL     OW22252   3.649   4.355   5.656
 7118SOL    HW122253   3.679   4.425   5.720
 7118SOL    HW222254   3.595   4.286   5.705
 7119SOL     OW22255   3.658   6.564   5.274
 7119SOL    HW122256   3.560   6.543   5.267
 7119SOL    HW222257   3.682   6.633   5.206
 7120SOL     OW22258   4.386   1.093   1.103
 7120SOL    HW122259   4.485   1.088   1.117
 7120SOL    HW222260   4.368   1.118   1.008
 7121SOL     OW22261   1.589   5.800   2.189
 7121SOL    HW122262   1.541   5.884   2.167
 7121SOL    HW222263   1.611   5.751   2.105
 7122SOL     OW22264   3.357   1.950   6.968
 7122SOL    HW122265   3.269   1.998   6.972
 7122SOL    HW222266   3.426   2.003   7.017
 7123SOL     OW22267   5.733   5.222   6.120
 7123SOL    HW122268   5.656   5.265   6.167
 7123SOL    HW222269   5.818   5.245   6.167
 7124SOL     OW22270   1.731   2.484   1.288
 7124SOL    HW122271   1.646   2.465   1.337
 7124SOL    HW222272   1.809   2.472   1.350
 7125SOL     OW22273   0.381   6.470   2.465
 7125SOL    HW122274   0.326   6.392   2.495
 7125SOL    HW222275   0.476   6.455   2.489
 7126SOL     OW22276   3.462   5.445   0.910
 7126SOL    HW122277   3.382   5.386   0.898
 7126SOL    HW222278   3.448   5.532   0.863
 7127SOL     OW22279   2.514   6.105   5.984
 7127SOL    HW122280   2.517   6.172   6.058
 7127SOL    HW222281   2.580   6.131   5.913
 7128SOL     OW22282   3.745   4.017   6.898
 7128SOL    HW122283   3.810   4.077   6.851
 7128SOL    HW222284   3.654   4.059   6.895
 7129SOL     OW22285   0.439   6.993   0.257
 7129SOL    HW122286   0.496   6.957   0.182
 7129SOL    HW222287   0.386   6.918   0.296
 7130SOL     OW22288   3.394   6.404   3.901
 7130SOL    HW122289   3.305   6.360   3.912
 7130SOL    HW222290   3.466   6.345   3.936
 7131SOL     OW22291   2.273   1.310   1.854
 7131SOL    HW122292   2.191   1.266   1.817
 7131SOL    HW222293   2.248   1.367   1.932
 7132SOL     OW22294   4.981   4.362   0.756
 7132SOL    HW122295   4.907   4.429   0.743
 7132SOL    HW222296   4.948   4.272   0.728
 7133SOL     OW22297   4.833   5.907   2.901
 7133SOL    HW122298   4.857   5.893   2.805
 7133SOL    HW222299   4.734   5.895   2.912
 7134SOL     OW22300   4.805   5.441   0.265
 7134SOL    HW122301   4.773   5.452   0.359
 7134SOL    HW222302   4.905   5.432   0.266
 7135SOL     OW22303   1.414   3.231   1.233
 7135SOL    HW122304   1.366   3.318   1.225
 7135SOL    HW222305   1.512   3.247   1.231
 7136SOL     OW22306   1.101   2.562   2.119
 7136SOL    HW122307   1.067   2.482   2.071
 7136SOL    HW222308   1.046   2.576   2.202
 7137SOL     OW22309   2.708   1.392   1.023
 7137SOL    HW122310   2.799   1.433   1.030
 7137SOL    HW222311   2.645   1.437   1.086
 7138SOL     OW22312   0.375   2.758   0.209
 7138SOL    HW122313   0.386   2.759   0.309
 7138SOL    HW222314   0.401   2.668   0.174
 7139SOL     OW22315   5.706   6.248   0.819
 7139SOL    HW122316   5.789   6.289   0.780
 7139SOL    HW222317   5.728   6.156   0.853
 7140SOL     OW22318   6.612   4.340   0.349
 7140SOL    HW122319   6.532   4.362   0.406
 7140SOL    HW222320   6.687   4.312   0.408
 7141SOL     OW22321   3.038   0.388   1.184
 7141SOL    HW122322   2.997   0.451   1.249
 7141SOL    HW222323   2.983   0.386   1.100
 7142SOL     OW22324   3.913   0.023   5.049
 7142SOL    HW122325   3.908   0.070   5.138
 7142SOL    HW222326   3.973   0.075   4.988
 7143SOL     OW22327   2.817   3.225   6.649
 7143SOL    HW122328   2.763   3.150   6.611
 7143SOL    HW222329   2.815   3.302   6.586
 7144SOL     OW22330   6.724   1.157   6.288
 7144SOL    HW122331   6.660   1.225   6.323
 7144SOL    HW222332   6.681   1.107   6.212
 7145SOL     OW22333   5.680   1.461   6.474
 7145SOL    HW122334   5.767   1.423   6.505
 7145SOL    HW222335   5.638   1.513   6.548
 7146SOL     OW22336   1.266   2.043   5.767
 7146SOL    HW122337   1.216   2.124   5.798
 7146SOL    HW222338   1.322   2.007   5.842
 7147SOL     OW22339   6.405   6.253   1.872
 7147SOL    HW122340   6.361   6.260   1.782
 7147SOL    HW222341   6.337   6.222   1.939
 7148SOL     OW22342   6.454   6.770   1.367
 7148SOL    HW122343   6.432   6.749   1.272
 7148SOL    HW222344   6.540   6.821   1.371
 7149SOL     OW22345   6.078   4.776   5.986
 7149SOL    HW122346   6.008   4.796   6.055
 7149SOL    HW222347   6.111   4.683   5.999
 7150SOL     OW22348   3.000   2.741   6.896
 7150SOL    HW122349   3.001   2.774   6.990
 7150SOL    HW222350   2.928   2.787   6.845
 7151SOL     OW22351   5.005   0.975   0.184
 7151SOL    HW122352   5.097   0.953   0.215
 7151SOL    HW222353   4.977   0.911   0.112
 7152SOL     OW22354   5.435   0.716   6.345
 7152SOL    HW122355   5.520   0.685   6.303
 7152SOL    HW222356   5.357   0.692   6.286
 7153SOL     OW22357   3.345   5.421   0.172
 7153SOL    HW122358   3.346   5.519   0.149
 7153SOL    HW222359   3.410   5.372   0.114
 7154SOL     OW22360   4.105   1.527   2.213
 7154SOL    HW122361   4.037   1.528   2.286
 7154SOL    HW222362   4.147   1.437   2.208
 7155SOL     OW22363   1.319   0.991   2.507
 7155SOL    HW122364   1.373   1.001   2.423
 7155SOL    HW222365   1.379   0.962   2.582
 7156SOL     OW22366   6.417   2.954   5.042
 7156SOL    HW122367   6.447   2.971   4.949
 7156SOL    HW222368   6.404   2.855   5.056
 7157SOL     OW22369   0.341   4.197   6.167
 7157SOL    HW122370   0.276   4.155   6.231
 7157SOL    HW222371   0.381   4.126   6.110
 7158SOL     OW22372   5.045   6.857   4.222
 7158SOL    HW122373   4.966   6.795   4.228
 7158SOL    HW222374   5.117   6.814   4.167
 7159SOL     OW22375   0.364   6.364   3.572
 7159SOL    HW122376   0.440   6.428   3.563
 7159SOL    HW222377   0.297   6.382   3.501
 7160SOL     OW22378   6.217   0.175   3.974
 7160SOL    HW122379   6.254   0.088   4.005
 7160SOL    HW222380   6.203   0.172   3.875
 7161SOL     OW22381   3.636   3.733   2.916
 7161SOL    HW122382   3.575   3.660   2.887
 7161SOL    HW222383   3.621   3.754   3.012
 7162SOL     OW22384   0.529   5.966   1.720
 7162SOL    HW122385   0.476   5.949   1.637
 7162SOL    HW222386   0.485   6.038   1.774
 7163SOL     OW22387   0.002   0.773   0.700
 7163SOL    HW122388   0.033   0.805   0.790
 7163SOL    HW222389   0.005   0.673   0.697
 7164SOL     OW22390   1.535   0.829   6.830
 7164SOL    HW122391   1.520   0.741   6.786
 7164SOL    HW222392   1.560   0.897   6.760
 7165SOL     OW22393   5.935   2.559   0.145
 7165SOL    HW122394   5.931   2.633   0.212
 7165SOL    HW222395   5.864   2.491   0.166
 7166SOL     OW22396   0.108   6.102   5.830
 7166SOL    HW122397   0.129   6.061   5.742
 7166SOL    HW222398   0.183   6.162   5.858
 7167SOL     OW22399   6.719   2.302   4.888
 7167SOL    HW122400   6.713   2.206   4.913
 7167SOL    HW222401   6.657   2.321   4.812
 7168SOL     OW22402   1.795   1.215   2.274
 7168SOL    HW122403   1.849   1.136   2.246
 7168SOL    HW222404   1.776   1.272   2.194
 7169SOL     OW22405   2.016   4.591   5.697
 7169SOL    HW122406   2.041   4.661   5.631
 7169SOL    HW222407   2.070   4.508   5.681
 7170SOL     OW22408   3.355   1.516   1.161
 7170SOL    HW122409   3.351   1.616   1.170
 7170SOL    HW222410   3.281   1.475   1.214
 7171SOL     OW22411   0.323   3.958   0.675
 7171SOL    HW122412   0.361   3.881   0.624
 7171SOL    HW222413   0.257   3.925   0.742
 7172SOL     OW22414   0.802   2.329   3.799
 7172SOL    HW122415   0.761   2.364   3.715
 7172SOL    HW222416   0.745   2.256   3.835
 7173SOL     OW22417   4.783   5.426   6.191
 7173SOL    HW122418   4.863   5.456   6.139
 7173SOL    HW222419   4.727   5.506   6.214
 7174SOL     OW22420   6.678   4.235   2.206
 7174SOL    HW122421   6.597   4.243   2.264
 7174SOL    HW222422   6.669   4.294   2.127
 7175SOL     OW22423   6.742   3.827   5.685
 7175SOL    HW122424   6.652   3.869   5.691
 7175SOL    HW222425   6.807   3.892   5.647
 7176SOL     OW22426   0.024   0.678   6.248
 7176SOL    HW122427   0.119   0.676   6.219
 7176SOL    HW222428   0.014   0.627   6.334
 7177SOL     OW22429   1.385   5.848   3.843
 7177SOL    HW122430   1.433   5.876   3.927
 7177SOL    HW222431   1.351   5.929   3.796
 7178SOL     OW22432   1.796   6.418   4.694
 7178SOL    HW122433   1.867   6.360   4.731
 7178SOL    HW222434   1.768   6.485   4.763
 7179SOL     OW22435   4.005   5.037   5.966
 7179SOL    HW122436   4.050   5.015   6.053
 7179SOL    HW222437   4.074   5.047   5.894
 7180SOL     OW22438   1.976   3.153   1.678
 7180SOL    HW122439   2.061   3.201   1.700
 7180SOL    HW222440   1.958   3.083   1.747
 7181SOL     OW22441   1.793   1.776   6.640
 7181SOL    HW122442   1.752   1.864   6.662
 7181SOL    HW222443   1.833   1.736   6.723
 7182SOL     OW22444   2.051   1.098   3.785
 7182SOL    HW122445   1.990   1.160   3.735
 7182SOL    HW222446   1.999   1.048   3.854
 7183SOL     OW22447   1.535   6.546   2.078
 7183SOL    HW122448   1.460   6.569   2.017
 7183SOL    HW222449   1.617   6.598   2.052
 7184SOL     OW22450   6.467   1.357   3.645
 7184SOL    HW122451   6.404   1.416   3.595
 7184SOL    HW222452   6.536   1.321   3.583
 7185SOL     OW22453   4.253   0.293   4.282
 7185SOL    HW122454   4.175   0.279   4.221
 7185SOL    HW222455   4.265   0.391   4.299
 7186SOL     OW22456   6.246   0.704   6.717
 7186SOL    HW122457   6.325   0.670   6.768
 7186SOL    HW222458   6.277   0.767   6.646
 7187SOL     OW22459   3.499   3.300   4.175
 7187SOL    HW122460   3.444   3.274   4.254
 7187SOL    HW222461   3.445   3.356   4.113
 7188SOL     OW22462   4.714   4.666   6.816
 7188SOL    HW122463   4.704   4.584   6.760
 7188SOL    HW222464   4.783   4.726   6.775
 7189SOL     OW22465   6.084   2.718   5.711
 7189SOL    HW122466   6.041   2.757   5.630
 7189SOL    HW222467   6.014   2.691   5.777
 7190SOL     OW22468   6.058   5.052   0.030
 7190SOL    HW122469   6.028   5.035   6.953
 7190SOL    HW222470   6.114   4.976   0.062
 7191SOL     OW22471   6.862   5.134   3.005
 7191SOL    HW122472   6.772   5.093   2.992
 7191SOL    HW222473   6.901   5.158   2.916
 7192SOL     OW22474   2.179   4.083   6.034
 7192SOL    HW122475   2.090   4.100   6.078
 7192SOL    HW222476   2.165   4.072   5.936
 7193SOL     OW22477   3.492   2.129   3.195
 7193SOL    HW122478   3.492   2.037   3.156
 7193SOL    HW222479   3.583   2.150   3.231
 7194SOL     OW22480   2.992   2.693   5.908
 7194SOL    HW122481   2.939   2.762   5.857
 7194SOL    HW222482   3.056   2.739   5.969
 7195SOL     OW22483   0.505   4.540   4.992
 7195SOL    HW122484   0.468   4.629   4.968
 7195SOL    HW222485   0.566   4.508   4.920
 7196SOL     OW22486   3.379   4.183   1.802
 7196SOL    HW122487   3.326   4.162   1.884
 7196SOL    HW222488   3.346   4.128   1.726
 7197SOL     OW22489   3.063   4.685   6.326
 7197SOL    HW122490   3.031   4.779   6.316
 7197SOL    HW222491   3.146   4.672   6.272
 7198SOL     OW22492   0.828   1.158   1.945
 7198SOL    HW122493   0.733   1.127   1.953
 7198SOL    HW222494   0.869   1.164   2.036
 7199SOL     OW22495   6.054   1.786   2.466
 7199SOL    HW122496   6.076   1.834   2.551
 7199SOL    HW222497   6.138   1.753   2.423
 7200SOL     OW22498   1.154   2.448   0.472
 7200SOL    HW122499   1.089   2.421   0.544
 7200SOL    HW222500   1.200   2.367   0.437
 7201SOL     OW22501   6.213   5.169   3.953
 7201SOL    HW122502   6.188   5.144   4.046
 7201SOL    HW222503   6.226   5.268   3.947
 7202SOL     OW22504   4.458   6.999   5.868
 7202SOL    HW122505   4.435   6.910   5.908
 7202SOL    HW222506   4.514   6.986   5.787
 7203SOL     OW22507   6.992   1.850   0.925
 7203SOL    HW122508   0.051   1.913   0.942
 7203SOL    HW222509   7.001   1.770   0.984
 7204SOL     OW22510   6.642   0.568   2.385
 7204SOL    HW122511   6.629   0.493   2.321
 7204SOL    HW222512   6.555   0.593   2.426
 7205SOL     OW22513   2.952   1.940   3.955
 7205SOL    HW122514   2.998   1.986   4.031
 7205SOL    HW222515   2.976   1.986   3.870
 7206SOL     OW22516   1.791   3.646   0.102
 7206SOL    HW122517   1.737   3.710   0.048
 7206SOL    HW222518   1.872   3.619   0.050
 7207SOL     OW22519   1.850   0.964   3.569
 7207SOL    HW122520   1.792   0.887   3.596
 7207SOL    HW222521   1.808   1.049   3.599
 7208SOL     OW22522   3.308   0.364   4.047
 7208SOL    HW122523   3.245   0.441   4.039
 7208SOL    HW222524   3.383   0.388   4.109
 7209SOL     OW22525   3.464   0.944   1.998
 7209SOL    HW122526   3.432   0.978   2.086
 7209SOL    HW222527   3.539   1.001   1.965
 7210SOL     OW22528   3.134   1.818   3.219
 7210SOL    HW122529   3.078   1.739   3.242
 7210SOL    HW222530   3.094   1.866   3.141
 7211SOL     OW22531   4.499   6.400   5.340
 7211SOL    HW122532   4.465   6.337   5.410
 7211SOL    HW222533   4.506   6.353   5.252
 7212SOL     OW22534   0.302   4.610   5.729
 7212SOL    HW122535   0.295   4.710   5.727
 7212SOL    HW222536   0.391   4.582   5.692
 7213SOL     OW22537   4.136   2.101   6.866
 7213SOL    HW122538   4.093   2.045   6.795
 7213SOL    HW222539   4.215   2.149   6.827
 7214SOL     OW22540   6.223   0.636   6.254
 7214SOL    HW122541   6.143   0.605   6.304
 7214SOL    HW222542   6.272   0.557   6.217
 7215SOL     OW22543   6.170   2.102   3.301
 7215SOL    HW122544   6.090   2.048   3.277
 7215SOL    HW222545   6.142   2.181   3.356
 7216SOL     OW22546   4.009   6.524   3.382
 7216SOL    HW122547   4.064   6.584   3.325
 7216SOL    HW222548   3.998   6.566   3.473
 7217SOL     OW22549   1.158   3.140   2.437
 7217SOL    HW122550   1.217   3.163   2.360
 7217SOL    HW222551   1.212   3.145   2.522
 7218SOL     OW22552   6.508   2.907   4.514
 7218SOL    HW122553   6.563   2.986   4.487
 7218SOL    HW222554   6.417   2.914   4.472
 7219SOL     OW22555   3.292   6.582   2.737
 7219SOL    HW122556   3.322   6.551   2.827
 7219SOL    HW222557   3.327   6.675   2.720
 7220SOL     OW22558   6.580   4.417   3.877
 7220SOL    HW122559   6.618   4.445   3.789
 7220SOL    HW222560   6.482   4.433   3.879
 7221SOL     OW22561   3.872   5.524   3.755
 7221SOL    HW122562   3.858   5.469   3.672
 7221SOL    HW222563   3.870   5.464   3.835
 7222SOL     OW22564   6.351   5.822   4.656
 7222SOL    HW122565   6.261   5.864   4.650
 7222SOL    HW222566   6.341   5.722   4.662
 7223SOL     OW22567   0.295   4.175   1.550
 7223SOL    HW122568   0.288   4.270   1.520
 7223SOL    HW222569   0.319   4.172   1.647
 7224SOL     OW22570   4.117   1.917   2.441
 7224SOL    HW122571   4.205   1.910   2.393
 7224SOL    HW222572   4.102   2.013   2.468
 7225SOL     OW22573   1.467   5.445   0.586
 7225SOL    HW122574   1.556   5.431   0.629
 7225SOL    HW222575   1.476   5.441   0.487
 7226SOL     OW22576   6.780   6.532   0.425
 7226SOL    HW122577   6.835   6.599   0.374
 7226SOL    HW222578   6.738   6.577   0.504
 7227SOL     OW22579   1.945   1.301   2.496
 7227SOL    HW122580   1.961   1.217   2.548
 7227SOL    HW222581   1.885   1.281   2.419
 7228SOL     OW22582   6.924   3.180   2.203
 7228SOL    HW122583   6.828   3.201   2.219
 7228SOL    HW222584   6.933   3.093   2.154
 7229SOL     OW22585   6.408   1.359   5.187
 7229SOL    HW122586   6.505   1.355   5.211
 7229SOL    HW222587   6.397   1.412   5.103
 7230SOL     OW22588   2.350   5.289   4.666
 7230SOL    HW122589   2.358   5.340   4.580
 7230SOL    HW222590   2.432   5.235   4.680
 7231SOL     OW22591   4.316   2.872   6.020
 7231SOL    HW122592   4.413   2.859   6.002
 7231SOL    HW222593   4.263   2.805   5.967
 7232SOL     OW22594   5.217   6.349   3.653
 7232SOL    HW122595   5.299   6.364   3.710
 7232SOL    HW222596   5.213   6.253   3.625
 7233SOL     OW22597   0.039   1.094   4.955
 7233SOL    HW122598   7.006   1.067   5.038
 7233SOL    HW222599   0.137   1.097   4.975
 7234SOL     OW22600   5.180   4.200   3.609
 7234SOL    HW122601   5.265   4.147   3.608
 7234SOL    HW222602   5.132   4.183   3.695
 7235SOL     OW22603   6.651   5.722   1.818
 7235SOL    HW122604   6.692   5.788   1.755
 7235SOL    HW222605   6.574   5.764   1.866
 7236SOL     OW22606   1.216   3.568   2.574
 7236SOL    HW122607   1.188   3.606   2.662
 7236SOL    HW222608   1.270   3.635   2.524
 7237SOL     OW22609   6.038   0.797   0.668
 7237SOL    HW122610   6.110   0.731   0.690
 7237SOL    HW222611   6.049   0.828   0.573
 7238SOL     OW22612   4.034   3.357   6.693
 7238SOL    HW122613   3.963   3.344   6.624
 7238SOL    HW222614   4.037   3.276   6.752
 7239SOL     OW22615   6.656   2.626   2.241
 7239SOL    HW122616   6.593   2.550   2.259
 7239SOL    HW222617   6.614   2.690   2.176
 7240SOL     OW22618   6.633   1.912   0.089
 7240SOL    HW122619   6.710   1.863   0.130
 7240SOL    HW222620   6.599   1.860   0.011
 7241SOL     OW22621   2.517   1.250   2.007
 7241SOL    HW122622   2.559   1.167   1.969
 7241SOL    HW222623   2.524   1.325   1.940
 7242SOL     OW22624   0.022   4.550   4.373
 7242SOL    HW122625   0.117   4.578   4.384
 7242SOL    HW222626   0.001   4.539   4.276
 7243SOL     OW22627   5.859   4.538   6.491
 7243SOL    HW122628   5.848   4.475   6.414
 7243SOL    HW222629   5.904   4.621   6.460
 7244SOL     OW22630   0.273   6.250   0.137
 7244SOL    HW122631   0.343   6.236   0.207
 7244SOL    HW222632   0.248   6.347   0.133
 7245SOL     OW22633   0.786   3.302   0.597
 7245SOL    HW122634   0.864   3.357   0.627
 7245SOL    HW222635   0.816   3.234   0.530
 7246SOL     OW22636   4.321   6.653   3.523
 7246SOL    HW122637   4.311   6.751   3.540
 7246SOL    HW222638   4.409   6.621   3.558
 7247SOL     OW22639   3.153   3.844   5.326
 7247SOL    HW122640   3.203   3.853   5.412
 7247SOL    HW222641   3.059   3.816   5.346
 7248SOL     OW22642   3.024   1.133   5.178
 7248SOL    HW122643   3.017   1.068   5.253
 7248SOL    HW222644   3.049   1.223   5.213
 7249SOL     OW22645   4.113   4.776   2.381
 7249SOL    HW122646   4.111   4.680   2.353
 7249SOL    HW222647   4.074   4.785   2.473
 7250SOL     OW22648   5.461   5.006   5.109
 7250SOL    HW122649   5.521   5.062   5.166
 7250SOL    HW222650   5.500   4.999   5.017
 7251SOL     OW22651   0.213   5.987   5.610
 7251SOL    HW122652   0.294   6.032   5.646
 7251SOL    HW222653   0.230   5.956   5.517
 7252SOL     OW22654   3.642   3.969   2.559
 7252SOL    HW122655   3.572   3.911   2.600
 7252SOL    HW222656   3.650   3.949   2.462
 7253SOL     OW22657   2.364   5.646   4.574
 7253SOL    HW122658   2.282   5.643   4.632
 7253SOL    HW222659   2.444   5.663   4.631
 7254SOL     OW22660   5.617   3.125   3.828
 7254SOL    HW122661   5.530   3.079   3.846
 7254SOL    HW222662   5.632   3.195   3.898
 7255SOL     OW22663   5.005   3.187   6.580
 7255SOL    HW122664   4.935   3.231   6.635
 7255SOL    HW222665   5.050   3.115   6.633
 7256SOL     OW22666   3.236   0.473   5.375
 7256SOL    HW122667   3.215   0.394   5.431
 7256SOL    HW222668   3.294   0.446   5.299
 7257SOL     OW22669   0.411   1.489   4.537
 7257SOL    HW122670   0.391   1.525   4.446
 7257SOL    HW222671   0.508   1.470   4.545
 7258SOL     OW22672   5.981   2.367   2.846
 7258SOL    HW122673   6.030   2.389   2.762
 7258SOL    HW222674   6.033   2.299   2.898
 7259SOL     OW22675   1.220   3.992   2.576
 7259SOL    HW122676   1.293   4.061   2.572
 7259SOL    HW222677   1.238   3.930   2.653
 7260SOL     OW22678   5.670   3.320   1.338
 7260SOL    HW122679   5.761   3.361   1.325
 7260SOL    HW222680   5.662   3.239   1.279
 7261SOL     OW22681   0.126   4.787   0.182
 7261SOL    HW122682   0.048   4.801   0.242
 7261SOL    HW222683   0.148   4.873   0.134
 7262SOL     OW22684   6.143   1.251   5.215
 7262SOL    HW122685   6.143   1.161   5.259
 7262SOL    HW222686   6.237   1.285   5.209
 7263SOL     OW22687   0.456   5.842   0.179
 7263SOL    HW122688   0.533   5.779   0.164
 7263SOL    HW222689   0.443   5.856   0.277
 7264SOL     OW22690   6.419   1.575   0.272
 7264SOL    HW122691   6.336   1.545   0.319
 7264SOL    HW222692   6.435   1.672   0.291
 7265SOL     OW22693   4.281   5.934   5.687
 7265SOL    HW122694   4.328   5.989   5.756
 7265SOL    HW222695   4.187   5.916   5.718
 7266SOL     OW22696   0.455   1.123   3.926
 7266SOL    HW122697   0.395   1.128   4.005
 7266SOL    HW222698   0.463   1.028   3.896
 7267SOL     OW22699   6.378   4.618   4.779
 7267SOL    HW122700   6.445   4.661   4.717
 7267SOL    HW222701   6.398   4.645   4.873
 7268SOL     OW22702   6.650   6.552   4.609
 7268SOL    HW122703   6.582   6.493   4.653
 7268SOL    HW222704   6.734   6.500   4.594
 7269SOL     OW22705   2.425   4.555   5.304
 7269SOL    HW122706   2.495   4.507   5.358
 7269SOL    HW222707   2.403   4.501   5.223
 7270SOL     OW22708   0.763   1.141   4.588
 7270SOL    HW122709   0.792   1.046   4.596
 7270SOL    HW222710   0.755   1.182   4.679
 7271SOL     OW22711   0.998   4.349   3.476
 7271SOL    HW122712   0.965   4.319   3.566
 7271SOL    HW222713   1.097   4.361   3.479
 7272SOL     OW22714   6.604   4.850   2.777
 7272SOL    HW122715   6.523   4.910   2.783
 7272SOL    HW222716   6.640   4.834   2.869
 7273SOL     OW22717   0.498   2.431   5.159
 7273SOL    HW122718   0.500   2.427   5.259
 7273SOL    HW222719   0.406   2.409   5.127
 7274SOL     OW22720   0.654   4.620   0.080
 7274SOL    HW122721   0.715   4.693   0.049
 7274SOL    HW222722   0.582   4.659   0.137
 7275SOL     OW22723   6.913   0.549   2.834
 7275SOL    HW122724   6.972   0.555   2.753
 7275SOL    HW222725   6.964   0.580   2.914
 7276SOL     OW22726   5.637   6.545   4.531
 7276SOL    HW122727   5.562   6.605   4.559
 7276SOL    HW222728   5.672   6.495   4.611
 7277SOL     OW22729   4.548   0.292   5.845
 7277SOL    HW122730   4.544   0.256   5.752
 7277SOL    HW222731   4.571   0.219   5.909
 7278SOL     OW22732   2.956   3.531   2.810
 7278SOL    HW122733   2.937   3.486   2.897
 7278SOL    HW222734   2.965   3.463   2.738
 7279SOL     OW22735   3.118   6.761   6.213
 7279SOL    HW122736   3.048   6.739   6.145
 7279SOL    HW222737   3.074   6.797   6.295
 7280SOL     OW22738   4.673   1.565   5.867
 7280SOL    HW122739   4.580   1.538   5.840
 7280SOL    HW222740   4.678   1.665   5.870
 7281SOL     OW22741   5.180   1.334   6.383
 7281SOL    HW122742   5.254   1.346   6.317
 7281SOL    HW222743   5.098   1.382   6.350
 7282SOL     OW22744   5.483   5.514   2.132
 7282SOL    HW122745   5.491   5.449   2.207
 7282SOL    HW222746   5.413   5.582   2.155
 7283SOL     OW22747   2.000   0.575   3.888
 7283SOL    HW122748   2.042   0.659   3.853
 7283SOL    HW222749   2.042   0.550   3.975
 7284SOL     OW22750   0.241   4.005   4.834
 7284SOL    HW122751   0.216   4.041   4.744
 7284SOL    HW222752   0.233   3.906   4.833
 7285SOL     OW22753   5.021   5.617   1.342
 7285SOL    HW122754   5.017   5.712   1.372
 7285SOL    HW222755   5.029   5.614   1.242
 7286SOL     OW22756   1.975   3.550   1.302
 7286SOL    HW122757   1.881   3.582   1.288
 7286SOL    HW222758   1.997   3.553   1.399
 7287SOL     OW22759   5.897   1.304   6.525
 7287SOL    HW122760   5.965   1.267   6.590
 7287SOL    HW222761   5.844   1.229   6.487
 7288SOL     OW22762   3.892   6.670   6.900
 7288SOL    HW122763   3.886   6.625   6.811
 7288SOL    HW222764   3.874   6.603   6.972
 7289SOL     OW22765   4.638   2.015   3.347
 7289SOL    HW122766   4.708   1.968   3.402
 7289SOL    HW222767   4.634   1.974   3.256
 7290SOL     OW22768   2.482   5.148   4.375
 7290SOL    HW122769   2.418   5.225   4.377
 7290SOL    HW222770   2.509   5.131   4.280
 7291SOL     OW22771   2.440   5.589   2.030
 7291SOL    HW122772   2.435   5.494   2.059
 7291SOL    HW222773   2.527   5.604   1.982
 7292SOL     OW22774   2.732   6.948   4.561
 7292SOL    HW122775   2.806   7.001   4.603
 7292SOL    HW222776   2.764   6.855   4.543
 7293SOL     OW22777   1.010   2.354   5.567
 7293SOL    HW122778   1.030   2.313   5.478
 7293SOL    HW222779   0.925   2.406   5.561
 7294SOL     OW22780   3.289   5.184   0.810
 7294SOL    HW122781   3.329   5.116   0.871
 7294SOL    HW222782   3.259   5.141   0.725
 7295SOL     OW22783   5.934   0.605   1.566
 7295SOL    HW122784   5.936   0.674   1.494
 7295SOL    HW222785   5.934   0.514   1.525
 7296SOL     OW22786   3.753   4.659   1.362
 7296SOL    HW122787   3.658   4.634   1.383
 7296SOL    HW222788   3.812   4.633   1.439
 7297SOL     OW22789   5.038   6.867   1.750
 7297SOL    HW122790   5.116   6.896   1.806
 7297SOL    HW222791   5.008   6.943   1.692
 7298SOL     OW22792   5.721   3.674   4.195
 7298SOL    HW122793   5.729   3.681   4.294
 7298SOL    HW222794   5.789   3.609   4.160
 7299SOL     OW22795   6.493   4.081   6.613
 7299SOL    HW122796   6.494   4.180   6.598
 7299SOL    HW222797   6.532   4.062   6.703
 7300SOL     OW22798   4.115   5.052   1.040
 7300SOL    HW122799   4.109   5.151   1.031
 7300SOL    HW222800   4.117   5.011   0.949
 7301SOL     OW22801   6.449   0.271   6.024
 7301SOL    HW122802   6.419   0.262   5.929
 7301SOL    HW222803   6.516   0.345   6.031
 7302SOL     OW22804   5.045   1.142   6.539
 7302SOL    HW122805   5.091   1.224   6.503
 7302SOL    HW222806   5.103   1.062   6.524
 7303SOL     OW22807   3.529   1.086   0.406
 7303SOL    HW122808   3.587   1.008   0.385
 7303SOL    HW222809   3.579   1.151   0.464
 7304SOL     OW22810   3.267   3.875   5.564
 7304SOL    HW122811   3.306   3.851   5.652
 7304SOL    HW222812   3.265   3.974   5.554
 7305SOL     OW22813   5.286   0.968   0.798
 7305SOL    HW122814   5.312   0.926   0.885
 7305SOL    HW222815   5.271   1.066   0.812
 7306SOL     OW22816   4.855   4.808   1.821
 7306SOL    HW122817   4.799   4.865   1.760
 7306SOL    HW222818   4.809   4.799   1.909
 7307SOL     OW22819   3.866   6.505   2.298
 7307SOL    HW122820   3.915   6.584   2.336
 7307SOL    HW222821   3.915   6.421   2.322
 7308SOL     OW22822   6.550   2.299   4.557
 7308SOL    HW122823   6.490   2.367   4.514
 7308SOL    HW222824   6.644   2.332   4.552
 7309SOL     OW22825   4.355   6.412   1.449
 7309SOL    HW122826   4.274   6.354   1.432
 7309SOL    HW222827   4.384   6.453   1.362
 7310SOL     OW22828   2.905   5.052   1.466
 7310SOL    HW122829   2.978   5.112   1.500
 7310SOL    HW222830   2.927   4.957   1.489
 7311SOL     OW22831   2.793   2.169   1.851
 7311SOL    HW122832   2.801   2.253   1.904
 7311SOL    HW222833   2.862   2.168   1.779
 7312SOL     OW22834   6.890   1.107   5.837
 7312SOL    HW122835   6.813   1.135   5.894
 7312SOL    HW222836   6.856   1.051   5.761
 7313SOL     OW22837   4.061   2.482   6.361
 7313SOL    HW122838   4.031   2.422   6.435
 7313SOL    HW222839   4.154   2.513   6.380
 7314SOL     OW22840   0.244   3.195   4.227
 7314SOL    HW122841   0.286   3.216   4.315
 7314SOL    HW222842   0.210   3.100   4.228
 7315SOL     OW22843   6.881   0.092   4.265
 7315SOL    HW122844   6.809   0.024   4.276
 7315SOL    HW222845   6.917   0.088   4.172
 7316SOL     OW22846   3.562   3.740   5.447
 7316SOL    HW122847   3.519   3.711   5.362
 7316SOL    HW222848   3.525   3.687   5.523
 7317SOL     OW22849   3.744   1.102   3.887
 7317SOL    HW122850   3.720   1.196   3.912
 7317SOL    HW222851   3.829   1.102   3.834
 7318SOL     OW22852   1.803   2.176   1.270
 7318SOL    HW122853   1.779   2.273   1.263
 7318SOL    HW222854   1.900   2.167   1.288
 7319SOL     OW22855   5.871   4.738   6.730
 7319SOL    HW122856   5.899   4.697   6.817
 7319SOL    HW222857   5.905   4.682   6.654
 7320SOL     OW22858   0.142   3.096   2.059
 7320SOL    HW122859   0.068   3.032   2.079
 7320SOL    HW222860   0.194   3.064   1.979
 7321SOL     OW22861   3.093   1.111   4.270
 7321SOL    HW122862   3.046   1.129   4.356
 7321SOL    HW222863   3.191   1.101   4.286
 7322SOL     OW22864   0.236   4.138   3.047
 7322SOL    HW122865   0.279   4.227   3.030
 7322SOL    HW222866   0.183   4.111   2.967
 7323SOL     OW22867   2.136   3.637   3.533
 7323SOL    HW122868   2.214   3.574   3.532
 7323SOL    HW222869   2.111   3.661   3.440
 7324SOL     OW22870   5.459   6.844   2.857
 7324SOL    HW122871   5.442   6.769   2.793
 7324SOL    HW222872   5.550   6.882   2.840
 7325SOL     OW22873   3.278   6.128   6.942
 7325SOL    HW122874   3.291   6.104   0.022
 7325SOL    HW222875   3.243   6.222   6.935
 7326SOL     OW22876   2.919   6.685   5.452
 7326SOL    HW122877   2.831   6.732   5.461
 7326SOL    HW222878   2.970   6.694   5.537
 7327SOL     OW22879   1.403   2.679   5.602
 7327SOL    HW122880   1.351   2.748   5.551
 7327SOL    HW222881   1.473   2.724   5.658
 7328SOL     OW22882   2.635   0.242   6.775
 7328SOL    HW122883   2.542   0.208   6.763
 7328SOL    HW222884   2.665   0.223   6.868
 7329SOL     OW22885   4.386   2.865   1.306
 7329SOL    HW122886   4.364   2.792   1.371
 7329SOL    HW222887   4.314   2.933   1.306
 7330SOL     OW22888   3.913   1.376   0.126
 7330SOL    HW122889   3.908   1.459   0.183
 7330SOL    HW222890   3.956   1.399   0.038
 7331SOL     OW22891   5.584   0.430   1.911
 7331SOL    HW122892   5.675   0.473   1.912
 7331SOL    HW222893   5.519   0.489   1.959
 7332SOL     OW22894   3.463   5.213   1.122
 7332SOL    HW122895   3.443   5.305   1.089
 7332SOL    HW222896   3.425   5.146   1.059
 7333SOL     OW22897   0.995   4.684   2.490
 7333SOL    HW122898   0.984   4.780   2.514
 7333SOL    HW222899   0.977   4.627   2.571
 7334SOL     OW22900   4.037   6.502   4.330
 7334SOL    HW122901   4.049   6.568   4.404
 7334SOL    HW222902   3.944   6.466   4.333
 7335SOL     OW22903   1.915   2.766   2.728
 7335SOL    HW122904   1.960   2.734   2.812
 7335SOL    HW222905   1.892   2.688   2.670
 7336SOL     OW22906   2.152   6.361   3.382
 7336SOL    HW122907   2.151   6.383   3.285
 7336SOL    HW222908   2.134   6.444   3.435
 7337SOL     OW22909   6.602   2.964   2.151
 7337SOL    HW122910   6.533   2.918   2.094
 7337SOL    HW222911   6.580   3.061   2.157
 7338SOL     OW22912   6.632   2.797   0.566
 7338SOL    HW122913   6.697   2.831   0.498
 7338SOL    HW222914   6.544   2.781   0.522
 7339SOL     OW22915   6.804   5.622   4.690
 7339SOL    HW122916   6.845   5.569   4.616
 7339SOL    HW222917   6.742   5.690   4.652
 7340SOL     OW22918   2.372   0.190   6.746
 7340SOL    HW122919   2.369   0.096   6.780
 7340SOL    HW222920   2.279   0.224   6.734
 7341SOL     OW22921   6.131   2.584   6.407
 7341SOL    HW122922   6.107   2.656   6.342
 7341SOL    HW222923   6.221   2.546   6.383
 7342SOL     OW22924   6.836   6.863   2.611
 7342SOL    HW122925   6.886   6.889   2.528
 7342SOL    HW222926   6.891   6.887   2.691
 7343SOL     OW22927   5.225   3.778   0.118
 7343SOL    HW122928   5.217   3.840   0.040
 7343SOL    HW222929   5.282   3.700   0.093
 7344SOL     OW22930   1.577   6.690   6.015
 7344SOL    HW122931   1.511   6.708   6.088
 7344SOL    HW222932   1.606   6.594   6.020
 7345SOL     OW22933   3.662   5.631   5.970
 7345SOL    HW122934   3.572   5.640   6.012
 7345SOL    HW222935   3.719   5.571   6.026
 7346SOL     OW22936   5.188   4.693   2.928
 7346SOL    HW122937   5.257   4.637   2.882
 7346SOL    HW222938   5.234   4.762   2.985
 7347SOL     OW22939   5.826   2.440   6.694
 7347SOL    HW122940   5.775   2.370   6.743
 7347SOL    HW222941   5.894   2.481   6.754
 7348SOL     OW22942   6.876   4.934   1.602
 7348SOL    HW122943   6.890   4.895   1.510
 7348SOL    HW222944   6.860   4.860   1.667
 7349SOL     OW22945   3.868   1.886   1.662
 7349SOL    HW122946   3.967   1.882   1.648
 7349SOL    HW222947   3.848   1.909   1.757
 7350SOL     OW22948   3.363   0.399   5.150
 7350SOL    HW122949   3.331   0.465   5.083
 7350SOL    HW222950   3.420   0.330   5.105
 7351SOL     OW22951   3.399   4.872   4.051
 7351SOL    HW122952   3.410   4.775   4.033
 7351SOL    HW222953   3.400   4.888   4.150
 7352SOL     OW22954   6.682   2.716   3.764
 7352SOL    HW122955   6.621   2.678   3.834
 7352SOL    HW222956   6.722   2.642   3.710
 7353SOL     OW22957   6.181   0.385   6.632
 7353SOL    HW122958   6.133   0.300   6.655
 7353SOL    HW222959   6.115   0.461   6.635
 7354SOL     OW22960   0.900   1.738   2.925
 7354SOL    HW122961   0.804   1.755   2.904
 7354SOL    HW222962   0.946   1.825   2.944
 7355SOL     OW22963   1.572   2.039   6.921
 7355SOL    HW122964   1.554   2.130   6.885
 7355SOL    HW222965   1.670   2.019   6.912
 7356SOL     OW22966   4.505   4.457   6.072
 7356SOL    HW122967   4.550   4.539   6.108
 7356SOL    HW222968   4.554   4.376   6.105
 7357SOL     OW22969   5.191   5.969   2.174
 7357SOL    HW122970   5.258   5.947   2.245
 7357SOL    HW222971   5.119   5.899   2.173
 7358SOL     OW22972   5.671   0.728   3.660
 7358SOL    HW122973   5.646   0.644   3.707
 7358SOL    HW222974   5.589   0.769   3.620
 7359SOL     OW22975   5.035   0.159   1.014
 7359SOL    HW122976   5.121   0.126   1.054
 7359SOL    HW222977   5.047   0.253   0.983
 7360SOL     OW22978   2.974   3.710   5.069
 7360SOL    HW122979   2.974   3.612   5.050
 7360SOL    HW222980   2.928   3.759   4.995
 7361SOL     OW22981   5.338   0.463   3.656
 7361SOL    HW122982   5.409   0.499   3.715
 7361SOL    HW222983   5.295   0.384   3.701
 7362SOL     OW22984   3.651   5.438   6.338
 7362SOL    HW122985   3.589   5.389   6.276
 7362SOL    HW222986   3.638   5.404   6.432
 7363SOL     OW22987   3.795   0.609   1.099
 7363SOL    HW122988   3.807   0.705   1.127
 7363SOL    HW222989   3.701   0.594   1.071
 7364SOL     OW22990   5.592   6.906   1.361
 7364SOL    HW122991   5.595   7.006   1.355
 7364SOL    HW222992   5.529   6.870   1.293
 7365SOL     OW22993   5.697   4.837   2.191
 7365SOL    HW122994   5.718   4.857   2.095
 7365SOL    HW222995   5.609   4.877   2.216
 7366SOL     OW22996   2.014   1.250   4.180
 7366SOL    HW122997   2.029   1.247   4.278
 7366SOL    HW222998   1.997   1.158   4.145
 7367SOL     OW22999   4.131   0.196   6.700
 7367SOL    HW123000   4.122   0.097   6.705
 7367SOL    HW223001   4.092   0.229   6.614
 7368SOL     OW23002   3.985   3.952   3.318
 7368SOL    HW123003   3.908   3.995   3.367
 7368SOL    HW223004   3.985   3.984   3.223
 7369SOL     OW23005   5.252   2.370   0.826
 7369SOL    HW123006   5.205   2.357   0.738
 7369SOL    HW223007   5.224   2.298   0.889
 7370SOL     OW23008   2.046   1.682   4.201
 7370SOL    HW123009   2.123   1.628   4.236
 7370SOL    HW223010   1.975   1.621   4.165
 7371SOL     OW23011   4.130   0.597   3.620
 7371SOL    HW123012   4.226   0.573   3.630
 7371SOL    HW223013   4.095   0.630   3.708
 7372SOL     OW23014   5.420   0.641   5.603
 7372SOL    HW123015   5.440   0.688   5.517
 7372SOL    HW223016   5.352   0.692   5.654
 7373SOL     OW23017   5.644   3.284   4.086
 7373SOL    HW123018   5.575   3.251   4.150
 7373SOL    HW223019   5.719   3.327   4.136
 7374SOL     OW23020   6.324   1.727   5.334
 7374SOL    HW123021   6.338   1.629   5.323
 7374SOL    HW223022   6.243   1.743   5.391
 7375SOL     OW23023   1.878   3.582   2.098
 7375SOL    HW123024   1.877   3.647   2.022
 7375SOL    HW223025   1.820   3.617   2.172
 7376SOL     OW23026   0.001   3.818   0.094
 7376SOL    HW123027   7.014   3.890   0.025
 7376SOL    HW223028   0.097   3.799   0.118
 7377SOL     OW23029   2.858   6.165   1.166
 7377SOL    HW123030   2.782   6.139   1.108
 7377SOL    HW223031   2.846   6.126   1.257
 7378SOL     OW23032   1.128   6.050   3.657
 7378SOL    HW123033   1.062   5.980   3.631
 7378SOL    HW223034   1.099   6.092   3.744
 7379SOL     OW23035   3.858   1.131   1.082
 7379SOL    HW123036   3.807   1.045   1.091
 7379SOL    HW223037   3.956   1.112   1.094
 7380SOL     OW23038   5.318   3.890   2.234
 7380SOL    HW123039   5.389   3.941   2.282
 7380SOL    HW223040   5.308   3.926   2.141
 7381SOL     OW23041   3.677   1.004   0.778
 7381SOL    HW123042   3.638   0.933   0.720
 7381SOL    HW223043   3.775   0.989   0.789
 7382SOL     OW23044   6.505   1.348   6.334
 7382SOL    HW123045   6.444   1.426   6.347
 7382SOL    HW223046   6.474   1.293   6.257
 7383SOL     OW23047   1.908   0.163   0.373
 7383SOL    HW123048   1.888   0.075   0.331
 7383SOL    HW223049   1.893   0.158   0.472
 7384SOL     OW23050   6.831   0.155   1.146
 7384SOL    HW123051   6.796   0.212   1.219
 7384SOL    HW223052   6.925   0.182   1.124
 7385SOL     OW23053   5.870   4.151   3.077
 7385SOL    HW123054   5.947   4.134   3.138
 7385SOL    HW223055   5.786   4.156   3.132
 7386SOL     OW23056   5.726   3.419   0.550
 7386SOL    HW123057   5.701   3.338   0.496
 7386SOL    HW223058   5.824   3.437   0.540
 7387SOL     OW23059   6.973   6.028   5.300
 7387SOL    HW123060   6.994   6.040   5.203
 7387SOL    HW223061   7.002   6.109   5.351
 7388SOL     OW23062   2.320   5.279   2.764
 7388SOL    HW123063   2.377   5.234   2.832
 7388SOL    HW223064   2.229   5.295   2.802
 7389SOL     OW23065   5.813   3.029   6.933
 7389SOL    HW123066   5.765   2.986   7.009
 7389SOL    HW223067   5.859   2.959   6.879
 7390SOL     OW23068   2.424   2.615   2.754
 7390SOL    HW123069   2.438   2.567   2.668
 7390SOL    HW223070   2.451   2.557   2.831
 7391SOL     OW23071   3.970   3.152   3.391
 7391SOL    HW123072   4.027   3.201   3.456
 7391SOL    HW223073   3.943   3.213   3.317
 7392SOL     OW23074   2.936   6.155   6.727
 7392SOL    HW123075   2.918   6.237   6.781
 7392SOL    HW223076   2.906   6.074   6.777
 7393SOL     OW23077   5.273   5.318   4.178
 7393SOL    HW123078   5.204   5.367   4.125
 7393SOL    HW223079   5.243   5.309   4.273
 7394SOL     OW23080   2.844   1.722   6.045
 7394SOL    HW123081   2.892   1.802   6.080
 7394SOL    HW223082   2.905   1.643   6.044
 7395SOL     OW23083   2.958   5.445   1.039
 7395SOL    HW123084   3.015   5.518   1.078
 7395SOL    HW223085   2.871   5.483   1.009
 7396SOL     OW23086   2.524   5.320   2.054
 7396SOL    HW123087   2.436   5.275   2.037
 7396SOL    HW223088   2.595   5.273   2.001
 7397SOL     OW23089   5.881   4.234   3.933
 7397SOL    HW123090   5.811   4.176   3.974
 7397SOL    HW223091   5.838   4.318   3.898
 7398SOL     OW23092   2.559   4.542   2.429
 7398SOL    HW123093   2.595   4.470   2.371
 7398SOL    HW223094   2.460   4.533   2.437
 7399SOL     OW23095   4.924   2.477   5.095
 7399SOL    HW123096   4.988   2.466   5.018
 7399SOL    HW223097   4.841   2.425   5.076
 7400SOL     OW23098   5.386   2.938   5.621
 7400SOL    HW123099   5.350   3.014   5.675
 7400SOL    HW223100   5.392   2.857   5.679
 7401SOL     OW23101   1.625   2.790   3.729
 7401SOL    HW123102   1.660   2.845   3.804
 7401SOL    HW223103   1.563   2.720   3.765
 7402SOL     OW23104   3.435   6.054   4.503
 7402SOL    HW123105   3.395   6.140   4.473
 7402SOL    HW223106   3.522   6.039   4.457
 7403SOL     OW23107   1.701   3.985   4.123
 7403SOL    HW123108   1.611   3.942   4.115
 7403SOL    HW223109   1.714   4.021   4.215
 7404SOL     OW23110   3.347   3.420   1.152
 7404SOL    HW123111   3.259   3.445   1.193
 7404SOL    HW223112   3.362   3.322   1.162
 7405SOL     OW23113   3.764   6.542   4.008
 7405SOL    HW123114   3.694   6.523   4.076
 7405SOL    HW223115   3.721   6.566   3.921
 7406SOL     OW23116   0.992   1.348   5.100
 7406SOL    HW123117   1.059   1.388   5.037
 7406SOL    HW223118   0.910   1.405   5.102
 7407SOL     OW23119   0.957   5.871   5.464
 7407SOL    HW123120   0.885   5.817   5.507
 7407SOL    HW223121   0.915   5.940   5.404
 7408SOL     OW23122   3.681   4.854   5.261
 7408SOL    HW123123   3.656   4.872   5.166
 7408SOL    HW223124   3.774   4.886   5.278
 7409SOL     OW23125   6.425   3.234   1.039
 7409SOL    HW123126   6.514   3.252   0.997
 7409SOL    HW223127   6.374   3.320   1.047
 7410SOL     OW23128   0.529   0.657   1.068
 7410SOL    HW123129   0.605   0.721   1.079
 7410SOL    HW223130   0.501   0.655   0.972
 7411SOL     OW23131   1.634   1.632   5.239
 7411SOL    HW123132   1.713   1.575   5.261
 7411SOL    HW223133   1.579   1.644   5.322
 7412SOL     OW23134   4.194   6.621   0.397
 7412SOL    HW123135   4.174   6.602   0.301
 7412SOL    HW223136   4.281   6.578   0.422
 7413SOL     OW23137   4.313   6.928   3.637
 7413SOL    HW123138   4.274   6.933   3.729
 7413SOL    HW223139   4.274   7.000   3.581
 7414SOL     OW23140   3.433   1.418   4.212
 7414SOL    HW123141   3.435   1.413   4.312
 7414SOL    HW223142   3.349   1.463   4.183
 7415SOL     OW23143   3.757   6.266   6.189
 7415SOL    HW123144   3.701   6.340   6.153
 7415SOL    HW223145   3.840   6.304   6.229
 7416SOL     OW23146   1.329   0.893   2.025
 7416SOL    HW123147   1.301   0.888   2.121
 7416SOL    HW223148   1.365   0.984   2.005
 7417SOL     OW23149   0.412   1.153   3.198
 7417SOL    HW123150   0.460   1.068   3.175
 7417SOL    HW223151   0.385   1.151   3.295
 7418SOL     OW23152   1.767   3.905   6.015
 7418SOL    HW123153   1.689   3.920   5.955
 7418SOL    HW223154   1.800   3.811   6.004
 7419SOL     OW23155   7.006   3.677   3.808
 7419SOL    HW123156   0.065   3.740   3.791
 7419SOL    HW223157   6.921   3.729   3.821
 7420SOL     OW23158   6.833   7.017   1.840
 7420SOL    HW123159   6.921   6.987   1.801
 7420SOL    HW223160   6.768   0.015   1.767
 7421SOL     OW23161   5.549   3.978   1.159
 7421SOL    HW123162   5.600   3.913   1.104
 7421SOL    HW223163   5.455   3.945   1.171
 7422SOL     OW23164   5.712   1.938   2.910
 7422SOL    HW123165   5.625   1.959   2.954
 7422SOL    HW223166   5.743   1.848   2.938
 7423SOL     OW23167   5.210   1.719   5.749
 7423SOL    HW123168   5.244   1.794   5.806
 7423SOL    HW223169   5.254   1.634   5.777
 7424SOL     OW23170   0.980   2.476   3.602
 7424SOL    HW123171   0.901   2.475   3.664
 7424SOL    HW223172   0.992   2.385   3.563
 7425SOL     OW23173   5.925   0.560   1.207
 7425SOL    HW123174   5.938   0.583   1.110
 7425SOL    HW223175   5.980   0.622   1.263
 7426SOL     OW23176   3.942   3.265   5.492
 7426SOL    HW123177   4.034   3.303   5.479
 7426SOL    HW223178   3.948   3.166   5.504
 7427SOL     OW23179   2.973   0.846   3.554
 7427SOL    HW123180   2.947   0.923   3.496
 7427SOL    HW223181   2.943   0.864   3.648
 7428SOL     OW23182   4.634   6.166   4.918
 7428SOL    HW123183   4.609   6.184   4.823
 7428SOL    HW223184   4.722   6.119   4.921
 7429SOL     OW23185   1.569   6.508   2.773
 7429SOL    HW123186   1.538   6.598   2.805
 7429SOL    HW223187   1.669   6.507   2.767
 7430SOL     OW23188   6.579   5.414   2.641
 7430SOL    HW123189   6.507   5.472   2.605
 7430SOL    HW223190   6.615   5.454   2.725
 7431SOL     OW23191   1.231   1.571   3.717
 7431SOL    HW123192   1.171   1.594   3.794
 7431SOL    HW223193   1.326   1.589   3.743
 7432SOL     OW23194   2.307   0.613   3.044
 7432SOL    HW123195   2.309   0.688   3.110
 7432SOL    HW223196   2.342   0.646   2.956
 7433SOL     OW23197   2.774   0.080   6.557
 7433SOL    HW123198   2.822   0.159   6.518
 7433SOL    HW223199   2.806   0.066   6.651
 7434SOL     OW23200   4.203   6.843   4.863
 7434SOL    HW123201   4.129   6.902   4.831
 7434SOL    HW223202   4.276   6.839   4.794
 7435SOL     OW23203   5.077   4.408   2.747
 7435SOL    HW123204   5.166   4.449   2.771
 7435SOL    HW223205   5.087   4.309   2.738
 7436SOL     OW23206   5.586   2.811   5.994
 7436SOL    HW123207   5.618   2.781   6.084
 7436SOL    HW223208   5.665   2.830   5.936
 7437SOL     OW23209   3.141   6.823   0.738
 7437SOL    HW123210   3.073   6.865   0.678
 7437SOL    HW223211   3.185   6.893   0.793
 7438SOL     OW23212   1.829   0.357   0.014
 7438SOL    HW123213   1.761   0.374   0.086
 7438SOL    HW223214   1.821   0.263   6.998
 7439SOL     OW23215   1.446   4.323   6.909
 7439SOL    HW123216   1.453   4.411   6.956
 7439SOL    HW223217   1.372   4.326   6.842
 7440SOL     OW23218   5.565   3.654   3.982
 7440SOL    HW123219   5.641   3.696   4.032
 7440SOL    HW223220   5.602   3.592   3.913
 7441SOL     OW23221   5.557   5.633   1.014
 7441SOL    HW123222   5.527   5.653   0.920
 7441SOL    HW223223   5.483   5.654   1.077
 7442SOL     OW23224   5.192   0.493   5.945
 7442SOL    HW123225   5.110   0.550   5.944
 7442SOL    HW223226   5.273   0.551   5.953
 7443SOL     OW23227   0.579   0.994   2.021
 7443SOL    HW123228   0.557   0.990   2.118
 7443SOL    HW223229   0.505   1.040   1.972
 7444SOL     OW23230   2.056   6.594   6.884
 7444SOL    HW123231   2.090   6.614   6.976
 7444SOL    HW223232   1.992   6.665   6.856
 7445SOL     OW23233   4.093   6.420   1.587
 7445SOL    HW123234   4.080   6.369   1.502
 7445SOL    HW223235   4.085   6.518   1.568
 7446SOL     OW23236   5.538   4.186   0.367
 7446SOL    HW123237   5.554   4.264   0.307
 7446SOL    HW223238   5.494   4.112   0.314
 7447SOL     OW23239   0.339   4.542   0.768
 7447SOL    HW123240   0.390   4.518   0.850
 7447SOL    HW223241   0.310   4.638   0.773
 7448SOL     OW23242   4.815   5.286   6.720
 7448SOL    HW123243   4.892   5.346   6.743
 7448SOL    HW223244   4.782   5.308   6.629
 7449SOL     OW23245   0.420   4.577   6.270
 7449SOL    HW123246   0.334   4.528   6.255
 7449SOL    HW223247   0.490   4.512   6.300
 7450SOL     OW23248   5.362   2.132   5.184
 7450SOL    HW123249   5.448   2.134   5.134
 7450SOL    HW223250   5.358   2.049   5.240
 7451SOL     OW23251   4.612   4.456   3.314
 7451SOL    HW123252   4.627   4.358   3.300
 7451SOL    HW223253   4.688   4.495   3.366
 7452SOL     OW23254   5.918   5.234   5.546
 7452SOL    HW123255   5.986   5.163   5.526
 7452SOL    HW223256   5.894   5.231   5.643
 7453SOL     OW23257   3.458   5.869   6.027
 7453SOL    HW123258   3.508   5.909   5.951
 7453SOL    HW223259   3.383   5.813   5.991
 7454SOL     OW23260   4.502   2.277   0.887
 7454SOL    HW123261   4.470   2.290   0.981
 7454SOL    HW223262   4.568   2.202   0.885
 7455SOL     OW23263   6.735   1.866   3.125
 7455SOL    HW123264   6.789   1.923   3.187
 7455SOL    HW223265   6.638   1.882   3.141
 7456SOL     OW23266   2.683   2.195   6.259
 7456SOL    HW123267   2.628   2.224   6.338
 7456SOL    HW223268   2.623   2.166   6.185
 7457SOL     OW23269   2.409   0.720   2.795
 7457SOL    HW123270   2.364   0.796   2.841
 7457SOL    HW223271   2.458   0.755   2.715
 7458SOL     OW23272   1.936   4.989   4.981
 7458SOL    HW123273   1.905   4.911   4.928
 7458SOL    HW223274   1.923   4.971   5.079
 7459SOL     OW23275   5.713   0.285   2.528
 7459SOL    HW123276   5.614   0.285   2.516
 7459SOL    HW223277   5.736   0.250   2.618
 7460SOL     OW23278   1.837   6.419   0.648
 7460SOL    HW123279   1.819   6.428   0.746
 7460SOL    HW223280   1.924   6.465   0.626
 7461SOL     OW23281   1.955   4.514   6.023
 7461SOL    HW123282   1.897   4.582   6.068
 7461SOL    HW223283   1.898   4.455   5.966
 7462SOL     OW23284   1.336   4.446   0.432
 7462SOL    HW123285   1.312   4.360   0.387
 7462SOL    HW223286   1.298   4.447   0.525
 7463SOL     OW23287   4.009   5.375   1.402
 7463SOL    HW123288   4.094   5.395   1.353
 7463SOL    HW223289   3.994   5.443   1.474
 7464SOL     OW23290   6.116   6.224   5.084
 7464SOL    HW123291   6.052   6.150   5.062
 7464SOL    HW223292   6.091   6.265   5.172
 7465SOL     OW23293   1.746   4.967   0.284
 7465SOL    HW123294   1.722   4.887   0.339
 7465SOL    HW223295   1.675   5.037   0.295
 7466SOL     OW23296   0.694   0.449   5.080
 7466SOL    HW123297   0.782   0.489   5.105
 7466SOL    HW223298   0.693   0.429   4.982
 7467SOL     OW23299   0.483   3.040   5.015
 7467SOL    HW123300   0.573   3.006   4.989
 7467SOL    HW223301   0.471   3.031   5.114
 7468SOL     OW23302   5.924   3.973   5.769
 7468SOL    HW123303   5.963   3.893   5.724
 7468SOL    HW223304   5.824   3.962   5.775
 7469SOL     OW23305   0.026   2.295   0.791
 7469SOL    HW123306   6.957   2.336   0.760
 7469SOL    HW223307   0.101   2.329   0.735
 7470SOL     OW23308   5.802   2.723   3.441
 7470SOL    HW123309   5.765   2.729   3.534
 7470SOL    HW223310   5.739   2.670   3.384
 7471SOL     OW23311   4.061   5.988   6.025
 7471SOL    HW123312   4.150   5.980   6.069
 7471SOL    HW223313   4.069   5.964   5.928
 7472SOL     OW23314   6.127   6.975   5.690
 7472SOL    HW123315   6.060   0.014   5.740
 7472SOL    HW223316   6.177   0.016   5.625
 7473SOL     OW23317   3.476   5.827   3.857
 7473SOL    HW123318   3.571   5.840   3.827
 7473SOL    HW223319   3.438   5.915   3.885
 7474SOL     OW23320   5.860   1.397   6.889
 7474SOL    HW123321   5.856   1.424   6.985
 7474SOL    HW223322   5.955   1.381   6.862
 7475SOL     OW23323   5.119   2.158   0.978
 7475SOL    HW123324   5.020   2.163   0.972
 7475SOL    HW223325   5.148   2.169   1.073
 7476SOL     OW23326   2.258   0.376   3.170
 7476SOL    HW123327   2.327   0.350   3.239
 7476SOL    HW223328   2.286   0.461   3.126
 7477SOL     OW23329   0.711   3.980   4.887
 7477SOL    HW123330   0.646   3.917   4.846
 7477SOL    HW223331   0.803   3.941   4.885
 7478SOL     OW23332   0.724   1.141   6.209
 7478SOL    HW123333   0.770   1.118   6.123
 7478SOL    HW223334   0.662   1.067   6.235
 7479SOL     OW23335   5.232   2.784   0.334
 7479SOL    HW123336   5.279   2.856   0.386
 7479SOL    HW223337   5.271   2.695   0.358
 7480SOL     OW23338   3.666   4.898   2.318
 7480SOL    HW123339   3.577   4.861   2.291
 7480SOL    HW223340   3.717   4.924   2.236
 7481SOL     OW23341   0.197   3.681   6.761
 7481SOL    HW123342   0.180   3.635   6.848
 7481SOL    HW223343   0.172   3.620   6.686
 7482SOL     OW23344   5.052   2.336   3.016
 7482SOL    HW123345   5.067   2.427   2.978
 7482SOL    HW223346   4.997   2.343   3.099
 7483SOL     OW23347   4.737   2.000   5.463
 7483SOL    HW123348   4.791   1.940   5.522
 7483SOL    HW223349   4.690   1.945   5.394
 7484SOL     OW23350   3.317   6.686   3.769
 7484SOL    HW123351   3.414   6.670   3.788
 7484SOL    HW223352   3.275   6.602   3.734
 7485SOL     OW23353   3.723   6.530   5.541
 7485SOL    HW123354   3.699   6.522   5.445
 7485SOL    HW223355   3.684   6.614   5.578
 7486SOL     OW23356   2.330   6.515   1.084
 7486SOL    HW123357   2.298   6.600   1.127
 7486SOL    HW223358   2.380   6.461   1.151
 7487SOL     OW23359   3.980   6.119   4.282
 7487SOL    HW123360   4.060   6.175   4.304
 7487SOL    HW223361   3.954   6.065   4.362
 7488SOL     OW23362   0.517   5.499   4.226
 7488SOL    HW123363   0.516   5.525   4.130
 7488SOL    HW223364   0.542   5.402   4.234
 7489SOL     OW23365   5.417   3.115   0.020
 7489SOL    HW123366   5.348   3.171   0.065
 7489SOL    HW223367   5.411   3.021   0.054
 7490SOL     OW23368   0.790   2.551   2.534
 7490SOL    HW123369   0.696   2.562   2.502
 7490SOL    HW223370   0.854   2.573   2.460
 7491SOL     OW23371   4.140   3.284   0.435
 7491SOL    HW123372   4.229   3.310   0.471
 7491SOL    HW223373   4.144   3.192   0.396
 7492SOL     OW23374   1.634   0.055   4.401
 7492SOL    HW123375   1.664   0.089   4.491
 7492SOL    HW223376   1.712   0.057   4.338
 7493SOL     OW23377   6.697   4.582   5.370
 7493SOL    HW123378   6.744   4.514   5.425
 7493SOL    HW223379   6.609   4.604   5.412
 7494SOL     OW23380   0.132   1.067   1.877
 7494SOL    HW123381   0.048   1.116   1.854
 7494SOL    HW223382   0.143   0.990   1.814
 7495SOL     OW23383   1.780   3.898   4.891
 7495SOL    HW123384   1.846   3.890   4.965
 7495SOL    HW223385   1.724   3.815   4.887
 7496SOL     OW23386   5.970   4.532   2.338
 7496SOL    HW123387   6.029   4.451   2.332
 7496SOL    HW223388   5.989   4.580   2.423
 7497SOL     OW23389   6.947   6.969   1.346
 7497SOL    HW123390   0.002   6.986   1.413
 7497SOL    HW223391   6.930   0.036   1.293
 7498SOL     OW23392   3.337   6.892   2.784
 7498SOL    HW123393   3.319   6.893   2.882
 7498SOL    HW223394   3.254   6.918   2.734
 7499SOL     OW23395   2.891   1.664   3.970
 7499SOL    HW123396   2.863   1.644   3.876
 7499SOL    HW223397   2.941   1.751   3.971
 7500SOL     OW23398   3.786   0.134   3.539
 7500SOL    HW123399   3.865   0.082   3.570
 7500SOL    HW223400   3.752   0.192   3.613
 7501SOL     OW23401   6.101   2.392   5.084
 7501SOL    HW123402   6.199   2.406   5.097
 7501SOL    HW223403   6.052   2.477   5.105
 7502SOL     OW23404   4.731   0.553   3.918
 7502SOL    HW123405   4.750   0.560   4.016
 7502SOL    HW223406   4.680   0.634   3.888
 7503SOL     OW23407   1.802   5.772   1.564
 7503SOL    HW123408   1.826   5.675   1.559
 7503SOL    HW223409   1.830   5.809   1.653
 7504SOL     OW23410   6.741   6.975   4.736
 7504SOL    HW123411   6.745   6.948   4.640
 7504SOL    HW223412   6.826   6.948   4.782
 7505SOL     OW23413   0.343   6.179   5.298
 7505SOL    HW123414   0.301   6.238   5.367
 7505SOL    HW223415   0.331   6.083   5.323
 7506SOL     OW23416   3.544   1.719   3.751
 7506SOL    HW123417   3.523   1.689   3.844
 7506SOL    HW223418   3.641   1.742   3.744
 7507SOL     OW23419   6.606   4.393   5.684
 7507SOL    HW123420   6.628   4.438   5.770
 7507SOL    HW223421   6.690   4.359   5.641
 7508SOL     OW23422   2.459   5.794   0.182
 7508SOL    HW123423   2.364   5.810   0.154
 7508SOL    HW223424   2.461   5.761   0.276
 7509SOL     OW23425   6.090   5.108   1.640
 7509SOL    HW123426   6.133   5.197   1.658
 7509SOL    HW223427   6.139   5.063   1.565
 7510SOL     OW23428   3.262   3.793   2.944
 7510SOL    HW123429   3.197   3.867   2.928
 7510SOL    HW223430   3.319   3.815   3.023
 7511SOL     OW23431   4.443   6.522   4.466
 7511SOL    HW123432   4.511   6.576   4.516
 7511SOL    HW223433   4.359   6.518   4.520
 7512SOL     OW23434   3.693   0.839   0.400
 7512SOL    HW123435   3.725   0.801   0.313
 7512SOL    HW223436   3.761   0.903   0.435
 7513SOL     OW23437   1.265   2.395   2.477
 7513SOL    HW123438   1.325   2.324   2.515
 7513SOL    HW223439   1.318   2.454   2.415
 7514SOL     OW23440   1.381   5.525   1.707
 7514SOL    HW123441   1.424   5.613   1.684
 7514SOL    HW223442   1.351   5.526   1.802
 7515SOL     OW23443   0.495   5.008   5.253
 7515SOL    HW123444   0.411   5.045   5.290
 7515SOL    HW223445   0.561   4.994   5.327
 7516SOL     OW23446   1.556   6.167   5.401
 7516SOL    HW123447   1.617   6.100   5.443
 7516SOL    HW223448   1.485   6.192   5.466
 7517SOL     OW23449   0.734   1.496   5.975
 7517SOL    HW123450   0.822   1.469   6.012
 7517SOL    HW223451   0.747   1.557   5.897
 7518SOL     OW23452   4.729   2.138   3.736
 7518SOL    HW123453   4.693   2.217   3.785
 7518SOL    HW223454   4.824   2.121   3.763
 7519SOL     OW23455   3.821   6.131   4.060
 7519SOL    HW123456   3.862   6.196   3.997
 7519SOL    HW223457   3.875   6.126   4.144
 7520SOL     OW23458   1.584   1.407   0.347
 7520SOL    HW123459   1.646   1.374   0.276
 7520SOL    HW223460   1.635   1.466   0.410
 7521SOL     OW23461   3.624   1.784   5.467
 7521SOL    HW123462   3.638   1.883   5.466
 7521SOL    HW223463   3.689   1.740   5.405
 7522SOL     OW23464   1.903   6.807   3.037
 7522SOL    HW123465   1.911   6.750   3.119
 7522SOL    HW223466   1.889   6.902   3.064
 7523SOL     OW23467   5.586   0.995   0.598
 7523SOL    HW123468   5.651   0.952   0.536
 7523SOL    HW223469   5.493   0.988   0.560
 7524SOL     OW23470   0.036   3.316   4.609
 7524SOL    HW123471   0.070   3.317   4.514
 7524SOL    HW223472   6.961   3.355   4.611
 7525SOL     OW23473   3.955   5.769   6.154
 7525SOL    HW123474   3.953   5.800   6.249
 7525SOL    HW223475   3.977   5.847   6.095
 7526SOL     OW23476   2.355   3.418   1.568
 7526SOL    HW123477   2.385   3.477   1.494
 7526SOL    HW223478   2.378   3.459   1.656
 7527SOL     OW23479   3.966   4.813   3.747
 7527SOL    HW123480   3.996   4.903   3.781
 7527SOL    HW223481   4.044   4.751   3.745
 7528SOL     OW23482   5.915   3.286   6.131
 7528SOL    HW123483   5.934   3.377   6.093
 7528SOL    HW223484   5.975   3.270   6.209
 7529SOL     OW23485   6.085   2.589   4.127
 7529SOL    HW123486   6.044   2.501   4.149
 7529SOL    HW223487   6.042   2.626   4.044
 7530SOL     OW23488   0.707   2.167   2.001
 7530SOL    HW123489   0.654   2.082   2.003
 7530SOL    HW223490   0.801   2.148   2.029
 7531SOL     OW23491   4.192   1.791   3.959
 7531SOL    HW123492   4.282   1.832   3.976
 7531SOL    HW223493   4.121   1.858   3.980
 7532SOL     OW23494   4.446   5.340   6.657
 7532SOL    HW123495   4.506   5.338   6.736
 7532SOL    HW223496   4.487   5.288   6.582
 7533SOL     OW23497   4.372   4.297   1.657
 7533SOL    HW123498   4.279   4.260   1.662
 7533SOL    HW223499   4.424   4.269   1.738
 7534SOL     OW23500   3.907   0.139   4.563
 7534SOL    HW123501   3.941   0.057   4.517
 7534SOL    HW223502   3.807   0.137   4.563
 7535SOL     OW23503   0.714   6.312   4.076
 7535SOL    HW123504   0.615   6.324   4.087
 7535SOL    HW223505   0.732   6.254   3.996
 7536SOL     OW23506   5.345   5.957   4.647
 7536SOL    HW123507   5.323   5.859   4.655
 7536SOL    HW223508   5.308   5.992   4.561
 7537SOL     OW23509   2.594   6.828   3.136
 7537SOL    HW123510   2.549   6.915   3.114
 7537SOL    HW223511   2.662   6.807   3.065
 7538SOL     OW23512   0.631   3.661   0.203
 7538SOL    HW123513   0.589   3.752   0.197
 7538SOL    HW223514   0.638   3.635   0.299
 7539SOL     OW23515   0.170   0.338   4.148
 7539SOL    HW123516   0.231   0.352   4.069
 7539SOL    HW223517   0.223   0.300   4.224
 7540SOL     OW23518   5.961   5.535   3.006
 7540SOL    HW123519   6.057   5.541   3.032
 7540SOL    HW223520   5.904   5.579   3.075
 7541SOL     OW23521   2.332   4.433   6.323
 7541SOL    HW123522   2.367   4.470   6.409
 7541SOL    HW223523   2.236   4.406   6.335
 7542SOL     OW23524   6.400   5.757   5.178
 7542SOL    HW123525   6.353   5.696   5.114
 7542SOL    HW223526   6.393   5.851   5.146
 7543SOL     OW23527   2.557   1.232   6.798
 7543SOL    HW123528   2.458   1.216   6.792
 7543SOL    HW223529   2.575   1.330   6.793
 7544SOL     OW23530   6.744   2.001   4.036
 7544SOL    HW123531   6.779   1.958   3.953
 7544SOL    HW223532   6.777   1.950   4.116
 7545SOL     OW23533   1.590   4.861   5.926
 7545SOL    HW123534   1.640   4.936   5.883
 7545SOL    HW223535   1.525   4.898   5.992
 7546SOL     OW23536   2.388   2.796   1.851
 7546SOL    HW123537   2.437   2.774   1.935
 7546SOL    HW223538   2.440   2.863   1.798
 7547SOL     OW23539   4.312   0.257   1.408
 7547SOL    HW123540   4.389   0.243   1.346
 7547SOL    HW223541   4.227   0.259   1.356
 7548SOL     OW23542   3.350   2.546   6.084
 7548SOL    HW123543   3.406   2.517   6.007
 7548SOL    HW223544   3.406   2.547   6.167
 7549SOL     OW23545   5.468   1.969   4.120
 7549SOL    HW123546   5.523   2.049   4.141
 7549SOL    HW223547   5.527   1.888   4.113
 7550SOL     OW23548   2.617   4.900   4.186
 7550SOL    HW123549   2.611   4.873   4.090
 7550SOL    HW223550   2.561   4.838   4.241
 7551SOL     OW23551   6.426   2.573   5.977
 7551SOL    HW123552   6.354   2.524   5.927
 7551SOL    HW223553   6.384   2.628   6.049
 7552SOL     OW23554   2.351   6.791   4.933
 7552SOL    HW123555   2.256   6.816   4.912
 7552SOL    HW223556   2.413   6.848   4.878
 7553SOL     OW23557   5.383   6.128   5.442
 7553SOL    HW123558   5.427   6.209   5.404
 7553SOL    HW223559   5.448   6.077   5.498
 7554SOL     OW23560   4.958   0.828   1.064
 7554SOL    HW123561   4.967   0.908   1.004
 7554SOL    HW223562   4.865   0.823   1.099
 7555SOL     OW23563   4.023   5.188   4.940
 7555SOL    HW123564   3.939   5.241   4.942
 7555SOL    HW223565   4.011   5.109   4.879
 7556SOL     OW23566   0.335   6.333   1.603
 7556SOL    HW123567   0.343   6.295   1.695
 7556SOL    HW223568   0.421   6.377   1.577
 7557SOL     OW23569   4.661   0.626   0.824
 7557SOL    HW123570   4.670   0.531   0.793
 7557SOL    HW223571   4.582   0.633   0.885
 7558SOL     OW23572   0.970   1.723   4.183
 7558SOL    HW123573   0.953   1.773   4.268
 7558SOL    HW223574   1.013   1.635   4.204
 7559SOL     OW23575   2.641   1.771   5.188
 7559SOL    HW123576   2.715   1.810   5.243
 7559SOL    HW223577   2.667   1.771   5.092
 7560SOL     OW23578   0.746   1.823   6.030
 7560SOL    HW123579   0.763   1.773   5.945
 7560SOL    HW223580   0.762   1.764   6.108
 7561SOL     OW23581   5.814   1.478   5.070
 7561SOL    HW123582   5.730   1.464   5.121
 7561SOL    HW223583   5.867   1.552   5.112
 7562SOL     OW23584   2.010   5.852   3.470
 7562SOL    HW123585   2.091   5.806   3.435
 7562SOL    HW223586   2.033   5.948   3.491
 7563SOL     OW23587   3.656   5.499   2.130
 7563SOL    HW123588   3.754   5.478   2.131
 7563SOL    HW223589   3.605   5.416   2.109
 7564SOL     OW23590   3.405   2.087   5.413
 7564SOL    HW123591   3.377   2.081   5.317
 7564SOL    HW223592   3.398   2.182   5.444
 7565SOL     OW23593   6.491   3.953   5.661
 7565SOL    HW123594   6.438   4.037   5.651
 7565SOL    HW223595   6.430   3.876   5.681
 7566SOL     OW23596   4.473   4.876   1.228
 7566SOL    HW123597   4.508   4.835   1.312
 7566SOL    HW223598   4.521   4.837   1.149
 7567SOL     OW23599   1.454   0.269   4.063
 7567SOL    HW123600   1.536   0.220   4.033
 7567SOL    HW223601   1.380   0.255   3.997
 7568SOL     OW23602   5.914   5.802   1.997
 7568SOL    HW123603   5.927   5.725   1.934
 7568SOL    HW223604   5.997   5.815   2.051
 7569SOL     OW23605   4.627   3.808   0.451
 7569SOL    HW123606   4.629   3.770   0.359
 7569SOL    HW223607   4.535   3.796   0.490
 7570SOL     OW23608   0.465   3.223   2.672
 7570SOL    HW123609   0.525   3.176   2.608
 7570SOL    HW223610   0.501   3.214   2.765
 7571SOL     OW23611   5.077   1.926   3.219
 7571SOL    HW123612   5.107   1.967   3.306
 7571SOL    HW223613   5.119   1.836   3.208
 7572SOL     OW23614   4.584   6.965   3.541
 7572SOL    HW123615   4.518   6.956   3.615
 7572SOL    HW223616   4.536   6.969   3.454
 7573SOL     OW23617   4.795   6.296   5.550
 7573SOL    HW123618   4.770   6.245   5.633
 7573SOL    HW223619   4.767   6.391   5.560
 7574SOL     OW23620   0.961   2.939   3.698
 7574SOL    HW123621   1.058   2.957   3.680
 7574SOL    HW223622   0.929   2.865   3.640
 7575SOL     OW23623   0.269   7.000   1.893
 7575SOL    HW123624   0.324   7.010   1.810
 7575SOL    HW223625   0.191   6.940   1.874
 7576SOL     OW23626   5.309   2.302   0.320
 7576SOL    HW123627   5.272   2.214   0.290
 7576SOL    HW223628   5.253   2.376   0.282
 7577SOL     OW23629   0.982   6.552   1.473
 7577SOL    HW123630   0.938   6.591   1.392
 7577SOL    HW223631   0.917   6.549   1.549
 7578SOL     OW23632   6.552   5.918   3.517
 7578SOL    HW123633   6.522   6.010   3.496
 7578SOL    HW223634   6.650   5.919   3.539
 7579SOL     OW23635   0.514   1.140   6.900
 7579SOL    HW123636   0.579   1.079   6.855
 7579SOL    HW223637   0.492   1.104   6.991
 7580SOL     OW23638   2.704   4.924   3.760
 7580SOL    HW123639   2.691   4.909   3.858
 7580SOL    HW223640   2.673   4.844   3.709
 7581SOL     OW23641   6.605   0.927   2.424
 7581SOL    HW123642   6.695   0.903   2.387
 7581SOL    HW223643   6.614   0.946   2.522
 7582SOL     OW23644   2.739   1.203   5.813
 7582SOL    HW123645   2.738   1.298   5.843
 7582SOL    HW223646   2.672   1.190   5.740
 7583SOL     OW23647   5.211   2.768   3.165
 7583SOL    HW123648   5.241   2.857   3.200
 7583SOL    HW223649   5.116   2.752   3.190
 7584SOL     OW23650   0.124   1.001   3.585
 7584SOL    HW123651   0.042   0.990   3.529
 7584SOL    HW223652   0.134   0.923   3.647
 7585SOL     OW23653   1.395   1.288   6.650
 7585SOL    HW123654   1.392   1.381   6.614
 7585SOL    HW223655   1.424   1.291   6.746
 7586SOL     OW23656   1.607   0.814   2.370
 7586SOL    HW123657   1.580   0.864   2.287
 7586SOL    HW223658   1.697   0.847   2.400
 7587SOL     OW23659   4.123   0.727   0.820
 7587SOL    HW123660   4.064   0.728   0.739
 7587SOL    HW223661   4.191   0.654   0.811
 7588SOL     OW23662   2.233   2.800   4.170
 7588SOL    HW123663   2.285   2.719   4.143
 7588SOL    HW223664   2.270   2.837   4.255
 7589SOL     OW23665   0.542   0.429   2.560
 7589SOL    HW123666   0.545   0.402   2.464
 7589SOL    HW223667   0.574   0.524   2.569
 7590SOL     OW23668   0.052   0.875   6.814
 7590SOL    HW123669   6.984   0.870   6.865
 7590SOL    HW223670   0.117   0.935   6.862
 7591SOL     OW23671   3.836   3.002   4.461
 7591SOL    HW123672   3.931   3.032   4.472
 7591SOL    HW223673   3.812   2.999   4.364
 7592SOL     OW23674   0.003   6.632   4.827
 7592SOL    HW123675   0.058   6.598   4.750
 7592SOL    HW223676   6.970   6.556   4.869
 7593SOL     OW23677   1.074   1.114   5.770
 7593SOL    HW123678   1.044   1.045   5.704
 7593SOL    HW223679   1.120   1.189   5.721
 7594SOL     OW23680   0.351   4.364   0.202
 7594SOL    HW123681   0.309   4.384   0.290
 7594SOL    HW223682   0.450   4.364   0.211
 7595SOL     OW23683   1.090   3.011   6.319
 7595SOL    HW123684   1.008   2.958   6.298
 7595SOL    HW223685   1.113   3.070   6.242
 7596SOL     OW23686   3.436   1.157   5.535
 7596SOL    HW123687   3.401   1.065   5.555
 7596SOL    HW223688   3.361   1.223   5.540
 7597SOL     OW23689   1.578   4.294   2.133
 7597SOL    HW123690   1.659   4.236   2.122
 7597SOL    HW223691   1.606   4.389   2.141
 7598SOL     OW23692   6.639   0.973   2.717
 7598SOL    HW123693   6.562   1.020   2.761
 7598SOL    HW223694   6.673   0.901   2.777
 7599SOL     OW23695   3.192   3.498   0.796
 7599SOL    HW123696   3.106   3.532   0.758
 7599SOL    HW223697   3.268   3.555   0.764
 7600SOL     OW23698   1.615   6.650   4.367
 7600SOL    HW123699   1.611   6.662   4.268
 7600SOL    HW223700   1.705   6.614   4.392
 7601SOL     OW23701   3.266   6.543   1.926
 7601SOL    HW123702   3.278   6.635   1.966
 7601SOL    HW223703   3.337   6.528   1.856
 7602SOL     OW23704   0.215   2.182   0.321
 7602SOL    HW123705   0.299   2.225   0.288
 7602SOL    HW223706   0.138   2.244   0.308
 7603SOL     OW23707   3.699   0.033   6.038
 7603SOL    HW123708   3.795   0.010   6.019
 7603SOL    HW223709   3.670   0.106   5.975
 7604SOL     OW23710   0.232   1.975   5.165
 7604SOL    HW123711   0.301   1.932   5.223
 7604SOL    HW223712   0.276   2.012   5.083
 7605SOL     OW23713   2.094   6.671   0.152
 7605SOL    HW123714   2.006   6.673   0.198
 7605SOL    HW223715   2.166   6.649   0.219
 7606SOL     OW23716   6.469   1.326   3.006
 7606SOL    HW123717   6.550   1.278   3.039
 7606SOL    HW223718   6.495   1.415   2.970
 7607SOL     OW23719   1.680   6.222   5.863
 7607SOL    HW123720   1.777   6.202   5.850
 7607SOL    HW223721   1.647   6.277   5.786
 7608SOL     OW23722   5.700   2.206   6.176
 7608SOL    HW123723   5.720   2.159   6.262
 7608SOL    HW223724   5.783   2.252   6.144
 7609SOL     OW23725   1.680   1.828   5.017
 7609SOL    HW123726   1.765   1.864   4.979
 7609SOL    HW223727   1.696   1.796   5.110
 7610SOL     OW23728   3.987   5.219   4.498
 7610SOL    HW123729   3.909   5.248   4.553
 7610SOL    HW223730   3.990   5.119   4.493
 7611SOL     OW23731   4.875   3.332   0.147
 7611SOL    HW123732   4.931   3.410   0.176
 7611SOL    HW223733   4.873   3.263   0.220
 7612SOL     OW23734   3.893   1.914   3.232
 7612SOL    HW123735   3.850   2.003   3.247
 7612SOL    HW223736   3.840   1.843   3.278
 7613SOL     OW23737   0.614   1.758   1.097
 7613SOL    HW123738   0.646   1.666   1.121
 7613SOL    HW223739   0.624   1.818   1.176
 7614SOL     OW23740   4.602   4.042   0.205
 7614SOL    HW123741   4.694   4.059   0.240
 7614SOL    HW223742   4.539   4.031   0.282
 7615SOL     OW23743   5.799   3.384   5.102
 7615SOL    HW123744   5.715   3.331   5.090
 7615SOL    HW223745   5.790   3.441   5.183
 7616SOL     OW23746   6.054   0.160   3.354
 7616SOL    HW123747   6.053   0.178   3.255
 7616SOL    HW223748   6.071   0.245   3.403
 7617SOL     OW23749   6.441   4.090   3.576
 7617SOL    HW123750   6.429   4.104   3.674
 7617SOL    HW223751   6.362   4.039   3.540
 7618SOL     OW23752   2.489   2.635   0.399
 7618SOL    HW123753   2.468   2.577   0.320
 7618SOL    HW223754   2.483   2.580   0.482
 7619SOL     OW23755   1.146   1.680   4.454
 7619SOL    HW123756   1.186   1.659   4.544
 7619SOL    HW223757   1.219   1.683   4.385
 7620SOL     OW23758   4.097   4.490   0.931
 7620SOL    HW123759   4.147   4.557   0.986
 7620SOL    HW223760   4.004   4.480   0.965
 7621SOL     OW23761   6.064   4.283   0.047
 7621SOL    HW123762   6.015   4.234   6.992
 7621SOL    HW223763   6.014   4.273   0.134
 7622SOL     OW23764   3.204   3.808   1.377
 7622SOL    HW123765   3.277   3.877   1.376
 7622SOL    HW223766   3.132   3.837   1.440
 7623SOL     OW23767   5.119   4.404   1.385
 7623SOL    HW123768   5.101   4.490   1.432
 7623SOL    HW223769   5.048   4.337   1.409
 7624SOL     OW23770   1.307   3.226   2.231
 7624SOL    HW123771   1.347   3.285   2.161
 7624SOL    HW223772   1.273   3.142   2.188
 7625SOL     OW23773   5.538   0.960   1.599
 7625SOL    HW123774   5.454   1.000   1.561
 7625SOL    HW223775   5.556   0.872   1.554
 7626SOL     OW23776   4.473   0.732   6.069
 7626SOL    HW123777   4.503   0.770   5.981
 7626SOL    HW223778   4.537   0.761   6.141
 7627SOL     OW23779   4.045   2.820   6.914
 7627SOL    HW123780   4.130   2.866   6.891
 7627SOL    HW223781   4.007   2.778   6.832
 7628SOL     OW23782   3.374   2.822   0.313
 7628SOL    HW123783   3.394   2.920   0.325
 7628SOL    HW223784   3.363   2.803   0.215
 7629SOL     OW23785   6.301   2.493   3.170
 7629SOL    HW123786   6.213   2.517   3.211
 7629SOL    HW223787   6.302   2.522   3.074
 7630SOL     OW23788   0.950   6.477   4.995
 7630SOL    HW123789   0.998   6.440   4.915
 7630SOL    HW223790   1.018   6.506   5.063
 7631SOL     OW23791   0.931   0.601   5.621
 7631SOL    HW123792   0.854   0.566   5.568
 7631SOL    HW223793   1.004   0.533   5.623
 7632SOL     OW23794   4.360   5.778   0.197
 7632SOL    HW123795   4.291   5.799   0.266
 7632SOL    HW223796   4.348   5.838   0.118
 7633SOL     OW23797   6.901   1.089   1.261
 7633SOL    HW123798   6.930   1.126   1.173
 7633SOL    HW223799   6.932   0.994   1.269
 7634SOL     OW23800   6.671   2.879   6.948
 7634SOL    HW123801   6.759   2.890   6.994
 7634SOL    HW223802   6.665   2.788   6.908
 7635SOL     OW23803   2.416   3.635   5.728
 7635SOL    HW123804   2.357   3.714   5.743
 7635SOL    HW223805   2.459   3.642   5.638
 7636SOL     OW23806   6.897   3.906   4.271
 7636SOL    HW123807   6.920   4.002   4.285
 7636SOL    HW223808   6.807   3.898   4.230
 7637SOL     OW23809   1.110   5.300   5.039
 7637SOL    HW123810   1.102   5.237   4.962
 7637SOL    HW223811   1.203   5.338   5.042
 7638SOL     OW23812   0.360   6.216   1.346
 7638SOL    HW123813   0.335   6.219   1.442
 7638SOL    HW223814   0.447   6.262   1.333
 7639SOL     OW23815   1.370   0.937   0.008
 7639SOL    HW123816   1.417   0.945   0.097
 7639SOL    HW223817   1.423   0.878   6.965
 7640SOL     OW23818   3.323   1.020   0.828
 7640SOL    HW123819   3.297   0.924   0.836
 7640SOL    HW223820   3.386   1.044   0.902
 7641SOL     OW23821   0.528   4.056   3.765
 7641SOL    HW123822   0.543   4.069   3.667
 7641SOL    HW223823   0.542   3.959   3.787
 7642SOL     OW23824   5.763   1.105   2.956
 7642SOL    HW123825   5.753   1.180   2.891
 7642SOL    HW223826   5.779   1.020   2.906
 7643SOL     OW23827   5.305   3.511   3.588
 7643SOL    HW123828   5.314   3.481   3.683
 7643SOL    HW223829   5.341   3.440   3.527
 7644SOL     OW23830   5.580   3.670   1.426
 7644SOL    HW123831   5.516   3.691   1.500
 7644SOL    HW223832   5.672   3.699   1.452
 7645SOL     OW23833   3.408   4.788   6.464
 7645SOL    HW123834   3.335   4.833   6.516
 7645SOL    HW223835   3.399   4.689   6.474
 7646SOL     OW23836   6.043   1.402   0.406
 7646SOL    HW123837   6.012   1.497   0.403
 7646SOL    HW223838   5.970   1.344   0.442
 7647SOL     OW23839   0.051   2.088   4.388
 7647SOL    HW123840   0.013   2.071   4.479
 7647SOL    HW223841   6.993   2.112   4.326
 7648SOL     OW23842   2.540   2.014   1.879
 7648SOL    HW123843   2.617   2.076   1.887
 7648SOL    HW223844   2.549   1.941   1.948
 7649SOL     OW23845   3.988   1.214   6.194
 7649SOL    HW123846   4.008   1.116   6.192
 7649SOL    HW223847   3.890   1.227   6.210
 7650SOL     OW23848   4.229   2.537   0.742
 7650SOL    HW123849   4.144   2.550   0.692
 7650SOL    HW223850   4.210   2.497   0.831
 7651SOL     OW23851   3.033   4.959   6.113
 7651SOL    HW123852   3.123   4.925   6.086
 7651SOL    HW223853   3.044   5.034   6.178
 7652SOL     OW23854   1.350   0.963   4.083
 7652SOL    HW123855   1.283   0.904   4.128
 7652SOL    HW223856   1.371   0.926   3.992
 7653SOL     OW23857   1.658   1.192   6.329
 7653SOL    HW123858   1.607   1.250   6.266
 7653SOL    HW223859   1.756   1.202   6.312
 7654SOL     OW23860   5.672   1.862   6.246
 7654SOL    HW123861   5.648   1.862   6.149
 7654SOL    HW223862   5.768   1.833   6.257
 7655SOL     OW23863   3.353   1.487   3.076
 7655SOL    HW123864   3.305   1.516   3.159
 7655SOL    HW223865   3.300   1.515   2.996
 7656SOL     OW23866   6.809   3.569   6.452
 7656SOL    HW123867   6.847   3.523   6.371
 7656SOL    HW223868   6.828   3.667   6.446
 7657SOL     OW23869   1.205   4.108   4.573
 7657SOL    HW123870   1.207   4.182   4.505
 7657SOL    HW223871   1.136   4.128   4.642
 7658SOL     OW23872   2.386   0.651   1.157
 7658SOL    HW123873   2.456   0.656   1.086
 7658SOL    HW223874   2.347   0.742   1.171
 7659SOL     OW23875   4.485   4.036   5.964
 7659SOL    HW123876   4.573   4.076   5.938
 7659SOL    HW223877   4.458   3.969   5.895
 7660SOL     OW23878   6.753   5.269   5.327
 7660SOL    HW123879   6.734   5.216   5.244
 7660SOL    HW223880   6.731   5.214   5.407
 7661SOL     OW23881   3.892   1.423   5.274
 7661SOL    HW123882   3.988   1.397   5.286
 7661SOL    HW223883   3.853   1.374   5.196
 7662SOL     OW23884   6.198   6.613   1.449
 7662SOL    HW123885   6.179   6.685   1.383
 7662SOL    HW223886   6.229   6.654   1.535
 7663SOL     OW23887   0.207   5.423   5.319
 7663SOL    HW123888   0.270   5.376   5.258
 7663SOL    HW223889   0.115   5.386   5.307
 7664SOL     OW23890   3.829   1.989   1.917
 7664SOL    HW123891   3.776   2.069   1.948
 7664SOL    HW223892   3.925   2.014   1.909
 7665SOL     OW23893   3.632   0.262   5.906
 7665SOL    HW123894   3.563   0.249   5.834
 7665SOL    HW223895   3.600   0.332   5.971
 7666SOL     OW23896   5.318   4.275   3.302
 7666SOL    HW123897   5.270   4.359   3.328
 7666SOL    HW223898   5.355   4.286   3.210
 7667SOL     OW23899   3.995   5.893   2.683
 7667SOL    HW123900   3.920   5.955   2.658
 7667SOL    HW223901   3.965   5.798   2.674
 7668SOL     OW23902   2.355   5.744   0.633
 7668SOL    HW123903   2.263   5.778   0.613
 7668SOL    HW223904   2.380   5.768   0.727
 7669SOL     OW23905   2.326   1.364   6.361
 7669SOL    HW123906   2.396   1.409   6.306
 7669SOL    HW223907   2.348   1.267   6.369
 7670SOL     OW23908   0.515   0.018   1.045
 7670SOL    HW123909   0.445   0.025   0.974
 7670SOL    HW223910   0.593   6.983   1.010
 7671SOL     OW23911   3.507   0.301   0.910
 7671SOL    HW123912   3.449   0.299   0.992
 7671SOL    HW223913   3.522   0.396   0.883
 7672SOL     OW23914   4.989   4.478   2.393
 7672SOL    HW123915   4.918   4.407   2.394
 7672SOL    HW223916   4.976   4.538   2.472
 7673SOL     OW23917   1.602   6.310   4.378
 7673SOL    HW123918   1.684   6.365   4.395
 7673SOL    HW223919   1.565   6.278   4.465
 7674SOL     OW23920   4.973   5.843   4.577
 7674SOL    HW123921   5.067   5.813   4.558
 7674SOL    HW223922   4.909   5.780   4.534
 7675SOL     OW23923   4.798   6.271   3.311
 7675SOL    HW123924   4.873   6.335   3.294
 7675SOL    HW223925   4.755   6.246   3.224
 7676SOL     OW23926   3.759   2.860   5.419
 7676SOL    HW123927   3.727   2.951   5.443
 7676SOL    HW223928   3.823   2.866   5.342
 7677SOL     OW23929   6.286   4.709   0.419
 7677SOL    HW123930   6.375   4.674   0.391
 7677SOL    HW223931   6.214   4.666   0.364
 7678SOL     OW23932   1.980   1.221   5.177
 7678SOL    HW123933   1.902   1.196   5.119
 7678SOL    HW223934   1.947   1.242   5.269
 7679SOL     OW23935   3.573   5.929   5.211
 7679SOL    HW123936   3.605   5.857   5.273
 7679SOL    HW223937   3.650   5.983   5.180
 7680SOL     OW23938   1.866   6.940   4.638
 7680SOL    HW123939   1.899   6.910   4.548
 7680SOL    HW223940   1.919   6.894   4.709
 7681SOL     OW23941   2.786   3.350   6.312
 7681SOL    HW123942   2.749   3.259   6.290
 7681SOL    HW223943   2.821   3.393   6.229
 7682SOL     OW23944   2.949   0.766   2.837
 7682SOL    HW123945   2.973   0.675   2.802
 7682SOL    HW223946   3.017   0.833   2.805
 7683SOL     OW23947   0.468   4.981   4.784
 7683SOL    HW123948   0.473   5.016   4.690
 7683SOL    HW223949   0.455   4.882   4.781
 7684SOL     OW23950   4.702   3.422   1.105
 7684SOL    HW123951   4.761   3.502   1.095
 7684SOL    HW223952   4.740   3.345   1.054
 7685SOL     OW23953   2.155   0.461   0.442
 7685SOL    HW123954   2.071   0.504   0.411
 7685SOL    HW223955   2.155   0.365   0.415
 7686SOL     OW23956   6.185   0.010   5.058
 7686SOL    HW123957   6.204   6.930   5.078
 7686SOL    HW223958   6.156   0.019   4.963
 7687SOL     OW23959   5.423   4.242   6.118
 7687SOL    HW123960   5.483   4.233   6.038
 7687SOL    HW223961   5.336   4.195   6.100
 7688SOL     OW23962   0.152   4.053   6.271
 7688SOL    HW123963   0.179   3.957   6.269
 7688SOL    HW223964   0.055   4.059   6.296
 7689SOL     OW23965   4.342   0.958   1.860
 7689SOL    HW123966   4.410   0.910   1.914
 7689SOL    HW223967   4.373   1.051   1.841
 7690SOL     OW23968   5.576   5.768   1.704
 7690SOL    HW123969   5.564   5.840   1.772
 7690SOL    HW223970   5.512   5.782   1.629
 7691SOL     OW23971   5.081   3.694   3.499
 7691SOL    HW123972   5.181   3.685   3.496
 7691SOL    HW223973   5.043   3.672   3.410
 7692SOL     OW23974   3.129   0.257   2.674
 7692SOL    HW123975   3.162   0.164   2.661
 7692SOL    HW223976   3.045   0.255   2.728
 7693SOL     OW23977   2.394   0.838   1.615
 7693SOL    HW123978   2.372   0.908   1.682
 7693SOL    HW223979   2.406   0.881   1.525
 7694SOL     OW23980   4.977   1.368   5.316
 7694SOL    HW123981   5.013   1.413   5.234
 7694SOL    HW223982   4.947   1.437   5.382
 7695SOL     OW23983   4.783   0.013   3.842
 7695SOL    HW123984   4.700   6.985   3.810
 7695SOL    HW223985   4.805   6.997   3.934
 7696SOL     OW23986   2.010   2.920   5.623
 7696SOL    HW123987   1.989   2.913   5.720
 7696SOL    HW223988   2.039   2.831   5.589
 7697SOL     OW23989   4.998   0.140   3.175
 7697SOL    HW123990   5.005   0.177   3.082
 7697SOL    HW223991   4.904   0.108   3.191
 7698SOL     OW23992   6.182   3.123   0.892
 7698SOL    HW123993   6.239   3.041   0.894
 7698SOL    HW223994   6.108   3.114   0.959
 7699SOL     OW23995   4.953   5.487   5.784
 7699SOL    HW123996   4.855   5.484   5.764
 7699SOL    HW223997   5.002   5.430   5.719
 7700SOL     OW23998   5.170   6.357   2.241
 7700SOL    HW123999   5.138   6.304   2.319
 7700SOL    HW224000   5.214   6.296   2.174
 7701SOL     OW24001   1.291   2.576   5.965
 7701SOL    HW124002   1.260   2.503   5.904
 7701SOL    HW224003   1.364   2.628   5.921
 7702SOL     OW24004   4.636   6.907   4.493
 7702SOL    HW124005   4.654   7.005   4.490
 7702SOL    HW224006   4.622   6.874   4.399
 7703SOL     OW24007   6.507   0.209   5.351
 7703SOL    HW124008   6.443   0.228   5.276
 7703SOL    HW224009   6.550   0.120   5.337
 7704SOL     OW24010   1.052   1.770   4.859
 7704SOL    HW124011   1.100   1.742   4.943
 7704SOL    HW224012   0.968   1.819   4.884
 7705SOL     OW24013   1.413   5.111   6.788
 7705SOL    HW124014   1.382   5.199   6.754
 7705SOL    HW224015   1.400   5.107   6.887
 7706SOL     OW24016   3.504   2.937   2.458
 7706SOL    HW124017   3.410   2.951   2.427
 7706SOL    HW224018   3.524   2.840   2.464
 7707SOL     OW24019   6.917   3.902   6.811
 7707SOL    HW124020   7.005   3.919   6.765
 7707SOL    HW224021   6.854   3.858   6.747
 7708SOL     OW24022   2.316   0.493   4.548
 7708SOL    HW124023   2.412   0.521   4.536
 7708SOL    HW224024   2.266   0.512   4.464
 7709SOL     OW24025   0.205   4.801   1.541
 7709SOL    HW124026   0.176   4.707   1.559
 7709SOL    HW224027   0.247   4.807   1.451
 7710SOL     OW24028   0.096   3.256   1.263
 7710SOL    HW124029   0.140   3.167   1.247
 7710SOL    HW224030   0.154   3.329   1.226
 7711SOL     OW24031   6.978   4.921   4.970
 7711SOL    HW124032   6.991   4.987   5.043
 7711SOL    HW224033   7.011   4.960   4.884
 7712SOL     OW24034   0.498   5.712   5.434
 7712SOL    HW124035   0.476   5.666   5.348
 7712SOL    HW224036   0.436   5.680   5.506
 7713SOL     OW24037   1.432   4.088   0.025
 7713SOL    HW124038   1.446   4.160   6.973
 7713SOL    HW224039   1.394   4.007   6.997
 7714SOL     OW24040   6.637   1.615   4.565
 7714SOL    HW124041   6.688   1.543   4.612
 7714SOL    HW224042   6.641   1.599   4.466
 7715SOL     OW24043   3.769   3.242   5.123
 7715SOL    HW124044   3.738   3.268   5.032
 7715SOL    HW224045   3.760   3.320   5.185
 7716SOL     OW24046   1.071   6.408   6.257
 7716SOL    HW124047   1.066   6.369   6.349
 7716SOL    HW224048   1.048   6.506   6.262
 7717SOL     OW24049   0.303   2.393   6.271
 7717SOL    HW124050   0.385   2.374   6.325
 7717SOL    HW224051   0.233   2.325   6.292
 7718SOL     OW24052   1.067   3.449   3.287
 7718SOL    HW124053   0.984   3.505   3.277
 7718SOL    HW224054   1.041   3.356   3.313
 7719SOL     OW24055   1.816   5.419   4.797
 7719SOL    HW124056   1.800   5.470   4.712
 7719SOL    HW224057   1.914   5.418   4.816
 7720SOL     OW24058   4.620   1.301   6.484
 7720SOL    HW124059   4.592   1.316   6.579
 7720SOL    HW224060   4.683   1.223   6.480
 7721SOL     OW24061   0.152   6.957   2.779
 7721SOL    HW124062   0.148   6.989   2.684
 7721SOL    HW224063   0.059   6.946   2.815
 7722SOL     OW24064   1.075   5.721   3.997
 7722SOL    HW124065   1.082   5.731   3.898
 7722SOL    HW224066   1.135   5.787   4.042
 7723SOL     OW24067   4.563   4.020   6.923
 7723SOL    HW124068   4.626   4.055   6.853
 7723SOL    HW224069   4.607   4.026   7.013
 7724SOL     OW24070   2.167   3.783   1.248
 7724SOL    HW124071   2.132   3.838   1.173
 7724SOL    HW224072   2.128   3.691   1.243
 7725SOL     OW24073   5.324   3.048   3.862
 7725SOL    HW124074   5.278   3.123   3.815
 7725SOL    HW224075   5.276   3.028   3.947
 7726SOL     OW24076   1.356   3.017   5.599
 7726SOL    HW124077   1.446   3.044   5.566
 7726SOL    HW224078   1.311   2.960   5.530
 7727SOL     OW24079   4.234   0.871   2.277
 7727SOL    HW124080   4.176   0.790   2.286
 7727SOL    HW224081   4.231   0.904   2.183
 7728SOL     OW24082   1.931   3.934   4.649
 7728SOL    HW124083   1.895   3.937   4.742
 7728SOL    HW224084   2.006   3.867   4.645
 7729SOL     OW24085   6.734   1.480   3.312
 7729SOL    HW124086   6.798   1.547   3.350
 7729SOL    HW224087   6.705   1.508   3.221
 7730SOL     OW24088   6.410   4.649   5.056
 7730SOL    HW124089   6.497   4.694   5.034
 7730SOL    HW224090   6.356   4.710   5.115
 7731SOL     OW24091   6.835   6.882   6.218
 7731SOL    HW124092   6.900   6.807   6.221
 7731SOL    HW224093   6.742   6.847   6.227
 7732SOL     OW24094   3.233   6.967   6.438
 7732SOL    HW124095   3.280   6.961   6.349
 7732SOL    HW224096   3.195   0.041   6.449
 7733SOL     OW24097   6.282   5.788   1.584
 7733SOL    HW124098   6.208   5.829   1.532
 7733SOL    HW224099   6.303   5.845   1.663
 7734SOL     OW24100   3.449   4.023   4.332
 7734SOL    HW124101   3.359   3.986   4.307
 7734SOL    HW224102   3.439   4.083   4.411
 7735SOL     OW24103   0.233   6.946   1.081
 7735SOL    HW124104   0.179   0.013   1.085
 7735SOL    HW224105   0.192   6.884   1.014
 7736SOL     OW24106   1.533   3.213   6.494
 7736SOL    HW124107   1.476   3.191   6.573
 7736SOL    HW224108   1.476   3.225   6.413
 7737SOL     OW24109   4.353   4.386   0.297
 7737SOL    HW124110   4.429   4.367   0.235
 7737SOL    HW224111   4.269   4.399   0.244
 7738SOL     OW24112   2.250   0.398   5.516
 7738SOL    HW124113   2.235   0.492   5.485
 7738SOL    HW224114   2.345   0.372   5.498
 7739SOL     OW24115   1.869   1.676   1.004
 7739SOL    HW124116   1.785   1.725   0.983
 7739SOL    HW224117   1.914   1.648   0.920
 7740SOL     OW24118   1.735   0.243   4.968
 7740SOL    HW124119   1.828   0.270   4.995
 7740SOL    HW224120   1.702   0.305   4.896
 7741SOL     OW24121   1.255   4.556   6.094
 7741SOL    HW124122   1.300   4.548   6.005
 7741SOL    HW224123   1.226   4.465   6.125
 7742SOL     OW24124   4.634   1.726   4.441
 7742SOL    HW124125   4.586   1.676   4.369
 7742SOL    HW224126   4.662   1.815   4.405
 7743SOL     OW24127   4.493   1.823   5.746
 7743SOL    HW124128   4.400   1.852   5.768
 7743SOL    HW224129   4.521   1.861   5.658
 7744SOL     OW24130   1.325   6.943   4.667
 7744SOL    HW124131   1.347   6.986   4.755
 7744SOL    HW224132   1.397   6.879   4.643
 7745SOL     OW24133   2.858   6.854   0.919
 7745SOL    HW124134   2.829   6.764   0.953
 7745SOL    HW224135   2.805   6.877   0.838
 7746SOL     OW24136   0.840   5.968   0.812
 7746SOL    HW124137   0.908   6.006   0.749
 7746SOL    HW224138   0.887   5.925   0.889
 7747SOL     OW24139   0.685   6.153   0.987
 7747SOL    HW124140   0.711   6.127   1.080
 7747SOL    HW224141   0.732   6.095   0.921
 7748SOL     OW24142   4.812   2.239   6.231
 7748SOL    HW124143   4.829   2.160   6.172
 7748SOL    HW224144   4.817   2.323   6.176
 7749SOL     OW24145   3.444   3.704   4.061
 7749SOL    HW124146   3.373   3.700   4.132
 7749SOL    HW224147   3.415   3.651   3.982
 7750SOL     OW24148   5.471   4.062   5.636
 7750SOL    HW124149   5.434   4.144   5.680
 7750SOL    HW224150   5.551   4.030   5.686
 7751SOL     OW24151   0.144   1.177   4.689
 7751SOL    HW124152   0.105   1.162   4.780
 7751SOL    HW224153   0.105   1.111   4.624
 7752SOL     OW24154   6.425   5.780   5.453
 7752SOL    HW124155   6.515   5.763   5.495
 7752SOL    HW224156   6.430   5.760   5.355
 7753SOL     OW24157   2.972   1.394   4.840
 7753SOL    HW124158   3.054   1.449   4.856
 7753SOL    HW224159   2.896   1.431   4.895
 7754SOL     OW24160   6.398   0.806   1.785
 7754SOL    HW124161   6.389   0.718   1.831
 7754SOL    HW224162   6.463   0.863   1.834
 7755SOL     OW24163   1.060   5.698   5.239
 7755SOL    HW124164   0.973   5.649   5.244
 7755SOL    HW224165   1.063   5.766   5.313
 7756SOL     OW24166   3.696   5.359   2.813
 7756SOL    HW124167   3.793   5.356   2.788
 7756SOL    HW224168   3.674   5.448   2.852
 7757SOL     OW24169   4.379   6.318   6.044
 7757SOL    HW124170   4.391   6.286   5.950
 7757SOL    HW224171   4.288   6.356   6.056
 7758SOL     OW24172   2.889   2.240   5.803
 7758SOL    HW124173   2.882   2.336   5.777
 7758SOL    HW224174   2.803   2.210   5.844
 7759SOL     OW24175   2.111   0.765   5.200
 7759SOL    HW124176   2.161   0.851   5.184
 7759SOL    HW224177   2.120   0.706   5.119
 7760SOL     OW24178   4.843   1.826   3.332
 7760SOL    HW124179   4.831   1.728   3.346
 7760SOL    HW224180   4.919   1.841   3.269
 7761SOL     OW24181   3.639   6.993   6.702
 7761SOL    HW124182   3.694   6.952   6.630
 7761SOL    HW224183   3.667   6.956   6.791
 7762SOL     OW24184   2.422   2.071   1.012
 7762SOL    HW124185   2.387   2.121   0.933
 7762SOL    HW224186   2.387   1.977   1.011
 7763SOL     OW24187   2.255   1.749   0.920
 7763SOL    HW124188   2.223   1.824   0.978
 7763SOL    HW224189   2.287   1.674   0.978
 7764SOL     OW24190   3.732   2.881   3.004
 7764SOL    HW124191   3.739   2.852   2.909
 7764SOL    HW224192   3.636   2.883   3.031
 7765SOL     OW24193   6.955   1.865   2.493
 7765SOL    HW124194   6.936   1.896   2.400
 7765SOL    HW224195   6.906   1.779   2.509
 7766SOL     OW24196   6.886   3.362   6.819
 7766SOL    HW124197   6.830   3.314   6.751
 7766SOL    HW224198   6.849   3.343   6.910
 7767SOL     OW24199   5.595   4.362   5.237
 7767SOL    HW124200   5.691   4.353   5.262
 7767SOL    HW224201   5.545   4.282   5.270
 7768SOL     OW24202   3.885   5.287   2.147
 7768SOL    HW124203   3.887   5.238   2.060
 7768SOL    HW224204   3.805   5.257   2.200
 7769SOL     OW24205   6.236   2.191   1.884
 7769SOL    HW124206   6.254   2.092   1.878
 7769SOL    HW224207   6.316   2.242   1.854
 7770SOL     OW24208   3.823   5.616   1.549
 7770SOL    HW124209   3.808   5.608   1.647
 7770SOL    HW224210   3.906   5.670   1.532
 7771SOL     OW24211   2.153   1.668   5.301
 7771SOL    HW124212   2.119   1.642   5.391
 7771SOL    HW224213   2.248   1.697   5.308
 7772SOL     OW24214   5.327   1.242   4.952
 7772SOL    HW124215   5.419   1.205   4.944
 7772SOL    HW224216   5.325   1.336   4.916
 7773SOL     OW24217   3.928   4.575   5.267
 7773SOL    HW124218   3.849   4.634   5.283
 7773SOL    HW224219   3.896   4.484   5.238
 7774SOL     OW24220   4.506   1.436   6.267
 7774SOL    HW124221   4.587   1.458   6.212
 7774SOL    HW224222   4.534   1.392   6.352
 7775SOL     OW24223   3.193   0.055   2.011
 7775SOL    HW124224   3.175   0.136   1.954
 7775SOL    HW224225   3.291   0.047   2.028
 7776SOL     OW24226   3.819   3.693   0.290
 7776SOL    HW124227   3.791   3.624   0.357
 7776SOL    HW224228   3.747   3.701   0.220
 7777SOL     OW24229   1.853   0.605   6.883
 7777SOL    HW124230   1.868   0.598   6.784
 7777SOL    HW224231   1.793   0.530   6.913
 7778SOL     OW24232   5.811   0.888   1.006
 7778SOL    HW124233   5.891   0.831   1.021
 7778SOL    HW224234   5.834   0.984   1.022
 7779SOL     OW24235   3.617   3.390   6.829
 7779SOL    HW124236   3.638   3.403   6.732
 7779SOL    HW224237   3.526   3.351   6.839
 7780SOL     OW24238   1.396   0.356   4.335
 7780SOL    HW124239   1.428   0.345   4.241
 7780SOL    HW224240   1.467   0.326   4.399
 7781SOL     OW24241   1.415   5.038   4.894
 7781SOL    HW124242   1.392   5.063   4.988
 7781SOL    HW224243   1.505   5.075   4.870
 7782SOL     OW24244   3.472   4.535   6.557
 7782SOL    HW124245   3.472   4.436   6.567
 7782SOL    HW224246   3.448   4.578   6.645
 7783SOL     OW24247   3.046   5.483   6.176
 7783SOL    HW124248   2.973   5.417   6.159
 7783SOL    HW224249   3.133   5.444   6.147
 7784SOL     OW24250   6.913   2.838   0.029
 7784SOL    HW124251   6.969   2.875   0.103
 7784SOL    HW224252   6.934   2.742   0.015
 7785SOL     OW24253   2.525   6.189   4.223
 7785SOL    HW124254   2.545   6.113   4.286
 7785SOL    HW224255   2.609   6.217   4.177
 7786SOL     OW24256   3.176   4.012   4.451
 7786SOL    HW124257   3.237   4.075   4.500
 7786SOL    HW224258   3.096   3.992   4.508
 7787SOL     OW24259   2.731   2.283   5.446
 7787SOL    HW124260   2.640   2.320   5.460
 7787SOL    HW224261   2.782   2.341   5.382
 7788SOL     OW24262   0.446   1.597   0.323
 7788SOL    HW124263   0.491   1.512   0.295
 7788SOL    HW224264   0.416   1.589   0.418
 7789SOL     OW24265   2.027   6.805   1.354
 7789SOL    HW124266   2.019   6.754   1.440
 7789SOL    HW224267   2.068   6.895   1.372
 7790SOL     OW24268   6.270   3.856   2.704
 7790SOL    HW124269   6.292   3.847   2.802
 7790SOL    HW224270   6.351   3.889   2.655
 7791SOL     OW24271   1.453   4.853   4.714
 7791SOL    HW124272   1.553   4.856   4.712
 7791SOL    HW224273   1.420   4.901   4.795
 7792SOL     OW24274   2.738   5.175   5.697
 7792SOL    HW124275   2.794   5.245   5.650
 7792SOL    HW224276   2.665   5.145   5.635
 7793SOL     OW24277   0.605   0.652   6.642
 7793SOL    HW124278   0.690   0.650   6.695
 7793SOL    HW224279   0.528   0.671   6.703
 7794SOL     OW24280   5.296   5.340   3.712
 7794SOL    HW124281   5.199   5.318   3.707
 7794SOL    HW224282   5.327   5.376   3.624
 7795SOL     OW24283   2.036   4.987   5.246
 7795SOL    HW124284   2.122   4.944   5.220
 7795SOL    HW224285   2.041   5.085   5.230
 7796SOL     OW24286   4.129   3.320   3.582
 7796SOL    HW124287   4.209   3.284   3.535
 7796SOL    HW224288   4.120   3.276   3.671
 7797SOL     OW24289   1.244   0.159   2.420
 7797SOL    HW124290   1.219   0.245   2.464
 7797SOL    HW224291   1.171   0.092   2.435
 7798SOL     OW24292   4.204   5.672   6.936
 7798SOL    HW124293   4.116   5.673   6.983
 7798SOL    HW224294   4.206   5.596   6.871
 7799SOL     OW24295   6.613   5.008   1.110
 7799SOL    HW124296   6.567   5.010   1.199
 7799SOL    HW224297   6.707   5.040   1.120
 7800SOL     OW24298   0.776   5.952   2.127
 7800SOL    HW124299   0.779   5.922   2.223
 7800SOL    HW224300   0.757   5.874   2.068
 7801SOL     OW24301   3.914   2.002   6.572
 7801SOL    HW124302   3.977   1.925   6.568
 7801SOL    HW224303   3.905   2.042   6.480
 7802SOL     OW24304   6.020   1.919   1.350
 7802SOL    HW124305   5.959   1.842   1.368
 7802SOL    HW224306   5.982   2.002   1.389
 7803SOL     OW24307   3.747   4.195   5.428
 7803SOL    HW124308   3.761   4.104   5.468
 7803SOL    HW224309   3.701   4.253   5.495
 7804SOL     OW24310   5.001   1.506   6.299
 7804SOL    HW124311   4.933   1.467   6.237
 7804SOL    HW224312   5.006   1.605   6.284
 7805SOL     OW24313   5.024   3.819   2.270
 7805SOL    HW124314   5.123   3.828   2.254
 7805SOL    HW224315   5.008   3.737   2.325
 7806SOL     OW24316   4.729   2.848   6.896
 7806SOL    HW124317   4.705   2.798   6.979
 7806SOL    HW224318   4.810   2.905   6.913
 7807SOL     OW24319   0.151   3.933   6.656
 7807SOL    HW124320   0.183   3.847   6.698
 7807SOL    HW224321   0.219   4.004   6.671
 7808SOL     OW24322   0.715   1.511   4.870
 7808SOL    HW124323   0.774   1.556   4.936
 7808SOL    HW224324   0.671   1.579   4.812
 7809SOL     OW24325   1.748   5.369   5.359
 7809SOL    HW124326   1.757   5.465   5.386
 7809SOL    HW224327   1.818   5.315   5.404
 7810SOL     OW24328   2.822   1.353   7.006
 7810SOL    HW124329   2.821   1.253   7.000
 7810SOL    HW224330   2.894   1.389   6.946
 7811SOL     OW24331   6.985   4.162   4.315
 7811SOL    HW124332   0.007   4.204   4.397
 7811SOL    HW224333   7.008   4.218   4.235
 7812SOL     OW24334   1.338   1.355   3.581
 7812SOL    HW124335   1.359   1.272   3.633
 7812SOL    HW224336   1.295   1.422   3.642
 7813SOL     OW24337   6.325   2.985   0.546
 7813SOL    HW124338   6.384   3.036   0.609
 7813SOL    HW224339   6.234   3.025   0.546
 7814SOL     OW24340   1.026   3.847   3.621
 7814SOL    HW124341   0.929   3.871   3.628
 7814SOL    HW224342   1.045   3.768   3.679
 7815SOL     OW24343   6.426   1.728   6.033
 7815SOL    HW124344   6.487   1.757   6.107
 7815SOL    HW224345   6.332   1.750   6.057
 7816SOL     OW24346   1.307   3.957   5.086
 7816SOL    HW124347   1.334   3.861   5.073
 7816SOL    HW224348   1.260   3.990   5.004
 7817SOL     OW24349   5.287   3.538   4.976
 7817SOL    HW124350   5.218   3.605   4.948
 7817SOL    HW224351   5.373   3.585   4.995
 7818SOL     OW24352   5.287   5.209   2.296
 7818SOL    HW124353   5.269   5.178   2.202
 7818SOL    HW224354   5.222   5.167   2.358
 7819SOL     OW24355   0.123   1.201   1.231
 7819SOL    HW124356   0.130   1.144   1.150
 7819SOL    HW224357   0.061   1.159   1.297
 7820SOL     OW24358   1.909   0.382   6.262
 7820SOL    HW124359   1.832   0.329   6.297
 7820SOL    HW224360   1.878   0.444   6.191
 7821SOL     OW24361   2.894   5.297   1.313
 7821SOL    HW124362   2.868   5.201   1.318
 7821SOL    HW224363   2.986   5.304   1.273
 7822SOL     OW24364   1.427   5.799   5.346
 7822SOL    HW124365   1.450   5.866   5.275
 7822SOL    HW224366   1.383   5.720   5.304
 7823SOL     OW24367   1.610   4.386   4.652
 7823SOL    HW124368   1.539   4.359   4.717
 7823SOL    HW224369   1.634   4.482   4.667
 7824SOL     OW24370   0.263   3.170   5.491
 7824SOL    HW124371   0.261   3.142   5.587
 7824SOL    HW224372   0.203   3.248   5.478
 7825SOL     OW24373   3.027   1.478   6.841
 7825SOL    HW124374   3.033   1.395   6.785
 7825SOL    HW224375   3.112   1.529   6.833
 7826SOL     OW24376   0.697   3.075   6.017
 7826SOL    HW124377   0.620   3.044   6.073
 7826SOL    HW224378   0.694   3.175   6.010
 7827SOL     OW24379   6.378   5.439   5.176
 7827SOL    HW124380   6.432   5.498   5.236
 7827SOL    HW224381   6.419   5.440   5.084
 7828SOL     OW24382   0.730   5.072   0.136
 7828SOL    HW124383   0.763   4.982   0.107
 7828SOL    HW224384   0.802   5.140   0.124
 7829SOL     OW24385   3.840   3.230   0.940
 7829SOL    HW124386   3.798   3.273   1.020
 7829SOL    HW224387   3.925   3.277   0.917
 7830SOL     OW24388   2.745   5.366   3.700
 7830SOL    HW124389   2.773   5.430   3.628
 7830SOL    HW224390   2.775   5.274   3.676
 7831SOL     OW24391   1.599   0.351   6.765
 7831SOL    HW124392   1.537   0.304   6.702
 7831SOL    HW224393   1.693   0.323   6.748
 7832SOL     OW24394   5.998   0.938   4.594
 7832SOL    HW124395   5.904   0.940   4.627
 7832SOL    HW224396   6.025   1.029   4.565
 7833SOL     OW24397   1.765   0.287   3.206
 7833SOL    HW124398   1.806   0.319   3.292
 7833SOL    HW224399   1.688   0.345   3.182
 7834SOL     OW24400   6.416   3.733   5.235
 7834SOL    HW124401   6.422   3.647   5.285
 7834SOL    HW224402   6.338   3.729   5.172
 7835SOL     OW24403   4.231   2.368   5.351
 7835SOL    HW124404   4.195   2.452   5.310
 7835SOL    HW224405   4.243   2.381   5.449
 7836SOL     OW24406   3.335   3.440   3.992
 7836SOL    HW124407   3.404   3.394   3.935
 7836SOL    HW224408   3.305   3.524   3.947
 7837SOL     OW24409   6.895   5.827   0.523
 7837SOL    HW124410   6.885   5.926   0.534
 7837SOL    HW224411   6.819   5.792   0.468
 7838SOL     OW24412   4.578   5.717   2.282
 7838SOL    HW124413   4.553   5.811   2.258
 7838SOL    HW224414   4.500   5.657   2.268
 7839SOL     OW24415   5.970   2.801   4.256
 7839SOL    HW124416   6.024   2.717   4.253
 7839SOL    HW224417   5.873   2.779   4.261
 7840SOL     OW24418   1.842   3.122   4.284
 7840SOL    HW124419   1.883   3.053   4.343
 7840SOL    HW224420   1.905   3.199   4.272
 7841SOL     OW24421   4.180   1.822   6.320
 7841SOL    HW124422   4.111   1.891   6.299
 7841SOL    HW224423   4.247   1.860   6.384
 7842SOL     OW24424   1.403   0.673   1.860
 7842SOL    HW124425   1.352   0.697   1.943
 7842SOL    HW224426   1.355   0.708   1.780
 7843SOL     OW24427   0.077   6.013   3.417
 7843SOL    HW124428   0.027   6.096   3.395
 7843SOL    HW224429   0.094   6.009   3.515
 7844SOL     OW24430   3.753   1.310   2.439
 7844SOL    HW124431   3.673   1.366   2.459
 7844SOL    HW224432   3.827   1.369   2.406
 7845SOL     OW24433   6.863   3.176   1.108
 7845SOL    HW124434   6.955   3.166   1.146
 7845SOL    HW224435   6.820   3.087   1.100
 7846SOL     OW24436   0.977   1.667   0.715
 7846SOL    HW124437   1.029   1.729   0.655
 7846SOL    HW224438   1.001   1.685   0.810
 7847SOL     OW24439   5.132   4.033   5.697
 7847SOL    HW124440   5.102   4.010   5.790
 7847SOL    HW224441   5.231   4.049   5.698
 7848SOL     OW24442   3.639   4.330   1.232
 7848SOL    HW124443   3.575   4.311   1.306
 7848SOL    HW224444   3.636   4.254   1.166
 7849SOL     OW24445   4.453   4.662   6.689
 7849SOL    HW124446   4.537   4.679   6.740
 7849SOL    HW224447   4.424   4.746   6.642
 7850SOL     OW24448   6.805   1.434   3.974
 7850SOL    HW124449   6.722   1.465   3.927
 7850SOL    HW224450   6.799   1.458   4.071
 7851SOL     OW24451   6.883   5.054   1.194
 7851SOL    HW124452   6.910   5.132   1.251
 7851SOL    HW224453   6.876   4.973   1.252
 7852SOL     OW24454   1.044   3.235   6.490
 7852SOL    HW124455   1.121   3.259   6.548
 7852SOL    HW224456   1.071   3.163   6.427
 7853SOL     OW24457   4.075   2.956   1.761
 7853SOL    HW124458   4.060   2.858   1.774
 7853SOL    HW224459   4.161   2.982   1.806
 7854SOL     OW24460   4.968   1.963   6.664
 7854SOL    HW124461   4.997   1.876   6.623
 7854SOL    HW224462   5.022   2.037   6.625
 7855SOL     OW24463   5.334   6.970   4.381
 7855SOL    HW124464   5.234   6.971   4.388
 7855SOL    HW224465   5.373   7.004   4.467
 7856SOL     OW24466   2.167   6.720   4.562
 7856SOL    HW124467   2.069   6.705   4.550
 7856SOL    HW224468   2.216   6.679   4.485
 7857SOL     OW24469   6.113   4.793   1.348
 7857SOL    HW124470   6.028   4.832   1.311
 7857SOL    HW224471   6.111   4.694   1.338
 7858SOL     OW24472   6.953   4.350   6.327
 7858SOL    HW124473   6.929   4.256   6.299
 7858SOL    HW224474   6.941   4.359   6.425
 7859SOL     OW24475   5.218   2.688   0.670
 7859SOL    HW124476   5.197   2.786   0.666
 7859SOL    HW224477   5.138   2.639   0.705
 7860SOL     OW24478   2.793   1.528   4.988
 7860SOL    HW124479   2.706   1.511   5.034
 7860SOL    HW224480   2.796   1.623   4.956
 7861SOL     OW24481   2.229   6.205   0.171
 7861SOL    HW124482   2.186   6.141   0.107
 7861SOL    HW224483   2.274   6.278   0.119
 7862SOL     OW24484   2.171   5.758   6.590
 7862SOL    HW124485   2.115   5.822   6.641
 7862SOL    HW224486   2.248   5.806   6.548
 7863SOL     OW24487   0.760   3.954   3.353
 7863SOL    HW124488   0.780   3.927   3.447
 7863SOL    HW224489   0.704   3.884   3.309
 7864SOL     OW24490   2.038   5.862   5.757
 7864SOL    HW124491   2.056   5.961   5.760
 7864SOL    HW224492   2.082   5.818   5.834
 7865SOL     OW24493   5.599   4.659   3.568
 7865SOL    HW124494   5.500   4.669   3.568
 7865SOL    HW224495   5.636   4.694   3.482
 7866SOL     OW24496   6.962   0.452   6.441
 7866SOL    HW124497   6.938   0.392   6.365
 7866SOL    HW224498   7.014   0.401   6.509
 7867SOL     OW24499   4.896   4.918   3.447
 7867SOL    HW124500   4.978   4.865   3.425
 7867SOL    HW224501   4.842   4.869   3.515
 7868SOL     OW24502   3.136   6.401   1.491
 7868SOL    HW124503   3.136   6.475   1.559
 7868SOL    HW224504   3.059   6.413   1.429
 7869SOL     OW24505   5.956   4.802   6.460
 7869SOL    HW124506   5.918   4.841   6.376
 7869SOL    HW224507   6.043   4.847   6.481
 7870SOL     OW24508   5.707   5.317   4.398
 7870SOL    HW124509   5.705   5.378   4.319
 7870SOL    HW224510   5.655   5.234   4.378
 7871SOL     OW24511   5.540   1.625   1.015
 7871SOL    HW124512   5.617   1.579   1.059
 7871SOL    HW224513   5.508   1.700   1.073
 7872SOL     OW24514   1.314   5.710   3.127
 7872SOL    HW124515   1.222   5.689   3.159
 7872SOL    HW224516   1.378   5.704   3.204
 7873SOL     OW24517   5.294   1.991   7.008
 7873SOL    HW124518   5.389   1.960   7.002
 7873SOL    HW224519   5.233   1.915   6.985
 7874SOL     OW24520   5.652   2.688   0.607
 7874SOL    HW124521   5.750   2.673   0.625
 7874SOL    HW224522   5.630   2.660   0.514
 7875SOL     OW24523   6.294   4.716   6.327
 7875SOL    HW124524   6.338   4.710   6.237
 7875SOL    HW224525   6.275   4.623   6.361
 7876SOL     OW24526   1.465   0.079   3.790
 7876SOL    HW124527   1.392   0.133   3.834
 7876SOL    HW224528   1.537   0.062   3.857
 7877SOL     OW24529   0.187   2.850   3.367
 7877SOL    HW124530   0.240   2.927   3.334
 7877SOL    HW224531   0.221   2.765   3.325
 7878SOL     OW24532   4.554   4.871   2.990
 7878SOL    HW124533   4.469   4.914   2.960
 7878SOL    HW224534   4.540   4.830   3.080
 7879SOL     OW24535   3.261   4.976   2.746
 7879SOL    HW124536   3.283   5.073   2.733
 7879SOL    HW224537   3.307   4.921   2.677
 7880SOL     OW24538   1.199   4.361   2.078
 7880SOL    HW124539   1.259   4.441   2.076
 7880SOL    HW224540   1.119   4.381   2.134
 7881SOL     OW24541   4.788   4.158   3.708
 7881SOL    HW124542   4.751   4.066   3.697
 7881SOL    HW224543   4.865   4.171   3.646
 7882SOL     OW24544   1.115   3.373   0.055
 7882SOL    HW124545   1.162   3.447   0.007
 7882SOL    HW224546   1.164   3.287   0.042
 7883SOL     OW24547   0.966   0.403   5.321
 7883SOL    HW124548   0.887   0.385   5.380
 7883SOL    HW224549   0.950   0.488   5.269
 7884SOL     OW24550   0.784   2.848   4.341
 7884SOL    HW124551   0.754   2.933   4.296
 7884SOL    HW224552   0.827   2.789   4.273
 7885SOL     OW24553   6.880   6.285   6.455
 7885SOL    HW124554   6.875   6.187   6.473
 7885SOL    HW224555   6.790   6.318   6.426
 7886SOL     OW24556   5.336   4.643   0.718
 7886SOL    HW124557   5.346   4.735   0.679
 7886SOL    HW224558   5.366   4.644   0.813
 7887SOL     OW24559   4.548   2.752   5.950
 7887SOL    HW124560   4.628   2.812   5.951
 7887SOL    HW224561   4.557   2.682   6.020
 7888SOL     OW24562   5.175   0.235   4.495
 7888SOL    HW124563   5.135   0.144   4.483
 7888SOL    HW224564   5.227   0.237   4.581
 7889SOL     OW24565   0.889   5.088   2.182
 7889SOL    HW124566   0.792   5.105   2.170
 7889SOL    HW224567   0.919   5.017   2.118
 7890SOL     OW24568   1.773   2.985   2.713
 7890SOL    HW124569   1.795   3.025   2.624
 7890SOL    HW224570   1.823   2.899   2.725
 7891SOL     OW24571   1.131   4.783   3.128
 7891SOL    HW124572   1.166   4.690   3.141
 7891SOL    HW224573   1.208   4.847   3.126
 7892SOL     OW24574   2.393   2.618   5.705
 7892SOL    HW124575   2.422   2.522   5.708
 7892SOL    HW224576   2.435   2.662   5.626
 7893SOL     OW24577   6.013   6.156   1.726
 7893SOL    HW124578   5.914   6.161   1.712
 7893SOL    HW224579   6.056   6.238   1.689
 7894SOL     OW24580   2.725   0.378   1.699
 7894SOL    HW124581   2.770   0.290   1.713
 7894SOL    HW224582   2.698   0.416   1.788
 7895SOL     OW24583   6.618   1.262   3.431
 7895SOL    HW124584   6.649   1.348   3.391
 7895SOL    HW224585   6.692   1.195   3.426
 7896SOL     OW24586   4.129   1.584   5.966
 7896SOL    HW124587   4.143   1.525   5.887
 7896SOL    HW224588   4.045   1.637   5.953
 7897SOL     OW24589   2.828   2.823   6.351
 7897SOL    HW124590   2.784   2.734   6.344
 7897SOL    HW224591   2.927   2.810   6.356
 7898SOL     OW24592   4.342   2.464   3.751
 7898SOL    HW124593   4.436   2.478   3.720
 7898SOL    HW224594   4.289   2.422   3.678
 7899SOL     OW24595   4.783   0.771   2.842
 7899SOL    HW124596   4.860   0.714   2.868
 7899SOL    HW224597   4.738   0.733   2.761
 7900SOL     OW24598   1.701   5.150   0.939
 7900SOL    HW124599   1.671   5.211   1.012
 7900SOL    HW224600   1.796   5.122   0.956
 7901SOL     OW24601   5.668   5.751   0.748
 7901SOL    HW124602   5.731   5.713   0.817
 7901SOL    HW224603   5.720   5.807   0.684
 7902SOL     OW24604   5.326   5.034   6.452
 7902SOL    HW124605   5.289   5.127   6.456
 7902SOL    HW224606   5.417   5.032   6.492
 7903SOL     OW24607   0.135   2.437   6.981
 7903SOL    HW124608   0.083   2.362   6.940
 7903SOL    HW224609   0.184   2.487   6.910
 7904SOL     OW24610   6.720   1.218   2.382
 7904SOL    HW124611   6.663   1.299   2.397
 7904SOL    HW224612   6.663   1.142   2.351
 7905SOL     OW24613   2.682   2.117   0.963
 7905SOL    HW124614   2.722   2.034   1.003
 7905SOL    HW224615   2.582   2.113   0.973
 7906SOL     OW24616   6.969   5.403   0.264
 7906SOL    HW124617   6.987   5.425   0.168
 7906SOL    HW224618   6.897   5.462   0.299
 7907SOL     OW24619   5.727   2.905   2.325
 7907SOL    HW124620   5.712   2.830   2.389
 7907SOL    HW224621   5.670   2.982   2.350
 7908SOL     OW24622   6.254   1.656   3.120
 7908SOL    HW124623   6.233   1.752   3.099
 7908SOL    HW224624   6.175   1.614   3.165
 7909SOL     OW24625   4.705   5.483   5.680
 7909SOL    HW124626   4.725   5.507   5.585
 7909SOL    HW224627   4.655   5.557   5.724
 7910SOL     OW24628   5.819   4.062   6.145
 7910SOL    HW124629   5.919   4.068   6.146
 7910SOL    HW224630   5.784   4.101   6.060
 7911SOL     OW24631   6.736   5.135   0.096
 7911SOL    HW124632   6.708   5.231   0.101
 7911SOL    HW224633   6.783   5.119   0.009
 7912SOL     OW24634   0.251   5.070   5.382
 7912SOL    HW124635   0.260   5.163   5.417
 7912SOL    HW224636   0.155   5.050   5.364
 7913SOL     OW24637   0.897   6.070   6.757
 7913SOL    HW124638   0.889   6.167   6.778
 7913SOL    HW224639   0.809   6.025   6.775
 7914SOL     OW24640   0.429   3.421   2.384
 7914SOL    HW124641   0.510   3.439   2.440
 7914SOL    HW224642   0.358   3.379   2.441
 7915SOL     OW24643   4.545   1.184   1.984
 7915SOL    HW124644   4.588   1.236   2.057
 7915SOL    HW224645   4.461   1.230   1.955
 7916SOL     OW24646   4.689   3.341   5.316
 7916SOL    HW124647   4.744   3.288   5.252
 7916SOL    HW224648   4.660   3.426   5.272
 7917SOL     OW24649   3.746   4.064   3.471
 7917SOL    HW124650   3.654   4.100   3.487
 7917SOL    HW224651   3.788   4.041   3.559
 7918SOL     OW24652   6.284   2.494   1.999
 7918SOL    HW124653   6.204   2.434   1.992
 7918SOL    HW224654   6.318   2.514   1.908
 7919SOL     OW24655   5.914   4.903   1.741
 7919SOL    HW124656   5.977   4.967   1.697
 7919SOL    HW224657   5.915   4.816   1.691
 7920SOL     OW24658   0.544   6.267   2.068
 7920SOL    HW124659   0.506   6.203   2.134
 7920SOL    HW224660   0.511   6.359   2.087
 7921SOL     OW24661   3.667   6.696   1.967
 7921SOL    HW124662   3.680   6.623   2.034
 7921SOL    HW224663   3.591   6.672   1.907
 7922SOL     OW24664   0.638   5.035   6.505
 7922SOL    HW124665   0.565   4.991   6.557
 7922SOL    HW224666   0.688   4.966   6.453
 7923SOL     OW24667   0.952   1.601   3.149
 7923SOL    HW124668   1.045   1.618   3.184
 7923SOL    HW224669   0.938   1.655   3.066
 7924SOL     OW24670   2.518   1.024   3.786
 7924SOL    HW124671   2.492   0.967   3.864
 7924SOL    HW224672   2.604   1.071   3.806
 7925SOL     OW24673   0.373   0.961   6.731
 7925SOL    HW124674   0.464   0.978   6.695
 7925SOL    HW224675   0.337   1.044   6.772
 7926SOL     OW24676   3.328   0.273   1.657
 7926SOL    HW124677   3.278   0.187   1.658
 7926SOL    HW224678   3.293   0.333   1.729
 7927SOL     OW24679   4.830   4.561   4.025
 7927SOL    HW124680   4.864   4.497   3.956
 7927SOL    HW224681   4.733   4.580   4.007
 7928SOL     OW24682   1.242   4.610   0.251
 7928SOL    HW124683   1.174   4.584   0.182
 7928SOL    HW224684   1.268   4.529   0.303
 7929SOL     OW24685   3.927   3.688   4.627
 7929SOL    HW124686   3.961   3.765   4.574
 7929SOL    HW224687   3.959   3.602   4.586
 7930SOL     OW24688   5.338   5.811   4.271
 7930SOL    HW124689   5.309   5.809   4.175
 7930SOL    HW224690   5.348   5.905   4.301
 7931SOL     OW24691   2.026   3.423   0.660
 7931SOL    HW124692   1.981   3.403   0.747
 7931SOL    HW224693   2.072   3.341   0.627
 7932SOL     OW24694   3.051   6.926   1.066
 7932SOL    HW124695   2.981   6.891   1.004
 7932SOL    HW224696   3.140   6.927   1.019
 7933SOL     OW24697   1.197   0.891   6.338
 7933SOL    HW124698   1.253   0.967   6.371
 7933SOL    HW224699   1.149   0.919   6.255
 7934SOL     OW24700   4.026   2.994   5.543
 7934SOL    HW124701   4.125   2.999   5.555
 7934SOL    HW224702   4.004   2.939   5.462
 7935SOL     OW24703   4.465   5.976   1.332
 7935SOL    HW124704   4.501   5.915   1.261
 7935SOL    HW224705   4.408   6.047   1.289
 7936SOL     OW24706   4.882   5.325   3.130
 7936SOL    HW124707   4.831   5.268   3.066
 7936SOL    HW224708   4.834   5.412   3.142
 7937SOL     OW24709   6.297   6.738   5.719
 7937SOL    HW124710   6.341   6.817   5.762
 7937SOL    HW224711   6.245   6.769   5.639
 7938SOL     OW24712   5.520   4.559   4.333
 7938SOL    HW124713   5.484   4.621   4.403
 7938SOL    HW224714   5.490   4.589   4.243
 7939SOL     OW24715   0.819   6.899   4.621
 7939SOL    HW124716   0.762   6.881   4.541
 7939SOL    HW224717   0.863   6.814   4.651
 7940SOL     OW24718   1.806   5.731   0.798
 7940SOL    HW124719   1.875   5.701   0.864
 7940SOL    HW224720   1.729   5.773   0.846
 7941SOL     OW24721   0.578   0.462   0.229
 7941SOL    HW124722   0.650   0.394   0.218
 7941SOL    HW224723   0.603   0.527   0.300
 7942SOL     OW24724   1.448   1.626   1.144
 7942SOL    HW124725   1.478   1.602   1.052
 7942SOL    HW224726   1.384   1.557   1.177
 7943SOL     OW24727   5.618   2.062   0.573
 7943SOL    HW124728   5.560   1.988   0.541
 7943SOL    HW224729   5.714   2.034   0.567
 7944SOL     OW24730   0.473   4.011   2.041
 7944SOL    HW124731   0.454   3.914   2.031
 7944SOL    HW224732   0.439   4.043   2.130
 7945SOL     OW24733   5.320   6.704   1.421
 7945SOL    HW124734   5.236   6.695   1.476
 7945SOL    HW224735   5.330   6.623   1.363
 7946SOL     OW24736   1.768   2.105   5.777
 7946SOL    HW124737   1.852   2.101   5.723
 7946SOL    HW224738   1.690   2.113   5.715
 7947SOL     OW24739   4.169   4.835   6.405
 7947SOL    HW124740   4.199   4.925   6.435
 7947SOL    HW224741   4.177   4.829   6.305
 7948SOL     OW24742   1.208   4.876   6.967
 7948SOL    HW124743   1.247   4.785   6.952
 7948SOL    HW224744   1.270   4.930   0.007
 7949SOL     OW24745   6.524   4.218   4.211
 7949SOL    HW124746   6.483   4.287   4.151
 7949SOL    HW224747   6.596   4.259   4.266
 7950SOL     OW24748   3.464   4.976   4.319
 7950SOL    HW124749   3.505   5.064   4.296
 7950SOL    HW224750   3.374   4.991   4.361
 7951SOL     OW24751   2.899   3.425   0.812
 7951SOL    HW124752   2.805   3.400   0.836
 7951SOL    HW224753   2.962   3.358   0.851
 7952SOL     OW24754   4.865   4.484   0.497
 7952SOL    HW124755   4.939   4.540   0.534
 7952SOL    HW224756   4.895   4.437   0.415
 7953SOL     OW24757   2.360   2.740   3.062
 7953SOL    HW124758   2.369   2.753   3.161
 7953SOL    HW224759   2.320   2.823   3.022
 7954SOL     OW24760   5.159   5.522   5.122
 7954SOL    HW124761   5.218   5.539   5.200
 7954SOL    HW224762   5.211   5.536   5.037
 7955SOL     OW24763   1.467   0.002   6.269
 7955SOL    HW124764   1.465   0.021   6.171
 7955SOL    HW224765   1.378   0.025   6.309
 7956SOL     OW24766   6.302   6.934   4.075
 7956SOL    HW124767   6.310   6.991   4.156
 7956SOL    HW224768   6.294   6.838   4.102
 7957SOL     OW24769   1.120   2.411   1.213
 7957SOL    HW124770   1.181   2.484   1.243
 7957SOL    HW224771   1.149   2.325   1.255
 7958SOL     OW24772   2.006   5.382   2.895
 7958SOL    HW124773   2.014   5.285   2.916
 7958SOL    HW224774   1.982   5.432   2.978
 7959SOL     OW24775   4.823   5.411   0.824
 7959SOL    HW124776   4.846   5.508   0.826
 7959SOL    HW224777   4.880   5.364   0.757
 7960SOL     OW24778   2.313   2.551   0.695
 7960SOL    HW124779   2.349   2.464   0.662
 7960SOL    HW224780   2.230   2.574   0.645
 7961SOL     OW24781   1.757   5.655   0.050
 7961SOL    HW124782   1.662   5.671   0.076
 7961SOL    HW224783   1.807   5.741   0.049
 7962SOL     OW24784   1.235   0.336   2.004
 7962SOL    HW124785   1.146   0.292   2.009
 7962SOL    HW224786   1.233   0.422   2.055
 7963SOL     OW24787   1.351   6.975   4.397
 7963SOL    HW124788   1.447   6.995   4.380
 7963SOL    HW224789   1.329   6.992   4.493
 7964SOL     OW24790   6.312   5.826   3.306
 7964SOL    HW124791   6.307   5.854   3.210
 7964SOL    HW224792   6.405   5.843   3.340
 7965SOL     OW24793   5.886   1.876   0.847
 7965SOL    HW124794   5.892   1.868   0.946
 7965SOL    HW224795   5.808   1.823   0.814
 7966SOL     OW24796   6.849   6.324   3.906
 7966SOL    HW124797   6.839   6.230   3.872
 7966SOL    HW224798   6.935   6.331   3.958
 7967SOL     OW24799   3.080   6.402   3.037
 7967SOL    HW124800   3.014   6.362   2.973
 7967SOL    HW224801   3.086   6.345   3.119
 7968SOL     OW24802   1.957   1.088   1.520
 7968SOL    HW124803   2.027   1.094   1.449
 7968SOL    HW224804   1.931   0.992   1.534
 7969SOL     OW24805   3.325   2.113   3.416
 7969SOL    HW124806   3.390   2.110   3.340
 7969SOL    HW224807   3.234   2.134   3.380
 7970SOL     OW24808   0.585   5.157   3.230
 7970SOL    HW124809   0.612   5.140   3.325
 7970SOL    HW224810   0.489   5.131   3.218
 7971SOL     OW24811   2.450   1.571   2.192
 7971SOL    HW124812   2.438   1.664   2.158
 7971SOL    HW224813   2.545   1.543   2.177
 7972SOL     OW24814   1.146   4.850   1.827
 7972SOL    HW124815   1.071   4.903   1.786
 7972SOL    HW224816   1.231   4.902   1.821
 7973SOL     OW24817   4.639   1.986   2.329
 7973SOL    HW124818   4.583   2.009   2.408
 7973SOL    HW224819   4.705   1.915   2.354
 7974SOL     OW24820   5.529   6.710   4.199
 7974SOL    HW124821   5.475   6.737   4.279
 7974SOL    HW224822   5.624   6.739   4.213
 7975SOL     OW24823   2.632   0.730   3.214
 7975SOL    HW124824   2.693   0.671   3.160
 7975SOL    HW224825   2.616   0.815   3.164
 7976SOL     OW24826   0.413   6.631   6.248
 7976SOL    HW124827   0.431   6.626   6.150
 7976SOL    HW224828   0.335   6.572   6.270
 7977SOL     OW24829   4.875   6.662   1.836
 7977SOL    HW124830   4.938   6.583   1.834
 7977SOL    HW224831   4.918   6.739   1.789
 7978SOL     OW24832   3.704   2.492   6.403
 7978SOL    HW124833   3.749   2.439   6.331
 7978SOL    HW224834   3.735   2.458   6.493
 7979SOL     OW24835   4.301   6.841   4.381
 7979SOL    HW124836   4.339   6.869   4.469
 7979SOL    HW224837   4.375   6.833   4.314
 7980SOL     OW24838   2.565   0.329   2.210
 7980SOL    HW124839   2.605   0.244   2.245
 7980SOL    HW224840   2.465   0.324   2.218
 7981SOL     OW24841   1.358   6.200   2.962
 7981SOL    HW124842   1.441   6.253   2.979
 7981SOL    HW224843   1.281   6.241   3.011
 7982SOL     OW24844   0.065   2.667   0.611
 7982SOL    HW124845   7.017   2.734   0.645
 7982SOL    HW224846   0.053   2.655   0.512
 7983SOL     OW24847   4.575   2.513   2.068
 7983SOL    HW124848   4.599   2.609   2.061
 7983SOL    HW224849   4.637   2.467   2.132
 7984SOL     OW24850   0.011   0.637   0.407
 7984SOL    HW124851   6.989   0.585   0.331
 7984SOL    HW224852   0.109   0.652   0.391
 7985SOL     OW24853   0.708   1.164   0.926
 7985SOL    HW124854   0.724   1.117   1.013
 7985SOL    HW224855   0.617   1.139   0.892
 7986SOL     OW24856   4.137   2.561   0.261
 7986SOL    HW124857   4.090   2.611   0.334
 7986SOL    HW224858   4.150   2.466   0.289
 7987SOL     OW24859   0.288   2.284   4.798
 7987SOL    HW124860   0.195   2.321   4.796
 7987SOL    HW224861   0.324   2.282   4.705
 7988SOL     OW24862   2.503   1.629   5.556
 7988SOL    HW124863   2.469   1.583   5.638
 7988SOL    HW224864   2.541   1.718   5.581
 7989SOL     OW24865   3.490   3.325   5.333
 7989SOL    HW124866   3.576   3.351   5.289
 7989SOL    HW224867   3.415   3.331   5.267
 7990SOL     OW24868   2.306   2.609   4.672
 7990SOL    HW124869   2.344   2.554   4.746
 7990SOL    HW224870   2.275   2.697   4.708
 7991SOL     OW24871   0.191   3.728   4.797
 7991SOL    HW124872   0.272   3.672   4.812
 7991SOL    HW224873   0.166   3.724   4.700
 7992SOL     OW24874   2.296   0.656   0.619
 7992SOL    HW124875   2.252   0.573   0.584
 7992SOL    HW224876   2.396   0.645   0.614
 7993SOL     OW24877   2.353   6.821   6.213
 7993SOL    HW124878   2.272   6.768   6.188
 7993SOL    HW224879   2.330   6.884   6.288
 7994SOL     OW24880   6.066   0.512   4.183
 7994SOL    HW124881   5.993   0.447   4.206
 7994SOL    HW224882   6.070   0.583   4.253
 7995SOL     OW24883   4.243   5.021   3.127
 7995SOL    HW124884   4.224   5.119   3.135
 7995SOL    HW224885   4.274   4.986   3.215
 7996SOL     OW24886   3.700   1.030   5.170
 7996SOL    HW124887   3.698   1.130   5.174
 7996SOL    HW224888   3.771   0.996   5.230
 7997SOL     OW24889   5.379   2.338   2.494
 7997SOL    HW124890   5.383   2.429   2.452
 7997SOL    HW224891   5.346   2.347   2.588
 7998SOL     OW24892   6.132   5.213   6.697
 7998SOL    HW124893   6.095   5.225   6.604
 7998SOL    HW224894   6.101   5.126   6.734
 7999SOL     OW24895   1.490   0.701   5.436
 7999SOL    HW124896   1.502   0.709   5.337
 7999SOL    HW224897   1.506   0.606   5.464
 8000SOL     OW24898   5.621   7.014   5.789
 8000SOL    HW124899   5.640   0.004   5.691
 8000SOL    HW224900   5.640   0.085   5.833
 8001SOL     OW24901   2.101   6.484   1.307
 8001SOL    HW124902   2.164   6.501   1.382
 8001SOL    HW224903   2.140   6.415   1.246
 8002SOL     OW24904   5.342   3.125   5.806
 8002SOL    HW124905   5.258   3.181   5.807
 8002SOL    HW224906   5.420   3.184   5.786
 8003SOL     OW24907   3.621   5.051   3.154
 8003SOL    HW124908   3.612   5.145   3.187
 8003SOL    HW224909   3.534   5.019   3.119
 8004SOL     OW24910   1.349   4.004   2.302
 8004SOL    HW124911   1.351   4.046   2.211
 8004SOL    HW224912   1.257   4.009   2.339
 8005SOL     OW24913   2.673   1.059   1.882
 8005SOL    HW124914   2.728   1.120   1.826
 8005SOL    HW224915   2.732   1.000   1.937
 8006SOL     OW24916   3.323   6.348   0.886
 8006SOL    HW124917   3.298   6.253   0.868
 8006SOL    HW224918   3.287   6.406   0.814
 8007SOL     OW24919   0.764   0.879   4.247
 8007SOL    HW124920   0.678   0.844   4.283
 8007SOL    HW224921   0.775   0.848   4.153
 8008SOL     OW24922   6.118   5.753   0.669
 8008SOL    HW124923   6.037   5.700   0.645
 8008SOL    HW224924   6.191   5.734   0.603
 8009SOL     OW24925   0.255   0.086   3.856
 8009SOL    HW124926   0.293   0.012   3.911
 8009SOL    HW224927   0.174   0.053   3.808
 8010SOL     OW24928   2.218   2.887   6.721
 8010SOL    HW124929   2.314   2.859   6.716
 8010SOL    HW224930   2.213   2.984   6.746
 8011SOL     OW24931   2.069   2.175   0.976
 8011SOL    HW124932   1.988   2.210   0.928
 8011SOL    HW224933   2.149   2.181   0.916
 8012SOL     OW24934   3.065   6.701   3.095
 8012SOL    HW124935   3.070   6.664   3.187
 8012SOL    HW224936   3.060   6.626   3.029
 8013SOL     OW24937   6.413   5.217   5.312
 8013SOL    HW124938   6.509   5.200   5.292
 8013SOL    HW224939   6.382   5.297   5.261
 8014SOL     OW24940   1.864   0.270   6.708
 8014SOL    HW124941   1.882   0.230   6.798
 8014SOL    HW224942   1.867   0.198   6.638
 8015SOL     OW24943   1.495   2.211   6.603
 8015SOL    HW124944   1.536   2.277   6.540
 8015SOL    HW224945   1.400   2.193   6.576
 8016SOL     OW24946   3.460   6.532   1.047
 8016SOL    HW124947   3.429   6.448   1.003
 8016SOL    HW224948   3.451   6.523   1.146
 8017SOL     OW24949   5.890   4.406   4.666
 8017SOL    HW124950   5.835   4.489   4.666
 8017SOL    HW224951   5.833   4.328   4.694
 8018SOL     OW24952   5.206   2.704   4.775
 8018SOL    HW124953   5.246   2.786   4.818
 8018SOL    HW224954   5.277   2.635   4.764
 8019SOL     OW24955   2.415   4.977   1.672
 8019SOL    HW124956   2.504   5.001   1.633
 8019SOL    HW224957   2.412   5.004   1.768
 8020SOL     OW24958   6.143   6.518   6.151
 8020SOL    HW124959   6.093   6.444   6.105
 8020SOL    HW224960   6.093   6.546   6.233
 8021SOL     OW24961   0.737   0.802   1.197
 8021SOL    HW124962   0.803   0.729   1.183
 8021SOL    HW224963   0.779   0.890   1.174
 8022SOL     OW24964   4.179   5.610   3.376
 8022SOL    HW124965   4.167   5.709   3.383
 8022SOL    HW224966   4.211   5.574   3.463
 8023SOL     OW24967   5.984   6.194   3.735
 8023SOL    HW124968   6.022   6.276   3.694
 8023SOL    HW224969   5.886   6.207   3.751
 8024SOL     OW24970   4.927   5.072   4.540
 8024SOL    HW124971   4.877   5.127   4.608
 8024SOL    HW224972   4.862   5.024   4.481
 8025SOL     OW24973   3.139   5.679   0.415
 8025SOL    HW124974   3.197   5.742   0.364
 8025SOL    HW224975   3.197   5.623   0.475
 8026SOL     OW24976   2.014   2.693   1.062
 8026SOL    HW124977   1.922   2.730   1.048
 8026SOL    HW224978   2.054   2.732   1.145
 8027SOL     OW24979   5.172   3.351   5.824
 8027SOL    HW124980   5.084   3.335   5.867
 8027SOL    HW224981   5.162   3.346   5.724
 8028SOL     OW24982   5.267   5.026   0.337
 8028SOL    HW124983   5.331   5.017   0.261
 8028SOL    HW224984   5.213   4.943   0.346
 8029SOL     OW24985   3.113   4.767   0.488
 8029SOL    HW124986   3.075   4.687   0.535
 8029SOL    HW224987   3.043   4.839   0.483
 8030SOL     OW24988   5.887   4.169   6.869
 8030SOL    HW124989   5.844   4.079   6.858
 8030SOL    HW224990   5.880   4.220   6.783
 8031SOL     OW24991   4.004   6.047   1.657
 8031SOL    HW124992   3.982   6.096   1.573
 8031SOL    HW224993   3.938   6.072   1.728
 8032SOL     OW24994   5.613   4.975   6.337
 8032SOL    HW124995   5.571   4.887   6.360
 8032SOL    HW224996   5.601   5.038   6.413
 8033SOL     OW24997   6.200   2.525   0.096
 8033SOL    HW124998   6.270   2.520   0.167
 8033SOL    HW224999   6.110   2.509   0.136
 8034SOL     OW25000   6.012   1.089   5.008
 8034SOL    HW125001   6.050   1.118   5.096
 8034SOL    HW225002   6.068   1.127   4.934
 8035SOL     OW25003   5.352   6.106   0.072
 8035SOL    HW125004   5.450   6.122   0.064
 8035SOL    HW225005   5.323   6.120   0.167
 8036SOL     OW25006   2.103   4.240   1.513
 8036SOL    HW125007   2.181   4.291   1.548
 8036SOL    HW225008   2.121   4.142   1.519
 8037SOL     OW25009   1.772   3.491   1.000
 8037SOL    HW125010   1.783   3.575   1.054
 8037SOL    HW225011   1.861   3.445   0.991
 8038SOL     OW25012   0.074   1.670   4.000
 8038SOL    HW125013   0.116   1.735   3.936
 8038SOL    HW225014   0.086   1.577   3.965
 8039SOL     OW25015   2.696   6.448   4.646
 8039SOL    HW125016   2.617   6.388   4.663
 8039SOL    HW225017   2.737   6.474   4.733
 8040SOL     OW25018   6.618   5.533   0.952
 8040SOL    HW125019   6.635   5.438   0.923
 8040SOL    HW225020   6.578   5.533   1.044
 8041SOL     OW25021   4.139   1.951   0.432
 8041SOL    HW125022   4.046   1.915   0.421
 8041SOL    HW225023   4.172   1.927   0.523
 8042SOL     OW25024   2.578   3.396   1.148
 8042SOL    HW125025   2.536   3.309   1.123
 8042SOL    HW225026   2.678   3.387   1.145
 8043SOL     OW25027   2.309   6.962   1.635
 8043SOL    HW125028   2.216   6.997   1.646
 8043SOL    HW225029   2.317   6.873   1.680
 8044SOL     OW25030   3.223   3.918   1.788
 8044SOL    HW125031   3.181   3.829   1.777
 8044SOL    HW225032   3.251   3.930   1.884
 8045SOL     OW25033   6.488   2.787   3.066
 8045SOL    HW125034   6.417   2.721   3.041
 8045SOL    HW225035   6.448   2.878   3.072
 8046SOL     OW25036   0.066   5.491   6.044
 8046SOL    HW125037   0.045   5.409   5.990
 8046SOL    HW225038   0.045   5.474   6.140
 8047SOL     OW25039   3.352   6.031   3.962
 8047SOL    HW125040   3.266   6.022   3.911
 8047SOL    HW225041   3.332   6.042   4.059
 8048SOL     OW25042   6.316   0.628   5.828
 8048SOL    HW125043   6.360   0.694   5.767
 8048SOL    HW225044   6.310   0.539   5.783
 8049SOL     OW25045   1.710   5.330   0.434
 8049SOL    HW125046   1.663   5.241   0.431
 8049SOL    HW225047   1.744   5.346   0.527
 8050SOL     OW25048   1.432   2.749   1.555
 8050SOL    HW125049   1.358   2.814   1.537
 8050SOL    HW225050   1.517   2.783   1.514
 8051SOL     OW25051   3.686   1.432   3.241
 8051SOL    HW125052   3.721   1.361   3.180
 8051SOL    HW225053   3.748   1.441   3.319
 8052SOL     OW25054   3.233   2.070   3.025
 8052SOL    HW125055   3.149   2.123   3.036
 8052SOL    HW225056   3.312   2.132   3.033
 8053SOL     OW25057   3.856   3.344   2.089
 8053SOL    HW125058   3.894   3.436   2.096
 8053SOL    HW225059   3.895   3.286   2.160
 8054SOL     OW25060   4.204   5.967   4.451
 8054SOL    HW125061   4.237   5.952   4.544
 8054SOL    HW225062   4.223   6.061   4.424
 8055SOL     OW25063   1.313   0.131   5.383
 8055SOL    HW125064   1.341   0.058   5.321
 8055SOL    HW225065   1.287   0.211   5.330
 8056SOL     OW25066   4.006   1.807   2.995
 8056SOL    HW125067   3.916   1.795   2.954
 8056SOL    HW225068   3.997   1.816   3.094
 8057SOL     OW25069   4.212   6.469   3.718
 8057SOL    HW125070   4.227   6.537   3.646
 8057SOL    HW225071   4.300   6.430   3.746
 8058SOL     OW25072   1.921   0.065   3.042
 8058SOL    HW125073   2.017   0.093   3.042
 8058SOL    HW225074   1.865   0.137   3.083
 8059SOL     OW25075   2.643   1.827   4.030
 8059SOL    HW125076   2.578   1.753   4.045
 8059SOL    HW225077   2.666   1.833   3.933
 8060SOL     OW25078   0.661   1.467   5.283
 8060SOL    HW125079   0.591   1.480   5.213
 8060SOL    HW225080   0.743   1.519   5.260
 8061SOL     OW25081   0.337   5.490   1.360
 8061SOL    HW125082   0.366   5.441   1.442
 8061SOL    HW225083   0.252   5.539   1.378
 8062SOL     OW25084   2.168   3.808   2.389
 8062SOL    HW125085   2.152   3.747   2.467
 8062SOL    HW225086   2.218   3.759   2.318
 8063SOL     OW25087   3.004   2.859   0.163
 8063SOL    HW125088   3.075   2.926   0.187
 8063SOL    HW225089   2.987   2.799   0.240
 8064SOL     OW25090   6.550   3.286   6.810
 8064SOL    HW125091   6.481   3.258   6.743
 8064SOL    HW225092   6.506   3.302   6.898
 8065SOL     OW25093   4.257   0.186   6.232
 8065SOL    HW125094   4.331   0.253   6.230
 8065SOL    HW225095   4.216   0.178   6.141
 8066SOL     OW25096   2.164   0.017   1.347
 8066SOL    HW125097   2.194   0.080   1.418
 8066SOL    HW225098   2.124   0.069   1.271
 8067SOL     OW25099   5.131   2.321   1.843
 8067SOL    HW125100   5.211   2.283   1.797
 8067SOL    HW225101   5.118   2.416   1.813
 8068SOL     OW25102   0.501   4.392   4.061
 8068SOL    HW125103   0.593   4.365   4.087
 8068SOL    HW225104   0.487   4.373   3.963
 8069SOL     OW25105   1.804   6.189   2.136
 8069SOL    HW125106   1.714   6.224   2.114
 8069SOL    HW225107   1.867   6.265   2.151
 8070SOL     OW25108   4.052   0.187   2.130
 8070SOL    HW125109   3.954   0.196   2.151
 8070SOL    HW225110   4.100   0.270   2.160
 8071SOL     OW25111   3.562   6.442   0.001
 8071SOL    HW125112   3.508   6.369   6.976
 8071SOL    HW225113   3.659   6.419   7.013
 8072SOL     OW25114   5.452   0.643   1.998
 8072SOL    HW125115   5.460   0.731   1.952
 8072SOL    HW225116   5.355   0.620   2.010
 8073SOL     OW25117   3.989   6.579   5.581
 8073SOL    HW125118   3.992   6.679   5.574
 8073SOL    HW225119   3.894   6.549   5.590
 8074SOL     OW25120   3.202   3.734   0.011
 8074SOL    HW125121   3.168   3.747   0.105
 8074SOL    HW225122   3.179   3.641   6.998
 8075SOL     OW25123   6.083   1.405   2.217
 8075SOL    HW125124   6.043   1.314   2.231
 8075SOL    HW225125   6.094   1.422   2.119
 8076SOL     OW25126   5.353   3.209   6.421
 8076SOL    HW125127   5.360   3.225   6.520
 8076SOL    HW225128   5.278   3.262   6.384
 8077SOL     OW25129   1.107   1.173   0.411
 8077SOL    HW125130   1.173   1.232   0.364
 8077SOL    HW225131   1.021   1.222   0.423
 8078SOL     OW25132   6.018   3.441   0.416
 8078SOL    HW125133   6.110   3.408   0.393
 8078SOL    HW225134   5.962   3.442   0.333
 8079SOL     OW25135   0.215   1.872   1.826
 8079SOL    HW125136   0.293   1.820   1.792
 8079SOL    HW225137   0.145   1.878   1.755
 8080SOL     OW25138   3.670   5.169   0.164
 8080SOL    HW125139   3.635   5.199   0.253
 8080SOL    HW225140   3.616   5.211   0.091
 8081SOL     OW25141   5.919   0.477   5.577
 8081SOL    HW125142   5.925   0.387   5.620
 8081SOL    HW225143   5.841   0.527   5.614
 8082SOL     OW25144   6.324   3.178   4.218
 8082SOL    HW125145   6.228   3.194   4.194
 8082SOL    HW225146   6.332   3.169   4.317
 8083SOL     OW25147   5.329   2.618   4.498
 8083SOL    HW125148   5.282   2.530   4.495
 8083SOL    HW225149   5.390   2.620   4.577
 8084SOL     OW25150   6.970   0.155   1.612
 8084SOL    HW125151   6.879   0.180   1.645
 8084SOL    HW225152   7.002   0.224   1.547
 8085SOL     OW25153   6.351   2.154   0.993
 8085SOL    HW125154   6.372   2.251   0.983
 8085SOL    HW225155   6.321   2.117   0.905
 8086SOL     OW25156   3.194   6.669   5.622
 8086SOL    HW125157   3.261   6.604   5.657
 8086SOL    HW225158   3.209   6.758   5.663
 8087SOL     OW25159   2.550   3.060   1.215
 8087SOL    HW125160   2.521   3.100   1.302
 8087SOL    HW225161   2.479   3.075   1.146
 8088SOL     OW25162   4.393   0.325   2.769
 8088SOL    HW125163   4.312   0.347   2.714
 8088SOL    HW225164   4.366   0.307   2.863
 8089SOL     OW25165   5.896   2.856   0.917
 8089SOL    HW125166   5.833   2.783   0.942
 8089SOL    HW225167   5.990   2.820   0.915
 8090SOL     OW25168   4.490   2.256   4.863
 8090SOL    HW125169   4.402   2.267   4.817
 8090SOL    HW225170   4.474   2.232   4.959
 8091SOL     OW25171   3.233   5.270   6.002
 8091SOL    HW125172   3.312   5.301   5.949
 8091SOL    HW225173   3.164   5.232   5.940
 8092SOL     OW25174   0.370   1.862   4.081
 8092SOL    HW125175   0.450   1.915   4.111
 8092SOL    HW225176   0.293   1.881   4.143
 8093SOL     OW25177   5.423   6.003   0.973
 8093SOL    HW125178   5.411   5.996   1.072
 8093SOL    HW225179   5.356   6.068   0.936
 8094SOL     OW25180   1.384   3.759   4.388
 8094SOL    HW125181   1.315   3.715   4.445
 8094SOL    HW225182   1.432   3.829   4.441
 8095SOL     OW25183   5.818   3.663   4.749
 8095SOL    HW125184   5.732   3.661   4.799
 8095SOL    HW225185   5.868   3.746   4.772
 8096SOL     OW25186   3.818   0.101   1.093
 8096SOL    HW125187   3.789   0.089   0.998
 8096SOL    HW225188   3.749   0.153   1.143
 8097SOL     OW25189   4.427   1.030   4.841
 8097SOL    HW125190   4.359   1.099   4.815
 8097SOL    HW225191   4.510   1.076   4.872
 8098SOL     OW25192   2.992   0.374   4.181
 8098SOL    HW125193   2.953   0.442   4.243
 8098SOL    HW225194   2.966   0.282   4.212
 8099SOL     OW25195   5.393   6.490   4.968
 8099SOL    HW125196   5.383   6.523   5.061
 8099SOL    HW225197   5.309   6.507   4.917
 8100SOL     OW25198   0.852   6.201   1.230
 8100SOL    HW125199   0.813   6.238   1.314
 8100SOL    HW225200   0.934   6.252   1.205
 8101SOL     OW25201   0.734   5.551   2.706
 8101SOL    HW125202   0.662   5.482   2.695
 8101SOL    HW225203   0.823   5.506   2.711
 8102SOL     OW25204   0.204   0.048   6.378
 8102SOL    HW125205   0.239   6.992   6.437
 8102SOL    HW225206   0.215   0.136   6.424
 8103SOL     OW25207   2.699   1.711   2.501
 8103SOL    HW125208   2.765   1.705   2.427
 8103SOL    HW225209   2.729   1.653   2.577
 8104SOL     OW25210   2.806   6.255   5.908
 8104SOL    HW125211   2.809   6.162   5.871
 8104SOL    HW225212   2.802   6.251   6.008
 8105SOL     OW25213   1.669   2.651   2.465
 8105SOL    HW125214   1.626   2.666   2.554
 8105SOL    HW225215   1.710   2.736   2.433
 8106SOL     OW25216   0.525   4.114   4.524
 8106SOL    HW125217   0.460   4.042   4.551
 8106SOL    HW225218   0.618   4.083   4.545
 8107SOL     OW25219   1.734   5.919   6.140
 8107SOL    HW125220   1.654   5.975   6.161
 8107SOL    HW225221   1.766   5.940   6.048
 8108SOL     OW25222   2.070   3.500   4.474
 8108SOL    HW125223   2.058   3.552   4.559
 8108SOL    HW225224   2.042   3.556   4.396
 8109SOL     OW25225   0.865   5.436   5.464
 8109SOL    HW125226   0.857   5.476   5.373
 8109SOL    HW225227   0.921   5.353   5.459
 8110SOL     OW25228   1.605   4.433   0.602
 8110SOL    HW125229   1.524   4.461   0.550
 8110SOL    HW225230   1.615   4.333   0.596
 8111SOL     OW25231   2.541   5.937   4.366
 8111SOL    HW125232   2.495   5.869   4.308
 8111SOL    HW225233   2.634   5.906   4.386
 8112SOL     OW25234   4.046   0.997   4.628
 8112SOL    HW125235   4.124   1.022   4.686
 8112SOL    HW225236   4.076   0.934   4.557
 8113SOL     OW25237   3.654   2.922   5.856
 8113SOL    HW125238   3.705   2.881   5.932
 8113SOL    HW225239   3.646   3.021   5.871
 8114SOL     OW25240   2.944   4.055   1.769
 8114SOL    HW125241   2.951   4.152   1.749
 8114SOL    HW225242   3.031   4.022   1.805
 8115SOL     OW25243   3.982   2.168   0.950
 8115SOL    HW125244   3.920   2.103   0.995
 8115SOL    HW225245   4.056   2.192   1.013
 8116SOL     OW25246   5.037   0.693   5.856
 8116SOL    HW125247   4.990   0.755   5.919
 8116SOL    HW225248   5.117   0.739   5.817
 8117SOL     OW25249   2.657   1.850   5.641
 8117SOL    HW125250   2.644   1.949   5.631
 8117SOL    HW225251   2.636   1.823   5.735
 8118SOL     OW25252   1.218   2.814   4.241
 8118SOL    HW125253   1.216   2.880   4.317
 8118SOL    HW225254   1.264   2.856   4.162
 8119SOL     OW25255   1.195   5.921   2.186
 8119SOL    HW125256   1.134   6.000   2.182
 8119SOL    HW225257   1.283   5.944   2.143
 8120SOL     OW25258   4.676   4.072   1.521
 8120SOL    HW125259   4.679   4.082   1.620
 8120SOL    HW225260   4.654   3.977   1.498
 8121SOL     OW25261   6.680   6.888   3.262
 8121SOL    HW125262   6.610   6.888   3.334
 8121SOL    HW225263   6.770   6.873   3.304
 8122SOL     OW25264   0.723   5.789   1.660
 8122SOL    HW125265   0.649   5.846   1.695
 8122SOL    HW225266   0.794   5.848   1.621
 8123SOL     OW25267   0.504   5.860   0.460
 8123SOL    HW125268   0.405   5.870   0.470
 8123SOL    HW225269   0.550   5.917   0.528
 8124SOL     OW25270   0.487   5.961   2.810
 8124SOL    HW125271   0.511   6.056   2.793
 8124SOL    HW225272   0.570   5.908   2.824
 8125SOL     OW25273   5.843   5.313   2.898
 8125SOL    HW125274   5.884   5.394   2.941
 8125SOL    HW225275   5.775   5.342   2.831
 8126SOL     OW25276   5.905   5.078   2.261
 8126SOL    HW125277   5.928   5.068   2.165
 8126SOL    HW225278   5.965   5.019   2.316
 8127SOL     OW25279   3.395   4.483   1.037
 8127SOL    HW125280   3.485   4.470   1.080
 8127SOL    HW225281   3.343   4.398   1.041
 8128SOL     OW25282   3.915   2.541   5.362
 8128SOL    HW125283   3.927   2.443   5.374
 8128SOL    HW225284   3.982   2.575   5.296
 8129SOL     OW25285   4.895   6.533   0.008
 8129SOL    HW125286   4.938   6.608   6.975
 8129SOL    HW225287   4.922   6.446   6.983
 8130SOL     OW25288   0.965   0.002   0.696
 8130SOL    HW125289   1.063   0.024   0.693
 8130SOL    HW225290   0.945   6.968   0.780
 8131SOL     OW25291   1.298   1.782   0.197
 8131SOL    HW125292   1.353   1.853   0.240
 8131SOL    HW225293   1.278   1.710   0.263
 8132SOL     OW25294   6.137   4.487   3.155
 8132SOL    HW125295   6.069   4.532   3.097
 8132SOL    HW225296   6.210   4.450   3.097
 8133SOL     OW25297   0.940   5.496   1.801
 8133SOL    HW125298   0.841   5.493   1.812
 8133SOL    HW225299   0.983   5.444   1.876
 8134SOL     OW25300   2.166   2.472   2.045
 8134SOL    HW125301   2.135   2.443   1.954
 8134SOL    HW225302   2.152   2.397   2.110
 8135SOL     OW25303   3.777   6.039   2.562
 8135SOL    HW125304   3.716   6.118   2.558
 8135SOL    HW225305   3.802   6.011   2.469
 8136SOL     OW25306   3.284   5.955   1.445
 8136SOL    HW125307   3.254   6.031   1.503
 8136SOL    HW225308   3.211   5.888   1.437
 8137SOL     OW25309   2.902   3.883   4.868
 8137SOL    HW125310   2.812   3.926   4.861
 8137SOL    HW225311   2.944   3.878   4.777
 8138SOL     OW25312   5.453   0.616   3.895
 8138SOL    HW125313   5.425   0.660   3.980
 8138SOL    HW225314   5.552   0.603   3.895
 8139SOL     OW25315   1.697   3.061   4.526
 8139SOL    HW125316   1.736   3.113   4.451
 8139SOL    HW225317   1.626   3.115   4.571
 8140SOL     OW25318   4.721   0.921   1.189
 8140SOL    HW125319   4.680   1.011   1.201
 8140SOL    HW225320   4.730   0.877   1.278
 8141SOL     OW25321   5.733   0.833   5.242
 8141SOL    HW125322   5.741   0.876   5.332
 8141SOL    HW225323   5.731   0.733   5.253
 8142SOL     OW25324   2.365   5.268   1.599
 8142SOL    HW125325   2.454   5.291   1.559
 8142SOL    HW225326   2.371   5.179   1.644
 8143SOL     OW25327   5.905   5.079   0.787
 8143SOL    HW125328   5.822   5.119   0.825
 8143SOL    HW225329   5.907   5.094   0.688
 8144SOL     OW25330   0.358   5.237   0.211
 8144SOL    HW125331   0.441   5.233   0.266
 8144SOL    HW225332   0.330   5.144   0.186
 8145SOL     OW25333   5.432   5.742   6.949
 8145SOL    HW125334   5.510   5.681   6.941
 8145SOL    HW225335   5.461   5.836   6.930
 8146SOL     OW25336   6.049   0.090   4.782
 8146SOL    HW125337   6.032   0.150   4.704
 8146SOL    HW225338   6.132   0.037   4.766
 8147SOL     OW25339   1.581   0.602   6.311
 8147SOL    HW125340   1.590   0.503   6.299
 8147SOL    HW225341   1.672   0.641   6.326
 8148SOL     OW25342   4.634   4.248   0.451
 8148SOL    HW125343   4.723   4.222   0.414
 8148SOL    HW225344   4.646   4.316   0.523
 8149SOL     OW25345   0.849   0.045   5.015
 8149SOL    HW125346   0.756   0.061   4.982
 8149SOL    HW225347   0.915   0.069   4.944
 8150SOL     OW25348   0.545   4.113   0.667
 8150SOL    HW125349   0.511   4.200   0.630
 8150SOL    HW225350   0.474   4.043   0.656
 8151SOL     OW25351   6.494   5.987   3.082
 8151SOL    HW125352   6.436   6.042   3.142
 8151SOL    HW225353   6.476   6.011   2.987
 8152SOL     OW25354   4.984   1.256   2.962
 8152SOL    HW125355   4.961   1.197   3.039
 8152SOL    HW225356   4.942   1.219   2.879
 8153SOL     OW25357   0.106   1.452   1.785
 8153SOL    HW125358   0.156   1.476   1.702
 8153SOL    HW225359   0.170   1.417   1.854
 8154SOL     OW25360   2.242   1.055   2.591
 8154SOL    HW125361   2.205   0.962   2.582
 8154SOL    HW225362   2.339   1.055   2.565
 8155SOL     OW25363   1.515   5.361   3.272
 8155SOL    HW125364   1.610   5.384   3.249
 8155SOL    HW225365   1.491   5.401   3.360
 8156SOL     OW25366   0.770   4.766   0.938
 8156SOL    HW125367   0.846   4.707   0.910
 8156SOL    HW225368   0.796   4.862   0.923
 8157SOL     OW25369   6.700   4.456   4.732
 8157SOL    HW125370   6.730   4.391   4.663
 8157SOL    HW225371   6.718   4.549   4.700
 8158SOL     OW25372   6.125   5.756   6.592
 8158SOL    HW125373   6.058   5.768   6.519
 8158SOL    HW225374   6.151   5.660   6.598
 8159SOL     OW25375   2.705   6.711   4.944
 8159SOL    HW125376   2.638   6.740   4.875
 8159SOL    HW225377   2.786   6.769   4.939
 8160SOL     OW25378   5.872   1.726   1.933
 8160SOL    HW125379   5.945   1.775   1.981
 8160SOL    HW225380   5.784   1.771   1.949
 8161SOL     OW25381   5.618   3.034   1.875
 8161SOL    HW125382   5.715   3.019   1.859
 8161SOL    HW225383   5.569   2.946   1.870
 8162SOL     OW25384   0.402   5.603   5.181
 8162SOL    HW125385   0.313   5.601   5.227
 8162SOL    HW225386   0.426   5.510   5.152
 8163SOL     OW25387   4.312   4.599   5.600
 8163SOL    HW125388   4.221   4.636   5.579
 8163SOL    HW225389   4.312   4.564   5.694
 8164SOL     OW25390   5.355   1.780   0.795
 8164SOL    HW125391   5.353   1.809   0.699
 8164SOL    HW225392   5.276   1.723   0.815
 8165SOL     OW25393   0.277   1.567   0.021
 8165SOL    HW125394   0.289   1.658   0.061
 8165SOL    HW225395   0.226   1.509   0.085
 8166SOL     OW25396   1.226   1.730   5.647
 8166SOL    HW125397   1.189   1.731   5.740
 8166SOL    HW225398   1.287   1.808   5.635
 8167SOL     OW25399   1.768   3.514   3.789
 8167SOL    HW125400   1.697   3.453   3.754
 8167SOL    HW225401   1.761   3.520   3.888
 8168SOL     OW25402   1.615   0.471   2.093
 8168SOL    HW125403   1.681   0.544   2.111
 8168SOL    HW225404   1.529   0.491   2.140
 8169SOL     OW25405   4.891   2.911   0.664
 8169SOL    HW125406   4.987   2.932   0.678
 8169SOL    HW225407   4.840   2.932   0.748
 8170SOL     OW25408   0.008   4.989   2.307
 8170SOL    HW125409   6.949   5.049   2.284
 8170SOL    HW225410   6.990   4.908   2.354
 8171SOL     OW25411   2.421   1.433   0.534
 8171SOL    HW125412   2.403   1.487   0.452
 8171SOL    HW225413   2.422   1.493   0.614
 8172SOL     OW25414   1.364   2.628   0.470
 8172SOL    HW125415   1.325   2.703   0.524
 8172SOL    HW225416   1.299   2.552   0.468
 8173SOL     OW25417   6.001   1.054   1.588
 8173SOL    HW125418   5.950   1.089   1.510
 8173SOL    HW225419   5.955   0.974   1.626
 8174SOL     OW25420   2.915   6.040   3.460
 8174SOL    HW125421   3.003   6.054   3.413
 8174SOL    HW225422   2.877   6.128   3.485
 8175SOL     OW25423   0.085   1.367   5.640
 8175SOL    HW125424   7.013   1.407   5.618
 8175SOL    HW225425   0.088   1.343   5.737
 8176SOL     OW25426   2.504   4.506   0.362
 8176SOL    HW125427   2.534   4.461   0.446
 8176SOL    HW225428   2.559   4.473   0.285
 8177SOL     OW25429   3.410   1.139   3.954
 8177SOL    HW125430   3.474   1.163   4.027
 8177SOL    HW225431   3.402   1.217   3.891
 8178SOL     OW25432   2.886   6.572   1.178
 8178SOL    HW125433   2.830   6.593   1.098
 8178SOL    HW225434   2.982   6.567   1.151
 8179SOL     OW25435   5.628   0.548   3.248
 8179SOL    HW125436   5.726   0.557   3.270
 8179SOL    HW225437   5.589   0.472   3.299
 8180SOL     OW25438   4.744   6.407   0.319
 8180SOL    HW125439   4.719   6.393   0.224
 8180SOL    HW225440   4.836   6.371   0.335
 8181SOL     OW25441   0.068   0.381   0.149
 8181SOL    HW125442   0.167   0.393   0.158
 8181SOL    HW225443   0.025   0.468   0.124
 8182SOL     OW25444   2.995   3.186   4.239
 8182SOL    HW125445   3.045   3.118   4.293
 8182SOL    HW225446   2.984   3.152   4.145
 8183SOL     OW25447   6.770   0.671   5.544
 8183SOL    HW125448   6.682   0.694   5.585
 8183SOL    HW225449   6.824   0.754   5.531
 8184SOL     OW25450   0.172   5.530   6.351
 8184SOL    HW125451   0.253   5.510   6.296
 8184SOL    HW225452   0.110   5.451   6.350
 8185SOL     OW25453   0.555   6.230   6.035
 8185SOL    HW125454   0.538   6.265   6.127
 8185SOL    HW225455   0.610   6.297   5.983
 8186SOL     OW25456   1.958   5.480   6.703
 8186SOL    HW125457   2.047   5.485   6.747
 8186SOL    HW225458   1.969   5.444   6.610
 8187SOL     OW25459   1.652   0.621   5.875
 8187SOL    HW125460   1.686   0.568   5.797
 8187SOL    HW225461   1.571   0.576   5.913
 8188SOL     OW25462   1.546   3.186   2.815
 8188SOL    HW125463   1.627   3.158   2.763
 8188SOL    HW225464   1.498   3.104   2.847
 8189SOL     OW25465   5.672   5.010   4.242
 8189SOL    HW125466   5.753   5.010   4.183
 8189SOL    HW225467   5.696   4.968   4.330
 8190SOL     OW25468   6.636   3.818   2.917
 8190SOL    HW125469   6.572   3.790   2.989
 8190SOL    HW225470   6.658   3.738   2.860
 8191SOL     OW25471   4.060   5.321   0.970
 8191SOL    HW125472   3.989   5.332   1.040
 8191SOL    HW225473   4.018   5.286   0.886
 8192SOL     OW25474   0.749   6.229   3.531
 8192SOL    HW125475   0.737   6.188   3.621
 8192SOL    HW225476   0.708   6.320   3.530
 8193SOL     OW25477   0.880   4.862   4.272
 8193SOL    HW125478   0.939   4.925   4.323
 8193SOL    HW225479   0.905   4.864   4.176
 8194SOL     OW25480   4.355   6.628   1.643
 8194SOL    HW125481   4.448   6.661   1.657
 8194SOL    HW225482   4.350   6.574   1.559
 8195SOL     OW25483   6.120   6.660   3.880
 8195SOL    HW125484   6.039   6.664   3.939
 8195SOL    HW225485   6.201   6.684   3.933
 8196SOL     OW25486   5.091   1.373   1.874
 8196SOL    HW125487   5.149   1.410   1.947
 8196SOL    HW225488   4.996   1.403   1.890
 8197SOL     OW25489   3.790   2.028   2.654
 8197SOL    HW125490   3.712   1.969   2.633
 8197SOL    HW225491   3.777   2.070   2.744
 8198SOL     OW25492   1.334   6.143   1.621
 8198SOL    HW125493   1.276   6.062   1.616
 8198SOL    HW225494   1.319   6.189   1.709
 8199SOL     OW25495   5.518   2.814   0.102
 8199SOL    HW125496   5.617   2.813   0.090
 8199SOL    HW225497   5.473   2.790   0.016
 8200SOL     OW25498   4.327   3.156   0.951
 8200SOL    HW125499   4.403   3.155   1.016
 8200SOL    HW225500   4.321   3.068   0.905
 8201SOL     OW25501   6.094   0.016   5.318
 8201SOL    HW125502   6.099   0.016   5.218
 8201SOL    HW225503   5.999   0.015   5.347
 8202SOL     OW25504   0.729   6.448   1.944
 8202SOL    HW125505   0.813   6.449   1.998
 8202SOL    HW225506   0.674   6.368   1.969
 8203SOL     OW25507   1.692   3.319   1.230
 8203SOL    HW125508   1.752   3.335   1.309
 8203SOL    HW225509   1.704   3.394   1.164
 8204SOL     OW25510   3.191   2.612   0.826
 8204SOL    HW125511   3.278   2.615   0.776
 8204SOL    HW225512   3.123   2.564   0.770
 8205SOL     OW25513   1.163   3.689   0.106
 8205SOL    HW125514   1.188   3.756   0.036
 8205SOL    HW225515   1.064   3.687   0.116
 8206SOL     OW25516   3.006   0.372   0.438
 8206SOL    HW125517   2.985   0.408   0.529
 8206SOL    HW225518   3.039   0.447   0.380
 8207SOL     OW25519   3.934   4.057   4.736
 8207SOL    HW125520   3.909   4.026   4.828
 8207SOL    HW225521   4.007   4.124   4.742
 8208SOL     OW25522   2.242   0.762   0.287
 8208SOL    HW125523   2.173   0.774   0.358
 8208SOL    HW225524   2.202   0.712   0.210
 8209SOL     OW25525   6.068   1.496   4.954
 8209SOL    HW125526   6.052   1.416   5.012
 8209SOL    HW225527   6.010   1.572   4.985
 8210SOL     OW25528   1.932   2.589   6.182
 8210SOL    HW125529   1.947   2.491   6.195
 8210SOL    HW225530   1.957   2.638   6.266
 8211SOL     OW25531   3.526   4.617   1.535
 8211SOL    HW125532   3.547   4.578   1.625
 8211SOL    HW225533   3.500   4.713   1.545
 8212SOL     OW25534   1.564   2.829   3.440
 8212SOL    HW125535   1.629   2.769   3.392
 8212SOL    HW225536   1.587   2.830   3.537
 8213SOL     OW25537   6.528   5.099   1.344
 8213SOL    HW125538   6.488   5.030   1.404
 8213SOL    HW225539   6.618   5.125   1.378
 8214SOL     OW25540   5.801   3.915   3.653
 8214SOL    HW125541   5.711   3.897   3.692
 8214SOL    HW225542   5.804   4.008   3.616
 8215SOL     OW25543   3.264   5.215   3.084
 8215SOL    HW125544   3.286   5.277   3.159
 8215SOL    HW225545   3.178   5.243   3.041
 8216SOL     OW25546   5.521   3.889   3.767
 8216SOL    HW125547   5.538   3.813   3.830
 8216SOL    HW225548   5.429   3.879   3.727
 8217SOL     OW25549   1.878   5.883   0.078
 8217SOL    HW125550   1.858   5.948   0.006
 8217SOL    HW225551   1.813   5.895   0.154
 8218SOL     OW25552   6.241   2.640   6.736
 8218SOL    HW125553   6.306   2.702   6.780
 8218SOL    HW225554   6.263   2.632   6.639
 8219SOL     OW25555   5.823   1.726   0.010
 8219SOL    HW125556   5.824   1.643   0.065
 8219SOL    HW225557   5.916   1.757   7.010
 8220SOL     OW25558   4.059   3.543   2.058
 8220SOL    HW125559   4.069   3.631   2.011
 8220SOL    HW225560   4.136   3.483   2.035
 8221SOL     OW25561   5.288   6.127   3.398
 8221SOL    HW125562   5.197   6.108   3.359
 8221SOL    HW225563   5.345   6.045   3.390
 8222SOL     OW25564   6.679   2.274   1.910
 8222SOL    HW125565   6.763   2.298   1.861
 8222SOL    HW225566   6.692   2.292   2.008
 8223SOL     OW25567   0.672   5.149   5.830
 8223SOL    HW125568   0.711   5.206   5.758
 8223SOL    HW225569   0.740   5.135   5.903
 8224SOL     OW25570   1.388   3.383   3.909
 8224SOL    HW125571   1.470   3.354   3.859
 8224SOL    HW225572   1.406   3.381   4.007
 8225SOL     OW25573   4.833   1.707   0.305
 8225SOL    HW125574   4.791   1.773   0.242
 8225SOL    HW225575   4.832   1.745   0.397
 8226SOL     OW25576   4.684   0.432   0.327
 8226SOL    HW125577   4.760   0.486   0.364
 8226SOL    HW225578   4.615   0.494   0.289
 8227SOL     OW25579   6.305   3.281   2.720
 8227SOL    HW125580   6.307   3.192   2.767
 8227SOL    HW225581   6.390   3.293   2.669
 8228SOL     OW25582   6.686   2.626   4.931
 8228SOL    HW125583   6.730   2.716   4.929
 8228SOL    HW225584   6.754   2.556   4.952
 8229SOL     OW25585   3.791   5.127   0.847
 8229SOL    HW125586   3.749   5.214   0.872
 8229SOL    HW225587   3.720   5.057   0.842
 8230SOL     OW25588   5.123   0.041   3.975
 8230SOL    HW125589   5.107   6.981   4.038
 8230SOL    HW225590   5.037   0.090   3.961
 8231SOL     OW25591   4.371   6.072   0.699
 8231SOL    HW125592   4.310   6.142   0.663
 8231SOL    HW225593   4.381   5.998   0.633
 8232SOL     OW25594   2.880   2.408   6.272
 8232SOL    HW125595   2.831   2.320   6.271
 8232SOL    HW225596   2.816   2.480   6.300
 8233SOL     OW25597   0.314   5.431   0.022
 8233SOL    HW125598   0.344   5.367   0.093
 8233SOL    HW225599   0.310   5.383   6.951
 8234SOL     OW25600   3.674   2.063   6.762
 8234SOL    HW125601   3.765   2.090   6.792
 8234SOL    HW225602   3.630   2.139   6.713
 8235SOL     OW25603   4.788   2.169   0.534
 8235SOL    HW125604   4.703   2.216   0.510
 8235SOL    HW225605   4.842   2.225   0.597
 8236SOL     OW25606   5.390   3.210   0.740
 8236SOL    HW125607   5.402   3.189   0.837
 8236SOL    HW225608   5.461   3.274   0.711
 8237SOL     OW25609   4.098   6.450   5.364
 8237SOL    HW125610   4.036   6.491   5.431
 8237SOL    HW225611   4.192   6.454   5.397
 8238SOL     OW25612   1.663   1.615   6.486
 8238SOL    HW125613   1.713   1.545   6.536
 8238SOL    HW225614   1.687   1.705   6.521
 8239SOL     OW25615   6.849   1.743   6.288
 8239SOL    HW125616   6.858   1.805   6.366
 8239SOL    HW225617   6.941   1.714   6.259
 8240SOL     OW25618   3.731   4.078   3.749
 8240SOL    HW125619   3.809   4.109   3.803
 8240SOL    HW225620   3.687   4.000   3.793
 8241SOL     OW25621   4.445   6.863   0.774
 8241SOL    HW125622   4.400   6.835   0.690
 8241SOL    HW225623   4.489   6.783   0.816
 8242SOL     OW25624   0.910   4.050   5.481
 8242SOL    HW125625   0.935   3.997   5.401
 8242SOL    HW225626   0.993   4.082   5.527
 8243SOL     OW25627   0.689   3.398   4.758
 8243SOL    HW125628   0.694   3.307   4.716
 8243SOL    HW225629   0.639   3.391   4.845
 8244SOL     OW25630   0.676   6.418   4.448
 8244SOL    HW125631   0.609   6.449   4.381
 8244SOL    HW225632   0.766   6.457   4.426
 8245SOL     OW25633   3.702   2.501   0.736
 8245SOL    HW125634   3.621   2.560   0.736
 8245SOL    HW225635   3.705   2.448   0.651
 8246SOL     OW25636   5.007   3.658   5.818
 8246SOL    HW125637   5.057   3.696   5.740
 8246SOL    HW225638   4.962   3.573   5.791
 8247SOL     OW25639   1.155   0.279   1.370
 8247SOL    HW125640   1.060   0.309   1.380
 8247SOL    HW225641   1.203   0.291   1.458
 8248SOL     OW25642   6.665   4.016   3.475
 8248SOL    HW125643   6.650   3.988   3.380
 8248SOL    HW225644   6.577   4.030   3.520
 8249SOL     OW25645   2.192   5.195   3.166
 8249SOL    HW125646   2.167   5.191   3.070
 8249SOL    HW225647   2.276   5.250   3.176
 8250SOL     OW25648   4.001   3.845   2.582
 8250SOL    HW125649   4.019   3.943   2.587
 8250SOL    HW225650   3.998   3.807   2.675
 8251SOL     OW25651   5.567   1.729   4.887
 8251SOL    HW125652   5.567   1.756   4.983
 8251SOL    HW225653   5.593   1.808   4.831
 8252SOL     OW25654   1.500   3.548   4.639
 8252SOL    HW125655   1.417   3.571   4.588
 8252SOL    HW225656   1.566   3.622   4.630
 8253SOL     OW25657   3.303   3.170   5.508
 8253SOL    HW125658   3.373   3.218   5.455
 8253SOL    HW225659   3.235   3.236   5.541
 8254SOL     OW25660   3.746   5.694   3.555
 8254SOL    HW125661   3.722   5.597   3.548
 8254SOL    HW225662   3.815   5.706   3.627
 8255SOL     OW25663   4.525   5.050   4.056
 8255SOL    HW125664   4.600   5.044   3.989
 8255SOL    HW225665   4.547   4.995   4.136
 8256SOL     OW25666   0.065   1.988   3.837
 8256SOL    HW125667   0.028   1.953   3.751
 8256SOL    HW225668   7.010   1.988   3.907
 8257SOL     OW25669   6.718   4.182   3.850
 8257SOL    HW125670   6.771   4.196   3.766
 8257SOL    HW225671   6.670   4.266   3.874
 8258SOL     OW25672   4.476   1.900   6.839
 8258SOL    HW125673   4.449   1.994   6.861
 8258SOL    HW225674   4.396   1.840   6.841
 8259SOL     OW25675   3.879   1.578   1.814
 8259SOL    HW125676   3.881   1.612   1.908
 8259SOL    HW225677   3.789   1.595   1.774
 8260SOL     OW25678   2.661   6.033   0.449
 8260SOL    HW125679   2.696   5.939   0.441
 8260SOL    HW225680   2.594   6.036   0.523
 8261SOL     OW25681   6.015   1.414   1.395
 8261SOL    HW125682   5.919   1.409   1.423
 8261SOL    HW225683   6.074   1.400   1.475
 8262SOL     OW25684   0.948   2.440   0.945
 8262SOL    HW125685   0.870   2.378   0.939
 8262SOL    HW225686   0.973   2.454   1.041
 8263SOL     OW25687   6.510   1.237   0.485
 8263SOL    HW125688   6.590   1.244   0.425
 8263SOL    HW225689   6.428   1.257   0.431
 8264SOL     OW25690   1.836   5.008   2.795
 8264SOL    HW125691   1.875   4.919   2.774
 8264SOL    HW225692   1.738   4.998   2.812
 8265SOL     OW25693   1.890   0.817   1.490
 8265SOL    HW125694   1.808   0.764   1.470
 8265SOL    HW225695   1.968   0.756   1.501
 8266SOL     OW25696   3.209   0.301   3.200
 8266SOL    HW125697   3.260   0.385   3.182
 8266SOL    HW225698   3.271   0.223   3.200
 8267SOL     OW25699   0.538   3.470   0.928
 8267SOL    HW125700   0.572   3.508   1.014
 8267SOL    HW225701   0.598   3.395   0.899
 8268SOL     OW25702   2.968   6.481   5.619
 8268SOL    HW125703   3.049   6.535   5.640
 8268SOL    HW225704   2.993   6.384   5.616
 8269SOL     OW25705   5.900   1.680   1.394
 8269SOL    HW125706   5.847   1.675   1.479
 8269SOL    HW225707   5.958   1.598   1.387
 8270SOL     OW25708   3.748   6.059   3.509
 8270SOL    HW125709   3.819   6.121   3.544
 8270SOL    HW225710   3.715   6.092   3.421
 8271SOL     OW25711   6.929   1.870   2.170
 8271SOL    HW125712   7.016   1.907   2.137
 8271SOL    HW225713   6.858   1.883   2.100
 8272SOL     OW25714   3.356   1.623   3.583
 8272SOL    HW125715   3.378   1.549   3.520
 8272SOL    HW225716   3.440   1.657   3.626
 8273SOL     OW25717   2.284   6.284   0.650
 8273SOL    HW125718   2.209   6.247   0.704
 8273SOL    HW225719   2.319   6.367   0.693
 8274SOL     OW25720   5.543   5.150   3.198
 8274SOL    HW125721   5.548   5.244   3.230
 8274SOL    HW225722   5.503   5.092   3.269
 8275SOL     OW25723   5.208   2.570   5.914
 8275SOL    HW125724   5.194   2.620   5.999
 8275SOL    HW225725   5.128   2.582   5.854
 8276SOL     OW25726   0.813   1.924   3.267
 8276SOL    HW125727   0.906   1.899   3.242
 8276SOL    HW225728   0.814   2.010   3.318
 8277SOL     OW25729   6.387   0.266   6.491
 8277SOL    HW125730   6.309   0.315   6.531
 8277SOL    HW225731   6.406   0.185   6.546
 8278SOL     OW25732   2.151   2.450   0.352
 8278SOL    HW125733   2.058   2.420   0.377
 8278SOL    HW225734   2.153   2.550   0.346
 8279SOL     OW25735   0.126   6.300   3.680
 8279SOL    HW125736   0.057   6.305   3.607
 8279SOL    HW225737   0.217   6.314   3.641
 8280SOL     OW25738   2.889   2.995   5.901
 8280SOL    HW125739   2.789   2.995   5.900
 8280SOL    HW225740   2.922   3.088   5.915
 8281SOL     OW25741   6.305   5.908   2.079
 8281SOL    HW125742   6.395   5.872   2.104
 8281SOL    HW225743   6.237   5.835   2.083
 8282SOL     OW25744   5.249   2.274   5.533
 8282SOL    HW125745   5.341   2.254   5.569
 8282SOL    HW225746   5.205   2.188   5.506
 8283SOL     OW25747   1.847   4.238   5.649
 8283SOL    HW125748   1.825   4.261   5.743
 8283SOL    HW225749   1.810   4.308   5.587
 8284SOL     OW25750   6.656   4.626   2.321
 8284SOL    HW125751   6.740   4.585   2.284
 8284SOL    HW225752   6.649   4.606   2.418
 8285SOL     OW25753   3.557   3.610   4.877
 8285SOL    HW125754   3.602   3.668   4.944
 8285SOL    HW225755   3.622   3.586   4.805
 8286SOL     OW25756   6.199   2.000   5.857
 8286SOL    HW125757   6.255   2.073   5.895
 8286SOL    HW225758   6.134   1.969   5.927
 8287SOL     OW25759   1.361   5.669   4.772
 8287SOL    HW125760   1.283   5.713   4.728
 8287SOL    HW225761   1.368   5.701   4.867
 8288SOL     OW25762   2.499   2.317   2.856
 8288SOL    HW125763   2.414   2.335   2.808
 8288SOL    HW225764   2.569   2.289   2.790
 8289SOL     OW25765   0.342   6.240   6.867
 8289SOL    HW125766   0.331   6.268   6.962
 8289SOL    HW225767   0.267   6.179   6.842
 8290SOL     OW25768   6.806   2.925   1.055
 8290SOL    HW125769   6.766   2.880   1.135
 8290SOL    HW225770   6.754   2.900   0.973
 8291SOL     OW25771   4.700   0.260   0.552
 8291SOL    HW125772   4.736   0.167   0.549
 8291SOL    HW225773   4.739   0.313   0.476
 8292SOL     OW25774   3.162   0.184   6.673
 8292SOL    HW125775   3.219   0.125   6.730
 8292SOL    HW225776   3.077   0.206   6.723
 8293SOL     OW25777   5.610   6.130   5.644
 8293SOL    HW125778   5.702   6.093   5.634
 8293SOL    HW225779   5.583   6.126   5.740
 8294SOL     OW25780   5.598   2.223   0.327
 8294SOL    HW125781   5.540   2.295   0.365
 8294SOL    HW225782   5.607   2.149   0.393
 8295SOL     OW25783   5.162   3.816   0.914
 8295SOL    HW125784   5.193   3.755   0.987
 8295SOL    HW225785   5.062   3.810   0.907
 8296SOL     OW25786   1.784   5.332   6.929
 8296SOL    HW125787   1.793   5.366   0.006
 8296SOL    HW225788   1.749   5.238   6.930
 8297SOL     OW25789   0.400   2.976   2.968
 8297SOL    HW125790   0.307   2.980   2.931
 8297SOL    HW225791   0.443   3.066   2.960
 8298SOL     OW25792   4.404   1.276   1.615
 8298SOL    HW125793   4.384   1.202   1.550
 8298SOL    HW225794   4.480   1.331   1.580
 8299SOL     OW25795   6.480   2.397   1.408
 8299SOL    HW125796   6.511   2.303   1.416
 8299SOL    HW225797   6.536   2.445   1.339
 8300SOL     OW25798   0.896   4.905   3.705
 8300SOL    HW125799   0.921   4.999   3.681
 8300SOL    HW225800   0.957   4.841   3.659
 8301SOL     OW25801   3.901   3.071   6.625
 8301SOL    HW125802   3.871   3.044   6.716
 8301SOL    HW225803   3.959   2.999   6.586
 8302SOL     OW25804   5.825   6.053   6.358
 8302SOL    HW125805   5.829   5.981   6.288
 8302SOL    HW225806   5.805   6.140   6.315
 8303SOL     OW25807   0.366   0.618   5.003
 8303SOL    HW125808   0.320   0.663   5.079
 8303SOL    HW225809   0.392   0.525   5.031
 8304SOL     OW25810   1.085   3.637   6.808
 8304SOL    HW125811   1.035   3.563   6.853
 8304SOL    HW225812   1.146   3.598   6.738
 8305SOL     OW25813   3.476   5.859   3.213
 8305SOL    HW125814   3.482   5.856   3.313
 8305SOL    HW225815   3.567   5.874   3.175
 8306SOL     OW25816   0.765   3.289   3.964
 8306SOL    HW125817   0.667   3.306   3.961
 8306SOL    HW225818   0.800   3.309   4.055
 8307SOL     OW25819   3.692   5.775   1.341
 8307SOL    HW125820   3.766   5.712   1.366
 8307SOL    HW225821   3.688   5.784   1.242
 8308SOL     OW25822   3.606   6.241   2.508
 8308SOL    HW125823   3.595   6.220   2.411
 8308SOL    HW225824   3.584   6.338   2.524
 8309SOL     OW25825   4.793   6.101   1.859
 8309SOL    HW125826   4.805   6.156   1.941
 8309SOL    HW225827   4.770   6.007   1.885
 8310SOL     OW25828   0.199   4.434   0.407
 8310SOL    HW125829   0.214   4.533   0.411
 8310SOL    HW225830   0.112   4.412   0.451
 8311SOL     OW25831   6.412   0.587   0.135
 8311SOL    HW125832   6.319   0.551   0.128
 8311SOL    HW225833   6.468   0.525   0.190
 8312SOL     OW25834   5.764   6.779   1.639
 8312SOL    HW125835   5.806   6.799   1.551
 8312SOL    HW225836   5.825   6.721   1.693
 8313SOL     OW25837   3.435   1.206   2.390
 8313SOL    HW125838   3.494   1.240   2.463
 8313SOL    HW225839   3.490   1.190   2.308
 8314SOL     OW25840   6.685   0.456   2.711
 8314SOL    HW125841   6.708   0.361   2.689
 8314SOL    HW225842   6.762   0.498   2.759
 8315SOL     OW25843   5.317   4.155   6.527
 8315SOL    HW125844   5.355   4.118   6.612
 8315SOL    HW225845   5.391   4.175   6.463
 8316SOL     OW25846   2.289   4.394   6.908
 8316SOL    HW125847   2.234   4.408   6.991
 8316SOL    HW225848   2.351   4.316   6.922
 8317SOL     OW25849   2.006   4.309   2.233
 8317SOL    HW125850   2.011   4.278   2.138
 8317SOL    HW225851   1.988   4.408   2.234
 8318SOL     OW25852   3.848   1.721   4.864
 8318SOL    HW125853   3.786   1.688   4.793
 8318SOL    HW225854   3.795   1.747   4.945
 8319SOL     OW25855   3.383   1.107   4.903
 8319SOL    HW125856   3.385   1.085   5.001
 8319SOL    HW225857   3.291   1.093   4.867
 8320SOL     OW25858   3.298   4.434   1.666
 8320SOL    HW125859   3.330   4.340   1.658
 8320SOL    HW225860   3.356   4.484   1.731
 8321SOL     OW25861   0.663   0.864   1.450
 8321SOL    HW125862   0.714   0.804   1.511
 8321SOL    HW225863   0.695   0.852   1.356
 8322SOL     OW25864   6.448   6.460   6.939
 8322SOL    HW125865   6.444   6.447   6.840
 8322SOL    HW225866   6.388   6.535   6.965
 8323SOL     OW25867   1.077   1.920   1.746
 8323SOL    HW125868   1.039   1.997   1.695
 8323SOL    HW225869   1.006   1.879   1.803
 8324SOL     OW25870   6.635   1.181   2.004
 8324SOL    HW125871   6.732   1.178   2.027
 8324SOL    HW225872   6.581   1.152   2.083
 8325SOL     OW25873   3.555   3.346   3.792
 8325SOL    HW125874   3.653   3.365   3.790
 8325SOL    HW225875   3.518   3.351   3.699
 8326SOL     OW25876   3.876   3.627   5.727
 8326SOL    HW125877   3.976   3.619   5.727
 8326SOL    HW225878   3.835   3.536   5.728
 8327SOL     OW25879   5.289   1.983   5.872
 8327SOL    HW125880   5.348   2.019   5.945
 8327SOL    HW225881   5.220   2.051   5.850
 8328SOL     OW25882   2.693   2.438   5.061
 8328SOL    HW125883   2.746   2.450   5.145
 8328SOL    HW225884   2.714   2.349   5.020
 8329SOL     OW25885   6.811   3.119   5.387
 8329SOL    HW125886   6.763   3.118   5.299
 8329SOL    HW225887   6.805   3.211   5.427
 8330SOL     OW25888   2.828   6.515   0.006
 8330SOL    HW125889   2.818   6.564   0.092
 8330SOL    HW225890   2.741   6.517   6.973
 8331SOL     OW25891   2.382   6.867   0.385
 8331SOL    HW125892   2.420   6.863   0.293
 8331SOL    HW225893   2.336   6.781   0.407
 8332SOL     OW25894   5.042   5.537   2.508
 8332SOL    HW125895   5.022   5.439   2.504
 8332SOL    HW225896   4.956   5.588   2.518
 8333SOL     OW25897   0.400   5.633   6.175
 8333SOL    HW125898   0.451   5.700   6.229
 8333SOL    HW225899   0.437   5.630   6.082
 8334SOL     OW25900   6.439   1.749   3.862
 8334SOL    HW125901   6.359   1.761   3.921
 8334SOL    HW225902   6.488   1.836   3.854
 8335SOL     OW25903   5.456   6.836   6.149
 8335SOL    HW125904   5.389   6.762   6.151
 8335SOL    HW225905   5.409   6.924   6.147
 8336SOL     OW25906   0.245   1.749   2.245
 8336SOL    HW125907   0.230   1.846   2.267
 8336SOL    HW225908   0.334   1.738   2.202
 8337SOL     OW25909   0.641   6.437   2.632
 8337SOL    HW125910   0.696   6.359   2.659
 8337SOL    HW225911   0.698   6.501   2.580
 8338SOL     OW25912   1.614   4.924   1.190
 8338SOL    HW125913   1.677   4.908   1.114
 8338SOL    HW225914   1.643   5.004   1.242
 8339SOL     OW25915   5.571   1.279   2.638
 8339SOL    HW125916   5.670   1.296   2.632
 8339SOL    HW225917   5.527   1.307   2.553
 8340SOL     OW25918   4.893   3.772   0.823
 8340SOL    HW125919   4.862   3.860   0.786
 8340SOL    HW225920   4.877   3.700   0.755
 8341SOL     OW25921   2.519   6.067   0.675
 8341SOL    HW125922   2.438   6.122   0.653
 8341SOL    HW225923   2.494   5.993   0.738
 8342SOL     OW25924   4.243   0.886   0.547
 8342SOL    HW125925   4.181   0.926   0.615
 8342SOL    HW225926   4.337   0.895   0.579
 8343SOL     OW25927   1.410   5.771   6.279
 8343SOL    HW125928   1.431   5.692   6.222
 8343SOL    HW225929   1.448   5.853   6.238
 8344SOL     OW25930   4.144   6.362   5.685
 8344SOL    HW125931   4.085   6.283   5.668
 8344SOL    HW225932   4.095   6.446   5.662
 8345SOL     OW25933   6.382   1.105   2.586
 8345SOL    HW125934   6.386   1.104   2.686
 8345SOL    HW225935   6.370   1.199   2.554
 8346SOL     OW25936   3.218   5.558   1.165
 8346SOL    HW125937   3.317   5.561   1.183
 8346SOL    HW225938   3.186   5.464   1.176
 8347SOL     OW25939   3.473   6.001   4.935
 8347SOL    HW125940   3.458   6.043   5.024
 8347SOL    HW225941   3.510   6.069   4.872
 8348SOL     OW25942   1.397   0.591   0.253
 8348SOL    HW125943   1.366   0.679   0.287
 8348SOL    HW225944   1.460   0.604   0.177
 8349SOL     OW25945   5.394   5.091   1.635
 8349SOL    HW125946   5.328   5.142   1.690
 8349SOL    HW225947   5.397   4.996   1.666
 8350SOL     OW25948   6.127   0.715   4.684
 8350SOL    HW125949   6.096   0.809   4.668
 8350SOL    HW225950   6.216   0.702   4.642
 8351SOL     OW25951   3.433   6.229   3.082
 8351SOL    HW125952   3.518   6.261   3.041
 8351SOL    HW225953   3.405   6.143   3.040
 8352SOL     OW25954   6.857   5.842   2.154
 8352SOL    HW125955   6.818   5.765   2.206
 8352SOL    HW225956   6.923   5.807   2.088
 8353SOL     OW25957   0.233   3.488   2.188
 8353SOL    HW125958   0.321   3.461   2.228
 8353SOL    HW225959   0.241   3.580   2.150
 8354SOL     OW25960   2.541   1.502   6.774
 8354SOL    HW125961   2.467   1.563   6.745
 8354SOL    HW225962   2.618   1.557   6.807
 8355SOL     OW25963   2.689   0.735   0.389
 8355SOL    HW125964   2.663   0.689   0.304
 8355SOL    HW225965   2.700   0.833   0.371
 8356SOL     OW25966   2.232   5.373   6.998
 8356SOL    HW125967   2.254   5.313   6.921
 8356SOL    HW225968   2.239   5.468   6.969
 8357SOL     OW25969   4.587   5.566   4.847
 8357SOL    HW125970   4.666   5.627   4.851
 8357SOL    HW225971   4.601   5.499   4.774
 8358SOL     OW25972   2.296   3.004   5.625
 8358SOL    HW125973   2.321   2.950   5.544
 8358SOL    HW225974   2.204   2.978   5.654
 8359SOL     OW25975   4.359   5.506   4.350
 8359SOL    HW125976   4.382   5.423   4.299
 8359SOL    HW225977   4.264   5.501   4.382
 8360SOL     OW25978   4.794   0.453   3.097
 8360SOL    HW125979   4.797   0.418   3.004
 8360SOL    HW225980   4.708   0.502   3.112
 8361SOL     OW25981   1.823   0.650   2.585
 8361SOL    HW125982   1.767   0.631   2.666
 8361SOL    HW225983   1.835   0.567   2.532
 8362SOL     OW25984   2.805   2.152   0.263
 8362SOL    HW125985   2.719   2.124   0.304
 8362SOL    HW225986   2.880   2.099   0.304
 8363SOL     OW25987   0.031   3.204   0.788
 8363SOL    HW125988   0.012   3.190   0.691
 8363SOL    HW225989   6.976   3.262   0.827
 8364SOL     OW25990   6.772   3.752   3.876
 8364SOL    HW125991   6.709   3.679   3.903
 8364SOL    HW225992   6.760   3.831   3.937
 8365SOL     OW25993   2.421   3.396   5.871
 8365SOL    HW125994   2.461   3.418   5.960
 8365SOL    HW225995   2.387   3.480   5.828
 8366SOL     OW25996   2.868   6.288   2.901
 8366SOL    HW125997   2.823   6.199   2.900
 8366SOL    HW225998   2.819   6.350   2.962
 8367SOL     OW25999   5.758   5.849   3.676
 8367SOL    HW126000   5.711   5.931   3.642
 8367SOL    HW226001   5.709   5.813   3.756
 8368SOL     OW26002   3.177   5.168   6.261
 8368SOL    HW126003   3.229   5.175   6.176
 8368SOL    HW226004   3.239   5.151   6.337
 8369SOL     OW26005   2.131   1.038   0.760
 8369SOL    HW126006   2.128   1.057   0.662
 8369SOL    HW226007   2.214   0.987   0.782
 8370SOL     OW26008   1.362   1.814   6.325
 8370SOL    HW126009   1.312   1.897   6.303
 8370SOL    HW226010   1.426   1.792   6.252
 8371SOL     OW26011   2.153   3.230   0.519
 8371SOL    HW126012   2.231   3.200   0.574
 8371SOL    HW226013   2.182   3.246   0.425
 8372SOL     OW26014   0.239   1.244   2.407
 8372SOL    HW126015   0.140   1.235   2.418
 8372SOL    HW226016   0.280   1.267   2.496
 8373SOL     OW26017   1.724   6.397   5.021
 8373SOL    HW126018   1.655   6.363   5.084
 8373SOL    HW226019   1.690   6.480   4.976
 8374SOL     OW26020   6.597   6.901   6.660
 8374SOL    HW126021   6.693   6.909   6.687
 8374SOL    HW226022   6.592   6.870   6.565
 8375SOL     OW26023   3.428   0.370   6.998
 8375SOL    HW126024   3.509   0.429   7.001
 8375SOL    HW226025   3.418   0.332   6.907
 8376SOL     OW26026   3.277   0.553   4.623
 8376SOL    HW126027   3.327   0.489   4.565
 8376SOL    HW226028   3.340   0.626   4.654
 8377SOL     OW26029   5.781   4.456   1.141
 8377SOL    HW126030   5.721   4.380   1.164
 8377SOL    HW226031   5.788   4.518   1.219
 8378SOL     OW26032   4.669   2.364   3.122
 8378SOL    HW126033   4.615   2.425   3.064
 8378SOL    HW226034   4.687   2.279   3.072
 8379SOL     OW26035   6.066   2.397   2.591
 8379SOL    HW126036   6.003   2.462   2.549
 8379SOL    HW226037   6.155   2.442   2.606
 8380SOL     OW26038   4.509   1.512   3.453
 8380SOL    HW126039   4.428   1.465   3.487
 8380SOL    HW226040   4.493   1.611   3.453
 8381SOL     OW26041   1.949   5.768   4.736
 8381SOL    HW126042   2.027   5.709   4.757
 8381SOL    HW226043   1.975   5.833   4.665
 8382SOL     OW26044   1.542   2.756   2.199
 8382SOL    HW126045   1.522   2.842   2.246
 8382SOL    HW226046   1.469   2.735   2.134
 8383SOL     OW26047   2.697   2.595   6.317
 8383SOL    HW126048   2.638   2.525   6.357
 8383SOL    HW226049   2.679   2.601   6.219
 8384SOL     OW26050   0.536   0.061   2.049
 8384SOL    HW126051   0.589   0.137   2.012
 8384SOL    HW226052   0.448   0.056   2.003
 8385SOL     OW26053   4.992   1.916   1.357
 8385SOL    HW126054   5.075   1.862   1.340
 8385SOL    HW226055   5.013   1.990   1.421
 8386SOL     OW26056   1.031   4.290   2.505
 8386SOL    HW126057   1.014   4.307   2.407
 8386SOL    HW226058   0.980   4.208   2.533
 8387SOL     OW26059   0.739   2.499   1.504
 8387SOL    HW126060   0.659   2.455   1.546
 8387SOL    HW226061   0.781   2.561   1.570
 8388SOL     OW26062   1.725   0.126   2.328
 8388SOL    HW126063   1.794   0.110   2.257
 8388SOL    HW226064   1.639   0.155   2.284
 8389SOL     OW26065   4.994   2.588   2.433
 8389SOL    HW126066   5.030   2.500   2.400
 8389SOL    HW226067   5.012   2.658   2.364
 8390SOL     OW26068   5.266   1.430   5.679
 8390SOL    HW126069   5.244   1.414   5.583
 8390SOL    HW226070   5.296   1.345   5.721
 8391SOL     OW26071   6.590   0.076   1.344
 8391SOL    HW126072   6.531   0.056   1.266
 8391SOL    HW226073   6.673   0.122   1.312
 8392SOL     OW26074   5.125   3.116   4.942
 8392SOL    HW126075   5.076   3.204   4.943
 8392SOL    HW226076   5.079   3.052   5.003
 8393SOL     OW26077   5.217   0.423   1.496
 8393SOL    HW126078   5.265   0.455   1.415
 8393SOL    HW226079   5.125   0.393   1.471
 8394SOL     OW26080   5.797   3.329   2.136
 8394SOL    HW126081   5.712   3.277   2.128
 8394SOL    HW226082   5.777   3.421   2.169
 8395SOL     OW26083   1.448   1.447   4.768
 8395SOL    HW126084   1.502   1.530   4.782
 8395SOL    HW226085   1.509   1.371   4.745
 8396SOL     OW26086   4.053   5.512   4.678
 8396SOL    HW126087   4.070   5.476   4.586
 8396SOL    HW226088   4.128   5.485   4.739
 8397SOL     OW26089   6.422   1.101   2.843
 8397SOL    HW126090   6.456   1.177   2.898
 8397SOL    HW226091   6.334   1.071   2.878
 8398SOL     OW26092   4.498   2.124   6.029
 8398SOL    HW126093   4.527   2.030   6.048
 8398SOL    HW226094   4.565   2.168   5.970
 8399SOL     OW26095   6.632   5.291   0.844
 8399SOL    HW126096   6.691   5.270   0.766
 8399SOL    HW226097   6.593   5.206   0.880
 8400SOL     OW26098   1.362   2.538   4.630
 8400SOL    HW126099   1.435   2.561   4.566
 8400SOL    HW226100   1.311   2.621   4.654
 8401SOL     OW26101   2.903   0.128   6.134
 8401SOL    HW126102   2.917   0.221   6.100
 8401SOL    HW226103   2.937   0.063   6.067
 8402SOL     OW26104   3.768   0.705   6.228
 8402SOL    HW126105   3.758   0.606   6.217
 8402SOL    HW226106   3.685   0.742   6.271
 8403SOL     OW26107   6.113   4.708   4.480
 8403SOL    HW126108   6.084   4.656   4.400
 8403SOL    HW226109   6.206   4.743   4.466
 8404SOL     OW26110   1.238   2.050   6.286
 8404SOL    HW126111   1.260   2.113   6.211
 8404SOL    HW226112   1.233   2.100   6.372
 8405SOL     OW26113   3.883   0.715   5.980
 8405SOL    HW126114   3.941   0.768   6.042
 8405SOL    HW226115   3.790   0.751   5.982
 8406SOL     OW26116   4.859   0.381   5.889
 8406SOL    HW126117   4.790   0.453   5.888
 8406SOL    HW226118   4.920   0.391   5.811
 8407SOL     OW26119   3.485   6.862   4.042
 8407SOL    HW126120   3.497   6.865   3.943
 8407SOL    HW226121   3.442   6.946   4.073
 8408SOL     OW26122   3.783   1.430   1.564
 8408SOL    HW126123   3.842   1.456   1.640
 8408SOL    HW226124   3.689   1.421   1.596
 8409SOL     OW26125   4.163   2.162   2.269
 8409SOL    HW126126   4.063   2.157   2.269
 8409SOL    HW226127   4.194   2.226   2.339
 8410SOL     OW26128   6.734   1.972   1.456
 8410SOL    HW126129   6.639   2.004   1.458
 8410SOL    HW226130   6.738   1.880   1.417
 8411SOL     OW26131   2.015   5.443   0.829
 8411SOL    HW126132   1.989   5.395   0.913
 8411SOL    HW226133   1.999   5.383   0.750
 8412SOL     OW26134   2.265   2.437   6.253
 8412SOL    HW126135   2.172   2.404   6.269
 8412SOL    HW226136   2.269   2.535   6.276
 8413SOL     OW26137   4.309   5.614   4.946
 8413SOL    HW126138   4.280   5.519   4.951
 8413SOL    HW226139   4.402   5.619   4.908
 8414SOL     OW26140   1.495   0.994   1.741
 8414SOL    HW126141   1.554   0.931   1.791
 8414SOL    HW226142   1.407   0.951   1.724
 8415SOL     OW26143   2.459   1.112   5.319
 8415SOL    HW126144   2.547   1.115   5.366
 8415SOL    HW226145   2.394   1.059   5.372
 8416SOL     OW26146   6.667   1.445   5.248
 8416SOL    HW126147   6.673   1.379   5.324
 8416SOL    HW226148   6.624   1.529   5.281
 8417SOL     OW26149   1.280   3.501   5.252
 8417SOL    HW126150   1.333   3.432   5.202
 8417SOL    HW226151   1.274   3.475   5.348
 8418SOL     OW26152   0.630   6.037   2.463
 8418SOL    HW126153   0.609   5.944   2.491
 8418SOL    HW226154   0.669   6.088   2.540
 8419SOL     OW26155   4.095   1.722   4.221
 8419SOL    HW126156   4.139   1.701   4.134
 8419SOL    HW226157   4.002   1.685   4.222
 8420SOL     OW26158   3.610   0.315   2.417
 8420SOL    HW126159   3.600   0.411   2.389
 8420SOL    HW226160   3.611   0.310   2.517
 8421SOL     OW26161   4.777   6.475   6.262
 8421SOL    HW126162   4.838   6.515   6.194
 8421SOL    HW226163   4.832   6.434   6.336
 8422SOL     OW26164   4.722   2.284   3.480
 8422SOL    HW126165   4.683   2.242   3.398
 8422SOL    HW226166   4.730   2.215   3.552
 8423SOL     OW26167   6.768   5.547   6.231
 8423SOL    HW126168   6.783   5.555   6.132
 8423SOL    HW226169   6.848   5.504   6.273
 8424SOL     OW26170   2.759   7.005   3.840
 8424SOL    HW126171   2.748   0.054   3.766
 8424SOL    HW226172   2.745   0.034   3.928
 8425SOL     OW26173   3.785   3.926   2.780
 8425SOL    HW126174   3.733   3.856   2.828
 8425SOL    HW226175   3.742   3.947   2.693
 8426SOL     OW26176   3.853   2.962   1.968
 8426SOL    HW126177   3.894   3.045   1.931
 8426SOL    HW226178   3.906   2.931   2.047
 8427SOL     OW26179   3.716   3.640   3.797
 8427SOL    HW126180   3.770   3.556   3.807
 8427SOL    HW226181   3.752   3.694   3.721
 8428SOL     OW26182   6.511   0.159   0.644
 8428SOL    HW126183   6.483   0.080   0.697
 8428SOL    HW226184   6.565   0.129   0.565
 8429SOL     OW26185   2.632   5.486   5.678
 8429SOL    HW126186   2.562   5.415   5.692
 8429SOL    HW226187   2.715   5.444   5.641
 8430SOL     OW26188   4.210   6.721   5.125
 8430SOL    HW126189   4.212   6.781   5.045
 8430SOL    HW226190   4.205   6.626   5.094
 8431SOL     OW26191   2.994   3.567   6.456
 8431SOL    HW126192   3.051   3.486   6.468
 8431SOL    HW226193   2.905   3.541   6.419
 8432SOL     OW26194   6.549   4.993   6.296
 8432SOL    HW126195   6.532   5.024   6.389
 8432SOL    HW226196   6.463   4.996   6.244
 8433SOL     OW26197   5.757   2.658   1.045
 8433SOL    HW126198   5.665   2.642   1.009
 8433SOL    HW226199   5.802   2.570   1.060
 8434SOL     OW26200   2.156   6.113   5.370
 8434SOL    HW126201   2.215   6.127   5.449
 8434SOL    HW226202   2.169   6.021   5.334
 8435SOL     OW26203   4.893   1.023   3.224
 8435SOL    HW126204   4.888   1.102   3.284
 8435SOL    HW226205   4.985   0.983   3.229
 8436SOL     OW26206   2.250   5.827   2.499
 8436SOL    HW126207   2.328   5.769   2.476
 8436SOL    HW226208   2.258   5.858   2.594
 8437SOL     OW26209   1.358   4.148   2.062
 8437SOL    HW126210   1.284   4.216   2.067
 8437SOL    HW226211   1.446   4.194   2.073
 8438SOL     OW26212   0.935   4.069   2.113
 8438SOL    HW126213   1.011   4.114   2.158
 8438SOL    HW226214   0.923   3.977   2.151
 8439SOL     OW26215   5.954   5.004   3.579
 8439SOL    HW126216   5.870   5.024   3.529
 8439SOL    HW226217   6.032   5.045   3.532
 8440SOL     OW26218   2.240   1.440   3.175
 8440SOL    HW126219   2.206   1.440   3.269
 8440SOL    HW226220   2.170   1.400   3.114
 8441SOL     OW26221   6.045   1.439   4.635
 8441SOL    HW126222   6.042   1.446   4.735
 8441SOL    HW226223   6.067   1.345   4.609
 8442SOL     OW26224   3.518   1.336   6.397
 8442SOL    HW126225   3.492   1.423   6.439
 8442SOL    HW226226   3.436   1.292   6.360
 8443SOL     OW26227   1.032   3.825   3.199
 8443SOL    HW126228   0.995   3.744   3.244
 8443SOL    HW226229   1.069   3.887   3.268
 8444SOL     OW26230   5.203   5.081   4.527
 8444SOL    HW126231   5.106   5.060   4.526
 8444SOL    HW226232   5.255   4.997   4.544
 8445SOL     OW26233   4.529   5.863   6.757
 8445SOL    HW126234   4.510   5.783   6.814
 8445SOL    HW226235   4.569   5.935   6.814
 8446SOL     OW26236   6.729   5.493   4.898
 8446SOL    HW126237   6.781   5.408   4.907
 8446SOL    HW226238   6.752   5.537   4.811
 8447SOL     OW26239   4.069   2.230   3.277
 8447SOL    HW126240   4.103   2.153   3.331
 8447SOL    HW226241   4.094   2.219   3.181
 8448SOL     OW26242   3.500   6.612   3.153
 8448SOL    HW126243   3.445   6.604   3.070
 8448SOL    HW226244   3.442   6.594   3.233
 8449SOL     OW26245   2.247   2.313   3.076
 8449SOL    HW126246   2.247   2.255   2.994
 8449SOL    HW226247   2.336   2.357   3.086
 8450SOL     OW26248   0.008   1.173   0.070
 8450SOL    HW126249   6.951   1.173   0.002
 8450SOL    HW226250   6.991   1.215   0.155
 8451SOL     OW26251   4.476   2.529   1.157
 8451SOL    HW126252   4.538   2.589   1.207
 8451SOL    HW226253   4.424   2.583   1.090
 8452SOL     OW26254   5.141   2.037   5.456
 8452SOL    HW126255   5.044   2.047   5.435
 8452SOL    HW226256   5.173   1.947   5.425
 8453SOL     OW26257   0.405   6.298   1.044
 8453SOL    HW126258   0.322   6.246   1.060
 8453SOL    HW226259   0.484   6.244   1.073
 8454SOL     OW26260   6.471   4.202   6.932
 8454SOL    HW126261   6.519   4.262   6.995
 8454SOL    HW226262   6.537   4.149   6.879
 8455SOL     OW26263   0.199   0.862   2.991
 8455SOL    HW126264   0.141   0.853   2.909
 8455SOL    HW226265   0.188   0.954   3.029
 8456SOL     OW26266   6.233   0.456   3.550
 8456SOL    HW126267   6.135   0.474   3.545
 8456SOL    HW226268   6.277   0.524   3.607
 8457SOL     OW26269   6.714   6.853   5.091
 8457SOL    HW126270   6.782   6.853   5.018
 8457SOL    HW226271   6.749   6.905   5.169
 8458SOL     OW26272   6.962   6.285   6.924
 8458SOL    HW126273   0.012   6.357   6.908
 8458SOL    HW226274   6.933   6.288   0.003
 8459SOL     OW26275   1.385   5.495   3.477
 8459SOL    HW126276   1.308   5.545   3.515
 8459SOL    HW226277   1.454   5.560   3.445
 8460SOL     OW26278   3.517   4.168   3.568
 8460SOL    HW126279   3.577   4.208   3.638
 8460SOL    HW226280   3.440   4.122   3.612
 8461SOL     OW26281   6.536   3.617   3.965
 8461SOL    HW126282   6.513   3.554   4.039
 8461SOL    HW226283   6.466   3.688   3.958
 8462SOL     OW26284   1.996   2.975   2.076
 8462SOL    HW126285   2.083   2.938   2.109
 8462SOL    HW226286   1.990   3.072   2.101
 8463SOL     OW26287   5.021   1.289   2.193
 8463SOL    HW126288   5.110   1.324   2.164
 8463SOL    HW226289   5.032   1.196   2.228
 8464SOL     OW26290   6.382   2.102   4.449
 8464SOL    HW126291   6.442   2.052   4.388
 8464SOL    HW226292   6.437   2.164   4.506
 8465SOL     OW26293   1.541   2.335   0.296
 8465SOL    HW126294   1.627   2.384   0.284
 8465SOL    HW226295   1.485   2.383   0.363
 8466SOL     OW26296   0.922   0.206   4.027
 8466SOL    HW126297   0.918   0.143   4.105
 8466SOL    HW226298   0.855   0.178   3.958
 8467SOL     OW26299   2.855   5.410   0.696
 8467SOL    HW126300   2.764   5.414   0.737
 8467SOL    HW226301   2.888   5.502   0.679
 8468SOL     OW26302   4.817   1.821   0.586
 8468SOL    HW126303   4.739   1.863   0.538
 8468SOL    HW226304   4.883   1.891   0.610
 8469SOL     OW26305   3.810   2.465   6.675
 8469SOL    HW126306   3.866   2.384   6.663
 8469SOL    HW226307   3.740   2.448   6.744
 8470SOL     OW26308   2.179   2.604   6.686
 8470SOL    HW126309   2.082   2.606   6.664
 8470SOL    HW226310   2.210   2.696   6.710
 8471SOL     OW26311   4.233   0.898   3.627
 8471SOL    HW126312   4.191   0.848   3.703
 8471SOL    HW226313   4.299   0.963   3.664
 8472SOL     OW26314   1.404   6.078   3.610
 8472SOL    HW126315   1.306   6.095   3.603
 8472SOL    HW226316   1.437   6.037   3.525
 8473SOL     OW26317   6.389   5.669   0.101
 8473SOL    HW126318   6.339   5.606   0.041
 8473SOL    HW226319   6.463   5.713   0.050
 8474SOL     OW26320   4.445   4.973   0.755
 8474SOL    HW126321   4.533   4.926   0.756
 8474SOL    HW226322   4.447   5.049   0.820
 8475SOL     OW26323   4.443   1.202   3.366
 8475SOL    HW126324   4.490   1.288   3.351
 8475SOL    HW226325   4.489   1.151   3.439
 8476SOL     OW26326   4.591   0.174   2.624
 8476SOL    HW126327   4.630   0.246   2.565
 8476SOL    HW226328   4.549   0.215   2.704
 8477SOL     OW26329   2.876   1.045   2.167
 8477SOL    HW126330   2.820   1.071   2.246
 8477SOL    HW226331   2.833   0.968   2.120
 8478SOL     OW26332   1.948   0.353   5.829
 8478SOL    HW126333   1.951   0.431   5.892
 8478SOL    HW226334   1.949   0.387   5.735
 8479SOL     OW26335   4.736   0.991   2.129
 8479SOL    HW126336   4.699   1.070   2.081
 8479SOL    HW226337   4.830   1.010   2.157
 8480SOL     OW26338   1.328   1.444   1.437
 8480SOL    HW126339   1.392   1.481   1.505
 8480SOL    HW226340   1.244   1.499   1.438
 8481SOL     OW26341   3.848   6.871   4.307
 8481SOL    HW126342   3.831   6.848   4.211
 8481SOL    HW226343   3.932   6.924   4.314
 8482SOL     OW26344   0.973   0.477   2.083
 8482SOL    HW126345   0.915   0.410   2.035
 8482SOL    HW226346   0.924   0.564   2.089
 8483SOL     OW26347   4.245   5.895   2.325
 8483SOL    HW126348   4.238   5.977   2.268
 8483SOL    HW226349   4.280   5.819   2.269
 8484SOL     OW26350   0.744   4.730   4.729
 8484SOL    HW126351   0.738   4.636   4.695
 8484SOL    HW226352   0.774   4.729   4.825
 8485SOL     OW26353   3.007   3.440   6.063
 8485SOL    HW126354   2.927   3.499   6.077
 8485SOL    HW226355   3.073   3.487   6.005
 8486SOL     OW26356   4.498   0.853   2.059
 8486SOL    HW126357   4.449   0.829   2.143
 8486SOL    HW226358   4.582   0.902   2.082
 8487SOL     OW26359   4.322   6.839   1.014
 8487SOL    HW126360   4.345   6.869   0.922
 8487SOL    HW226361   4.230   6.801   1.015
 8488SOL     OW26362   4.880   3.097   4.493
 8488SOL    HW126363   4.894   3.184   4.445
 8488SOL    HW226364   4.876   3.113   4.592
 8489SOL     OW26365   4.344   4.959   2.861
 8489SOL    HW126366   4.370   5.036   2.801
 8489SOL    HW226367   4.292   4.994   2.939
 8490SOL     OW26368   3.620   5.590   2.904
 8490SOL    HW126369   3.677   5.648   2.961
 8490SOL    HW226370   3.542   5.557   2.957
 8491SOL     OW26371   1.712   1.111   2.691
 8491SOL    HW126372   1.742   1.030   2.641
 8491SOL    HW226373   1.683   1.181   2.626
 8492SOL     OW26374   5.740   3.691   4.465
 8492SOL    HW126375   5.807   3.694   4.539
 8492SOL    HW226376   5.662   3.749   4.489
 8493SOL     OW26377   3.510   1.979   1.008
 8493SOL    HW126378   3.434   2.026   0.964
 8493SOL    HW226379   3.530   2.022   1.096
 8494SOL     OW26380   3.549   5.635   0.055
 8494SOL    HW126381   3.461   5.678   0.037
 8494SOL    HW226382   3.579   5.586   6.990
 8495SOL     OW26383   0.284   2.970   0.044
 8495SOL    HW126384   0.353   3.037   0.017
 8495SOL    HW226385   0.326   2.902   0.105
 8496SOL     OW26386   6.767   3.054   3.221
 8496SOL    HW126387   6.778   2.992   3.299
 8496SOL    HW226388   6.820   3.020   3.144
 8497SOL     OW26389   6.012   5.448   3.450
 8497SOL    HW126390   6.098   5.464   3.402
 8497SOL    HW226391   5.961   5.534   3.458
 8498SOL     OW26392   7.010   1.179   0.460
 8498SOL    HW126393   6.967   1.104   0.510
 8498SOL    HW226394   0.023   1.249   0.524
 8499SOL     OW26395   3.261   4.178   6.769
 8499SOL    HW126396   3.173   4.136   6.792
 8499SOL    HW226397   3.258   4.213   6.675
 8500SOL     OW26398   3.063   0.940   6.340
 8500SOL    HW126399   3.082   0.964   6.245
 8500SOL    HW226400   3.075   1.020   6.398
 8501SOL     OW26401   2.220   4.625   5.890
 8501SOL    HW126402   2.134   4.575   5.902
 8501SOL    HW226403   2.292   4.560   5.865
 8502SOL     OW26404   0.245   0.327   2.278
 8502SOL    HW126405   0.339   0.341   2.245
 8502SOL    HW226406   0.183   0.327   2.200
 8503SOL     OW26407   3.020   5.327   3.197
 8503SOL    HW126408   3.058   5.275   3.273
 8503SOL    HW226409   2.952   5.392   3.231
 8504SOL     OW26410   0.629   5.739   2.904
 8504SOL    HW126411   0.691   5.729   2.826
 8504SOL    HW226412   0.606   5.648   2.940
 8505SOL     OW26413   4.786   2.986   3.690
 8505SOL    HW126414   4.718   2.927   3.734
 8505SOL    HW226415   4.802   2.953   3.597
 8506SOL     OW26416   1.041   6.387   0.441
 8506SOL    HW126417   1.016   6.334   0.360
 8506SOL    HW226418   1.049   6.484   0.417
 8507SOL     OW26419   2.123   1.053   5.036
 8507SOL    HW126420   2.117   1.102   5.122
 8507SOL    HW226421   2.062   1.096   4.968
 8508SOL     OW26422   1.141   2.850   5.908
 8508SOL    HW126423   1.156   2.925   5.973
 8508SOL    HW226424   1.227   2.799   5.896
 8509SOL     OW26425   6.062   1.830   4.468
 8509SOL    HW126426   6.115   1.747   4.487
 8509SOL    HW226427   5.978   1.829   4.522
 8510SOL     OW26428   4.946   0.186   2.870
 8510SOL    HW126429   5.039   0.151   2.871
 8510SOL    HW226430   4.948   0.284   2.850
 8511SOL     OW26431   6.824   4.728   1.784
 8511SOL    HW126432   6.863   4.662   1.847
 8511SOL    HW226433   6.724   4.726   1.791
 8512SOL     OW26434   4.602   1.932   0.472
 8512SOL    HW126435   4.595   1.990   0.390
 8512SOL    HW226436   4.534   1.961   0.539
 8513SOL     OW26437   6.920   4.495   0.928
 8513SOL    HW126438   6.912   4.436   1.009
 8513SOL    HW226439   6.958   4.442   0.852
 8514SOL     OW26440   2.792   2.737   5.650
 8514SOL    HW126441   2.695   2.749   5.632
 8514SOL    HW226442   2.843   2.816   5.616
 8515SOL     OW26443   1.193   0.228   1.100
 8515SOL    HW126444   1.123   0.284   1.056
 8515SOL    HW226445   1.183   0.235   1.199
 8516SOL     OW26446   5.502   2.287   3.552
 8516SOL    HW126447   5.532   2.192   3.565
 8516SOL    HW226448   5.494   2.307   3.455
 8517SOL     OW26449   1.978   2.015   5.636
 8517SOL    HW126450   2.016   1.950   5.702
 8517SOL    HW226451   2.048   2.039   5.569
 8518SOL     OW26452   5.274   4.560   0.389
 8518SOL    HW126453   5.212   4.511   0.451
 8518SOL    HW226454   5.369   4.540   0.415
 8519SOL     OW26455   1.456   3.517   0.933
 8519SOL    HW126456   1.540   3.471   0.961
 8519SOL    HW226457   1.395   3.526   1.011
 8520SOL     OW26458   4.041   4.062   5.980
 8520SOL    HW126459   3.946   4.092   5.978
 8520SOL    HW226460   4.098   4.136   6.016
 8521SOL     OW26461   1.645   6.426   5.671
 8521SOL    HW126462   1.617   6.459   5.581
 8521SOL    HW226463   1.721   6.482   5.705
 8522SOL     OW26464   1.002   6.759   0.505
 8522SOL    HW126465   1.011   6.829   0.434
 8522SOL    HW226466   1.008   6.801   0.595
 8523SOL     OW26467   3.260   1.472   0.121
 8523SOL    HW126468   3.316   1.547   0.087
 8523SOL    HW226469   3.318   1.393   0.141
 8524SOL     OW26470   2.322   5.750   4.343
 8524SOL    HW126471   2.335   5.736   4.442
 8524SOL    HW226472   2.241   5.701   4.312
 8525SOL     OW26473   6.261   4.982   1.466
 8525SOL    HW126474   6.299   4.919   1.533
 8525SOL    HW226475   6.244   4.932   1.380
 8526SOL     OW26476   1.052   6.035   0.658
 8526SOL    HW126477   1.122   6.072   0.719
 8526SOL    HW226478   1.084   5.948   0.620
 8527SOL     OW26479   3.032   0.971   5.392
 8527SOL    HW126480   3.032   0.874   5.365
 8527SOL    HW226481   3.007   0.977   5.489
 8528SOL     OW26482   5.106   1.573   0.543
 8528SOL    HW126483   5.012   1.570   0.511
 8528SOL    HW226484   5.169   1.552   0.468
 8529SOL     OW26485   1.146   6.264   6.491
 8529SOL    HW126486   1.136   6.287   6.588
 8529SOL    HW226487   1.156   6.165   6.482
 8530SOL     OW26488   2.995   3.762   4.013
 8530SOL    HW126489   3.047   3.697   3.957
 8530SOL    HW226490   2.932   3.713   4.072
 8531SOL     OW26491   6.651   5.147   4.226
 8531SOL    HW126492   6.698   5.226   4.263
 8531SOL    HW226493   6.718   5.075   4.207
 8532SOL     OW26494   2.569   5.141   5.435
 8532SOL    HW126495   2.532   5.050   5.453
 8532SOL    HW226496   2.495   5.209   5.440
 8533SOL     OW26497   2.313   6.104   5.602
 8533SOL    HW126498   2.295   6.111   5.700
 8533SOL    HW226499   2.357   6.016   5.583
 8534SOL     OW26500   2.585   2.527   3.917
 8534SOL    HW126501   2.539   2.450   3.872
 8534SOL    HW226502   2.682   2.527   3.893
 8535SOL     OW26503   6.134   0.657   2.449
 8535SOL    HW126504   6.178   0.572   2.419
 8535SOL    HW226505   6.204   0.721   2.481
 8536SOL     OW26506   0.869   1.206   4.847
 8536SOL    HW126507   0.956   1.166   4.877
 8536SOL    HW226508   0.884   1.301   4.820
 8537SOL     OW26509   6.975   1.265   2.440
 8537SOL    HW126510   6.884   1.226   2.424
 8537SOL    HW226511   6.966   1.350   2.492
 8538SOL     OW26512   1.290   2.419   0.104
 8538SOL    HW126513   1.373   2.476   0.099
 8538SOL    HW226514   1.233   2.436   0.024
 8539SOL     OW26515   6.019   2.538   3.243
 8539SOL    HW126516   5.920   2.520   3.250
 8539SOL    HW226517   6.034   2.634   3.223
 8540SOL     OW26518   3.908   0.210   0.807
 8540SOL    HW126519   3.932   0.273   0.881
 8540SOL    HW226520   3.816   0.173   0.823
 8541SOL     OW26521   1.975   2.872   4.377
 8541SOL    HW126522   1.915   2.807   4.331
 8541SOL    HW226523   1.976   2.853   4.475
 8542SOL     OW26524   3.597   4.928   0.757
 8542SOL    HW126525   3.670   4.859   0.757
 8542SOL    HW226526   3.511   4.886   0.728
 8543SOL     OW26527   2.340   2.198   6.161
 8543SOL    HW126528   2.370   2.130   6.228
 8543SOL    HW226529   2.308   2.279   6.209
 8544SOL     OW26530   6.475   3.056   3.381
 8544SOL    HW126531   6.532   3.004   3.317
 8544SOL    HW226532   6.465   3.150   3.347
 8545SOL     OW26533   4.875   6.548   5.073
 8545SOL    HW126534   4.926   6.586   4.996
 8545SOL    HW226535   4.929   6.477   5.117
 8546SOL     OW26536   4.408   1.603   6.056
 8546SOL    HW126537   4.314   1.599   6.022
 8546SOL    HW226538   4.414   1.554   6.143
 8547SOL     OW26539   0.522   4.633   2.996
 8547SOL    HW126540   0.539   4.696   3.072
 8547SOL    HW226541   0.569   4.546   3.014
 8548SOL     OW26542   6.068   1.361   5.610
 8548SOL    HW126543   6.070   1.421   5.689
 8548SOL    HW226544   6.060   1.266   5.640
 8549SOL     OW26545   5.556   3.255   5.115
 8549SOL    HW126546   5.470   3.272   5.067
 8549SOL    HW226547   5.536   3.209   5.202
 8550SOL     OW26548   0.982   4.202   6.619
 8550SOL    HW126549   0.998   4.233   6.525
 8550SOL    HW226550   0.947   4.108   6.617
 8551SOL     OW26551   3.415   3.877   0.367
 8551SOL    HW126552   3.389   3.783   0.342
 8551SOL    HW226553   3.462   3.920   0.289
 8552SOL     OW26554   3.130   6.337   3.994
 8552SOL    HW126555   3.136   6.329   4.093
 8552SOL    HW226556   3.047   6.387   3.969
 8553SOL     OW26557   5.688   6.157   0.356
 8553SOL    HW126558   5.666   6.060   0.370
 8553SOL    HW226559   5.691   6.177   0.258
 8554SOL     OW26560   6.270   4.373   6.919
 8554SOL    HW126561   6.343   4.305   6.924
 8554SOL    HW226562   6.194   4.346   6.978
 8555SOL     OW26563   0.907   0.083   4.309
 8555SOL    HW126564   0.888   0.166   4.363
 8555SOL    HW226565   0.954   0.016   4.367
 8556SOL     OW26566   6.519   0.196   3.937
 8556SOL    HW126567   6.554   0.269   3.996
 8556SOL    HW226568   6.423   0.179   3.959
 8557SOL     OW26569   0.322   0.740   0.679
 8557SOL    HW126570   0.224   0.760   0.686
 8557SOL    HW226571   0.368   0.816   0.632
 8558SOL     OW26572   1.023   5.241   1.913
 8558SOL    HW126573   1.111   5.207   1.881
 8558SOL    HW226574   1.035   5.286   2.002
 8559SOL     OW26575   0.516   1.390   6.127
 8559SOL    HW126576   0.535   1.294   6.149
 8559SOL    HW226577   0.595   1.430   6.081
 8560SOL     OW26578   6.388   2.512   6.308
 8560SOL    HW126579   6.451   2.588   6.327
 8560SOL    HW226580   6.412   2.434   6.366
 8561SOL     OW26581   4.902   6.540   4.590
 8561SOL    HW126582   4.976   6.575   4.534
 8561SOL    HW226583   4.899   6.440   4.582
 8562SOL     OW26584   3.596   6.939   4.458
 8562SOL    HW126585   3.538   6.858   4.463
 8562SOL    HW226586   3.689   6.912   4.430
 8563SOL     OW26587   2.728   2.651   6.013
 8563SOL    HW126588   2.670   2.725   5.981
 8563SOL    HW226589   2.824   2.675   5.996
 8564SOL     OW26590   0.518   0.176   3.894
 8564SOL    HW126591   0.430   0.130   3.877
 8564SOL    HW226592   0.583   0.110   3.931
 8565SOL     OW26593   4.782   0.524   1.727
 8565SOL    HW126594   4.810   0.529   1.631
 8565SOL    HW226595   4.811   0.607   1.774
 8566SOL     OW26596   2.024   3.582   3.239
 8566SOL    HW126597   2.054   3.489   3.222
 8566SOL    HW226598   1.973   3.616   3.160
 8567SOL     OW26599   5.094   6.794   0.853
 8567SOL    HW126600   5.021   6.835   0.909
 8567SOL    HW226601   5.060   6.779   0.760
 8568SOL     OW26602   5.461   1.231   0.253
 8568SOL    HW126603   5.469   1.240   0.153
 8568SOL    HW226604   5.549   1.204   0.291
 8569SOL     OW26605   4.242   1.512   5.030
 8569SOL    HW126606   4.302   1.490   4.953
 8569SOL    HW226607   4.259   1.606   5.060
 8570SOL     OW26608   1.173   4.559   6.826
 8570SOL    HW126609   1.118   4.545   6.908
 8570SOL    HW226610   1.263   4.593   6.851
 8571SOL     OW26611   0.078   4.415   4.988
 8571SOL    HW126612   0.050   4.320   4.982
 8571SOL    HW226613   0.082   4.455   4.896
 8572SOL     OW26614   2.951   5.070   5.195
 8572SOL    HW126615   2.854   5.096   5.193
 8572SOL    HW226616   2.971   5.011   5.116
 8573SOL     OW26617   4.211   5.385   4.858
 8573SOL    HW126618   4.172   5.301   4.896
 8573SOL    HW226619   4.250   5.366   4.768
 8574SOL     OW26620   0.547   3.746   4.751
 8574SOL    HW126621   0.503   3.663   4.786
 8574SOL    HW226622   0.495   3.782   4.674
 8575SOL     OW26623   3.366   3.298   6.801
 8575SOL    HW126624   3.350   3.288   6.703
 8575SOL    HW226625   3.324   3.222   6.850
 8576SOL     OW26626   1.724   6.927   1.661
 8576SOL    HW126627   1.648   6.890   1.716
 8576SOL    HW226628   1.781   6.851   1.629
 8577SOL     OW26629   6.517   5.413   3.424
 8577SOL    HW126630   6.616   5.402   3.421
 8577SOL    HW226631   6.494   5.488   3.486
 8578SOL     OW26632   4.536   6.583   3.674
 8578SOL    HW126633   4.509   6.501   3.724
 8578SOL    HW226634   4.635   6.594   3.678
 8579SOL     OW26635   0.765   6.060   2.889
 8579SOL    HW126636   0.781   6.149   2.930
 8579SOL    HW226637   0.815   5.990   2.940
 8580SOL     OW26638   2.746   4.391   6.463
 8580SOL    HW126639   2.666   4.340   6.433
 8580SOL    HW226640   2.822   4.328   6.479
 8581SOL     OW26641   3.319   2.565   1.049
 8581SOL    HW126642   3.278   2.609   1.129
 8581SOL    HW226643   3.247   2.543   0.982
 8582SOL     OW26644   4.549   4.285   1.182
 8582SOL    HW126645   4.642   4.270   1.148
 8582SOL    HW226646   4.552   4.310   1.279
 8583SOL     OW26647   5.484   0.156   6.104
 8583SOL    HW126648   5.510   0.102   6.184
 8583SOL    HW226649   5.405   0.113   6.059
 8584SOL     OW26650   6.974   5.344   6.301
 8584SOL    HW126651   6.970   5.260   6.247
 8584SOL    HW226652   6.930   5.328   6.390
 8585SOL     OW26653   0.642   1.446   0.996
 8585SOL    HW126654   0.661   1.351   0.972
 8585SOL    HW226655   0.689   1.468   1.081
 8586SOL     OW26656   4.222   5.453   4.045
 8586SOL    HW126657   4.161   5.384   4.084
 8586SOL    HW226658   4.176   5.499   3.968
 8587SOL     OW26659   6.989   1.627   1.071
 8587SOL    HW126660   6.984   1.591   1.164
 8587SOL    HW226661   0.037   1.572   1.017
 8588SOL     OW26662   4.598   2.114   0.252
 8588SOL    HW126663   4.504   2.111   0.221
 8588SOL    HW226664   4.640   2.200   0.223
 8589SOL     OW26665   2.911   1.649   4.582
 8589SOL    HW126666   2.871   1.731   4.540
 8589SOL    HW226667   2.838   1.585   4.608
 8590SOL     OW26668   6.196   5.223   5.861
 8590SOL    HW126669   6.197   5.245   5.764
 8590SOL    HW226670   6.202   5.123   5.873
 8591SOL     OW26671   0.955   2.988   6.910
 8591SOL    HW126672   0.861   3.021   6.901
 8591SOL    HW226673   0.975   2.922   6.838
 8592SOL     OW26674   6.550   5.663   6.327
 8592SOL    HW126675   6.638   5.620   6.306
 8592SOL    HW226676   6.565   5.746   6.380
 8593SOL     OW26677   0.671   0.297   3.184
 8593SOL    HW126678   0.694   0.283   3.088
 8593SOL    HW226679   0.707   0.385   3.215
 8594SOL     OW26680   3.206   3.669   3.580
 8594SOL    HW126681   3.294   3.710   3.602
 8594SOL    HW226682   3.139   3.741   3.561
 8595SOL     OW26683   1.921   2.689   1.627
 8595SOL    HW126684   1.933   2.762   1.560
 8595SOL    HW226685   2.004   2.679   1.681
 8596SOL     OW26686   6.204   4.845   2.272
 8596SOL    HW126687   6.120   4.808   2.233
 8596SOL    HW226688   6.271   4.772   2.280
 8597SOL     OW26689   1.707   1.677   0.634
 8597SOL    HW126690   1.736   1.770   0.657
 8597SOL    HW226691   1.692   1.625   0.718
 8598SOL     OW26692   5.354   4.249   0.769
 8598SOL    HW126693   5.433   4.288   0.721
 8598SOL    HW226694   5.379   4.160   0.807
 8599SOL     OW26695   1.413   3.391   2.418
 8599SOL    HW126696   1.346   3.465   2.409
 8599SOL    HW226697   1.411   3.335   2.336
 8600SOL     OW26698   6.344   3.714   6.264
 8600SOL    HW126699   6.333   3.652   6.342
 8600SOL    HW226700   6.367   3.806   6.298
 8601SOL     OW26701   0.325   0.542   4.396
 8601SOL    HW126702   0.376   0.508   4.475
 8601SOL    HW226703   0.317   0.469   4.328
 8602SOL     OW26704   3.308   6.323   2.255
 8602SOL    HW126705   3.270   6.406   2.215
 8602SOL    HW226706   3.308   6.330   2.354
 8603SOL     OW26707   4.494   3.615   1.045
 8603SOL    HW126708   4.467   3.533   0.995
 8603SOL    HW226709   4.592   3.613   1.064
 8604SOL     OW26710   5.403   2.339   3.004
 8604SOL    HW126711   5.450   2.311   2.920
 8604SOL    HW226712   5.344   2.266   3.036
 8605SOL     OW26713   2.824   6.655   2.204
 8605SOL    HW126714   2.824   6.582   2.135
 8605SOL    HW226715   2.869   6.736   2.167
 8606SOL     OW26716   4.198   5.014   5.738
 8606SOL    HW126717   4.294   5.010   5.709
 8606SOL    HW226718   4.142   5.043   5.661
 8607SOL     OW26719   3.607   6.235   1.717
 8607SOL    HW126720   3.683   6.268   1.660
 8607SOL    HW226721   3.555   6.313   1.751
 8608SOL     OW26722   5.117   6.243   2.489
 8608SOL    HW126723   5.087   6.148   2.485
 8608SOL    HW226724   5.171   6.258   2.572
 8609SOL     OW26725   4.047   0.546   6.210
 8609SOL    HW126726   4.034   0.495   6.125
 8609SOL    HW226727   4.087   0.635   6.191
 8610SOL     OW26728   0.063   6.922   4.501
 8610SOL    HW126729   0.102   6.912   4.592
 8610SOL    HW226730   0.123   6.880   4.433
 8611SOL     OW26731   1.623   1.626   3.090
 8611SOL    HW126732   1.598   1.719   3.116
 8611SOL    HW226733   1.659   1.577   3.170
 8612SOL     OW26734   4.490   2.921   5.318
 8612SOL    HW126735   4.573   2.887   5.272
 8612SOL    HW226736   4.431   2.844   5.342
 8613SOL     OW26737   1.215   1.412   0.049
 8613SOL    HW126738   1.176   1.502   0.031
 8613SOL    HW226739   1.222   1.398   0.148
 8614SOL     OW26740   0.887   1.483   3.411
 8614SOL    HW126741   0.958   1.413   3.419
 8614SOL    HW226742   0.894   1.529   3.323
 8615SOL     OW26743   4.636   2.478   5.331
 8615SOL    HW126744   4.573   2.490   5.254
 8615SOL    HW226745   4.667   2.383   5.334
 8616SOL     OW26746   1.658   3.535   6.803
 8616SOL    HW126747   1.677   3.439   6.825
 8616SOL    HW226748   1.737   3.574   6.756
 8617SOL     OW26749   5.952   3.290   1.316
 8617SOL    HW126750   5.934   3.205   1.366
 8617SOL    HW226751   6.047   3.317   1.331
 8618SOL     OW26752   4.847   0.498   3.679
 8618SOL    HW126753   4.792   0.453   3.609
 8618SOL    HW226754   4.798   0.498   3.766
 8619SOL     OW26755   4.512   5.633   0.449
 8619SOL    HW126756   4.516   5.642   0.349
 8619SOL    HW226757   4.578   5.565   0.479
 8620SOL     OW26758   6.064   6.284   3.213
 8620SOL    HW126759   6.096   6.378   3.228
 8620SOL    HW226760   5.964   6.282   3.215
 8621SOL     OW26761   5.985   0.848   3.017
 8621SOL    HW126762   5.938   0.835   2.930
 8621SOL    HW226763   5.929   0.906   3.077
 8622SOL     OW26764   5.317   5.530   6.667
 8622SOL    HW126765   5.365   5.616   6.685
 8622SOL    HW226766   5.321   5.472   6.748
 8623SOL     OW26767   6.464   2.936   2.636
 8623SOL    HW126768   6.505   2.865   2.580
 8623SOL    HW226769   6.409   2.997   2.579
 8624SOL     OW26770   0.517   5.151   3.705
 8624SOL    HW126771   0.545   5.136   3.800
 8624SOL    HW226772   0.495   5.248   3.692
 8625SOL     OW26773   3.796   0.698   5.690
 8625SOL    HW126774   3.804   0.624   5.757
 8625SOL    HW226775   3.876   0.758   5.697
 8626SOL     OW26776   2.964   3.194   2.359
 8626SOL    HW126777   2.868   3.178   2.335
 8626SOL    HW226778   3.012   3.233   2.281
 8627SOL     OW26779   2.438   0.423   6.472
 8627SOL    HW126780   2.345   0.440   6.503
 8627SOL    HW226781   2.502   0.449   6.544
 8628SOL     OW26782   5.834   0.974   0.183
 8628SOL    HW126783   5.770   0.907   0.145
 8628SOL    HW226784   5.871   1.031   0.109
 8629SOL     OW26785   0.989   5.163   3.697
 8629SOL    HW126786   1.023   5.253   3.670
 8629SOL    HW226787   1.066   5.104   3.721
 8630SOL     OW26788   5.365   4.501   4.093
 8630SOL    HW126789   5.367   4.596   4.064
 8630SOL    HW226790   5.385   4.441   4.016
 8631SOL     OW26791   3.742   5.797   4.040
 8631SOL    HW126792   3.721   5.788   3.942
 8631SOL    HW226793   3.680   5.864   4.081
 8632SOL     OW26794   5.030   0.289   3.552
 8632SOL    HW126795   4.981   0.350   3.491
 8632SOL    HW226796   5.042   0.333   3.641
 8633SOL     OW26797   6.441   0.779   4.060
 8633SOL    HW126798   6.527   0.786   4.111
 8633SOL    HW226799   6.425   0.683   4.037
 8634SOL     OW26800   6.574   5.545   2.075
 8634SOL    HW126801   6.665   5.533   2.036
 8634SOL    HW226802   6.505   5.520   2.007
 8635SOL     OW26803   6.359   4.091   5.377
 8635SOL    HW126804   6.331   4.174   5.329
 8635SOL    HW226805   6.458   4.090   5.387
 8636SOL     OW26806   5.213   5.837   0.060
 8636SOL    HW126807   5.275   5.774   0.014
 8636SOL    HW226808   5.257   5.927   0.068
 8637SOL     OW26809   1.433   0.280   1.617
 8637SOL    HW126810   1.487   0.313   1.540
 8637SOL    HW226811   1.477   0.307   1.702
 8638SOL     OW26812   4.071   5.046   0.251
 8638SOL    HW126813   3.994   5.020   0.193
 8638SOL    HW226814   4.109   4.965   0.295
 8639SOL     OW26815   6.909   2.904   2.140
 8639SOL    HW126816   6.810   2.892   2.128
 8639SOL    HW226817   6.944   2.833   2.200
 8640SOL     OW26818   5.358   6.309   1.353
 8640SOL    HW126819   5.401   6.317   1.443
 8640SOL    HW226820   5.303   6.225   1.350
 8641SOL     OW26821   5.532   4.930   3.698
 8641SOL    HW126822   5.525   5.000   3.770
 8641SOL    HW226823   5.627   4.900   3.691
 8642SOL     OW26824   4.983   1.738   1.899
 8642SOL    HW126825   4.960   1.823   1.850
 8642SOL    HW226826   4.979   1.661   1.836
 8643SOL     OW26827   4.788   1.177   5.973
 8643SOL    HW126828   4.813   1.101   6.032
 8643SOL    HW226829   4.693   1.167   5.943
 8644SOL     OW26830   6.425   3.464   5.432
 8644SOL    HW126831   6.522   3.488   5.435
 8644SOL    HW226832   6.402   3.409   5.513
 8645SOL     OW26833   5.846   4.591   1.672
 8645SOL    HW126834   5.942   4.580   1.699
 8645SOL    HW226835   5.808   4.502   1.648
 8646SOL     OW26836   5.388   0.834   0.497
 8646SOL    HW126837   5.457   0.790   0.554
 8646SOL    HW226838   5.300   0.836   0.545
 8647SOL     OW26839   4.473   5.097   1.754
 8647SOL    HW126840   4.511   5.158   1.824
 8647SOL    HW226841   4.380   5.072   1.779
 8648SOL     OW26842   5.247   1.950   4.390
 8648SOL    HW126843   5.216   1.898   4.311
 8648SOL    HW226844   5.320   2.013   4.363
 8649SOL     OW26845   0.097   4.570   5.566
 8649SOL    HW126846   0.135   4.498   5.509
 8649SOL    HW226847   0.163   4.595   5.637
 8650SOL     OW26848   1.396   4.562   2.418
 8650SOL    HW126849   1.407   4.597   2.325
 8650SOL    HW226850   1.376   4.464   2.415
 8651SOL     OW26851   2.923   1.910   1.408
 8651SOL    HW126852   3.007   1.908   1.461
 8651SOL    HW226853   2.922   1.990   1.348
 8652SOL     OW26854   1.444   4.137   3.931
 8652SOL    HW126855   1.518   4.109   3.992
 8652SOL    HW226856   1.381   4.061   3.917
 8653SOL     OW26857   6.110   3.275   6.334
 8653SOL    HW126858   6.115   3.291   6.433
 8653SOL    HW226859   6.202   3.273   6.296
 8654SOL     OW26860   0.060   7.008   3.080
 8654SOL    HW126861   7.005   0.036   3.026
 8654SOL    HW226862   0.149   0.030   3.055
 8655SOL     OW26863   5.755   6.053   4.077
 8655SOL    HW126864   5.731   6.076   4.171
 8655SOL    HW226865   5.824   6.116   4.043
 8656SOL     OW26866   6.215   2.314   1.523
 8656SOL    HW126867   6.271   2.267   1.592
 8656SOL    HW226868   6.271   2.382   1.476
 8657SOL     OW26869   3.294   4.123   0.158
 8657SOL    HW126870   3.298   4.219   0.131
 8657SOL    HW226871   3.372   4.073   0.119
 8658SOL     OW26872   7.010   5.138   0.300
 8658SOL    HW126873   6.975   5.229   0.277
 8658SOL    HW226874   6.956   5.099   0.374
 8659SOL     OW26875   5.075   0.531   4.207
 8659SOL    HW126876   5.084   0.536   4.108
 8659SOL    HW226877   5.051   0.622   4.243
 8660SOL     OW26878   5.777   4.654   1.398
 8660SOL    HW126879   5.734   4.745   1.392
 8660SOL    HW226880   5.794   4.632   1.494
 8661SOL     OW26881   6.193   3.798   1.700
 8661SOL    HW126882   6.267   3.748   1.745
 8661SOL    HW226883   6.142   3.736   1.640
 8662SOL     OW26884   0.014   0.481   0.653
 8662SOL    HW126885   0.099   0.484   0.706
 8662SOL    HW226886   0.027   0.533   0.568
 8663SOL     OW26887   2.506   5.677   0.436
 8663SOL    HW126888   2.542   5.585   0.451
 8663SOL    HW226889   2.447   5.703   0.512
 8664SOL     OW26890   4.146   5.124   1.524
 8664SOL    HW126891   4.123   5.173   1.608
 8664SOL    HW226892   4.147   5.188   1.447
 8665SOL     OW26893   5.055   5.295   5.627
 8665SOL    HW126894   5.146   5.260   5.604
 8665SOL    HW226895   4.990   5.269   5.557
 8666SOL     OW26896   5.292   3.745   4.123
 8666SOL    HW126897   5.389   3.752   4.097
 8666SOL    HW226898   5.265   3.826   4.175
 8667SOL     OW26899   5.020   1.408   3.471
 8667SOL    HW126900   5.060   1.477   3.410
 8667SOL    HW226901   4.935   1.443   3.509
 8668SOL     OW26902   3.430   1.869   4.216
 8668SOL    HW126903   3.495   1.830   4.281
 8668SOL    HW226904   3.444   1.967   4.210
 8669SOL     OW26905   3.994   0.941   6.206
 8669SOL    HW126906   3.913   0.884   6.221
 8669SOL    HW226907   4.055   0.933   6.285
 8670SOL     OW26908   3.956   4.875   4.546
 8670SOL    HW126909   3.857   4.868   4.536
 8670SOL    HW226910   3.979   4.891   4.643
 8671SOL     OW26911   5.633   6.473   2.862
 8671SOL    HW126912   5.650   6.488   2.959
 8671SOL    HW226913   5.701   6.523   2.808
 8672SOL     OW26914   3.072   4.845   5.030
 8672SOL    HW126915   3.152   4.832   5.089
 8672SOL    HW226916   3.014   4.764   5.034
 8673SOL     OW26917   5.810   1.794   1.140
 8673SOL    HW126918   5.874   1.870   1.126
 8673SOL    HW226919   5.855   1.722   1.193
 8674SOL     OW26920   0.783   0.212   2.934
 8674SOL    HW126921   0.832   0.137   2.888
 8674SOL    HW226922   0.706   0.240   2.878
 8675SOL     OW26923   2.101   1.264   2.744
 8675SOL    HW126924   2.089   1.352   2.698
 8675SOL    HW226925   2.153   1.202   2.685
 8676SOL     OW26926   4.527   6.786   3.901
 8676SOL    HW126927   4.490   6.706   3.855
 8676SOL    HW226928   4.452   6.845   3.930
 8677SOL     OW26929   2.383   4.325   5.103
 8677SOL    HW126930   2.327   4.259   5.053
 8677SOL    HW226931   2.447   4.277   5.163
 8678SOL     OW26932   1.104   0.343   6.554
 8678SOL    HW126933   1.095   0.437   6.588
 8678SOL    HW226934   1.142   0.345   6.461
 8679SOL     OW26935   6.880   2.658   4.606
 8679SOL    HW126936   6.924   2.634   4.693
 8679SOL    HW226937   6.833   2.746   4.616
 8680SOL     OW26938   1.415   3.076   0.086
 8680SOL    HW126939   1.498   3.122   0.117
 8680SOL    HW226940   1.380   3.018   0.160
 8681SOL     OW26941   4.177   3.829   0.883
 8681SOL    HW126942   4.259   3.815   0.827
 8681SOL    HW226943   4.204   3.861   0.974
 8682SOL     OW26944   1.851   6.013   2.642
 8682SOL    HW126945   1.930   6.049   2.591
 8682SOL    HW226946   1.805   5.943   2.587
 8683SOL     OW26947   6.647   3.324   6.537
 8683SOL    HW126948   6.676   3.420   6.527
 8683SOL    HW226949   6.628   3.305   6.633
 8684SOL     OW26950   6.508   2.650   4.237
 8684SOL    HW126951   6.588   2.674   4.181
 8684SOL    HW226952   6.425   2.686   4.194
 8685SOL     OW26953   0.715   2.194   5.519
 8685SOL    HW126954   0.737   2.289   5.538
 8685SOL    HW226955   0.616   2.182   5.515
 8686SOL     OW26956   6.483   2.319   3.081
 8686SOL    HW126957   6.422   2.390   3.116
 8686SOL    HW226958   6.449   2.229   3.108
 8687SOL     OW26959   4.182   0.058   2.957
 8687SOL    HW126960   4.179   6.977   2.935
 8687SOL    HW226961   4.093   0.099   2.936
 8688SOL     OW26962   1.905   0.048   2.167
 8688SOL    HW126963   1.840   0.037   2.092
 8688SOL    HW226964   1.922   6.975   2.209
 8689SOL     OW26965   4.369   5.859   0.533
 8689SOL    HW126966   4.275   5.839   0.504
 8689SOL    HW226967   4.427   5.779   0.517
 8690SOL     OW26968   0.670   1.444   2.872
 8690SOL    HW126969   0.738   1.410   2.937
 8690SOL    HW226970   0.579   1.414   2.900
 8691SOL     OW26971   5.647   1.700   0.762
 8691SOL    HW126972   5.553   1.720   0.734
 8691SOL    HW226973   5.652   1.691   0.861
 8692SOL     OW26974   1.876   1.483   4.113
 8692SOL    HW126975   1.792   1.470   4.166
 8692SOL    HW226976   1.933   1.400   4.120
 8693SOL     OW26977   5.563   2.310   0.771
 8693SOL    HW126978   5.466   2.330   0.785
 8693SOL    HW226979   5.573   2.247   0.694
 8694SOL     OW26980   4.579   6.706   5.781
 8694SOL    HW126981   4.646   6.780   5.777
 8694SOL    HW226982   4.489   6.745   5.800
 8695SOL     OW26983   3.946   4.349   5.777
 8695SOL    HW126984   4.023   4.328   5.717
 8695SOL    HW226985   3.878   4.277   5.771
 8696SOL     OW26986   2.056   5.178   1.161
 8696SOL    HW126987   2.056   5.112   1.236
 8696SOL    HW226988   2.149   5.189   1.127
 8697SOL     OW26989   6.106   4.543   1.271
 8697SOL    HW126990   6.027   4.535   1.210
 8697SOL    HW226991   6.185   4.498   1.229
 8698SOL     OW26992   5.644   5.545   4.519
 8698SOL    HW126993   5.632   5.595   4.433
 8698SOL    HW226994   5.664   5.449   4.499
 8699SOL     OW26995   1.160   1.475   5.300
 8699SOL    HW126996   1.091   1.425   5.247
 8699SOL    HW226997   1.245   1.422   5.301
 8700SOL     OW26998   2.804   1.224   5.411
 8700SOL    HW126999   2.808   1.321   5.386
 8700SOL    HW227000   2.895   1.193   5.436
 8701SOL     OW27001   1.249   1.658   4.696
 8701SOL    HW127002   1.167   1.686   4.745
 8701SOL    HW227003   1.327   1.712   4.729
 8702SOL     OW27004   4.621   6.068   6.890
 8702SOL    HW127005   4.710   6.056   6.935
 8702SOL    HW227006   4.592   6.163   6.898
 8703SOL     OW27007   2.712   5.510   0.953
 8703SOL    HW127008   2.725   5.609   0.945
 8703SOL    HW227009   2.647   5.479   0.884
 8704SOL     OW27010   0.270   4.090   1.235
 8704SOL    HW127011   0.317   4.022   1.180
 8704SOL    HW227012   0.303   4.086   1.329
 8705SOL     OW27013   4.705   6.927   5.712
 8705SOL    HW127014   4.796   6.961   5.734
 8705SOL    HW227015   4.697   6.912   5.613
 8706SOL     OW27016   5.135   1.630   0.817
 8706SOL    HW127017   5.147   1.609   0.720
 8706SOL    HW227018   5.051   1.587   0.849
 8707SOL     OW27019   4.781   2.897   6.005
 8707SOL    HW127020   4.729   2.973   6.045
 8707SOL    HW227021   4.863   2.882   6.060
 8708SOL     OW27022   4.090   1.610   1.058
 8708SOL    HW127023   4.009   1.666   1.042
 8708SOL    HW227024   4.083   1.567   1.148
 8709SOL     OW27025   0.137   3.838   0.843
 8709SOL    HW127026   0.170   3.749   0.875
 8709SOL    HW227027   0.038   3.843   0.854
 8710SOL     OW27028   1.351   3.268   3.009
 8710SOL    HW127029   1.415   3.271   2.933
 8710SOL    HW227030   1.401   3.271   3.096
 8711SOL     OW27031   0.558   1.228   4.186
 8711SOL    HW127032   0.590   1.171   4.110
 8711SOL    HW227033   0.625   1.225   4.260
 8712SOL     OW27034   3.413   1.665   5.647
 8712SOL    HW127035   3.489   1.649   5.584
 8712SOL    HW227036   3.402   1.763   5.661
 8713SOL     OW27037   6.909   4.624   3.565
 8713SOL    HW127038   6.919   4.687   3.487
 8713SOL    HW227039   6.985   4.559   3.565
 8714SOL     OW27040   1.517   1.756   4.789
 8714SOL    HW127041   1.542   1.778   4.884
 8714SOL    HW227042   1.559   1.823   4.727
 8715SOL     OW27043   6.276   1.796   1.336
 8715SOL    HW127044   6.180   1.810   1.362
 8715SOL    HW227045   6.322   1.742   1.406
 8716SOL     OW27046   1.752   2.004   1.460
 8716SOL    HW127047   1.780   2.070   1.390
 8716SOL    HW227048   1.653   2.010   1.474
 8717SOL     OW27049   3.101   3.319   0.992
 8717SOL    HW127050   3.129   3.328   1.088
 8717SOL    HW227051   3.150   3.387   0.938
 8718SOL     OW27052   6.070   3.142   5.106
 8718SOL    HW127053   6.038   3.203   5.178
 8718SOL    HW227054   6.170   3.149   5.098
 8719SOL     OW27055   6.785   0.667   6.510
 8719SOL    HW127056   6.697   0.670   6.463
 8719SOL    HW227057   6.845   0.600   6.466
 8720SOL     OW27058   4.846   3.915   6.184
 8720SOL    HW127059   4.868   3.912   6.281
 8720SOL    HW227060   4.768   3.855   6.165
 8721SOL     OW27061   0.282   2.388   4.241
 8721SOL    HW127062   0.271   2.349   4.150
 8721SOL    HW227063   0.341   2.468   4.236
 8722SOL     OW27064   3.534   2.593   0.377
 8722SOL    HW127065   3.485   2.678   0.361
 8722SOL    HW227066   3.522   2.532   0.298
 8723SOL     OW27067   0.001   4.078   1.080
 8723SOL    HW127068   0.096   4.094   1.108
 8723SOL    HW227069   7.016   4.052   0.983
 8724SOL     OW27070   4.805   6.743   6.654
 8724SOL    HW127071   4.762   6.718   6.568
 8724SOL    HW227072   4.904   6.734   6.646
 8725SOL     OW27073   2.872   5.670   0.628
 8725SOL    HW127074   2.855   5.728   0.548
 8725SOL    HW227075   2.830   5.712   0.709
 8726SOL     OW27076   5.633   0.386   1.589
 8726SOL    HW127077   5.635   0.423   1.682
 8726SOL    HW227078   5.723   0.348   1.567
 8727SOL     OW27079   6.151   5.943   1.389
 8727SOL    HW127080   6.168   5.881   1.313
 8727SOL    HW227081   6.112   6.029   1.355
 8728SOL     OW27082   2.456   0.004   5.405
 8728SOL    HW127083   2.509   6.961   5.345
 8728SOL    HW227084   2.362   0.011   5.372
 8729SOL     OW27085   5.989   6.081   4.686
 8729SOL    HW127086   6.077   6.038   4.707
 8729SOL    HW227087   5.989   6.111   4.591
 8730SOL     OW27088   0.045   6.395   1.617
 8730SOL    HW127089   6.971   6.427   1.589
 8730SOL    HW227090   0.097   6.369   1.535
 8731SOL     OW27091   0.965   1.518   2.762
 8731SOL    HW127092   1.015   1.554   2.683
 8731SOL    HW227093   0.939   1.594   2.822
 8732SOL     OW27094   5.203   4.883   1.341
 8732SOL    HW127095   5.221   4.980   1.362
 8732SOL    HW227096   5.116   4.875   1.294
 8733SOL     OW27097   0.605   6.230   1.686
 8733SOL    HW127098   0.570   6.246   1.779
 8733SOL    HW227099   0.596   6.133   1.664
 8734SOL     OW27100   6.234   5.301   1.005
 8734SOL    HW127101   6.243   5.359   1.086
 8734SOL    HW227102   6.286   5.217   1.018
 8735SOL     OW27103   6.721   2.298   6.534
 8735SOL    HW127104   6.715   2.229   6.606
 8735SOL    HW227105   6.730   2.253   6.445
 8736SOL     OW27106   0.654   4.639   6.778
 8736SOL    HW127107   0.662   4.605   6.872
 8736SOL    HW227108   0.621   4.565   6.720
 8737SOL     OW27109   3.629   5.793   6.262
 8737SOL    HW127110   3.561   5.778   6.190
 8737SOL    HW227111   3.705   5.846   6.225
 8738SOL     OW27112   0.963   3.737   4.388
 8738SOL    HW127113   0.912   3.802   4.332
 8738SOL    HW227114   1.006   3.785   4.464
 8739SOL     OW27115   1.091   3.081   5.047
 8739SOL    HW127116   1.109   3.108   5.141
 8739SOL    HW227117   1.080   2.982   5.041
 8740SOL     OW27118   1.856   6.217   1.149
 8740SOL    HW127119   1.823   6.123   1.143
 8740SOL    HW227120   1.847   6.250   1.243
 8741SOL     OW27121   1.515   3.669   2.123
 8741SOL    HW127122   1.593   3.686   2.183
 8741SOL    HW227123   1.542   3.684   2.028
 8742SOL     OW27124   4.625   0.367   2.096
 8742SOL    HW127125   4.609   0.390   2.000
 8742SOL    HW227126   4.613   0.268   2.109
 8743SOL     OW27127   2.507   4.836   2.870
 8743SOL    HW127128   2.587   4.783   2.842
 8743SOL    HW227129   2.475   4.892   2.794
 8744SOL     OW27130   3.285   2.640   5.806
 8744SOL    HW127131   3.237   2.685   5.881
 8744SOL    HW227132   3.247   2.671   5.719
 8745SOL     OW27133   6.325   2.224   5.973
 8745SOL    HW127134   6.358   2.278   5.896
 8745SOL    HW227135   6.263   2.279   6.029
 8746SOL     OW27136   5.090   4.495   5.513
 8746SOL    HW127137   5.178   4.449   5.527
 8746SOL    HW227138   5.105   4.585   5.473
 8747SOL     OW27139   1.737   2.559   4.058
 8747SOL    HW127140   1.773   2.485   4.001
 8747SOL    HW227141   1.647   2.586   4.023
 8748SOL     OW27142   2.126   0.317   6.617
 8748SOL    HW127143   2.031   0.331   6.645
 8748SOL    HW227144   2.133   0.329   6.518
 8749SOL     OW27145   4.151   0.927   3.340
 8749SOL    HW127146   4.194   0.925   3.430
 8749SOL    HW227147   4.212   0.972   3.274
 8750SOL     OW27148   2.506   1.176   5.061
 8750SOL    HW127149   2.605   1.163   5.056
 8750SOL    HW227150   2.474   1.147   5.151
 8751SOL     OW27151   2.075   0.151   2.785
 8751SOL    HW127152   2.104   0.163   2.880
 8751SOL    HW227153   2.102   0.061   2.753
 8752SOL     OW27154   1.498   2.401   6.122
 8752SOL    HW127155   1.492   2.482   6.065
 8752SOL    HW227156   1.465   2.423   6.214
 8753SOL     OW27157   5.031   1.040   5.175
 8753SOL    HW127158   5.039   1.069   5.079
 8753SOL    HW227159   4.939   1.062   5.208
 8754SOL     OW27160   1.371   1.209   5.666
 8754SOL    HW127161   1.417   1.160   5.740
 8754SOL    HW227162   1.306   1.148   5.621
 8755SOL     OW27163   2.070   1.913   1.080
 8755SOL    HW127164   1.980   1.869   1.086
 8755SOL    HW227165   2.058   2.010   1.057
 8756SOL     OW27166   2.184   3.066   4.351
 8756SOL    HW127167   2.257   3.046   4.416
 8756SOL    HW227168   2.119   2.990   4.349
 8757SOL     OW27169   5.167   5.998   4.892
 8757SOL    HW127170   5.141   5.949   4.975
 8757SOL    HW227171   5.267   6.002   4.885
 8758SOL     OW27172   5.952   6.156   2.002
 8758SOL    HW127173   5.963   6.145   1.903
 8758SOL    HW227174   5.897   6.237   2.021
 8759SOL     OW27175   5.006   0.935   6.040
 8759SOL    HW127176   5.092   0.944   6.090
 8759SOL    HW227177   5.010   0.990   5.957
 8760SOL     OW27178   2.004   2.519   3.646
 8760SOL    HW127179   2.044   2.600   3.688
 8760SOL    HW227180   1.904   2.529   3.643
 8761SOL     OW27181   4.585   6.633   0.884
 8761SOL    HW127182   4.537   6.611   0.969
 8761SOL    HW227183   4.582   6.554   0.823
 8762SOL     OW27184   0.759   3.949   0.784
 8762SOL    HW127185   0.772   3.973   0.880
 8762SOL    HW227186   0.684   4.005   0.746
 8763SOL     OW27187   0.280   6.319   5.923
 8763SOL    HW127188   0.270   6.363   6.012
 8763SOL    HW227189   0.368   6.272   5.919
 8764SOL     OW27190   3.732   2.132   4.887
 8764SOL    HW127191   3.690   2.130   4.796
 8764SOL    HW227192   3.661   2.128   4.957
 8765SOL     OW27193   6.950   0.690   4.659
 8765SOL    HW127194   0.020   0.705   4.612
 8765SOL    HW227195   6.918   0.777   4.698
 8766SOL     OW27196   2.330   4.324   2.412
 8766SOL    HW127197   2.287   4.235   2.415
 8766SOL    HW227198   2.402   4.324   2.343
 8767SOL     OW27199   4.928   1.613   4.485
 8767SOL    HW127200   4.949   1.662   4.569
 8767SOL    HW227201   4.858   1.662   4.434
 8768SOL     OW27202   1.560   3.303   6.895
 8768SOL    HW127203   1.487   3.366   6.920
 8768SOL    HW227204   1.611   3.276   6.977
 8769SOL     OW27205   1.806   0.420   5.288
 8769SOL    HW127206   1.832   0.516   5.285
 8769SOL    HW227207   1.886   0.362   5.270
 8770SOL     OW27208   5.467   2.080   2.403
 8770SOL    HW127209   5.475   2.169   2.446
 8770SOL    HW227210   5.375   2.068   2.366
 8771SOL     OW27211   1.351   2.432   6.357
 8771SOL    HW127212   1.319   2.339   6.337
 8771SOL    HW227213   1.315   2.460   6.446
 8772SOL     OW27214   5.434   0.105   6.881
 8772SOL    HW127215   5.463   0.077   6.789
 8772SOL    HW227216   5.492   0.180   6.913
 8773SOL     OW27217   2.710   2.333   3.115
 8773SOL    HW127218   2.674   2.415   3.072
 8773SOL    HW227219   2.641   2.261   3.112
 8774SOL     OW27220   1.080   0.930   7.009
 8774SOL    HW127221   1.055   1.010   6.956
 8774SOL    HW227222   1.176   0.936   0.019
 8775SOL     OW27223   6.359   0.038   4.303
 8775SOL    HW127224   6.459   0.030   4.308
 8775SOL    HW227225   6.331   0.127   4.338
 8776SOL     OW27226   3.460   3.118   4.785
 8776SOL    HW127227   3.384   3.053   4.793
 8776SOL    HW227228   3.428   3.210   4.807
 8777SOL     OW27229   6.393   5.424   1.917
 8777SOL    HW127230   6.421   5.370   1.838
 8777SOL    HW227231   6.331   5.497   1.889
 8778SOL     OW27232   0.877   2.422   3.113
 8778SOL    HW127233   0.947   2.477   3.067
 8778SOL    HW227234   0.862   2.456   3.206
 8779SOL     OW27235   2.022   4.127   0.350
 8779SOL    HW127236   2.001   4.098   0.443
 8779SOL    HW227237   2.115   4.100   0.326
 8780SOL     OW27238   1.661   5.733   4.208
 8780SOL    HW127239   1.757   5.726   4.237
 8780SOL    HW227240   1.610   5.655   4.244
 8781SOL     OW27241   0.567   2.062   2.260
 8781SOL    HW127242   0.610   2.153   2.260
 8781SOL    HW227243   0.542   2.037   2.353
 8782SOL     OW27244   4.451   1.598   2.584
 8782SOL    HW127245   4.471   1.635   2.675
 8782SOL    HW227246   4.408   1.508   2.593
 8783SOL     OW27247   5.155   3.398   5.247
 8783SOL    HW127248   5.113   3.309   5.233
 8783SOL    HW227249   5.118   3.463   5.181
 8784SOL     OW27250   5.474   4.161   5.378
 8784SOL    HW127251   5.396   4.114   5.337
 8784SOL    HW227252   5.497   4.118   5.466
 8785SOL     OW27253   5.700   4.745   0.032
 8785SOL    HW127254   5.678   4.658   7.005
 8785SOL    HW227255   5.693   4.819   6.983
 8786SOL     OW27256   1.430   6.027   0.692
 8786SOL    HW127257   1.503   6.060   0.753
 8786SOL    HW227258   1.411   6.095   0.622
 8787SOL     OW27259   1.075   2.924   0.148
 8787SOL    HW127260   1.044   2.969   0.064
 8787SOL    HW227261   0.997   2.882   0.194
 8788SOL     OW27262   1.132   2.024   5.543
 8788SOL    HW127263   1.168   1.974   5.465
 8788SOL    HW227264   1.205   2.035   5.611
 8789SOL     OW27265   0.226   0.284   6.786
 8789SOL    HW127266   0.135   0.324   6.784
 8789SOL    HW227267   0.276   0.319   6.865
 8790SOL     OW27268   5.568   1.818   6.995
 8790SOL    HW127269   5.663   1.785   6.991
 8790SOL    HW227270   5.518   1.766   0.048
 8791SOL     OW27271   5.037   6.459   5.481
 8791SOL    HW127272   4.980   6.379   5.502
 8791SOL    HW227273   5.001   6.539   5.529
 8792SOL     OW27274   4.764   6.971   2.555
 8792SOL    HW127275   4.691   0.003   2.603
 8792SOL    HW227276   4.806   6.905   2.616
 8793SOL     OW27277   1.223   5.327   4.548
 8793SOL    HW127278   1.124   5.316   4.558
 8793SOL    HW227279   1.270   5.268   4.613
 8794SOL     OW27280   3.078   6.970   2.687
 8794SOL    HW127281   3.042   7.002   2.775
 8794SOL    HW227282   3.025   6.891   2.657
 8795SOL     OW27283   1.804   6.348   5.362
 8795SOL    HW127284   1.860   6.336   5.280
 8795SOL    HW227285   1.733   6.277   5.364
 8796SOL     OW27286   5.529   2.851   5.113
 8796SOL    HW127287   5.481   2.821   5.196
 8796SOL    HW227288   5.463   2.890   5.049
 8797SOL     OW27289   0.381   6.556   0.015
 8797SOL    HW127290   0.369   6.619   6.956
 8797SOL    HW227291   0.308   6.569   0.082
 8798SOL     OW27292   4.487   3.622   5.869
 8798SOL    HW127293   4.419   3.658   5.804
 8798SOL    HW227294   4.563   3.686   5.876
 8799SOL     OW27295   3.768   6.242   2.922
 8799SOL    HW127296   3.794   6.249   2.825
 8799SOL    HW227297   3.839   6.283   2.979
 8800SOL     OW27298   4.223   5.084   6.760
 8800SOL    HW127299   4.248   5.160   6.820
 8800SOL    HW227300   4.128   5.058   6.777
 8801SOL     OW27301   2.882   0.271   4.880
 8801SOL    HW127302   2.900   0.369   4.873
 8801SOL    HW227303   2.814   0.255   4.951
 8802SOL     OW27304   2.930   0.261   2.354
 8802SOL    HW127305   2.993   0.335   2.330
 8802SOL    HW227306   2.852   0.262   2.290
 8803SOL     OW27307   3.635   6.026   0.443
 8803SOL    HW127308   3.597   6.092   0.508
 8803SOL    HW227309   3.577   5.945   0.439
 8804SOL     OW27310   4.282   0.462   0.792
 8804SOL    HW127311   4.279   0.362   0.804
 8804SOL    HW227312   4.290   0.483   0.695
 8805SOL     OW27313   0.251   0.333   2.802
 8805SOL    HW127314   0.215   0.404   2.863
 8805SOL    HW227315   0.268   0.372   2.712
 8806SOL     OW27316   1.990   5.020   6.830
 8806SOL    HW127317   1.904   4.999   6.876
 8806SOL    HW227318   1.971   5.072   6.746
 8807SOL     OW27319   1.485   6.150   6.481
 8807SOL    HW127320   1.561   6.207   6.512
 8807SOL    HW227321   1.487   6.143   6.381
 8808SOL     OW27322   6.351   1.367   0.887
 8808SOL    HW127323   6.292   1.340   0.811
 8808SOL    HW227324   6.341   1.301   0.962
 8809SOL     OW27325   6.061   3.763   1.061
 8809SOL    HW127326   6.060   3.665   1.079
 8809SOL    HW227327   6.135   3.784   0.996
 8810SOL     OW27328   5.065   1.224   3.688
 8810SOL    HW127329   4.994   1.156   3.669
 8810SOL    HW227330   5.098   1.262   3.601
 8811SOL     OW27331   1.345   1.457   4.016
 8811SOL    HW127332   1.322   1.361   4.025
 8811SOL    HW227333   1.423   1.467   3.955
 8812SOL     OW27334   1.509   0.457   0.902
 8812SOL    HW127335   1.601   0.493   0.917
 8812SOL    HW227336   1.448   0.532   0.875
 8813SOL     OW27337   1.672   4.907   1.491
 8813SOL    HW127338   1.687   4.973   1.416
 8813SOL    HW227339   1.636   4.822   1.454
 8814SOL     OW27340   5.215   0.228   6.985
 8814SOL    HW127341   5.299   0.176   6.969
 8814SOL    HW227342   5.189   0.220   0.064
 8815SOL     OW27343   0.224   6.178   3.129
 8815SOL    HW127344   0.269   6.090   3.145
 8815SOL    HW227345   0.136   6.164   3.086
 8816SOL     OW27346   1.131   5.743   1.783
 8816SOL    HW127347   1.051   5.684   1.776
 8816SOL    HW227348   1.194   5.708   1.853
 8817SOL     OW27349   2.833   4.852   5.489
 8817SOL    HW127350   2.836   4.765   5.538
 8817SOL    HW227351   2.815   4.834   5.392
 8818SOL     OW27352   0.035   5.210   4.428
 8818SOL    HW127353   0.059   5.211   4.331
 8818SOL    HW227354   6.988   5.135   4.446
 8819SOL     OW27355   5.451   0.132   4.571
 8819SOL    HW127356   5.546   0.099   4.575
 8819SOL    HW227357   5.445   0.205   4.504
 8820SOL     OW27358   1.777   2.872   3.930
 8820SOL    HW127359   1.748   2.951   3.984
 8820SOL    HW227360   1.831   2.810   3.987
 8821SOL     OW27361   1.800   0.747   6.409
 8821SOL    HW127362   1.832   0.687   6.482
 8821SOL    HW227363   1.875   0.804   6.378
 8822SOL     OW27364   0.103   2.346   3.598
 8822SOL    HW127365   0.125   2.256   3.561
 8822SOL    HW227366   0.163   2.366   3.676
 8823SOL     OW27367   2.588   5.856   2.143
 8823SOL    HW127368   2.653   5.800   2.196
 8823SOL    HW227369   2.537   5.797   2.080
 8824SOL     OW27370   4.113   3.563   0.973
 8824SOL    HW127371   4.164   3.645   0.948
 8824SOL    HW227372   4.015   3.583   0.970
 8825SOL     OW27373   1.471   2.096   1.478
 8825SOL    HW127374   1.464   2.148   1.563
 8825SOL    HW227375   1.419   2.011   1.487
 8826SOL     OW27376   5.655   0.856   7.006
 8826SOL    HW127377   5.627   0.761   6.998
 8826SOL    HW227378   5.575   0.915   6.998
 8827SOL     OW27379   1.445   1.131   3.701
 8827SOL    HW127380   1.367   1.070   3.721
 8827SOL    HW227381   1.524   1.076   3.675
 8828SOL     OW27382   2.017   6.253   2.591
 8828SOL    HW127383   1.924   6.283   2.569
 8828SOL    HW227384   2.079   6.279   2.517
 8829SOL     OW27385   0.569   1.818   0.194
 8829SOL    HW127386   0.666   1.840   0.211
 8829SOL    HW227387   0.541   1.743   0.254
 8830SOL     OW27388   0.605   2.302   0.365
 8830SOL    HW127389   0.532   2.355   0.324
 8830SOL    HW227390   0.588   2.291   0.463
 8831SOL     OW27391   6.986   0.995   2.582
 8831SOL    HW127392   6.887   0.998   2.601
 8831SOL    HW227393   7.010   1.070   2.521
 8832SOL     OW27394   0.578   0.833   2.292
 8832SOL    HW127395   0.659   0.836   2.351
 8832SOL    HW227396   0.515   0.906   2.319
 8833SOL     OW27397   1.919   4.795   3.610
 8833SOL    HW127398   2.018   4.811   3.612
 8833SOL    HW227399   1.902   4.697   3.601
 8834SOL     OW27400   5.681   4.218   4.702
 8834SOL    HW127401   5.735   4.165   4.767
 8834SOL    HW227402   5.585   4.217   4.730
 8835SOL     OW27403   0.303   6.870   6.552
 8835SOL    HW127404   0.323   6.912   6.640
 8835SOL    HW227405   0.386   6.870   6.496
 8836SOL     OW27406   4.684   2.060   0.821
 8836SOL    HW127407   4.666   1.975   0.869
 8836SOL    HW227408   4.703   2.041   0.725
 8837SOL     OW27409   1.046   1.642   2.522
 8837SOL    HW127410   0.975   1.589   2.476
 8837SOL    HW227411   1.043   1.737   2.491
 8838SOL     OW27412   2.284   5.767   3.446
 8838SOL    HW127413   2.308   5.841   3.508
 8838SOL    HW227414   2.328   5.682   3.476
 8839SOL     OW27415   6.564   6.639   4.251
 8839SOL    HW127416   6.565   6.650   4.152
 8839SOL    HW227417   6.646   6.590   4.281
 8840SOL     OW27418   5.636   1.826   2.023
 8840SOL    HW127419   5.639   1.838   2.122
 8840SOL    HW227420   5.598   1.907   1.980
 8841SOL     OW27421   2.124   0.611   4.799
 8841SOL    HW127422   2.223   0.597   4.787
 8841SOL    HW227423   2.101   0.707   4.783
 8842SOL     OW27424   2.153   2.986   2.454
 8842SOL    HW127425   2.186   2.939   2.372
 8842SOL    HW227426   2.063   3.026   2.436
 8843SOL     OW27427   0.393   3.281   4.433
 8843SOL    HW127428   0.389   3.381   4.421
 8843SOL    HW227429   0.434   3.260   4.522
 8844SOL     OW27430   6.083   1.514   6.563
 8844SOL    HW127431   6.036   1.599   6.587
 8844SOL    HW227432   6.019   1.453   6.516
 8845SOL     OW27433   5.779   3.940   0.261
 8845SOL    HW127434   5.866   3.893   0.275
 8845SOL    HW227435   5.729   3.945   0.348
 8846SOL     OW27436   2.204   4.911   2.890
 8846SOL    HW127437   2.163   4.892   2.800
 8846SOL    HW227438   2.302   4.894   2.886
 8847SOL     OW27439   2.501   0.746   2.513
 8847SOL    HW127440   2.448   0.720   2.432
 8847SOL    HW227441   2.569   0.675   2.532
 8848SOL     OW27442   1.536   0.132   3.000
 8848SOL    HW127443   1.550   0.109   3.096
 8848SOL    HW227444   1.613   0.099   2.946
 8849SOL     OW27445   2.712   6.701   1.347
 8849SOL    HW127446   2.776   6.662   1.281
 8849SOL    HW227447   2.733   6.798   1.360
 8850SOL     OW27448   2.884   2.520   0.002
 8850SOL    HW127449   2.851   2.565   0.086
 8850SOL    HW227450   2.914   2.590   6.954
 8851SOL     OW27451   1.675   3.409   2.534
 8851SOL    HW127452   1.635   3.451   2.616
 8851SOL    HW227453   1.602   3.366   2.480
 8852SOL     OW27454   0.985   2.243   5.983
 8852SOL    HW127455   1.030   2.286   5.905
 8852SOL    HW227456   0.961   2.149   5.960
 8853SOL     OW27457   5.714   1.424   1.423
 8853SOL    HW127458   5.687   1.338   1.380
 8853SOL    HW227459   5.662   1.438   1.507
 8854SOL     OW27460   0.791   1.876   4.827
 8854SOL    HW127461   0.723   1.949   4.834
 8854SOL    HW227462   0.792   1.841   4.733
 8855SOL     OW27463   5.186   5.430   1.173
 8855SOL    HW127464   5.257   5.363   1.152
 8855SOL    HW227465   5.135   5.401   1.254
 8856SOL     OW27466   6.519   0.822   5.701
 8856SOL    HW127467   6.530   0.891   5.630
 8856SOL    HW227468   6.484   0.865   5.784
 8857SOL     OW27469   6.033   2.064   6.309
 8857SOL    HW127470   6.129   2.056   6.336
 8857SOL    HW227471   6.004   2.159   6.313
 8858SOL     OW27472   6.456   6.459   4.757
 8858SOL    HW127473   6.375   6.410   4.791
 8858SOL    HW227474   6.479   6.533   4.821
 8859SOL     OW27475   0.593   6.525   3.578
 8859SOL    HW127476   0.598   6.548   3.481
 8859SOL    HW227477   0.647   6.590   3.631
 8860SOL     OW27478   0.093   4.106   2.810
 8860SOL    HW127479   0.041   4.022   2.826
 8860SOL    HW227480   0.098   4.123   2.711
 8861SOL     OW27481   3.953   2.963   0.904
 8861SOL    HW127482   3.916   3.055   0.921
 8861SOL    HW227483   4.015   2.938   0.978
 8862SOL     OW27484   4.710   4.718   4.850
 8862SOL    HW127485   4.660   4.644   4.807
 8862SOL    HW227486   4.808   4.700   4.845
 8863SOL     OW27487   2.050   3.843   3.334
 8863SOL    HW127488   2.032   3.750   3.303
 8863SOL    HW227489   2.092   3.841   3.425
 8864SOL     OW27490   6.303   2.033   5.124
 8864SOL    HW127491   6.216   2.036   5.073
 8864SOL    HW227492   6.359   1.957   5.090
 8865SOL     OW27493   2.951   1.463   0.662
 8865SOL    HW127494   3.006   1.470   0.579
 8865SOL    HW227495   2.864   1.419   0.641
 8866SOL     OW27496   5.919   6.467   2.249
 8866SOL    HW127497   5.890   6.472   2.154
 8866SOL    HW227498   5.865   6.532   2.303
 8867SOL     OW27499   6.517   3.278   2.530
 8867SOL    HW127500   6.616   3.277   2.537
 8867SOL    HW227501   6.485   3.368   2.502
 8868SOL     OW27502   6.881   3.218   3.558
 8868SOL    HW127503   6.816   3.252   3.626
 8868SOL    HW227504   6.851   3.129   3.524
 8869SOL     OW27505   4.115   6.828   3.189
 8869SOL    HW127506   4.186   6.879   3.237
 8869SOL    HW227507   4.153   6.787   3.106
 8870SOL     OW27508   1.612   0.566   2.739
 8870SOL    HW127509   1.554   0.501   2.789
 8870SOL    HW227510   1.649   0.633   2.803
 8871SOL     OW27511   6.669   0.116   2.381
 8871SOL    HW127512   6.713   0.089   2.295
 8871SOL    HW227513   6.574   0.084   2.381
 8872SOL     OW27514   6.802   3.790   3.596
 8872SOL    HW127515   6.776   3.798   3.693
 8872SOL    HW227516   6.777   3.874   3.548
 8873SOL     OW27517   2.227   2.142   2.820
 8873SOL    HW127518   2.257   2.201   2.745
 8873SOL    HW227519   2.249   2.047   2.799
 8874SOL     OW27520   2.832   6.496   0.657
 8874SOL    HW127521   2.783   6.415   0.689
 8874SOL    HW227522   2.890   6.531   0.730
 8875SOL     OW27523   6.694   3.289   4.278
 8875SOL    HW127524   6.612   3.320   4.231
 8875SOL    HW227525   6.676   3.284   4.376
 8876SOL     OW27526   4.418   0.186   6.583
 8876SOL    HW127527   4.335   0.218   6.629
 8876SOL    HW227528   4.467   0.264   6.544
 8877SOL     OW27529   0.843   4.678   1.196
 8877SOL    HW127530   0.839   4.661   1.097
 8877SOL    HW227531   0.825   4.774   1.214
 8878SOL     OW27532   4.768   4.378   0.997
 8878SOL    HW127533   4.848   4.348   0.946
 8878SOL    HW227534   4.730   4.461   0.956
 8879SOL     OW27535   6.767   4.354   2.946
 8879SOL    HW127536   6.694   4.420   2.930
 8879SOL    HW227537   6.733   4.262   2.929
 8880SOL     OW27538   4.220   1.596   3.217
 8880SOL    HW127539   4.183   1.504   3.230
 8880SOL    HW227540   4.211   1.623   3.121
 8881SOL     OW27541   3.897   4.885   4.055
 8881SOL    HW127542   3.945   4.808   4.098
 8881SOL    HW227543   3.963   4.945   4.010
 8882SOL     OW27544   4.217   0.966   0.299
 8882SOL    HW127545   4.189   0.945   0.393
 8882SOL    HW227546   4.137   0.964   0.239
 8883SOL     OW27547   0.165   6.498   4.376
 8883SOL    HW127548   0.190   6.584   4.330
 8883SOL    HW227549   0.249   6.447   4.398
 8884SOL     OW27550   4.843   3.459   5.753
 8884SOL    HW127551   4.874   3.388   5.816
 8884SOL    HW227552   4.767   3.424   5.698
 8885SOL     OW27553   5.720   6.021   0.964
 8885SOL    HW127554   5.795   5.990   1.021
 8885SOL    HW227555   5.639   5.965   0.982
 8886SOL     OW27556   3.686   5.984   6.604
 8886SOL    HW127557   3.704   6.044   6.525
 8886SOL    HW227558   3.769   5.974   6.658
 8887SOL     OW27559   4.955   0.310   1.473
 8887SOL    HW127560   4.935   0.244   1.546
 8887SOL    HW227561   4.887   0.383   1.476
 8888SOL     OW27562   3.186   2.032   2.687
 8888SOL    HW127563   3.246   2.106   2.717
 8888SOL    HW227564   3.240   1.964   2.637
 8889SOL     OW27565   1.401   5.391   6.519
 8889SOL    HW127566   1.338   5.357   6.588
 8889SOL    HW227567   1.407   5.491   6.526
 8890SOL     OW27568   0.598   6.406   0.389
 8890SOL    HW127569   0.582   6.435   0.295
 8890SOL    HW227570   0.650   6.476   0.438
 8891SOL     OW27571   6.330   4.203   5.626
 8891SOL    HW127572   6.320   4.178   5.529
 8891SOL    HW227573   6.347   4.301   5.634
 8892SOL     OW27574   2.795   5.348   4.566
 8892SOL    HW127575   2.828   5.315   4.477
 8892SOL    HW227576   2.726   5.285   4.601
 8893SOL     OW27577   1.264   5.202   5.288
 8893SOL    HW127578   1.363   5.219   5.283
 8893SOL    HW227579   1.218   5.259   5.220
 8894SOL     OW27580   4.413   1.800   1.064
 8894SOL    HW127581   4.396   1.821   1.160
 8894SOL    HW227582   4.345   1.846   1.007
 8895SOL     OW27583   6.621   3.766   0.773
 8895SOL    HW127584   6.704   3.767   0.830
 8895SOL    HW227585   6.556   3.699   0.810
 8896SOL     OW27586   0.563   2.327   3.998
 8896SOL    HW127587   0.515   2.262   4.057
 8896SOL    HW227588   0.566   2.292   3.904
 8897SOL     OW27589   1.947   4.970   4.031
 8897SOL    HW127590   1.897   5.004   4.111
 8897SOL    HW227591   1.975   4.875   4.046
 8898SOL     OW27592   4.853   4.086   2.586
 8898SOL    HW127593   4.811   4.003   2.622
 8898SOL    HW227594   4.935   4.108   2.640
 8899SOL     OW27595   1.511   3.732   3.366
 8899SOL    HW127596   1.436   3.681   3.324
 8899SOL    HW227597   1.473   3.801   3.429
 8900SOL     OW27598   4.944   2.175   4.088
 8900SOL    HW127599   4.986   2.124   4.163
 8900SOL    HW227600   4.978   2.269   4.088
 8901SOL     OW27601   1.337   4.749   4.165
 8901SOL    HW127602   1.277   4.748   4.085
 8901SOL    HW227603   1.288   4.711   4.244
 8902SOL     OW27604   0.613   4.746   0.535
 8902SOL    HW127605   0.695   4.802   0.525
 8902SOL    HW227606   0.624   4.683   0.612
 8903SOL     OW27607   0.931   0.121   5.274
 8903SOL    HW127608   0.928   0.221   5.278
 8903SOL    HW227609   0.876   0.089   5.197
 8904SOL     OW27610   0.387   1.053   3.465
 8904SOL    HW127611   0.428   1.102   3.542
 8904SOL    HW227612   0.292   1.031   3.487
 8905SOL     OW27613   1.122   3.661   2.808
 8905SOL    HW127614   1.096   3.745   2.854
 8905SOL    HW227615   1.160   3.597   2.875
 8906SOL     OW27616   5.917   0.040   6.897
 8906SOL    HW127617   5.832   7.007   6.878
 8906SOL    HW227618   5.902   0.104   6.972
 8907SOL     OW27619   2.929   3.446   5.023
 8907SOL    HW127620   2.907   3.424   5.118
 8907SOL    HW227621   2.955   3.363   4.974
 8908SOL     OW27622   1.677   4.349   6.732
 8908SOL    HW127623   1.608   4.306   6.790
 8908SOL    HW227624   1.703   4.438   6.770
 8909SOL     OW27625   1.295   6.279   1.389
 8909SOL    HW127626   1.273   6.374   1.414
 8909SOL    HW227627   1.290   6.222   1.471
 8910SOL     OW27628   1.861   0.282   3.524
 8910SOL    HW127629   1.825   0.362   3.573
 8910SOL    HW227630   1.938   0.309   3.467
 8911SOL     OW27631   4.178   2.275   4.797
 8911SOL    HW127632   4.180   2.349   4.865
 8911SOL    HW227633   4.107   2.210   4.822
 8912SOL     OW27634   3.826   3.657   4.069
 8912SOL    HW127635   3.773   3.609   3.999
 8912SOL    HW227636   3.802   3.621   4.159
 8913SOL     OW27637   5.458   6.348   6.851
 8913SOL    HW127638   5.402   6.312   6.925
 8913SOL    HW227639   5.511   6.426   6.885
 8914SOL     OW27640   5.039   5.159   6.208
 8914SOL    HW127641   5.126   5.116   6.183
 8914SOL    HW227642   4.969   5.134   6.141
 8915SOL     OW27643   1.407   0.972   2.980
 8915SOL    HW127644   1.487   0.936   3.028
 8915SOL    HW227645   1.406   1.071   2.987
 8916SOL     OW27646   5.009   1.099   0.958
 8916SOL    HW127647   5.086   1.131   0.903
 8916SOL    HW227648   5.015   1.138   1.050
 8917SOL     OW27649   5.854   1.932   0.426
 8917SOL    HW127650   5.843   2.014   0.369
 8917SOL    HW227651   5.779   1.869   0.408
 8918SOL     OW27652   0.881   3.649   2.538
 8918SOL    HW127653   0.860   3.700   2.454
 8918SOL    HW227654   0.962   3.592   2.523
 8919SOL     OW27655   6.148   3.413   1.737
 8919SOL    HW127656   6.178   3.395   1.830
 8919SOL    HW227657   6.094   3.337   1.703
 8920SOL     OW27658   6.431   0.954   6.853
 8920SOL    HW127659   6.383   0.872   6.883
 8920SOL    HW227660   6.508   0.928   6.793
 8921SOL     OW27661   2.033   3.349   2.385
 8921SOL    HW127662   2.074   3.402   2.311
 8921SOL    HW227663   2.084   3.363   2.470
 8922SOL     OW27664   4.251   5.742   4.268
 8922SOL    HW127665   4.303   5.659   4.289
 8922SOL    HW227666   4.267   5.810   4.339
 8923SOL     OW27667   2.211   1.493   4.587
 8923SOL    HW127668   2.299   1.463   4.624
 8923SOL    HW227669   2.143   1.422   4.601
 8924SOL     OW27670   6.661   5.151   5.565
 8924SOL    HW127671   6.651   5.064   5.614
 8924SOL    HW227672   6.612   5.223   5.614
 8925SOL     OW27673   0.947   6.356   2.459
 8925SOL    HW127674   0.877   6.311   2.402
 8925SOL    HW227675   1.005   6.286   2.501
 8926SOL     OW27676   5.748   1.127   6.376
 8926SOL    HW127677   5.667   1.096   6.425
 8926SOL    HW227678   5.721   1.187   6.300
 8927SOL     OW27679   1.475   1.047   5.845
 8927SOL    HW127680   1.472   0.962   5.791
 8927SOL    HW227681   1.517   1.028   5.934
 8928SOL     OW27682   0.521   6.661   5.221
 8928SOL    HW127683   0.512   6.622   5.129
 8928SOL    HW227684   0.439   6.640   5.274
 8929SOL     OW27685   0.489   1.649   3.974
 8929SOL    HW127686   0.452   1.570   4.023
 8929SOL    HW227687   0.457   1.733   4.016
 8930SOL     OW27688   2.103   4.953   3.299
 8930SOL    HW127689   2.122   5.028   3.236
 8930SOL    HW227690   2.116   4.984   3.393
 8931SOL     OW27691   4.423   2.914   0.523
 8931SOL    HW127692   4.426   2.951   0.430
 8931SOL    HW227693   4.448   2.817   0.521
 8932SOL     OW27694   0.834   3.645   3.820
 8932SOL    HW127695   0.741   3.610   3.830
 8932SOL    HW227696   0.864   3.631   3.725
 8933SOL     OW27697   3.821   2.057   5.181
 8933SOL    HW127698   3.796   2.056   5.084
 8933SOL    HW227699   3.897   2.120   5.195
 8934SOL     OW27700   2.496   5.717   2.975
 8934SOL    HW127701   2.408   5.723   3.021
 8934SOL    HW227702   2.489   5.652   2.898
 8935SOL     OW27703   0.118   4.363   0.787
 8935SOL    HW127704   0.207   4.408   0.785
 8935SOL    HW227705   0.064   4.394   0.708
 8936SOL     OW27706   3.492   2.730   0.837
 8936SOL    HW127707   3.526   2.773   0.920
 8936SOL    HW227708   3.450   2.642   0.859
 8937SOL     OW27709   0.527   6.276   6.323
 8937SOL    HW127710   0.454   6.326   6.371
 8937SOL    HW227711   0.544   6.190   6.370
 8938SOL     OW27712   5.263   6.322   1.687
 8938SOL    HW127713   5.173   6.297   1.650
 8938SOL    HW227714   5.325   6.245   1.676
 8939SOL     OW27715   4.348   1.940   4.726
 8939SOL    HW127716   4.254   1.941   4.762
 8939SOL    HW227717   4.408   1.989   4.789
 8940SOL     OW27718   5.766   0.555   2.544
 8940SOL    HW127719   5.718   0.467   2.546
 8940SOL    HW227720   5.699   0.628   2.536
 8941SOL     OW27721   4.925   1.689   5.960
 8941SOL    HW127722   5.002   1.626   5.949
 8941SOL    HW227723   4.850   1.643   6.008
 8942SOL     OW27724   1.085   3.157   5.315
 8942SOL    HW127725   1.030   3.121   5.391
 8942SOL    HW227726   1.060   3.252   5.298
 8943SOL     OW27727   5.356   3.653   1.063
 8943SOL    HW127728   5.443   3.621   1.026
 8943SOL    HW227729   5.373   3.719   1.136
 8944SOL     OW27730   4.116   5.588   1.001
 8944SOL    HW127731   4.166   5.614   1.084
 8944SOL    HW227732   4.112   5.488   0.995
 8945SOL     OW27733   2.352   1.074   4.417
 8945SOL    HW127734   2.315   1.046   4.328
 8945SOL    HW227735   2.278   1.108   4.475
 8946SOL     OW27736   3.866   1.444   4.396
 8946SOL    HW127737   3.771   1.438   4.427
 8946SOL    HW227738   3.917   1.365   4.430
 8947SOL     OW27739   3.991   3.953   5.048
 8947SOL    HW127740   4.073   3.966   5.103
 8947SOL    HW227741   3.994   3.864   5.002
 8948SOL     OW27742   6.369   5.180   2.616
 8948SOL    HW127743   6.448   5.127   2.586
 8948SOL    HW227744   6.399   5.256   2.674
 8949SOL     OW27745   2.163   5.802   0.088
 8949SOL    HW127746   2.069   5.833   0.072
 8949SOL    HW227747   2.219   5.825   0.008
 8950SOL     OW27748   4.589   2.481   4.450
 8950SOL    HW127749   4.630   2.525   4.530
 8950SOL    HW227750   4.527   2.409   4.480
 8951SOL     OW27751   2.535   2.458   5.997
 8951SOL    HW127752   2.499   2.467   6.089
 8951SOL    HW227753   2.610   2.523   5.984
 8952SOL     OW27754   6.744   0.770   2.884
 8952SOL    HW127755   6.815   0.710   2.847
 8952SOL    HW227756   6.761   0.784   2.981
 8953SOL     OW27757   1.932   4.226   6.671
 8953SOL    HW127758   1.855   4.287   6.691
 8953SOL    HW227759   1.989   4.216   6.753
 8954SOL     OW27760   1.792   5.920   5.867
 8954SOL    HW127761   1.876   5.886   5.825
 8954SOL    HW227762   1.714   5.897   5.809
 8955SOL     OW27763   5.928   3.555   3.282
 8955SOL    HW127764   5.875   3.586   3.361
 8955SOL    HW227765   5.919   3.456   3.272
 8956SOL     OW27766   0.961   0.868   5.688
 8956SOL    HW127767   0.929   0.919   5.608
 8956SOL    HW227768   0.960   0.770   5.667
 8957SOL     OW27769   2.756   5.110   2.041
 8957SOL    HW127770   2.783   5.126   2.136
 8957SOL    HW227771   2.813   5.166   1.981
 8958SOL     OW27772   2.581   0.398   4.026
 8958SOL    HW127773   2.639   0.405   3.944
 8958SOL    HW227774   2.533   0.310   4.025
 8959SOL     OW27775   2.675   4.587   1.569
 8959SOL    HW127776   2.633   4.522   1.632
 8959SOL    HW227777   2.775   4.580   1.575
 8960SOL     OW27778   3.831   6.157   1.393
 8960SOL    HW127779   3.875   6.079   1.347
 8960SOL    HW227780   3.773   6.124   1.467
 8961SOL     OW27781   1.342   2.348   3.852
 8961SOL    HW127782   1.278   2.281   3.888
 8961SOL    HW227783   1.350   2.338   3.753
 8962SOL     OW27784   4.986   0.020   3.660
 8962SOL    HW127785   4.902   0.034   3.713
 8962SOL    HW227786   5.020   0.108   3.627
 8963SOL     OW27787   0.141   0.841   3.795
 8963SOL    HW127788   0.157   0.853   3.893
 8963SOL    HW227789   0.124   0.745   3.776
 8964SOL     OW27790   6.288   4.811   3.056
 8964SOL    HW127791   6.302   4.891   2.998
 8964SOL    HW227792   6.208   4.825   3.114
 8965SOL     OW27793   1.214   5.591   1.254
 8965SOL    HW127794   1.130   5.581   1.306
 8965SOL    HW227795   1.197   5.565   1.158
 8966SOL     OW27796   3.024   3.043   5.324
 8966SOL    HW127797   3.074   3.088   5.250
 8966SOL    HW227798   3.085   2.978   5.370
 8967SOL     OW27799   4.442   0.385   0.474
 8967SOL    HW127800   4.532   0.390   0.518
 8967SOL    HW227801   4.422   0.289   0.451
 8968SOL     OW27802   5.376   5.515   2.632
 8968SOL    HW127803   5.310   5.458   2.682
 8968SOL    HW227804   5.452   5.538   2.693
 8969SOL     OW27805   6.130   1.222   4.247
 8969SOL    HW127806   6.046   1.194   4.200
 8969SOL    HW227807   6.184   1.280   4.186
 8970SOL     OW27808   3.788   2.296   1.535
 8970SOL    HW127809   3.697   2.337   1.550
 8970SOL    HW227810   3.821   2.258   1.621
 8971SOL     OW27811   4.311   5.475   2.750
 8971SOL    HW127812   4.292   5.556   2.805
 8971SOL    HW227813   4.226   5.438   2.713
 8972SOL     OW27814   5.375   0.825   4.746
 8972SOL    HW127815   5.437   0.830   4.668
 8972SOL    HW227816   5.290   0.874   4.723
 8973SOL     OW27817   1.373   4.866   0.205
 8973SOL    HW127818   1.365   4.774   0.245
 8973SOL    HW227819   1.336   4.933   0.269
 8974SOL     OW27820   0.480   2.844   4.229
 8974SOL    HW127821   0.474   2.871   4.325
 8974SOL    HW227822   0.561   2.885   4.188
 8975SOL     OW27823   2.607   6.966   0.198
 8975SOL    HW127824   2.646   6.931   0.113
 8975SOL    HW227825   2.568   0.040   0.182
 8976SOL     OW27826   0.285   5.376   4.543
 8976SOL    HW127827   0.335   5.429   4.610
 8976SOL    HW227828   0.285   5.423   4.455
 8977SOL     OW27829   5.962   1.336   6.031
 8977SOL    HW127830   6.025   1.267   6.066
 8977SOL    HW227831   6.014   1.416   6.001
 8978SOL     OW27832   5.531   6.115   0.624
 8978SOL    HW127833   5.612   6.132   0.681
 8978SOL    HW227834   5.500   6.201   0.585
 8979SOL     OW27835   1.706   4.937   4.704
 8979SOL    HW127836   1.778   4.953   4.636
 8979SOL    HW227837   1.691   5.021   4.756
 8980SOL     OW27838   3.907   3.114   4.001
 8980SOL    HW127839   3.875   3.033   3.951
 8980SOL    HW227840   3.828   3.172   4.022
 8981SOL     OW27841   3.303   1.330   5.235
 8981SOL    HW127842   3.359   1.361   5.312
 8981SOL    HW227843   3.206   1.337   5.259
 8982SOL     OW27844   3.634   4.478   0.852
 8982SOL    HW127845   3.555   4.512   0.902
 8982SOL    HW227846   3.609   4.394   0.804
 8983SOL     OW27847   4.800   4.999   0.440
 8983SOL    HW127848   4.753   4.977   0.355
 8983SOL    HW227849   4.878   5.059   0.421
 8984SOL     OW27850   1.808   5.894   3.313
 8984SOL    HW127851   1.897   5.874   3.353
 8984SOL    HW227852   1.813   5.885   3.214
 8985SOL     OW27853   3.706   3.256   5.909
 8985SOL    HW127854   3.757   3.282   5.991
 8985SOL    HW227855   3.617   3.300   5.910
 8986SOL     OW27856   3.581   5.953   2.743
 8986SOL    HW127857   3.656   5.988   2.686
 8986SOL    HW227858   3.514   6.025   2.756
 8987SOL     OW27859   5.494   6.490   1.625
 8987SOL    HW127860   5.577   6.435   1.633
 8987SOL    HW227861   5.419   6.445   1.674
 8988SOL     OW27862   0.412   5.308   5.151
 8988SOL    HW127863   0.391   5.236   5.085
 8988SOL    HW227864   0.490   5.280   5.207
 8989SOL     OW27865   3.691   3.080   6.857
 8989SOL    HW127866   3.699   3.068   6.758
 8989SOL    HW227867   3.596   3.101   6.880
 8990SOL     OW27868   0.421   6.312   4.099
 8990SOL    HW127869   0.342   6.312   4.037
 8990SOL    HW227870   0.390   6.327   4.193
 8991SOL     OW27871   0.921   2.092   5.379
 8991SOL    HW127872   0.830   2.115   5.414
 8991SOL    HW227873   0.966   2.028   5.441
 8992SOL     OW27874   6.171   2.303   6.951
 8992SOL    HW127875   6.123   2.363   6.888
 8992SOL    HW227876   6.210   2.356   0.009
 8993SOL     OW27877   4.880   2.409   7.014
 8993SOL    HW127878   4.935   2.332   6.982
 8993SOL    HW227879   4.816   2.437   6.942
 8994SOL     OW27880   1.954   5.606   4.089
 8994SOL    HW127881   1.979   5.702   4.075
 8994SOL    HW227882   1.920   5.568   4.003
 8995SOL     OW27883   0.064   1.437   0.571
 8995SOL    HW127884   0.076   1.498   0.493
 8995SOL    HW227885   0.120   1.469   0.647
 8996SOL     OW27886   4.374   5.100   6.064
 8996SOL    HW127887   4.340   5.007   6.079
 8996SOL    HW227888   4.314   5.148   6.000
 8997SOL     OW27889   6.218   0.694   4.943
 8997SOL    HW127890   6.203   0.728   4.850
 8997SOL    HW227891   6.241   0.596   4.939
 8998SOL     OW27892   6.043   3.077   4.282
 8998SOL    HW127893   6.000   2.987   4.268
 8998SOL    HW227894   5.972   3.144   4.303
 8999SOL     OW27895   3.855   0.252   6.226
 8999SOL    HW127896   3.929   0.290   6.281
 8999SOL    HW227897   3.864   0.152   6.224
 9000SOL     OW27898   1.510   4.029   1.345
 9000SOL    HW127899   1.417   4.010   1.377
 9000SOL    HW227900   1.516   4.125   1.317
 9001SOL     OW27901   1.029   5.169   2.661
 9001SOL    HW127902   1.009   5.250   2.715
 9001SOL    HW227903   1.023   5.190   2.564
 9002SOL     OW27904   1.036   4.537   0.047
 9002SOL    HW127905   0.996   4.448   0.069
 9002SOL    HW227906   0.964   4.604   0.031
 9003SOL     OW27907   5.670   0.415   1.240
 9003SOL    HW127908   5.748   0.463   1.201
 9003SOL    HW227909   5.605   0.480   1.279
 9004SOL     OW27910   3.998   4.482   0.376
 9004SOL    HW127911   3.918   4.454   0.428
 9004SOL    HW227912   4.065   4.524   0.437
 9005SOL     OW27913   4.875   1.278   4.842
 9005SOL    HW127914   4.953   1.221   4.869
 9005SOL    HW227915   4.905   1.372   4.830
 9006SOL     OW27916   3.431   5.828   0.517
 9006SOL    HW127917   3.409   5.844   0.613
 9006SOL    HW227918   3.446   5.730   0.503
 9007SOL     OW27919   2.777   0.841   2.624
 9007SOL    HW127920   2.772   0.940   2.614
 9007SOL    HW227921   2.825   0.818   2.708
 9008SOL     OW27922   0.372   5.685   2.753
 9008SOL    HW127923   0.328   5.686   2.843
 9008SOL    HW227924   0.416   5.773   2.735
 9009SOL     OW27925   3.683   5.806   1.067
 9009SOL    HW127926   3.777   5.821   1.038
 9009SOL    HW227927   3.622   5.818   0.989
 9010SOL     OW27928   1.719   6.134   4.209
 9010SOL    HW127929   1.678   6.217   4.246
 9010SOL    HW227930   1.757   6.080   4.284
 9011SOL     OW27931   2.680   1.930   2.142
 9011SOL    HW127932   2.754   1.998   2.140
 9011SOL    HW227933   2.607   1.961   2.203
 9012SOL     OW27934   1.700   6.320   6.499
 9012SOL    HW127935   1.656   6.409   6.512
 9012SOL    HW227936   1.762   6.324   6.421
 9013SOL     OW27937   1.954   6.534   4.010
 9013SOL    HW127938   2.027   6.557   3.945
 9013SOL    HW227939   1.989   6.469   4.077
 9014SOL     OW27940   5.303   2.998   3.258
 9014SOL    HW127941   5.402   2.995   3.273
 9014SOL    HW227942   5.258   3.029   3.342
 9015SOL     OW27943   5.478   1.523   6.987
 9015SOL    HW127944   5.572   1.517   6.951
 9015SOL    HW227945   5.413   1.518   6.911
 9016SOL     OW27946   5.844   5.925   6.585
 9016SOL    HW127947   5.837   5.958   6.491
 9016SOL    HW227948   5.886   5.995   6.643
 9017SOL     OW27949   3.958   0.352   4.434
 9017SOL    HW127950   3.938   0.270   4.487
 9017SOL    HW227951   4.055   0.354   4.409
 9018SOL     OW27952   4.231   3.924   6.402
 9018SOL    HW127953   4.295   3.920   6.326
 9018SOL    HW227954   4.142   3.955   6.369
 9019SOL     OW27955   0.608   3.806   3.856
 9019SOL    HW127956   0.595   3.725   3.799
 9019SOL    HW227957   0.581   3.785   3.950
 9020SOL     OW27958   5.487   6.273   2.290
 9020SOL    HW127959   5.457   6.208   2.220
 9020SOL    HW227960   5.497   6.226   2.377
 9021SOL     OW27961   0.519   0.750   4.286
 9021SOL    HW127962   0.441   0.781   4.232
 9021SOL    HW227963   0.488   0.723   4.377
 9022SOL     OW27964   3.983   2.904   6.223
 9022SOL    HW127965   4.066   2.923   6.274
 9022SOL    HW227966   3.932   2.830   6.268
 9023SOL     OW27967   5.917   3.842   0.741
 9023SOL    HW127968   5.991   3.814   0.680
 9023SOL    HW227969   5.857   3.765   0.759
 9024SOL     OW27970   1.401   5.361   6.097
 9024SOL    HW127971   1.461   5.301   6.043
 9024SOL    HW227972   1.458   5.425   6.150
 9025SOL     OW27973   0.968   5.600   1.390
 9025SOL    HW127974   0.876   5.633   1.414
 9025SOL    HW227975   1.014   5.567   1.472
 9026SOL     OW27976   4.564   1.659   0.157
 9026SOL    HW127977   4.579   1.648   0.255
 9026SOL    HW227978   4.621   1.594   0.107
 9027SOL     OW27979   0.786   4.127   3.123
 9027SOL    HW127980   0.791   4.058   3.196
 9027SOL    HW227981   0.723   4.096   3.052
 9028SOL     OW27982   3.034   4.411   5.718
 9028SOL    HW127983   3.116   4.441   5.669
 9028SOL    HW227984   3.010   4.318   5.688
 9029SOL     OW27985   4.050   6.558   4.831
 9029SOL    HW127986   4.094   6.645   4.854
 9029SOL    HW227987   3.952   6.564   4.848
 9030SOL     OW27988   2.516   1.577   2.738
 9030SOL    HW127989   2.446   1.559   2.669
 9030SOL    HW227990   2.474   1.622   2.817
 9031SOL     OW27991   4.434   6.846   4.654
 9031SOL    HW127992   4.507   6.859   4.587
 9031SOL    HW227993   4.452   6.764   4.708
 9032SOL     OW27994   4.851   3.929   1.746
 9032SOL    HW127995   4.809   3.840   1.764
 9032SOL    HW227996   4.826   3.993   1.819
 9033SOL     OW27997   0.880   6.295   3.063
 9033SOL    HW127998   0.952   6.298   2.993
 9033SOL    HW227999   0.921   6.270   3.151
 9034SOL     OW28000   4.259   6.190   3.970
 9034SOL    HW128001   4.229   6.115   4.029
 9034SOL    HW228002   4.241   6.278   4.015
 9035SOL     OW28003   1.805   4.747   6.694
 9035SOL    HW128004   1.719   4.794   6.672
 9035SOL    HW228005   1.867   4.754   6.616
 9036SOL     OW28006   1.237   4.031   5.470
 9036SOL    HW128007   1.337   4.024   5.467
 9036SOL    HW228008   1.197   3.966   5.406
 9037SOL     OW28009   1.228   2.106   2.780
 9037SOL    HW128010   1.225   2.031   2.846
 9037SOL    HW228011   1.146   2.104   2.724
 9038SOL     OW28012   4.225   3.643   5.185
 9038SOL    HW128013   4.212   3.678   5.092
 9038SOL    HW228014   4.150   3.580   5.207
 9039SOL     OW28015   3.989   5.734   6.450
 9039SOL    HW128016   4.032   5.779   6.528
 9039SOL    HW228017   3.890   5.750   6.452
 9040SOL     OW28018   2.567   1.529   1.208
 9040SOL    HW128019   2.472   1.541   1.179
 9040SOL    HW228020   2.606   1.617   1.235
 9041SOL     OW28021   6.811   2.310   1.664
 9041SOL    HW128022   6.773   2.301   1.573
 9041SOL    HW228023   6.856   2.224   1.690
 9042SOL     OW28024   3.716   6.047   0.000
 9042SOL    HW128025   3.652   6.070   6.944
 9042SOL    HW228026   3.763   5.962   6.994
 9043SOL     OW28027   2.997   2.029   0.387
 9043SOL    HW128028   3.044   1.967   0.324
 9043SOL    HW228029   3.016   2.001   0.481
 9044SOL     OW28030   1.017   0.967   0.256
 9044SOL    HW128031   1.052   0.960   0.162
 9044SOL    HW228032   1.072   1.033   0.307
 9045SOL     OW28033   3.984   1.502   3.554
 9045SOL    HW128034   3.974   1.402   3.555
 9045SOL    HW228035   3.908   1.542   3.503
 9046SOL     OW28036   3.405   3.790   2.419
 9046SOL    HW128037   3.397   3.878   2.371
 9046SOL    HW228038   3.408   3.807   2.518
 9047SOL     OW28039   1.275   3.534   5.827
 9047SOL    HW128040   1.297   3.467   5.898
 9047SOL    HW228041   1.351   3.597   5.816
 9048SOL     OW28042   6.526   2.110   6.134
 9048SOL    HW128043   6.581   2.049   6.077
 9048SOL    HW228044   6.448   2.143   6.081
 9049SOL     OW28045   3.094   0.207   6.415
 9049SOL    HW128046   3.002   0.243   6.396
 9049SOL    HW228047   3.113   0.213   6.513
 9050SOL     OW28048   0.568   5.098   0.377
 9050SOL    HW128049   0.617   5.143   0.452
 9050SOL    HW228050   0.631   5.085   0.300
 9051SOL     OW28051   2.402   0.974   1.378
 9051SOL    HW128052   2.380   1.071   1.370
 9051SOL    HW228053   2.362   0.924   1.302
 9052SOL     OW28054   1.365   2.287   5.442
 9052SOL    HW128055   1.382   2.328   5.532
 9052SOL    HW228056   1.451   2.282   5.392
 9053SOL     OW28057   1.886   0.778   0.080
 9053SOL    HW128058   1.847   0.734   0.161
 9053SOL    HW228059   1.869   0.721   7.017
 9054SOL     OW28060   2.287   5.932   2.725
 9054SOL    HW128061   2.368   5.895   2.771
 9054SOL    HW228062   2.283   6.031   2.739
 9055SOL     OW28063   0.107   4.004   4.583
 9055SOL    HW128064   0.022   3.970   4.544
 9055SOL    HW228065   0.128   4.093   4.542
 9056SOL     OW28066   6.163   2.709   2.720
 9056SOL    HW128067   6.089   2.706   2.787
 9056SOL    HW228068   6.161   2.796   2.671
 9057SOL     OW28069   3.811   2.085   4.062
 9057SOL    HW128070   3.761   2.115   3.981
 9057SOL    HW228071   3.759   2.106   4.144
 9058SOL     OW28072   2.237   0.954   5.464
 9058SOL    HW128073   2.146   0.984   5.436
 9058SOL    HW228074   2.237   0.935   5.562
 9059SOL     OW28075   1.041   1.957   3.008
 9059SOL    HW128076   1.137   1.931   3.020
 9059SOL    HW228077   1.023   2.041   3.058
 9060SOL     OW28078   5.413   2.751   5.375
 9060SOL    HW128079   5.411   2.655   5.402
 9060SOL    HW228080   5.346   2.802   5.429
 9061SOL     OW28081   3.346   5.982   3.000
 9061SOL    HW128082   3.347   5.925   2.918
 9061SOL    HW228083   3.384   5.931   3.077
 9062SOL     OW28084   1.607   5.376   1.147
 9062SOL    HW128085   1.602   5.444   1.221
 9062SOL    HW228086   1.555   5.409   1.068
 9063SOL     OW28087   2.958   1.343   2.166
 9063SOL    HW128088   2.960   1.419   2.100
 9063SOL    HW228089   2.870   1.296   2.159
 9064SOL     OW28090   5.727   3.656   0.271
 9064SOL    HW128091   5.653   3.697   0.325
 9064SOL    HW228092   5.815   3.684   0.310
 9065SOL     OW28093   2.456   1.339   0.016
 9065SOL    HW128094   2.465   1.362   6.936
 9065SOL    HW228095   2.520   1.394   0.069
 9066SOL     OW28096   5.193   6.528   0.254
 9066SOL    HW128097   5.149   6.450   0.211
 9066SOL    HW228098   5.126   6.601   0.268
 9067SOL     OW28099   1.254   6.492   2.864
 9067SOL    HW128100   1.168   6.541   2.852
 9067SOL    HW228101   1.292   6.513   2.954
 9068SOL     OW28102   1.787   6.034   6.867
 9068SOL    HW128103   1.740   6.006   6.783
 9068SOL    HW228104   1.778   6.133   6.878
 9069SOL     OW28105   1.558   2.702   6.292
 9069SOL    HW128106   1.532   2.779   6.234
 9069SOL    HW228107   1.627   2.731   6.358
 9070SOL     OW28108   1.411   4.080   3.312
 9070SOL    HW128109   1.324   4.070   3.360
 9070SOL    HW228110   1.469   4.144   3.363
 9071SOL     OW28111   4.997   6.284   0.346
 9071SOL    HW128112   5.066   6.289   0.419
 9071SOL    HW228113   4.949   6.196   0.352
 9072SOL     OW28114   5.112   5.289   6.666
 9072SOL    HW128115   5.049   5.365   6.651
 9072SOL    HW228116   5.142   5.253   6.577
 9073SOL     OW28117   1.861   0.443   1.748
 9073SOL    HW128118   1.854   0.426   1.650
 9073SOL    HW228119   1.775   0.419   1.793
 9074SOL     OW28120   1.080   0.129   3.363
 9074SOL    HW128121   1.106   0.222   3.392
 9074SOL    HW228122   1.002   0.098   3.418
 9075SOL     OW28123   1.108   0.824   2.648
 9075SOL    HW128124   1.189   0.859   2.602
 9075SOL    HW228125   1.114   0.725   2.657
 9076SOL     OW28126   6.596   1.703   5.289
 9076SOL    HW128127   6.655   1.783   5.293
 9076SOL    HW228128   6.501   1.731   5.274
 9077SOL     OW28129   5.784   6.379   2.009
 9077SOL    HW128130   5.695   6.334   1.997
 9077SOL    HW228131   5.774   6.477   1.990
 9078SOL     OW28132   3.305   2.834   5.006
 9078SOL    HW128133   3.402   2.845   5.027
 9078SOL    HW228134   3.289   2.742   4.971
 9079SOL     OW28135   3.377   0.818   6.042
 9079SOL    HW128136   3.449   0.855   5.984
 9079SOL    HW228137   3.379   0.718   6.038
 9080SOL     OW28138   5.196   1.266   0.834
 9080SOL    HW128139   5.130   1.282   0.760
 9080SOL    HW228140   5.277   1.323   0.819
 9081SOL     OW28141   5.258   6.882   2.356
 9081SOL    HW128142   5.190   6.808   2.348
 9081SOL    HW228143   5.299   6.899   2.266
 9082SOL     OW28144   3.314   0.843   3.356
 9082SOL    HW128145   3.378   0.894   3.414
 9082SOL    HW228146   3.284   0.902   3.281
 9083SOL     OW28147   4.390   4.913   4.455
 9083SOL    HW128148   4.381   4.847   4.530
 9083SOL    HW228149   4.454   4.984   4.480
 9084SOL     OW28150   3.798   3.294   2.813
 9084SOL    HW128151   3.846   3.245   2.739
 9084SOL    HW228152   3.730   3.233   2.855
 9085SOL     OW28153   1.311   2.284   0.956
 9085SOL    HW128154   1.329   2.348   0.882
 9085SOL    HW228155   1.388   2.284   1.020
 9086SOL     OW28156   0.440   3.902   0.196
 9086SOL    HW128157   0.490   3.987   0.178
 9086SOL    HW228158   0.347   3.924   0.227
 9087SOL     OW28159   5.030   3.727   1.987
 9087SOL    HW128160   4.948   3.740   1.932
 9087SOL    HW228161   5.005   3.702   2.080
 9088SOL     OW28162   4.960   6.818   1.089
 9088SOL    HW128163   4.903   6.766   1.152
 9088SOL    HW228164   5.018   6.881   1.142
 9089SOL     OW28165   4.225   0.146   5.955
 9089SOL    HW128166   4.305   0.090   5.934
 9089SOL    HW228167   4.198   0.199   5.875
 9090SOL     OW28168   5.785   1.441   3.131
 9090SOL    HW128169   5.787   1.393   3.043
 9090SOL    HW228170   5.731   1.388   3.197
 9091SOL     OW28171   3.021   2.552   6.518
 9091SOL    HW128172   2.981   2.481   6.460
 9091SOL    HW228173   3.047   2.631   6.461
 9092SOL     OW28174   6.760   2.929   6.305
 9092SOL    HW128175   6.841   2.871   6.316
 9092SOL    HW228176   6.774   2.991   6.228
 9093SOL     OW28177   1.897   6.065   5.295
 9093SOL    HW128178   1.985   6.095   5.332
 9093SOL    HW228179   1.907   5.974   5.255
 9094SOL     OW28180   0.827   3.720   1.278
 9094SOL    HW128181   0.826   3.817   1.256
 9094SOL    HW228182   0.868   3.706   1.368
 9095SOL     OW28183   6.702   6.712   5.510
 9095SOL    HW128184   6.647   6.631   5.530
 9095SOL    HW228185   6.781   6.685   5.455
 9096SOL     OW28186   6.812   4.961   4.144
 9096SOL    HW128187   6.905   4.923   4.136
 9096SOL    HW228188   6.760   4.938   4.062
 9097SOL     OW28189   0.865   2.362   6.232
 9097SOL    HW128190   0.779   2.313   6.247
 9097SOL    HW228191   0.902   2.338   6.142
 9098SOL     OW28192   2.064   4.430   3.792
 9098SOL    HW128193   2.028   4.339   3.771
 9098SOL    HW228194   2.163   4.424   3.807
 9099SOL     OW28195   2.436   2.109   0.029
 9099SOL    HW128196   2.471   2.044   6.978
 9099SOL    HW228197   2.483   2.196   0.020
 9100SOL     OW28198   1.275   4.372   3.400
 9100SOL    HW128199   1.322   4.289   3.371
 9100SOL    HW228200   1.335   4.424   3.462
 9101SOL     OW28201   0.439   2.733   0.480
 9101SOL    HW128202   0.523   2.786   0.493
 9101SOL    HW228203   0.372   2.760   0.549
 9102SOL     OW28204   4.187   6.629   2.683
 9102SOL    HW128205   4.284   6.610   2.667
 9102SOL    HW228206   4.142   6.646   2.595
 9103SOL     OW28207   6.320   0.864   1.167
 9103SOL    HW128208   6.403   0.894   1.120
 9103SOL    HW228209   6.293   0.932   1.235
 9104SOL     OW28210   5.924   1.814   6.320
 9104SOL    HW128211   5.975   1.898   6.337
 9104SOL    HW228212   5.987   1.741   6.295
 9105SOL     OW28213   2.059   1.266   5.496
 9105SOL    HW128214   2.144   1.303   5.460
 9105SOL    HW228215   2.032   1.318   5.578
 9106SOL     OW28216   1.387   3.517   7.004
 9106SOL    HW128217   1.331   3.599   0.002
 9106SOL    HW228218   1.458   3.513   0.056
 9107SOL     OW28219   3.282   1.795   0.305
 9107SOL    HW128220   3.277   1.844   0.219
 9107SOL    HW228221   3.221   1.715   0.301
 9108SOL     OW28222   6.451   5.608   6.081
 9108SOL    HW128223   6.486   5.611   6.175
 9108SOL    HW228224   6.527   5.621   6.017
 9109SOL     OW28225   5.772   3.828   2.593
 9109SOL    HW128226   5.777   3.790   2.501
 9109SOL    HW228227   5.833   3.907   2.600
 9110SOL     OW28228   1.663   6.089   3.442
 9110SOL    HW128229   1.732   6.019   3.425
 9110SOL    HW228230   1.657   6.107   3.541
 9111SOL     OW28231   4.334   2.274   6.403
 9111SOL    HW128232   4.318   2.189   6.453
 9111SOL    HW228233   4.336   2.351   6.467
 9112SOL     OW28234   0.985   5.243   1.524
 9112SOL    HW128235   1.048   5.319   1.542
 9112SOL    HW228236   1.022   5.159   1.564
 9113SOL     OW28237   5.564   0.541   4.400
 9113SOL    HW128238   5.508   0.601   4.458
 9113SOL    HW228239   5.609   0.596   4.329
 9114SOL     OW28240   1.328   6.366   6.160
 9114SOL    HW128241   1.249   6.345   6.218
 9114SOL    HW228242   1.321   6.313   6.075
 9115SOL     OW28243   4.680   4.318   4.845
 9115SOL    HW128244   4.623   4.398   4.828
 9115SOL    HW228245   4.662   4.249   4.774
 9116SOL     OW28246   1.998   0.482   3.151
 9116SOL    HW128247   1.943   0.444   3.077
 9116SOL    HW228248   2.091   0.447   3.145
 9117SOL     OW28249   2.685   6.244   6.980
 9117SOL    HW128250   2.700   6.324   0.021
 9117SOL    HW228251   2.713   6.162   0.012
 9118SOL     OW28252   6.557   3.799   2.380
 9118SOL    HW128253   6.560   3.827   2.476
 9118SOL    HW228254   6.621   3.854   2.327
 9119SOL     OW28255   3.017   0.542   0.187
 9119SOL    HW128256   3.094   0.513   0.130
 9119SOL    HW228257   3.045   0.621   0.242
 9120SOL     OW28258   6.381   3.944   4.815
 9120SOL    HW128259   6.317   3.947   4.739
 9120SOL    HW228260   6.338   3.984   4.896
 9121SOL     OW28261   4.095   0.572   4.599
 9121SOL    HW128262   4.014   0.515   4.602
 9121SOL    HW228263   4.152   0.555   4.679
 9122SOL     OW28264   1.105   3.239   1.454
 9122SOL    HW128265   1.203   3.241   1.476
 9122SOL    HW228266   1.092   3.190   1.368
 9123SOL     OW28267   6.828   6.505   4.193
 9123SOL    HW128268   6.864   6.500   4.287
 9123SOL    HW228269   6.859   6.590   4.150
 9124SOL     OW28270   2.897   4.944   0.477
 9124SOL    HW128271   2.918   5.006   0.552
 9124SOL    HW228272   2.824   4.983   0.421
 9125SOL     OW28273   5.802   6.422   1.663
 9125SOL    HW128274   5.772   6.334   1.699
 9125SOL    HW228275   5.802   6.419   1.563
 9126SOL     OW28276   4.311   4.756   0.686
 9126SOL    HW128277   4.376   4.819   0.728
 9126SOL    HW228278   4.352   4.715   0.605
 9127SOL     OW28279   6.643   4.813   5.246
 9127SOL    HW128280   6.571   4.846   5.307
 9127SOL    HW228281   6.664   4.718   5.268
 9128SOL     OW28282   5.834   4.171   5.583
 9128SOL    HW128283   5.777   4.236   5.632
 9128SOL    HW228284   5.867   4.100   5.646
 9129SOL     OW28285   0.799   2.445   0.679
 9129SOL    HW128286   0.891   2.408   0.691
 9129SOL    HW228287   0.793   2.492   0.592
 9130SOL     OW28288   2.952   3.202   4.915
 9130SOL    HW128289   2.864   3.154   4.923
 9130SOL    HW228290   2.967   3.227   4.820
 9131SOL     OW28291   5.336   2.569   0.438
 9131SOL    HW128292   5.345   2.470   0.436
 9131SOL    HW228293   5.282   2.596   0.518
 9132SOL     OW28294   0.916   4.055   3.934
 9132SOL    HW128295   0.836   4.097   3.978
 9132SOL    HW228296   0.944   4.111   3.856
 9133SOL     OW28297   5.852   0.088   1.239
 9133SOL    HW128298   5.928   0.153   1.253
 9133SOL    HW228299   5.767   0.129   1.271
 9134SOL     OW28300   5.017   4.965   0.722
 9134SOL    HW128301   4.946   5.036   0.730
 9134SOL    HW228302   4.975   4.875   0.736
 9135SOL     OW28303   6.329   6.176   3.205
 9135SOL    HW128304   6.230   6.184   3.201
 9135SOL    HW228305   6.371   6.247   3.149
 9136SOL     OW28306   6.557   4.621   0.312
 9136SOL    HW128307   6.591   4.528   0.324
 9136SOL    HW228308   6.621   4.686   0.354
 9137SOL     OW28309   5.472   6.588   5.237
 9137SOL    HW128310   5.555   6.641   5.224
 9137SOL    HW228311   5.411   6.637   5.300
 9138SOL     OW28312   1.965   3.986   6.530
 9138SOL    HW128313   2.057   4.010   6.501
 9138SOL    HW228314   1.944   4.031   6.617
 9139SOL     OW28315   6.623   0.038   1.661
 9139SOL    HW128316   6.620   0.057   1.563
 9139SOL    HW228317   6.538   7.009   1.689
 9140SOL     OW28318   2.087   3.656   2.588
 9140SOL    HW128319   2.001   3.643   2.539
 9140SOL    HW228320   2.133   3.568   2.600
 9141SOL     OW28321   0.014   5.617   4.882
 9141SOL    HW128322   6.959   5.612   4.813
 9141SOL    HW228323   0.015   5.708   4.923
 9142SOL     OW28324   0.869   4.916   3.980
 9142SOL    HW128325   0.879   4.905   3.881
 9142SOL    HW228326   0.913   5.002   4.008
 9143SOL     OW28327   6.254   3.968   3.188
 9143SOL    HW128328   6.276   3.901   3.258
 9143SOL    HW228329   6.204   4.045   3.229
 9144SOL     OW28330   3.078   4.382   5.276
 9144SOL    HW128331   3.011   4.420   5.213
 9144SOL    HW228332   3.097   4.287   5.250
 9145SOL     OW28333   1.462   5.816   5.920
 9145SOL    HW128334   1.495   5.881   5.852
 9145SOL    HW228335   1.397   5.753   5.879
 9146SOL     OW28336   5.904   2.950   3.327
 9146SOL    HW128337   5.848   3.031   3.343
 9146SOL    HW228338   5.846   2.869   3.324
 9147SOL     OW28339   3.827   0.373   5.750
 9147SOL    HW128340   3.764   0.320   5.806
 9147SOL    HW228341   3.822   0.340   5.655
 9148SOL     OW28342   5.058   6.027   1.153
 9148SOL    HW128343   4.967   5.996   1.183
 9148SOL    HW228344   5.089   5.970   1.077
 9149SOL     OW28345   0.446   3.778   0.527
 9149SOL    HW128346   0.480   3.840   0.456
 9149SOL    HW228347   0.506   3.699   0.535
 9150SOL     OW28348   2.657   3.186   6.996
 9150SOL    HW128349   2.756   3.176   6.983
 9150SOL    HW228350   2.610   3.104   6.964
 9151SOL     OW28351   1.861   3.092   3.631
 9151SOL    HW128352   1.936   3.116   3.693
 9151SOL    HW228353   1.852   2.993   3.625
 9152SOL     OW28354   2.215   4.060   2.823
 9152SOL    HW128355   2.243   4.147   2.782
 9152SOL    HW228356   2.247   4.056   2.917
 9153SOL     OW28357   0.190   2.817   5.874
 9153SOL    HW128358   0.181   2.717   5.873
 9153SOL    HW228359   0.202   2.848   5.969
 9154SOL     OW28360   5.478   5.032   3.443
 9154SOL    HW128361   5.497   4.973   3.522
 9154SOL    HW228362   5.383   5.063   3.447
 9155SOL     OW28363   1.029   6.096   2.637
 9155SOL    HW128364   0.998   6.002   2.650
 9155SOL    HW228365   1.129   6.098   2.635
 9156SOL     OW28366   6.900   4.007   5.529
 9156SOL    HW128367   6.974   4.066   5.561
 9156SOL    HW228368   6.932   3.953   5.451
 9157SOL     OW28369   1.401   4.588   5.494
 9157SOL    HW128370   1.441   4.680   5.491
 9157SOL    HW228371   1.468   4.525   5.534
 9158SOL     OW28372   6.596   3.690   4.631
 9158SOL    HW128373   6.510   3.742   4.637
 9158SOL    HW228374   6.664   3.732   4.692
 9159SOL     OW28375   2.253   1.456   3.713
 9159SOL    HW128376   2.286   1.369   3.750
 9159SOL    HW228377   2.313   1.530   3.742
 9160SOL     OW28378   1.193   3.130   6.942
 9160SOL    HW128379   1.267   3.092   6.997
 9160SOL    HW228380   1.130   3.057   6.915
 9161SOL     OW28381   6.504   3.547   2.454
 9161SOL    HW128382   6.407   3.534   2.432
 9161SOL    HW228383   6.543   3.618   2.395
 9162SOL     OW28384   3.909   2.251   1.764
 9162SOL    HW128385   3.986   2.214   1.815
 9162SOL    HW228386   3.832   2.266   1.826
 9163SOL     OW28387   2.767   2.306   4.263
 9163SOL    HW128388   2.726   2.253   4.189
 9163SOL    HW228389   2.695   2.339   4.324
 9164SOL     OW28390   2.123   0.209   6.205
 9164SOL    HW128391   2.112   0.168   6.114
 9164SOL    HW228392   2.037   0.249   6.235
 9165SOL     OW28393   5.332   1.793   6.088
 9165SOL    HW128394   5.378   1.728   6.148
 9165SOL    HW228395   5.398   1.860   6.054
 9166SOL     OW28396   4.508   6.093   1.932
 9166SOL    HW128397   4.569   6.142   1.870
 9166SOL    HW228398   4.435   6.155   1.962
 9167SOL     OW28399   1.815   1.459   4.477
 9167SOL    HW128400   1.859   1.444   4.388
 9167SOL    HW228401   1.721   1.488   4.463
 9168SOL     OW28402   6.719   6.191   4.840
 9168SOL    HW128403   6.637   6.185   4.784
 9168SOL    HW228404   6.699   6.242   4.923
 9169SOL     OW28405   6.611   5.912   0.857
 9169SOL    HW128406   6.615   5.893   0.759
 9169SOL    HW228407   6.704   5.918   0.893
 9170SOL     OW28408   1.682   1.057   5.380
 9170SOL    HW128409   1.658   1.153   5.395
 9170SOL    HW228410   1.644   1.027   5.292
 9171SOL     OW28411   3.360   5.347   6.699
 9171SOL    HW128412   3.348   5.445   6.680
 9171SOL    HW228413   3.453   5.319   6.674
 9172SOL     OW28414   4.421   1.824   5.432
 9172SOL    HW128415   4.392   1.730   5.446
 9172SOL    HW228416   4.371   1.884   5.494
 9173SOL     OW28417   5.552   3.618   5.122
 9173SOL    HW128418   5.594   3.568   5.046
 9173SOL    HW228419   5.583   3.580   5.209
 9174SOL     OW28420   6.501   4.764   1.442
 9174SOL    HW128421   6.534   4.825   1.514
 9174SOL    HW228422   6.464   4.681   1.482
 9175SOL     OW28423   2.059   6.823   1.051
 9175SOL    HW128424   2.142   6.849   1.102
 9175SOL    HW228425   1.982   6.818   1.113
 9176SOL     OW28426   1.656   0.714   1.800
 9176SOL    HW128427   1.560   0.710   1.827
 9176SOL    HW228428   1.714   0.677   1.872
 9177SOL     OW28429   0.790   6.700   3.917
 9177SOL    HW128430   0.711   6.640   3.928
 9177SOL    HW228431   0.759   6.795   3.913
 9178SOL     OW28432   1.366   4.753   0.877
 9178SOL    HW128433   1.400   4.846   0.886
 9178SOL    HW228434   1.440   4.688   0.896
 9179SOL     OW28435   3.656   5.237   3.785
 9179SOL    HW128436   3.723   5.257   3.856
 9179SOL    HW228437   3.681   5.154   3.736
 9180SOL     OW28438   0.135   1.019   5.318
 9180SOL    HW128439   0.225   1.039   5.356
 9180SOL    HW228440   0.076   1.099   5.327
 9181SOL     OW28441   2.884   2.234   3.768
 9181SOL    HW128442   2.975   2.213   3.732
 9181SOL    HW228443   2.891   2.256   3.866
 9182SOL     OW28444   0.492   2.010   2.505
 9182SOL    HW128445   0.485   1.921   2.551
 9182SOL    HW228446   0.417   2.068   2.535
 9183SOL     OW28447   1.729   1.547   6.218
 9183SOL    HW128448   1.722   1.573   6.314
 9183SOL    HW228449   1.823   1.562   6.187
 9184SOL     OW28450   3.281   3.771   1.116
 9184SOL    HW128451   3.257   3.757   1.212
 9184SOL    HW228452   3.357   3.836   1.110
 9185SOL     OW28453   1.363   0.328   5.908
 9185SOL    HW128454   1.364   0.247   5.967
 9185SOL    HW228455   1.365   0.411   5.965
 9186SOL     OW28456   4.777   7.010   6.787
 9186SOL    HW128457   4.781   6.910   6.783
 9186SOL    HW228458   4.863   0.028   6.824
 9187SOL     OW28459   5.474   2.639   0.846
 9187SOL    HW128460   5.552   2.628   0.784
 9187SOL    HW228461   5.390   2.648   0.792
 9188SOL     OW28462   1.704   0.013   1.321
 9188SOL    HW128463   1.634   6.975   1.366
 9188SOL    HW228464   1.756   0.064   1.390
 9189SOL     OW28465   3.294   0.571   5.759
 9189SOL    HW128466   3.352   0.591   5.838
 9189SOL    HW228467   3.277   0.473   5.754
 9190SOL     OW28468   4.403   0.817   5.052
 9190SOL    HW128469   4.397   0.912   5.022
 9190SOL    HW228470   4.316   0.771   5.035
 9191SOL     OW28471   5.605   0.032   1.737
 9191SOL    HW128472   5.558   0.093   1.800
 9191SOL    HW228473   5.696   0.011   1.772
 9192SOL     OW28474   4.858   3.812   4.400
 9192SOL    HW128475   4.869   3.743   4.472
 9192SOL    HW228476   4.870   3.769   4.311
 9193SOL     OW28477   3.948   3.556   3.251
 9193SOL    HW128478   3.904   3.621   3.189
 9193SOL    HW228479   3.953   3.466   3.207
 9194SOL     OW28480   3.626   4.853   2.825
 9194SOL    HW128481   3.621   4.890   2.732
 9194SOL    HW228482   3.544   4.801   2.845
 9195SOL     OW28483   0.593   2.845   2.829
 9195SOL    HW128484   0.528   2.898   2.884
 9195SOL    HW228485   0.565   2.749   2.828
 9196SOL     OW28486   5.049   6.431   4.349
 9196SOL    HW128487   5.130   6.451   4.404
 9196SOL    HW228488   5.048   6.491   4.269
 9197SOL     OW28489   4.579   1.668   6.431
 9197SOL    HW128490   4.524   1.590   6.402
 9197SOL    HW228491   4.653   1.683   6.365
 9198SOL     OW28492   6.000   2.292   5.331
 9198SOL    HW128493   6.050   2.317   5.248
 9198SOL    HW228494   6.044   2.333   5.411
 9199SOL     OW28495   1.424   3.232   6.242
 9199SOL    HW128496   1.437   3.268   6.150
 9199SOL    HW228497   1.378   3.299   6.299
 9200SOL     OW28498   4.778   6.094   0.941
 9200SOL    HW128499   4.872   6.111   0.968
 9200SOL    HW228500   4.768   5.998   0.914
 9201SOL     OW28501   0.585   3.767   2.237
 9201SOL    HW128502   0.555   3.751   2.143
 9201SOL    HW228503   0.667   3.714   2.255
 9202SOL     OW28504   2.329   6.040   3.525
 9202SOL    HW128505   2.247   6.088   3.495
 9202SOL    HW228506   2.358   6.076   3.613
 9203SOL     OW28507   4.858   0.619   0.399
 9203SOL    HW128508   4.936   0.628   0.338
 9203SOL    HW228509   4.886   0.640   0.493
 9204SOL     OW28510   5.348   4.459   2.762
 9204SOL    HW128511   5.358   4.373   2.712
 9204SOL    HW228512   5.427   4.518   2.743
 9205SOL     OW28513   4.530   2.399   1.499
 9205SOL    HW128514   4.551   2.439   1.588
 9205SOL    HW228515   4.615   2.372   1.454
 9206SOL     OW28516   6.272   6.228   4.581
 9206SOL    HW128517   6.226   6.245   4.668
 9206SOL    HW228518   6.304   6.314   4.543
 9207SOL     OW28519   3.866   6.295   6.957
 9207SOL    HW128520   3.833   6.204   6.982
 9207SOL    HW228521   3.884   6.300   6.859
 9208SOL     OW28522   4.219   3.960   1.670
 9208SOL    HW128523   4.318   3.973   1.680
 9208SOL    HW228524   4.174   4.049   1.667
 9209SOL     OW28525   3.875   0.074   2.696
 9209SOL    HW128526   3.845   6.999   2.722
 9209SOL    HW228527   3.925   0.070   2.609
 9210SOL     OW28528   0.777   6.610   0.549
 9210SOL    HW128529   0.733   6.671   0.615
 9210SOL    HW228530   0.863   6.651   0.518
 9211SOL     OW28531   4.814   1.412   6.093
 9211SOL    HW128532   4.783   1.474   6.020
 9211SOL    HW228533   4.820   1.319   6.057
 9212SOL     OW28534   5.861   4.297   5.334
 9212SOL    HW128535   5.926   4.225   5.309
 9212SOL    HW228536   5.823   4.279   5.425
 9213SOL     OW28537   6.672   6.165   2.086
 9213SOL    HW128538   6.644   6.260   2.100
 9213SOL    HW228539   6.596   6.115   2.043
 9214SOL     OW28540   2.214   1.633   5.744
 9214SOL    HW128541   2.186   1.710   5.800
 9214SOL    HW228542   2.250   1.560   5.802
 9215SOL     OW28543   0.599   3.766   3.221
 9215SOL    HW128544   0.540   3.821   3.162
 9215SOL    HW228545   0.616   3.678   3.178
 9216SOL     OW28546   2.370   6.206   3.067
 9216SOL    HW128547   2.314   6.131   3.031
 9216SOL    HW228548   2.465   6.176   3.074
 9217SOL     OW28549   4.274   1.672   6.867
 9217SOL    HW128550   4.320   1.599   6.816
 9217SOL    HW228551   4.179   1.679   6.835
 9218SOL     OW28552   5.681   5.529   6.620
 9218SOL    HW128553   5.614   5.492   6.555
 9218SOL    HW228554   5.647   5.615   6.657
 9219SOL     OW28555   3.066   2.476   5.517
 9219SOL    HW128556   3.101   2.569   5.526
 9219SOL    HW228557   3.001   2.457   5.590
 9220SOL     OW28558   0.587   6.598   3.332
 9220SOL    HW128559   0.604   6.695   3.313
 9220SOL    HW228560   0.641   6.541   3.270
 9221SOL     OW28561   2.945   1.539   1.018
 9221SOL    HW128562   2.969   1.593   1.099
 9221SOL    HW228563   3.028   1.501   0.977
 9222SOL     OW28564   1.261   5.086   4.118
 9222SOL    HW128565   1.293   5.165   4.170
 9222SOL    HW228566   1.325   5.010   4.129
 9223SOL     OW28567   6.288   3.334   4.478
 9223SOL    HW128568   6.288   3.421   4.429
 9223SOL    HW228569   6.354   3.338   4.553
 9224SOL     OW28570   2.022   4.817   2.693
 9224SOL    HW128571   2.072   4.810   2.607
 9224SOL    HW228572   2.015   4.727   2.736
 9225SOL     OW28573   6.401   5.352   6.012
 9225SOL    HW128574   6.306   5.324   6.000
 9225SOL    HW228575   6.405   5.451   6.026
 9226SOL     OW28576   1.007   0.551   6.010
 9226SOL    HW128577   0.960   0.560   6.098
 9226SOL    HW228578   0.939   0.557   5.936
 9227SOL     OW28579   3.434   4.124   0.829
 9227SOL    HW128580   3.351   4.140   0.883
 9227SOL    HW228581   3.412   4.068   0.749
 9228SOL     OW28582   3.696   2.999   4.890
 9228SOL    HW128583   3.616   3.059   4.888
 9228SOL    HW228584   3.717   2.974   4.984
 9229SOL     OW28585   6.831   5.242   0.633
 9229SOL    HW128586   6.925   5.256   0.602
 9229SOL    HW228587   6.773   5.219   0.555
 9230SOL     OW28588   4.480   0.605   5.324
 9230SOL    HW128589   4.575   0.630   5.344
 9230SOL    HW228590   4.477   0.552   5.239
 9231SOL     OW28591   6.336   5.933   1.788
 9231SOL    HW128592   6.305   6.012   1.736
 9231SOL    HW228593   6.285   5.929   1.874
 9232SOL     OW28594   1.273   5.210   1.822
 9232SOL    HW128595   1.307   5.191   1.729
 9232SOL    HW228596   1.338   5.174   1.889
 9233SOL     OW28597   1.255   6.691   5.906
 9233SOL    HW128598   1.274   6.718   6.000
 9233SOL    HW228599   1.303   6.606   5.885
 9234SOL     OW28600   2.810   4.141   5.856
 9234SOL    HW128601   2.823   4.043   5.866
 9234SOL    HW228602   2.767   4.178   5.939
 9235SOL     OW28603   2.394   1.858   2.905
 9235SOL    HW128604   2.399   1.864   2.805
 9235SOL    HW228605   2.352   1.771   2.931
 9236SOL     OW28606   1.521   3.270   5.762
 9236SOL    HW128607   1.538   3.255   5.665
 9236SOL    HW228608   1.422   3.274   5.778
 9237SOL     OW28609   6.233   5.368   2.809
 9237SOL    HW128610   6.177   5.287   2.792
 9237SOL    HW228611   6.263   5.406   2.721
 9238SOL     OW28612   1.939   2.618   4.675
 9238SOL    HW128613   1.935   2.532   4.726
 9238SOL    HW228614   1.921   2.600   4.578
 9239SOL     OW28615   1.105   4.822   6.080
 9239SOL    HW128616   1.154   4.742   6.045
 9239SOL    HW228617   1.145   4.851   6.167
 9240SOL     OW28618   3.939   1.824   3.603
 9240SOL    HW128619   3.923   1.829   3.701
 9240SOL    HW228620   3.995   1.744   3.581
 9241SOL     OW28621   5.620   6.496   0.015
 9241SOL    HW128622   5.541   6.527   0.067
 9241SOL    HW228623   5.689   6.568   0.012
 9242SOL     OW28624   1.671   2.408   1.017
 9242SOL    HW128625   1.675   2.374   0.923
 9242SOL    HW228626   1.760   2.446   1.043
 9243SOL     OW28627   1.400   0.201   0.159
 9243SOL    HW128628   1.484   0.197   0.213
 9243SOL    HW228629   1.412   0.263   0.082
 9244SOL     OW28630   2.480   6.293   6.187
 9244SOL    HW128631   2.440   6.269   6.276
 9244SOL    HW228632   2.488   6.392   6.180
 9245SOL     OW28633   0.897   4.996   3.067
 9245SOL    HW128634   0.877   5.092   3.049
 9245SOL    HW228635   0.907   4.982   3.166
 9246SOL     OW28636   4.979   6.542   6.519
 9246SOL    HW128637   4.993   6.564   6.616
 9246SOL    HW228638   4.938   6.451   6.511
 9247SOL     OW28639   3.873   6.612   3.029
 9247SOL    HW128640   3.828   6.541   3.084
 9247SOL    HW228641   3.839   6.702   3.056
 9248SOL     OW28642   2.436   0.900   6.751
 9248SOL    HW128643   2.485   0.918   6.666
 9248SOL    HW228644   2.499   0.864   6.820
 9249SOL     OW28645   2.637   6.970   6.935
 9249SOL    HW128646   2.657   6.889   6.878
 9249SOL    HW228647   2.543   7.000   6.917
 9250SOL     OW28648   0.297   3.304   3.286
 9250SOL    HW128649   0.260   3.385   3.241
 9250SOL    HW228650   0.223   3.255   3.333
 9251SOL     OW28651   3.180   1.956   1.541
 9251SOL    HW128652   3.256   2.018   1.523
 9251SOL    HW228653   3.214   1.862   1.543
 9252SOL     OW28654   5.792   1.539   4.561
 9252SOL    HW128655   5.735   1.498   4.632
 9252SOL    HW228656   5.884   1.500   4.564
 9253SOL     OW28657   1.707   5.681   4.806
 9253SOL    HW128658   1.801   5.709   4.785
 9253SOL    HW228659   1.642   5.744   4.763
 9254SOL     OW28660   0.436   5.287   2.323
 9254SOL    HW128661   0.367   5.359   2.312
 9254SOL    HW228662   0.514   5.324   2.374
 9255SOL     OW28663   6.300   4.162   1.145
 9255SOL    HW128664   6.365   4.238   1.157
 9255SOL    HW228665   6.324   4.111   1.062
 9256SOL     OW28666   2.548   6.681   0.673
 9256SOL    HW128667   2.617   6.631   0.620
 9256SOL    HW228668   2.579   6.775   0.687
 9257SOL     OW28669   6.024   5.696   4.742
 9257SOL    HW128670   5.925   5.706   4.734
 9257SOL    HW228671   6.067   5.710   4.653
 9258SOL     OW28672   4.163   5.409   1.882
 9258SOL    HW128673   4.091   5.354   1.841
 9258SOL    HW228674   4.124   5.495   1.915
 9259SOL     OW28675   0.532   2.427   6.599
 9259SOL    HW128676   0.597   2.486   6.551
 9259SOL    HW228677   0.544   2.333   6.568
 9260SOL     OW28678   4.818   3.972   4.713
 9260SOL    HW128679   4.751   3.962   4.639
 9260SOL    HW228680   4.822   3.887   4.766
 9261SOL     OW28681   1.808   2.305   1.707
 9261SOL    HW128682   1.744   2.250   1.760
 9261SOL    HW228683   1.761   2.385   1.671
 9262SOL     OW28684   6.643   6.470   6.306
 9262SOL    HW128685   6.676   6.448   6.215
 9262SOL    HW228686   6.544   6.456   6.311
 9263SOL     OW28687   2.183   4.761   3.114
 9263SOL    HW128688   2.202   4.829   3.043
 9263SOL    HW228689   2.134   4.804   3.190
 9264SOL     OW28690   5.552   3.675   6.311
 9264SOL    HW128691   5.503   3.633   6.234
 9264SOL    HW228692   5.507   3.761   6.336
 9265SOL     OW28693   5.172   0.867   1.255
 9265SOL    HW128694   5.166   0.807   1.335
 9265SOL    HW228695   5.099   0.844   1.191
 9266SOL     OW28696   2.071   4.138   0.709
 9266SOL    HW128697   1.993   4.198   0.728
 9266SOL    HW228698   2.050   4.046   0.743
 9267SOL     OW28699   0.987   1.029   4.052
 9267SOL    HW128700   0.906   1.044   4.109
 9267SOL    HW228701   0.959   1.015   3.957
 9268SOL     OW28702   0.813   1.080   1.679
 9268SOL    HW128703   0.822   1.140   1.759
 9268SOL    HW228704   0.846   1.128   1.597
 9269SOL     OW28705   4.304   1.235   0.306
 9269SOL    HW128706   4.327   1.270   0.215
 9269SOL    HW228707   4.292   1.136   0.301
 9270SOL     OW28708   2.733   0.727   5.898
 9270SOL    HW128709   2.767   0.793   5.965
 9270SOL    HW228710   2.810   0.686   5.850
 9271SOL     OW28711   1.212   4.672   5.660
 9271SOL    HW128712   1.175   4.764   5.672
 9271SOL    HW228713   1.265   4.668   5.575
 9272SOL     OW28714   6.268   6.232   5.821
 9272SOL    HW128715   6.299   6.205   5.730
 9272SOL    HW228716   6.315   6.176   5.890
 9273SOL     OW28717   5.683   3.447   3.831
 9273SOL    HW128718   5.775   3.463   3.864
 9273SOL    HW228719   5.635   3.385   3.893
 9274SOL     OW28720   0.715   3.274   0.880
 9274SOL    HW128721   0.740   3.281   0.784
 9274SOL    HW228722   0.681   3.182   0.899
 9275SOL     OW28723   5.566   0.766   0.977
 9275SOL    HW128724   5.492   0.830   0.998
 9275SOL    HW228725   5.654   0.805   1.005
 9276SOL     OW28726   2.530   4.994   6.793
 9276SOL    HW128727   2.575   4.921   6.742
 9276SOL    HW228728   2.598   5.047   6.843
 9277SOL     OW28729   4.674   5.147   2.208
 9277SOL    HW128730   4.655   5.061   2.255
 9277SOL    HW228731   4.634   5.145   2.116
 9278SOL     OW28732   0.194   0.213   5.943
 9278SOL    HW128733   0.160   0.132   5.991
 9278SOL    HW228734   0.144   0.293   5.974
 9279SOL     OW28735   2.714   6.122   1.685
 9279SOL    HW128736   2.781   6.095   1.615
 9279SOL    HW228737   2.676   6.212   1.661
 9280SOL     OW28738   1.160   5.638   2.737
 9280SOL    HW128739   1.210   5.716   2.774
 9280SOL    HW228740   1.199   5.614   2.648
 9281SOL     OW28741   1.706   5.126   0.656
 9281SOL    HW128742   1.660   5.055   0.603
 9281SOL    HW228743   1.681   5.116   0.752
 9282SOL     OW28744   2.812   6.434   4.911
 9282SOL    HW128745   2.859   6.383   4.982
 9282SOL    HW228746   2.784   6.524   4.947
 9283SOL     OW28747   4.457   6.369   1.028
 9283SOL    HW128748   4.509   6.351   0.944
 9283SOL    HW228749   4.402   6.289   1.050
 9284SOL     OW28750   3.965   4.995   6.816
 9284SOL    HW128751   3.933   4.988   6.910
 9284SOL    HW228752   3.958   4.905   6.771
 9285SOL     OW28753   0.228   6.405   3.352
 9285SOL    HW128754   0.212   6.321   3.300
 9285SOL    HW228755   0.261   6.477   3.292
 9286SOL     OW28756   4.435   0.024   1.848
 9286SOL    HW128757   4.397   6.948   1.843
 9286SOL    HW228758   4.450   0.058   1.755
 9287SOL     OW28759   4.412   3.595   6.137
 9287SOL    HW128760   4.439   3.615   6.043
 9287SOL    HW228761   4.313   3.583   6.142
 9288SOL     OW28762   3.927   1.695   2.055
 9288SOL    HW128763   3.943   1.793   2.056
 9288SOL    HW228764   3.995   1.649   2.112
 9289SOL     OW28765   4.860   6.636   1.267
 9289SOL    HW128766   4.813   6.577   1.201
 9289SOL    HW228767   4.946   6.593   1.294
 9290SOL     OW28768   6.379   1.074   3.666
 9290SOL    HW128769   6.406   0.992   3.616
 9290SOL    HW228770   6.391   1.154   3.607
 9291SOL     OW28771   0.338   4.070   5.681
 9291SOL    HW128772   0.381   3.991   5.725
 9291SOL    HW228773   0.371   4.154   5.725
 9292SOL     OW28774   0.391   1.561   6.638
 9292SOL    HW128775   0.449   1.520   6.568
 9292SOL    HW228776   0.330   1.491   6.676
 9293SOL     OW28777   4.610   1.888   4.935
 9293SOL    HW128778   4.569   1.799   4.913
 9293SOL    HW228779   4.543   1.943   4.985
 9294SOL     OW28780   4.431   6.932   6.465
 9294SOL    HW128781   4.424   0.006   6.507
 9294SOL    HW228782   4.352   6.915   6.407
 9295SOL     OW28783   5.811   1.380   4.135
 9295SOL    HW128784   5.725   1.412   4.174
 9295SOL    HW228785   5.831   1.288   4.168
 9296SOL     OW28786   2.208   4.899   5.857
 9296SOL    HW128787   2.228   4.802   5.844
 9296SOL    HW228788   2.124   4.909   5.909
 9297SOL     OW28789   6.787   5.115   2.237
 9297SOL    HW128790   6.702   5.064   2.245
 9297SOL    HW228791   6.772   5.209   2.269
 9298SOL     OW28792   1.388   3.962   6.451
 9298SOL    HW128793   1.412   3.869   6.479
 9298SOL    HW228794   1.470   4.020   6.454
 9299SOL     OW28795   2.738   2.293   4.762
 9299SOL    HW128796   2.792   2.304   4.846
 9299SOL    HW228797   2.702   2.200   4.758
 9300SOL     OW28798   2.121   6.506   4.367
 9300SOL    HW128799   2.114   6.409   4.390
 9300SOL    HW228800   2.215   6.526   4.340
 9301SOL     OW28801   0.728   4.359   4.261
 9301SOL    HW128802   0.803   4.293   4.262
 9301SOL    HW228803   0.758   4.445   4.303
 9302SOL     OW28804   2.129   4.902   4.296
 9302SOL    HW128805   2.174   4.931   4.380
 9302SOL    HW228806   2.189   4.918   4.218
 9303SOL     OW28807   2.688   4.159   0.068
 9303SOL    HW128808   2.750   4.082   0.050
 9303SOL    HW228809   2.641   4.184   7.001
 9304SOL     OW28810   5.449   5.483   6.422
 9304SOL    HW128811   5.399   5.500   6.506
 9304SOL    HW228812   5.432   5.557   6.357
 9305SOL     OW28813   1.577   1.708   1.384
 9305SOL    HW128814   1.517   1.684   1.308
 9305SOL    HW228815   1.626   1.792   1.363
 9306SOL     OW28816   6.897   6.332   4.687
 9306SOL    HW128817   6.979   6.312   4.740
 9306SOL    HW228818   6.816   6.301   4.736
 9307SOL     OW28819   1.772   3.936   1.324
 9307SOL    HW128820   1.830   4.012   1.354
 9307SOL    HW228821   1.676   3.964   1.325
 9308SOL     OW28822   2.215   3.265   1.738
 9308SOL    HW128823   2.232   3.326   1.816
 9308SOL    HW228824   2.263   3.301   1.657
 9309SOL     OW28825   4.743   5.343   6.438
 9309SOL    HW128826   4.675   5.270   6.427
 9309SOL    HW228827   4.773   5.373   6.348
 9310SOL     OW28828   5.864   5.735   5.903
 9310SOL    HW128829   5.961   5.735   5.928
 9310SOL    HW228830   5.855   5.725   5.804
 9311SOL     OW28831   4.857   4.130   0.694
 9311SOL    HW128832   4.946   4.093   0.668
 9311SOL    HW228833   4.795   4.055   0.717
 9312SOL     OW28834   0.138   2.828   3.642
 9312SOL    HW128835   0.069   2.774   3.689
 9312SOL    HW228836   0.133   2.811   3.543
 9313SOL     OW28837   0.807   0.630   2.432
 9313SOL    HW128838   0.867   0.551   2.434
 9313SOL    HW228839   0.756   0.636   2.518
 9314SOL     OW28840   5.526   5.125   1.252
 9314SOL    HW128841   5.524   5.184   1.171
 9314SOL    HW228842   5.449   5.149   1.312
 9315SOL     OW28843   5.627   6.489   6.093
 9315SOL    HW128844   5.677   6.576   6.085
 9315SOL    HW228845   5.579   6.485   6.180
 9316SOL     OW28846   4.979   0.086   0.763
 9316SOL    HW128847   5.004   0.097   0.859
 9316SOL    HW228848   4.879   0.085   0.754
 9317SOL     OW28849   2.897   5.763   3.470
 9317SOL    HW128850   2.819   5.752   3.532
 9317SOL    HW228851   2.915   5.861   3.457
 9318SOL     OW28852   3.743   6.968   1.898
 9318SOL    HW128853   3.724   6.870   1.912
 9318SOL    HW228854   3.690   7.002   1.821
 9319SOL     OW28855   4.438   2.162   6.958
 9319SOL    HW128856   4.395   2.132   0.026
 9319SOL    HW228857   4.531   2.192   6.976
 9320SOL     OW28858   6.966   6.800   6.962
 9320SOL    HW128859   6.982   6.706   6.933
 9320SOL    HW228860   6.913   6.848   6.892
 9321SOL     OW28861   0.607   3.616   4.326
 9321SOL    HW128862   0.525   3.563   4.302
 9321SOL    HW228863   0.679   3.554   4.356
 9322SOL     OW28864   5.372   3.525   0.086
 9322SOL    HW128865   5.421   3.491   0.166
 9322SOL    HW228866   5.426   3.504   0.004
 9323SOL     OW28867   0.661   2.651   5.938
 9323SOL    HW128868   0.624   2.611   6.022
 9323SOL    HW228869   0.759   2.668   5.949
 9324SOL     OW28870   0.371   4.460   1.466
 9324SOL    HW128871   0.372   4.482   1.368
 9324SOL    HW228872   0.415   4.534   1.517
 9325SOL     OW28873   0.823   4.349   3.251
 9325SOL    HW128874   0.803   4.256   3.220
 9325SOL    HW228875   0.879   4.345   3.334
 9326SOL     OW28876   4.727   4.583   0.773
 9326SOL    HW128877   4.674   4.532   0.705
 9326SOL    HW228878   4.684   4.672   0.789
 9327SOL     OW28879   3.034   1.577   3.314
 9327SOL    HW128880   3.087   1.502   3.353
 9327SOL    HW228881   2.937   1.554   3.319
 9328SOL     OW28882   1.843   0.595   3.632
 9328SOL    HW128883   1.878   0.613   3.540
 9328SOL    HW228884   1.915   0.613   3.699
 9329SOL     OW28885   0.886   5.093   6.750
 9329SOL    HW128886   0.931   5.161   6.692
 9329SOL    HW228887   0.793   5.078   6.719
 9330SOL     OW28888   0.798   6.740   0.250
 9330SOL    HW128889   0.753   6.779   0.331
 9330SOL    HW228890   0.775   6.642   0.245
 9331SOL     OW28891   2.212   3.964   4.140
 9331SOL    HW128892   2.233   4.062   4.128
 9331SOL    HW228893   2.213   3.919   4.051
 9332SOL     OW28894   6.315   5.154   0.535
 9332SOL    HW128895   6.326   5.194   0.444
 9332SOL    HW228896   6.254   5.074   0.528
 9333SOL     OW28897   3.011   3.932   1.521
 9333SOL    HW128898   2.963   3.947   1.608
 9333SOL    HW228899   3.058   4.016   1.494
 9334SOL     OW28900   6.839   5.868   6.119
 9334SOL    HW128901   6.908   5.853   6.189
 9334SOL    HW228902   6.842   5.793   6.053
 9335SOL     OW28903   0.327   3.843   1.467
 9335SOL    HW128904   0.309   3.745   1.481
 9335SOL    HW228905   0.244   3.895   1.487
 9336SOL     OW28906   5.259   6.969   6.434
 9336SOL    HW128907   5.195   0.027   6.450
 9336SOL    HW228908   5.208   6.889   6.400
 9337SOL     OW28909   2.470   1.375   5.685
 9337SOL    HW128910   2.509   1.283   5.678
 9337SOL    HW228911   2.418   1.396   5.602
 9338SOL     OW28912   5.586   6.377   0.517
 9338SOL    HW128913   5.638   6.462   0.522
 9338SOL    HW228914   5.617   6.322   0.439
 9339SOL     OW28915   0.330   4.389   5.154
 9339SOL    HW128916   0.236   4.413   5.129
 9339SOL    HW228917   0.394   4.438   5.095
 9340SOL     OW28918   2.376   5.004   1.935
 9340SOL    HW128919   2.346   5.048   2.019
 9340SOL    HW228920   2.401   4.909   1.955
 9341SOL     OW28921   5.962   5.393   6.531
 9341SOL    HW128922   6.012   5.435   6.607
 9341SOL    HW228923   5.869   5.429   6.529
 9342SOL     OW28924   3.417   0.075   4.782
 9342SOL    HW128925   3.352   0.072   4.706
 9342SOL    HW228926   3.430   0.170   4.811
 9343SOL     OW28927   4.675   3.504   0.426
 9343SOL    HW128928   4.688   3.565   0.348
 9343SOL    HW228929   4.621   3.549   0.497
 9344SOL     OW28930   5.457   0.776   5.360
 9344SOL    HW128931   5.426   0.871   5.361
 9344SOL    HW228932   5.542   0.769   5.309
 9345SOL     OW28933   0.417   4.730   0.159
 9345SOL    HW128934   0.453   4.774   0.241
 9345SOL    HW228935   0.327   4.767   0.138
 9346SOL     OW28936   5.266   6.957   1.907
 9346SOL    HW128937   5.287   6.927   2.000
 9346SOL    HW228938   5.348   6.948   1.850
 9347SOL     OW28939   4.083   6.447   0.850
 9347SOL    HW128940   4.010   6.378   0.848
 9347SOL    HW228941   4.047   6.533   0.813
 9348SOL     OW28942   2.167   5.499   1.550
 9348SOL    HW128943   2.184   5.415   1.499
 9348SOL    HW228944   2.224   5.573   1.513
 9349SOL     OW28945   6.760   6.463   1.533
 9349SOL    HW128946   6.676   6.517   1.538
 9349SOL    HW228947   6.738   6.370   1.505
 9350SOL     OW28948   6.667   0.897   0.106
 9350SOL    HW128949   6.633   0.927   0.196
 9350SOL    HW228950   6.656   0.798   0.098
 9351SOL     OW28951   4.270   3.125   5.825
 9351SOL    HW128952   4.266   3.036   5.872
 9351SOL    HW228953   4.263   3.111   5.727
 9352SOL     OW28954   2.855   2.465   6.714
 9352SOL    HW128955   2.883   2.369   6.711
 9352SOL    HW228956   2.911   2.518   6.650
 9353SOL     OW28957   0.475   3.265   1.569
 9353SOL    HW128958   0.516   3.314   1.646
 9353SOL    HW228959   0.378   3.289   1.563
 9354SOL     OW28960   5.277   1.927   1.977
 9354SOL    HW128961   5.267   1.838   1.933
 9354SOL    HW228962   5.193   1.980   1.963
 9355SOL     OW28963   6.593   1.704   2.257
 9355SOL    HW128964   6.624   1.695   2.163
 9355SOL    HW228965   6.673   1.705   2.318
 9356SOL     OW28966   5.388   3.497   2.432
 9356SOL    HW128967   5.426   3.582   2.468
 9356SOL    HW228968   5.345   3.514   2.344
 9357SOL     OW28969   3.353   3.712   0.687
 9357SOL    HW128970   3.339   3.809   0.669
 9357SOL    HW228971   3.450   3.694   0.702
 9358SOL     OW28972   5.015   4.237   2.042
 9358SOL    HW128973   4.981   4.191   2.124
 9358SOL    HW228974   4.971   4.198   1.961
 9359SOL     OW28975   5.482   4.551   6.153
 9359SOL    HW128976   5.458   4.579   6.060
 9359SOL    HW228977   5.469   4.452   6.163
 9360SOL     OW28978   1.211   0.708   5.136
 9360SOL    HW128979   1.302   0.725   5.174
 9360SOL    HW228980   1.201   0.610   5.119
 9361SOL     OW28981   2.256   1.420   2.106
 9361SOL    HW128982   2.330   1.478   2.142
 9361SOL    HW228983   2.214   1.370   2.181
 9362SOL     OW28984   1.416   1.566   2.905
 9362SOL    HW128985   1.513   1.572   2.929
 9362SOL    HW228986   1.375   1.486   2.949
 9363SOL     OW28987   1.923   6.433   1.745
 9363SOL    HW128988   1.979   6.383   1.678
 9363SOL    HW228989   1.936   6.393   1.835
 9364SOL     OW28990   5.916   5.002   1.268
 9364SOL    HW128991   5.924   5.089   1.316
 9364SOL    HW228992   5.963   5.008   1.180
 9365SOL     OW28993   2.180   1.421   5.186
 9365SOL    HW128994   2.106   1.362   5.153
 9365SOL    HW228995   2.144   1.513   5.205
 9366SOL     OW28996   3.253   1.226   1.870
 9366SOL    HW128997   3.194   1.166   1.923
 9366SOL    HW228998   3.265   1.188   1.778
 9367SOL     OW28999   6.503   6.323   4.178
 9367SOL    HW129000   6.595   6.363   4.172
 9367SOL    HW229001   6.444   6.366   4.110
 9368SOL     OW29002   4.859   2.558   1.383
 9368SOL    HW129003   4.879   2.484   1.318
 9368SOL    HW229004   4.772   2.601   1.360
 9369SOL     OW29005   6.435   2.304   5.699
 9369SOL    HW129006   6.514   2.251   5.729
 9369SOL    HW229007   6.437   2.313   5.600
 9370SOL     OW29008   6.264   6.685   3.355
 9370SOL    HW129009   6.222   6.773   3.378
 9370SOL    HW229010   6.356   6.682   3.395
 9371SOL     OW29011   1.251   6.664   0.453
 9371SOL    HW129012   1.159   6.681   0.490
 9371SOL    HW229013   1.272   6.734   0.384
 9372SOL     OW29014   6.185   6.313   6.838
 9372SOL    HW129015   6.225   6.268   6.918
 9372SOL    HW229016   6.088   6.332   6.856
 9373SOL     OW29017   4.314   2.368   4.091
 9373SOL    HW129018   4.332   2.466   4.095
 9373SOL    HW229019   4.281   2.344   4.000
 9374SOL     OW29020   5.175   4.144   0.266
 9374SOL    HW129021   5.178   4.144   0.166
 9374SOL    HW229022   5.161   4.051   0.299
 9375SOL     OW29023   0.828   1.271   4.060
 9375SOL    HW129024   0.832   1.239   4.154
 9375SOL    HW229025   0.800   1.367   4.058
 9376SOL     OW29026   1.849   3.071   2.468
 9376SOL    HW129027   1.875   3.164   2.443
 9376SOL    HW229028   1.843   3.014   2.386
 9377SOL     OW29029   6.054   5.128   2.879
 9377SOL    HW129030   6.085   5.145   2.972
 9377SOL    HW229031   5.970   5.178   2.861
 9378SOL     OW29032   3.644   6.223   1.198
 9378SOL    HW129033   3.553   6.228   1.239
 9378SOL    HW229034   3.709   6.189   1.266
 9379SOL     OW29035   5.271   4.732   5.461
 9379SOL    HW129036   5.297   4.816   5.510
 9379SOL    HW229037   5.296   4.742   5.365
 9380SOL     OW29038   6.281   5.994   6.313
 9380SOL    HW129039   6.242   5.918   6.261
 9380SOL    HW229040   6.243   5.993   6.406
 9381SOL     OW29041   2.514   1.046   0.043
 9381SOL    HW129042   2.486   1.136   0.012
 9381SOL    HW229043   2.544   0.991   6.982
 9382SOL     OW29044   5.531   2.155   2.739
 9382SOL    HW129045   5.579   2.103   2.810
 9382SOL    HW229046   5.595   2.216   2.693
 9383SOL     OW29047   5.544   5.633   5.728
 9383SOL    HW129048   5.466   5.671   5.778
 9383SOL    HW229049   5.582   5.556   5.779
 9384SOL     OW29050   4.289   6.216   2.022
 9384SOL    HW129051   4.291   6.288   1.954
 9384SOL    HW229052   4.231   6.141   1.990
 9385SOL     OW29053   4.106   1.053   4.010
 9385SOL    HW129054   4.073   1.030   4.101
 9385SOL    HW229055   4.194   1.010   3.994
 9386SOL     OW29056   4.057   0.047   4.785
 9386SOL    HW129057   3.987   0.070   4.717
 9386SOL    HW229058   4.146   0.043   4.739
 9387SOL     OW29059   3.868   6.531   0.606
 9387SOL    HW129060   3.892   6.587   0.685
 9387SOL    HW229061   3.814   6.452   0.636
 9388SOL     OW29062   6.789   6.594   2.656
 9388SOL    HW129063   6.700   6.547   2.656
 9388SOL    HW229064   6.779   6.683   2.611
 9389SOL     OW29065   3.314   1.183   6.966
 9389SOL    HW129066   3.399   1.156   6.921
 9389SOL    HW229067   3.333   1.215   0.042
 9390SOL     OW29068   2.814   6.950   1.975
 9390SOL    HW129069   2.904   6.934   2.015
 9390SOL    HW229070   2.743   6.919   2.037
 9391SOL     OW29071   0.598   0.991   5.450
 9391SOL    HW129072   0.670   0.967   5.515
 9391SOL    HW229073   0.573   0.910   5.397
 9392SOL     OW29074   1.660   6.421   3.859
 9392SOL    HW129075   1.643   6.519   3.851
 9392SOL    HW229076   1.750   6.406   3.901
 9393SOL     OW29077   3.900   2.265   5.409
 9393SOL    HW129078   3.832   2.196   5.432
 9393SOL    HW229079   3.990   2.222   5.403
 9394SOL     OW29080   5.680   2.128   2.157
 9394SOL    HW129081   5.622   2.079   2.222
 9394SOL    HW229082   5.771   2.088   2.157
 9395SOL     OW29083   1.706   2.399   6.486
 9395SOL    HW129084   1.690   2.443   6.574
 9395SOL    HW229085   1.672   2.458   6.413
 9396SOL     OW29086   6.324   0.188   6.847
 9396SOL    HW129087   6.325   0.166   6.750
 9396SOL    HW229088   6.404   0.148   6.892
 9397SOL     OW29089   2.824   1.207   0.850
 9397SOL    HW129090   2.828   1.236   0.755
 9397SOL    HW229091   2.784   1.280   0.905
 9398SOL     OW29092   1.871   1.728   0.228
 9398SOL    HW129093   1.906   1.817   0.258
 9398SOL    HW229094   1.789   1.741   0.173
 9399SOL     OW29095   6.682   0.785   5.244
 9399SOL    HW129096   6.754   0.827   5.188
 9399SOL    HW229097   6.701   0.687   5.254
 9400SOL     OW29098   4.369   1.820   3.723
 9400SOL    HW129099   4.363   1.866   3.812
 9400SOL    HW229100   4.322   1.874   3.654
 9401SOL     OW29101   3.912   0.221   2.996
 9401SOL    HW129102   3.833   0.223   2.936
 9401SOL    HW229103   3.883   0.214   3.091
 9402SOL     OW29104   2.046   5.186   0.026
 9402SOL    HW129105   2.090   5.275   0.016
 9402SOL    HW229106   2.036   5.143   6.953
 9403SOL     OW29107   5.342   1.401   4.349
 9403SOL    HW129108   5.389   1.357   4.425
 9403SOL    HW229109   5.300   1.486   4.380
 9404SOL     OW29110   0.690   4.055   5.612
 9404SOL    HW129111   0.760   4.060   5.540
 9404SOL    HW229112   0.704   4.130   5.676
 9405SOL     OW29113   6.369   0.017   1.181
 9405SOL    HW129114   6.307   0.059   1.248
 9405SOL    HW229115   6.327   6.951   1.144
 9406SOL     OW29116   0.061   1.007   6.034
 9406SOL    HW129117   0.155   1.006   6.000
 9406SOL    HW229118   7.015   1.000   5.956
 9407SOL     OW29119   3.384   5.753   2.756
 9407SOL    HW129120   3.413   5.657   2.746
 9407SOL    HW229121   3.464   5.810   2.774
 9408SOL     OW29122   3.688   1.851   6.539
 9408SOL    HW129123   3.751   1.927   6.559
 9408SOL    HW229124   3.600   1.869   6.581
 9409SOL     OW29125   5.707   3.796   3.202
 9409SOL    HW129126   5.759   3.761   3.281
 9409SOL    HW229127   5.681   3.890   3.219
 9410SOL     OW29128   4.991   6.508   2.081
 9410SOL    HW129129   5.018   6.471   1.992
 9410SOL    HW229130   5.014   6.442   2.153
 9411SOL     OW29131   4.396   5.609   1.057
 9411SOL    HW129132   4.421   5.514   1.038
 9411SOL    HW229133   4.391   5.660   0.970
 9412SOL     OW29134   6.449   3.185   1.467
 9412SOL    HW129135   6.377   3.156   1.403
 9412SOL    HW229136   6.539   3.168   1.425
 9413SOL     OW29137   3.501   5.535   4.853
 9413SOL    HW129138   3.442   5.516   4.775
 9413SOL    HW229139   3.525   5.632   4.854
 9414SOL     OW29140   2.678   1.427   2.145
 9414SOL    HW129141   2.621   1.351   2.113
 9414SOL    HW229142   2.674   1.501   2.077
 9415SOL     OW29143   2.857   0.590   2.076
 9415SOL    HW129144   2.950   0.569   2.044
 9415SOL    HW229145   2.853   0.581   2.175
 9416SOL     OW29146   0.741   2.159   1.418
 9416SOL    HW129147   0.787   2.240   1.384
 9416SOL    HW229148   0.801   2.079   1.410
 9417SOL     OW29149   2.541   6.841   4.732
 9417SOL    HW129150   2.475   6.789   4.678
 9417SOL    HW229151   2.602   6.891   4.671
 9418SOL     OW29152   3.819   4.491   1.075
 9418SOL    HW129153   3.774   4.476   0.986
 9418SOL    HW229154   3.761   4.455   1.148
 9419SOL     OW29155   3.937   5.722   5.230
 9419SOL    HW129156   3.990   5.640   5.209
 9419SOL    HW229157   3.996   5.790   5.274
 9420SOL     OW29158   0.946   1.443   4.681
 9420SOL    HW129159   0.950   1.433   4.582
 9420SOL    HW229160   0.861   1.490   4.706
 9421SOL     OW29161   1.954   4.987   4.575
 9421SOL    HW129162   2.028   4.923   4.593
 9421SOL    HW229163   1.975   5.076   4.615
 9422SOL     OW29164   3.783   1.361   1.969
 9422SOL    HW129165   3.703   1.391   2.021
 9422SOL    HW229166   3.799   1.424   1.893
 9423SOL     OW29167   4.617   0.811   4.765
 9423SOL    HW129168   4.697   0.831   4.821
 9423SOL    HW229169   4.537   0.859   4.803
 9424SOL     OW29170   3.303   6.418   4.415
 9424SOL    HW129171   3.355   6.382   4.493
 9424SOL    HW229172   3.346   6.503   4.383
 9425SOL     OW29173   1.213   4.454   3.720
 9425SOL    HW129174   1.285   4.430   3.785
 9425SOL    HW229175   1.251   4.514   3.650
 9426SOL     OW29176   3.338   6.375   0.170
 9426SOL    HW129177   3.289   6.405   0.089
 9426SOL    HW229178   3.434   6.404   0.164
 9427SOL     OW29179   2.891   4.920   4.171
 9427SOL    HW129180   2.931   4.893   4.259
 9427SOL    HW229181   2.792   4.932   4.181
 9428SOL     OW29182   4.354   6.192   2.552
 9428SOL    HW129183   4.407   6.223   2.472
 9428SOL    HW229184   4.408   6.125   2.603
 9429SOL     OW29185   7.012   3.624   2.446
 9429SOL    HW129186   6.949   3.685   2.494
 9429SOL    HW229187   0.041   3.565   2.512
 9430SOL     OW29188   6.463   6.921   2.241
 9430SOL    HW129189   6.402   6.915   2.162
 9430SOL    HW229190   6.434   6.996   2.301
 9431SOL     OW29191   6.396   4.637   2.249
 9431SOL    HW129192   6.359   4.586   2.172
 9431SOL    HW229193   6.492   4.659   2.233
 9432SOL     OW29194   6.824   6.807   4.433
 9432SOL    HW129195   6.799   6.720   4.476
 9432SOL    HW229196   6.914   6.836   4.465
 9433SOL     OW29197   2.590   4.654   4.984
 9433SOL    HW129198   2.589   4.650   5.084
 9433SOL    HW229199   2.684   4.667   4.952
 9434SOL     OW29200   5.555   5.101   2.787
 9434SOL    HW129201   5.562   5.020   2.728
 9434SOL    HW229202   5.595   5.180   2.740
 9435SOL     OW29203   1.494   1.116   4.514
 9435SOL    HW129204   1.488   1.026   4.557
 9435SOL    HW229205   1.405   1.162   4.522
 9436SOL     OW29206   1.855   2.631   5.918
 9436SOL    HW129207   1.881   2.612   6.012
 9436SOL    HW229208   1.873   2.727   5.897
 9437SOL     OW29209   0.546   5.237   3.975
 9437SOL    HW129210   0.566   5.251   4.072
 9437SOL    HW229211   0.449   5.257   3.958
 9438SOL     OW29212   1.218   6.462   2.201
 9438SOL    HW129213   1.189   6.508   2.117
 9438SOL    HW229214   1.199   6.520   2.280
 9439SOL     OW29215   0.900   2.715   1.608
 9439SOL    HW129216   0.840   2.718   1.688
 9439SOL    HW229217   0.899   2.804   1.563
 9440SOL     OW29218   4.399   6.102   5.495
 9440SOL    HW129219   4.358   6.029   5.549
 9440SOL    HW229220   4.494   6.079   5.474
 9441SOL     OW29221   1.717   4.640   4.677
 9441SOL    HW129222   1.784   4.687   4.735
 9441SOL    HW229223   1.704   4.692   4.593
 9442SOL     OW29224   0.603   3.585   1.185
 9442SOL    HW129225   0.676   3.639   1.227
 9442SOL    HW229226   0.624   3.487   1.195
 9443SOL     OW29227   1.783   3.327   1.479
 9443SOL    HW129228   1.724   3.257   1.517
 9443SOL    HW229229   1.871   3.326   1.527
 9444SOL     OW29230   0.104   3.488   6.015
 9444SOL    HW129231   0.201   3.486   6.042
 9444SOL    HW229232   0.095   3.539   5.930
 9445SOL     OW29233   6.204   3.413   1.402
 9445SOL    HW129234   6.177   3.498   1.447
 9445SOL    HW229235   6.293   3.384   1.437
 9446SOL     OW29236   5.958   5.254   1.333
 9446SOL    HW129237   5.910   5.253   1.421
 9446SOL    HW229238   6.034   5.319   1.337
 9447SOL     OW29239   6.053   2.869   1.686
 9447SOL    HW129240   6.073   2.789   1.743
 9447SOL    HW229241   6.139   2.909   1.653
 9448SOL     OW29242   6.051   6.076   0.321
 9448SOL    HW129243   5.983   6.135   0.279
 9448SOL    HW229244   6.136   6.127   0.335
 9449SOL     OW29245   6.959   5.404   5.230
 9449SOL    HW129246   6.953   5.401   5.130
 9449SOL    HW229247   6.881   5.356   5.270
 9450SOL     OW29248   2.757   5.063   4.442
 9450SOL    HW129249   2.662   5.048   4.413
 9450SOL    HW229250   2.801   5.128   4.379
 9451SOL     OW29251   4.067   4.365   6.033
 9451SOL    HW129252   4.017   4.328   6.111
 9451SOL    HW229253   4.010   4.359   5.951
 9452SOL     OW29254   3.047   4.141   1.294
 9452SOL    HW129255   2.995   4.059   1.272
 9452SOL    HW229256   2.999   4.194   1.364
 9453SOL     OW29257   3.410   4.898   2.080
 9453SOL    HW129258   3.325   4.859   2.047
 9453SOL    HW229259   3.487   4.852   2.037
 9454SOL     OW29260   2.422   2.581   5.119
 9454SOL    HW129261   2.493   2.601   5.187
 9454SOL    HW229262   2.461   2.523   5.048
 9455SOL     OW29263   3.231   1.380   2.274
 9455SOL    HW129264   3.152   1.348   2.221
 9455SOL    HW229265   3.302   1.310   2.274
 9456SOL     OW29266   1.938   3.143   1.249
 9456SOL    HW129267   1.864   3.203   1.218
 9456SOL    HW229268   2.002   3.127   1.174
 9457SOL     OW29269   0.006   3.248   0.516
 9457SOL    HW129270   0.011   3.341   0.481
 9457SOL    HW229271   0.096   3.205   0.509
 9458SOL     OW29272   0.151   5.816   4.411
 9458SOL    HW129273   0.189   5.847   4.324
 9458SOL    HW229274   0.152   5.891   4.477
 9459SOL     OW29275   4.416   5.891   1.799
 9459SOL    HW129276   4.488   5.867   1.734
 9459SOL    HW229277   4.448   5.963   1.860
 9460SOL     OW29278   0.617   2.214   5.052
 9460SOL    HW129279   0.605   2.310   5.075
 9460SOL    HW229280   0.700   2.179   5.097
 9461SOL     OW29281   1.449   0.633   3.227
 9461SOL    HW129282   1.398   0.659   3.309
 9461SOL    HW229283   1.465   0.534   3.228
 9462SOL     OW29284   0.645   3.477   2.569
 9462SOL    HW129285   0.729   3.529   2.551
 9462SOL    HW229286   0.667   3.380   2.577
 9463SOL     OW29287   5.264   1.444   0.331
 9463SOL    HW129288   5.346   1.387   0.326
 9463SOL    HW229289   5.183   1.390   0.311
 9464SOL     OW29290   4.638   0.108   6.045
 9464SOL    HW129291   4.627   0.099   6.144
 9464SOL    HW229292   4.573   0.046   6.000
 9465SOL     OW29293   5.831   0.450   4.400
 9465SOL    HW129294   5.750   0.471   4.456
 9465SOL    HW229295   5.804   0.395   4.322
 9466SOL     OW29296   2.519   2.170   6.535
 9466SOL    HW129297   2.447   2.131   6.592
 9466SOL    HW229298   2.592   2.205   6.593
 9467SOL     OW29299   1.971   3.345   1.955
 9467SOL    HW129300   2.070   3.354   1.949
 9467SOL    HW229301   1.933   3.423   2.006
 9468SOL     OW29302   6.697   2.431   6.170
 9468SOL    HW129303   6.660   2.418   6.078
 9468SOL    HW229304   6.710   2.341   6.213
 9469SOL     OW29305   6.394   4.264   2.272
 9469SOL    HW129306   6.313   4.322   2.263
 9469SOL    HW229307   6.366   4.168   2.269
 9470SOL     OW29308   5.044   4.015   1.112
 9470SOL    HW129309   5.123   4.008   1.051
 9470SOL    HW229310   5.012   3.923   1.134
 9471SOL     OW29311   6.736   2.179   6.292
 9471SOL    HW129312   6.650   2.153   6.247
 9471SOL    HW229313   6.812   2.132   6.248
 9472SOL     OW29314   6.779   3.426   4.524
 9472SOL    HW129315   6.719   3.492   4.568
 9472SOL    HW229316   6.819   3.467   4.442
 9473SOL     OW29317   3.731   5.265   4.720
 9473SOL    HW129318   3.653   5.202   4.729
 9473SOL    HW229319   3.722   5.317   4.635
 9474SOL     OW29320   4.004   5.326   2.688
 9474SOL    HW129321   4.049   5.332   2.599
 9474SOL    HW229322   4.000   5.231   2.717
 9475SOL     OW29323   1.507   3.743   1.364
 9475SOL    HW129324   1.497   3.842   1.353
 9475SOL    HW229325   1.552   3.724   1.452
 9476SOL     OW29326   3.885   3.657   5.456
 9476SOL    HW129327   3.864   3.633   5.551
 9476SOL    HW229328   3.905   3.755   5.451
 9477SOL     OW29329   1.288   3.431   0.740
 9477SOL    HW129330   1.346   3.463   0.815
 9477SOL    HW229331   1.339   3.369   0.681
 9478SOL     OW29332   5.338   4.774   5.196
 9478SOL    HW129333   5.378   4.855   5.156
 9478SOL    HW229334   5.359   4.694   5.139
 9479SOL     OW29335   6.857   5.976   5.539
 9479SOL    HW129336   6.883   5.987   5.443
 9479SOL    HW229337   6.910   5.901   5.579
 9480SOL     OW29338   6.129   4.613   0.217
 9480SOL    HW129339   6.031   4.603   0.200
 9480SOL    HW229340   6.163   4.696   0.172
 9481SOL     OW29341   6.620   3.509   2.157
 9481SOL    HW129342   6.692   3.506   2.227
 9481SOL    HW229343   6.620   3.599   2.114
 9482SOL     OW29344   3.763   0.542   2.614
 9482SOL    HW129345   3.769   0.535   2.713
 9482SOL    HW229346   3.715   0.626   2.589
 9483SOL     OW29347   1.668   1.802   0.077
 9483SOL    HW129348   1.583   1.853   0.088
 9483SOL    HW229349   1.649   1.713   0.036
 9484SOL     OW29350   6.652   1.341   2.732
 9484SOL    HW129351   6.715   1.364   2.806
 9484SOL    HW229352   6.663   1.245   2.706
 9485SOL     OW29353   1.124   0.518   3.204
 9485SOL    HW129354   1.196   0.490   3.140
 9485SOL    HW229355   1.125   0.618   3.214
 9486SOL     OW29356   3.215   6.089   1.888
 9486SOL    HW129357   3.275   6.027   1.837
 9486SOL    HW229358   3.230   6.078   1.986
 9487SOL     OW29359   3.069   3.091   3.657
 9487SOL    HW129360   3.117   3.164   3.609
 9487SOL    HW229361   3.135   3.023   3.690
 9488SOL     OW29362   1.596   0.321   1.378
 9488SOL    HW129363   1.546   0.313   1.291
 9488SOL    HW229364   1.680   0.266   1.374
 9489SOL     OW29365   3.579   3.997   0.151
 9489SOL    HW129366   3.621   3.928   0.092
 9489SOL    HW229367   3.647   4.065   0.178
 9490SOL     OW29368   5.275   1.006   0.266
 9490SOL    HW129369   5.312   1.098   0.279
 9490SOL    HW229370   5.327   0.941   0.321
 9491SOL     OW29371   6.337   5.522   6.480
 9491SOL    HW129372   6.335   5.444   6.417
 9491SOL    HW229373   6.402   5.590   6.447
 9492SOL     OW29374   3.021   3.895   2.066
 9492SOL    HW129375   2.942   3.892   2.127
 9492SOL    HW229376   3.092   3.954   2.106
 9493SOL     OW29377   5.030   6.316   3.173
 9493SOL    HW129378   5.036   6.231   3.226
 9493SOL    HW229379   5.111   6.325   3.116
 9494SOL     OW29380   4.233   3.334   5.505
 9494SOL    HW129381   4.267   3.407   5.563
 9494SOL    HW229382   4.306   3.267   5.489
 9495SOL     OW29383   5.729   2.794   5.282
 9495SOL    HW129384   5.815   2.845   5.271
 9495SOL    HW229385   5.662   2.826   5.216
 9496SOL     OW29386   5.643   3.934   0.531
 9496SOL    HW129387   5.615   4.016   0.581
 9496SOL    HW229388   5.665   3.861   0.596
 9497SOL     OW29389   0.085   6.432   5.704
 9497SOL    HW129390   0.125   6.409   5.793
 9497SOL    HW229391   0.045   6.524   5.708
 9498SOL     OW29392   4.277   0.359   5.759
 9498SOL    HW129393   4.366   0.347   5.803
 9498SOL    HW229394   4.237   0.446   5.786
 9499SOL     OW29395   4.285   4.525   5.907
 9499SOL    HW129396   4.210   4.478   5.952
 9499SOL    HW229397   4.372   4.486   5.937
 9500SOL     OW29398   4.992   5.852   1.518
 9500SOL    HW129399   4.945   5.775   1.562
 9500SOL    HW229400   4.931   5.931   1.516
 9501SOL     OW29401   3.120   1.733   4.720
 9501SOL    HW129402   3.042   1.704   4.663
 9501SOL    HW229403   3.130   1.669   4.796
 9502SOL     OW29404   5.531   3.328   5.513
 9502SOL    HW129405   5.500   3.325   5.608
 9502SOL    HW229406   5.508   3.241   5.468
 9503SOL     OW29407   1.704   6.534   1.001
 9503SOL    HW129408   1.655   6.494   1.078
 9503SOL    HW229409   1.793   6.568   1.032
 9504SOL     OW29410   0.828   3.088   6.546
 9504SOL    HW129411   0.792   3.073   6.453
 9504SOL    HW229412   0.917   3.132   6.540
 9505SOL     OW29413   5.627   3.350   2.740
 9505SOL    HW129414   5.679   3.434   2.727
 9505SOL    HW229415   5.584   3.324   2.653
 9506SOL     OW29416   6.304   3.349   0.394
 9506SOL    HW129417   6.364   3.370   0.471
 9506SOL    HW229418   6.352   3.293   0.328
 9507SOL     OW29419   1.140   2.192   3.901
 9507SOL    HW129420   1.057   2.241   3.875
 9507SOL    HW229421   1.118   2.096   3.919
 9508SOL     OW29422   5.031   1.982   0.695
 9508SOL    HW129423   5.089   1.902   0.681
 9508SOL    HW229424   5.068   2.038   0.769
 9509SOL     OW29425   2.492   6.664   5.248
 9509SOL    HW129426   2.467   6.612   5.330
 9509SOL    HW229427   2.591   6.659   5.234
 9510SOL     OW29428   6.168   4.493   3.418
 9510SOL    HW129429   6.151   4.488   3.320
 9510SOL    HW229430   6.263   4.520   3.434
 9511SOL     OW29431   0.999   1.367   0.678
 9511SOL    HW129432   0.964   1.446   0.728
 9511SOL    HW229433   1.098   1.374   0.669
 9512SOL     OW29434   1.456   2.394   4.192
 9512SOL    HW129435   1.468   2.489   4.164
 9512SOL    HW229436   1.381   2.353   4.140
 9513SOL     OW29437   2.343   4.391   3.732
 9513SOL    HW129438   2.341   4.444   3.647
 9513SOL    HW229439   2.352   4.294   3.710
 9514SOL     OW29440   2.387   2.922   6.281
 9514SOL    HW129441   2.320   2.963   6.342
 9514SOL    HW229442   2.437   2.994   6.233
 9515SOL     OW29443   2.499   5.826   5.932
 9515SOL    HW129444   2.574   5.789   5.877
 9515SOL    HW229445   2.520   5.921   5.955
 9516SOL     OW29446   5.391   3.541   4.535
 9516SOL    HW129447   5.429   3.633   4.542
 9516SOL    HW229448   5.302   3.545   4.490
 9517SOL     OW29449   0.451   5.866   2.076
 9517SOL    HW129450   0.386   5.835   2.146
 9517SOL    HW229451   0.458   5.796   2.005
 9518SOL     OW29452   0.771   2.469   5.511
 9518SOL    HW129453   0.698   2.470   5.443
 9518SOL    HW229454   0.783   2.561   5.549
 9519SOL     OW29455   3.565   3.240   3.247
 9519SOL    HW129456   3.557   3.146   3.214
 9519SOL    HW229457   3.590   3.240   3.343
 9520SOL     OW29458   5.172   0.433   6.248
 9520SOL    HW129459   5.082   0.444   6.289
 9520SOL    HW229460   5.167   0.457   6.150
 9521SOL     OW29461   3.539   0.600   0.922
 9521SOL    HW129462   3.461   0.635   0.870
 9521SOL    HW229463   3.624   0.631   0.879
 9522SOL     OW29464   3.431   6.751   2.264
 9522SOL    HW129465   3.496   6.691   2.312
 9522SOL    HW229466   3.469   6.843   2.259
 9523SOL     OW29467   3.001   4.865   3.896
 9523SOL    HW129468   3.084   4.902   3.853
 9523SOL    HW229469   2.983   4.914   3.982
 9524SOL     OW29470   2.656   3.886   1.115
 9524SOL    HW129471   2.745   3.849   1.142
 9524SOL    HW229472   2.628   3.957   1.179
 9525SOL     OW29473   2.181   3.150   5.200
 9525SOL    HW129474   2.238   3.082   5.153
 9525SOL    HW229475   2.241   3.216   5.246
 9526SOL     OW29476   5.263   5.307   6.879
 9526SOL    HW129477   5.200   5.330   6.953
 9526SOL    HW229478   5.211   5.285   6.796
 9527SOL     OW29479   4.219   0.102   3.460
 9527SOL    HW129480   4.181   0.178   3.406
 9527SOL    HW229481   4.285   0.052   3.405
 9528SOL     OW29482   5.667   2.128   1.119
 9528SOL    HW129483   5.571   2.113   1.096
 9528SOL    HW229484   5.720   2.045   1.099
 9529SOL     OW29485   6.262   1.002   1.396
 9529SOL    HW129486   6.347   0.975   1.441
 9529SOL    HW229487   6.187   1.000   1.463
 9530SOL     OW29488   1.109   5.444   4.087
 9530SOL    HW129489   1.103   5.535   4.048
 9530SOL    HW229490   1.135   5.378   4.017
 9531SOL     OW29491   3.499   5.167   2.382
 9531SOL    HW129492   3.464   5.255   2.414
 9531SOL    HW229493   3.424   5.101   2.377
 9532SOL     OW29494   6.599   5.115   3.036
 9532SOL    HW129495   6.591   5.146   3.130
 9532SOL    HW229496   6.511   5.079   3.005
 9533SOL     OW29497   1.851   4.018   3.331
 9533SOL    HW129498   1.908   3.952   3.283
 9533SOL    HW229499   1.768   4.037   3.277
 9534SOL     OW29500   5.494   4.842   4.494
 9534SOL    HW129501   5.588   4.871   4.514
 9534SOL    HW229502   5.437   4.858   4.574
 9535SOL     OW29503   0.806   1.338   5.627
 9535SOL    HW129504   0.745   1.413   5.598
 9535SOL    HW229505   0.777   1.305   5.717
 9536SOL     OW29506   3.763   4.097   5.007
 9536SOL    HW129507   3.850   4.054   5.030
 9536SOL    HW229508   3.688   4.042   5.043
 9537SOL     OW29509   0.510   1.686   3.683
 9537SOL    HW129510   0.510   1.682   3.783
 9537SOL    HW229511   0.591   1.734   3.651
 9538SOL     OW29512   4.367   0.712   5.562
 9538SOL    HW129513   4.419   0.674   5.485
 9538SOL    HW229514   4.353   0.641   5.631
 9539SOL     OW29515   3.487   3.785   2.157
 9539SOL    HW129516   3.443   3.763   2.244
 9539SOL    HW229517   3.520   3.702   2.113
 9540SOL     OW29518   4.296   4.697   3.590
 9540SOL    HW129519   4.331   4.744   3.671
 9540SOL    HW229520   4.222   4.750   3.550
 9541SOL     OW29521   2.112   5.516   5.910
 9541SOL    HW129522   2.045   5.529   5.984
 9541SOL    HW229523   2.065   5.482   5.828
 9542SOL     OW29524   6.185   3.928   4.225
 9542SOL    HW129525   6.130   3.867   4.282
 9542SOL    HW229526   6.129   3.962   4.150
 9543SOL     OW29527   2.549   0.140   5.614
 9543SOL    HW129528   2.524   0.067   5.550
 9543SOL    HW229529   2.611   0.104   5.683
 9544SOL     OW29530   5.894   3.438   4.192
 9544SOL    HW129531   5.988   3.467   4.176
 9544SOL    HW229532   5.889   3.386   4.277
 9545SOL     OW29533   0.912   4.589   1.733
 9545SOL    HW129534   0.871   4.498   1.725
 9545SOL    HW229535   1.007   4.585   1.702
 9546SOL     OW29536   2.574   2.809   7.007
 9546SOL    HW129537   2.585   2.742   6.934
 9546SOL    HW229538   2.610   2.772   0.076
 9547SOL     OW29539   4.225   6.408   4.127
 9547SOL    HW129540   4.163   6.442   4.198
 9547SOL    HW229541   4.315   6.452   4.138
 9548SOL     OW29542   1.418   4.668   6.951
 9548SOL    HW129543   1.466   4.756   6.944
 9548SOL    HW229544   1.474   4.603   7.002
 9549SOL     OW29545   4.989   2.668   1.122
 9549SOL    HW129546   5.003   2.657   1.221
 9549SOL    HW229547   4.923   2.600   1.091
 9550SOL     OW29548   5.356   3.127   1.534
 9550SOL    HW129549   5.453   3.124   1.561
 9550SOL    HW229550   5.337   3.215   1.491
 9551SOL     OW29551   6.436   3.302   6.277
 9551SOL    HW129552   6.491   3.317   6.359
 9551SOL    HW229553   6.495   3.272   6.202
 9552SOL     OW29554   2.862   1.996   6.944
 9552SOL    HW129555   2.808   1.925   6.989
 9552SOL    HW229556   2.805   2.045   6.878
 9553SOL     OW29557   5.424   1.301   6.530
 9553SOL    HW129558   5.485   1.347   6.466
 9553SOL    HW229559   5.331   1.300   6.493
 9554SOL     OW29560   2.905   6.776   4.070
 9554SOL    HW129561   2.903   6.832   3.987
 9554SOL    HW229562   2.822   6.794   4.124
 9555SOL     OW29563   6.350   0.606   3.737
 9555SOL    HW129564   6.446   0.626   3.755
 9555SOL    HW229565   6.325   0.519   3.780
 9556SOL     OW29566   2.053   4.506   6.780
 9556SOL    HW129567   1.981   4.527   6.846
 9556SOL    HW229568   2.139   4.488   6.828
 9557SOL     OW29569   5.046   0.856   1.721
 9557SOL    HW129570   5.083   0.773   1.763
 9557SOL    HW229571   5.077   0.935   1.773
 9558SOL     OW29572   4.649   6.742   6.418
 9558SOL    HW129573   4.588   6.821   6.425
 9558SOL    HW229574   4.609   6.675   6.356
 9559SOL     OW29575   1.607   3.961   0.247
 9559SOL    HW129576   1.537   3.893   0.269
 9559SOL    HW229577   1.564   4.040   0.201
 9560SOL     OW29578   3.361   6.812   2.015
 9560SOL    HW129579   3.340   6.781   2.108
 9560SOL    HW229580   3.424   6.890   2.019
 9561SOL     OW29581   0.642   0.286   0.792
 9561SOL    HW129582   0.652   0.289   0.891
 9561SOL    HW229583   0.732   0.289   0.749
 9562SOL     OW29584   3.141   6.051   3.323
 9562SOL    HW129585   3.178   5.992   3.395
 9562SOL    HW229586   3.102   5.995   3.250
 9563SOL     OW29587   0.549   6.473   1.457
 9563SOL    HW129588   0.586   6.563   1.480
 9563SOL    HW229589   0.482   6.482   1.384
 9564SOL     OW29590   0.994   0.650   0.099
 9564SOL    HW129591   1.067   0.583   0.082
 9564SOL    HW229592   1.008   0.730   0.040
 9565SOL     OW29593   3.093   1.701   3.551
 9565SOL    HW129594   3.184   1.664   3.570
 9565SOL    HW229595   3.071   1.688   3.454
 9566SOL     OW29596   3.429   0.720   0.260
 9566SOL    HW129597   3.476   0.807   0.243
 9566SOL    HW229598   3.333   0.738   0.281
 9567SOL     OW29599   6.551   3.868   1.258
 9567SOL    HW129600   6.483   3.906   1.321
 9567SOL    HW229601   6.511   3.792   1.207
 9568SOL     OW29602   4.792   1.541   0.003
 9568SOL    HW129603   4.881   1.499   7.002
 9568SOL    HW229604   4.734   1.477   0.054
 9569SOL     OW29605   5.851   0.965   1.950
 9569SOL    HW129606   5.944   0.972   1.986
 9569SOL    HW229607   5.854   0.946   1.852
 9570SOL     OW29608   0.544   3.265   1.280
 9570SOL    HW129609   0.530   3.278   1.378
 9570SOL    HW229610   0.462   3.224   1.239
 9571SOL     OW29611   2.325   2.115   6.699
 9571SOL    HW129612   2.269   2.036   6.724
 9571SOL    HW229613   2.293   2.196   6.750
 9572SOL     OW29614   2.270   4.097   3.759
 9572SOL    HW129615   2.325   4.120   3.840
 9572SOL    HW229616   2.173   4.107   3.780
 9573SOL     OW29617   6.103   1.208   4.519
 9573SOL    HW129618   6.104   1.205   4.419
 9573SOL    HW229619   6.190   1.173   4.554
 9574SOL     OW29620   3.391   3.131   1.229
 9574SOL    HW129621   3.474   3.124   1.284
 9574SOL    HW229622   3.312   3.140   1.290
 9575SOL     OW29623   6.119   6.378   1.536
 9575SOL    HW129624   6.175   6.448   1.491
 9575SOL    HW229625   6.080   6.416   1.620
 9576SOL     OW29626   0.630   6.502   0.134
 9576SOL    HW129627   0.543   6.494   0.084
 9576SOL    HW229628   0.678   6.415   0.132
 9577SOL     OW29629   6.169   5.304   2.224
 9577SOL    HW129630   6.076   5.341   2.233
 9577SOL    HW229631   6.173   5.216   2.272
 9578SOL     OW29632   2.152   3.002   3.089
 9578SOL    HW129633   2.161   3.041   3.180
 9578SOL    HW229634   2.136   3.075   3.022
 9579SOL     OW29635   5.701   5.984   1.933
 9579SOL    HW129636   5.644   6.008   2.011
 9579SOL    HW229637   5.769   5.917   1.962
 9580SOL     OW29638   5.430   4.833   2.743
 9580SOL    HW129639   5.410   4.866   2.651
 9580SOL    HW229640   5.505   4.767   2.740
 9581SOL     OW29641   6.293   1.134   6.994
 9581SOL    HW129642   6.358   1.164   0.048
 9581SOL    HW229643   6.340   1.075   6.929
 9582SOL     OW29644   4.833   5.895   4.330
 9582SOL    HW129645   4.752   5.923   4.381
 9582SOL    HW229646   4.907   5.960   4.348
 9583SOL     OW29647   3.582   4.364   1.697
 9583SOL    HW129648   3.555   4.431   1.766
 9583SOL    HW229649   3.539   4.276   1.717
 9584SOL     OW29650   2.182   5.617   4.789
 9584SOL    HW129651   2.136   5.564   4.861
 9584SOL    HW229652   2.222   5.700   4.829
 9585SOL     OW29653   3.972   5.818   0.996
 9585SOL    HW129654   4.003   5.723   0.996
 9585SOL    HW229655   4.005   5.864   0.913
 9586SOL     OW29656   4.317   5.028   2.166
 9586SOL    HW129657   4.307   5.027   2.067
 9586SOL    HW229658   4.355   4.941   2.197
 9587SOL     OW29659   3.000   5.920   1.787
 9587SOL    HW129660   3.078   5.956   1.837
 9587SOL    HW229661   2.916   5.934   1.840
 9588SOL     OW29662   6.164   5.481   0.364
 9588SOL    HW129663   6.153   5.408   0.297
 9588SOL    HW229664   6.088   5.545   0.357
 9589SOL     OW29665   1.658   3.842   6.265
 9589SOL    HW129666   1.681   3.847   6.168
 9589SOL    HW229667   1.628   3.933   6.296
 9590SOL     OW29668   5.544   1.765   1.454
 9590SOL    HW129669   5.627   1.741   1.504
 9590SOL    HW229670   5.483   1.686   1.449
 9591SOL     OW29671   3.662   0.547   6.974
 9591SOL    HW129672   3.694   0.452   6.966
 9591SOL    HW229673   3.665   0.591   6.885
 9592SOL     OW29674   2.347   5.385   5.818
 9592SOL    HW129675   2.258   5.431   5.826
 9592SOL    HW229676   2.336   5.301   5.764
 9593SOL     OW29677   1.866   1.695   4.827
 9593SOL    HW129678   1.938   1.690   4.757
 9593SOL    HW229679   1.783   1.734   4.786
 9594SOL     OW29680   0.525   6.508   3.853
 9594SOL    HW129681   0.533   6.485   3.757
 9594SOL    HW229682   0.458   6.448   3.897
 9595SOL     OW29683   0.436   3.436   3.524
 9595SOL    HW129684   0.397   3.402   3.438
 9595SOL    HW229685   0.362   3.473   3.581
 9596SOL     OW29686   0.402   6.910   1.340
 9596SOL    HW129687   0.468   6.912   1.265
 9596SOL    HW229688   0.309   6.907   1.303
 9597SOL     OW29689   0.797   3.574   2.244
 9597SOL    HW129690   0.814   3.537   2.152
 9597SOL    HW229691   0.785   3.499   2.308
 9598SOL     OW29692   1.307   3.820   3.517
 9598SOL    HW129693   1.267   3.735   3.483
 9598SOL    HW229694   1.264   3.846   3.603
 9599SOL     OW29695   4.273   6.724   4.116
 9599SOL    HW129696   4.247   6.763   4.204
 9599SOL    HW229697   4.193   6.684   4.071
 9600SOL     OW29698   3.029   0.749   1.450
 9600SOL    HW129699   3.084   0.673   1.486
 9600SOL    HW229700   3.087   0.807   1.392
 9601SOL     OW29701   6.926   4.369   1.186
 9601SOL    HW129702   6.927   4.415   1.275
 9601SOL    HW229703   6.919   4.270   1.199
 9602SOL     OW29704   4.565   4.801   6.032
 9602SOL    HW129705   4.532   4.782   5.939
 9602SOL    HW229706   4.640   4.738   6.054
 9603SOL     OW29707   5.532   5.821   5.431
 9603SOL    HW129708   5.559   5.727   5.412
 9603SOL    HW229709   5.448   5.822   5.485
 9604SOL     OW29710   5.278   6.953   0.291
 9604SOL    HW129711   5.372   6.924   0.309
 9604SOL    HW229712   5.216   6.902   0.350
 9605SOL     OW29713   6.449   6.190   3.553
 9605SOL    HW129714   6.360   6.214   3.516
 9605SOL    HW229715   6.479   6.262   3.617
 9606SOL     OW29716   1.245   1.826   6.569
 9606SOL    HW129717   1.300   1.821   6.485
 9606SOL    HW229718   1.149   1.836   6.544
 9607SOL     OW29719   3.200   2.757   6.084
 9607SOL    HW129720   3.260   2.837   6.085
 9607SOL    HW229721   3.253   2.675   6.103
 9608SOL     OW29722   6.665   3.562   3.475
 9608SOL    HW129723   6.740   3.627   3.482
 9608SOL    HW229724   6.671   3.496   3.551
 9609SOL     OW29725   4.084   2.469   5.967
 9609SOL    HW129726   3.998   2.453   6.016
 9609SOL    HW229727   4.122   2.382   5.935
 9610SOL     OW29728   1.410   4.196   2.831
 9610SOL    HW129729   1.353   4.279   2.828
 9610SOL    HW229730   1.442   4.182   2.925
 9611SOL     OW29731   1.240   0.506   0.558
 9611SOL    HW129732   1.181   0.523   0.479
 9611SOL    HW229733   1.335   0.505   0.528
 9612SOL     OW29734   0.377   3.062   3.229
 9612SOL    HW129735   0.360   3.023   3.138
 9612SOL    HW229736   0.347   3.158   3.229
 9613SOL     OW29737   5.830   5.659   3.489
 9613SOL    HW129738   5.812   5.749   3.527
 9613SOL    HW229739   5.746   5.606   3.487
 9614SOL     OW29740   4.913   2.428   3.223
 9614SOL    HW129741   4.813   2.417   3.222
 9614SOL    HW229742   4.946   2.423   3.317
 9615SOL     OW29743   2.500   2.724   1.119
 9615SOL    HW129744   2.556   2.791   1.072
 9615SOL    HW229745   2.505   2.739   1.218
 9616SOL     OW29746   3.858   2.736   0.092
 9616SOL    HW129747   3.932   2.727   0.025
 9616SOL    HW229748   3.874   2.674   0.168
 9617SOL     OW29749   2.162   2.396   3.990
 9617SOL    HW129750   2.132   2.398   4.085
 9617SOL    HW229751   2.257   2.363   3.986
 9618SOL     OW29752   2.834   0.989   0.658
 9618SOL    HW129753   2.824   1.055   0.733
 9618SOL    HW229754   2.744   0.971   0.618
 9619SOL     OW29755   2.523   1.116   4.658
 9619SOL    HW129756   2.554   1.041   4.716
 9619SOL    HW229757   2.467   1.080   4.583
 9620SOL     OW29758   5.575   0.127   5.532
 9620SOL    HW129759   5.552   0.218   5.499
 9620SOL    HW229760   5.506   0.062   5.500
 9621SOL     OW29761   1.684   2.628   3.274
 9621SOL    HW129762   1.750   2.553   3.282
 9621SOL    HW229763   1.692   2.671   3.184
 9622SOL     OW29764   5.879   0.339   1.508
 9622SOL    HW129765   5.906   0.258   1.559
 9622SOL    HW229766   5.913   0.333   1.414
 9623SOL     OW29767   3.327   3.853   6.345
 9623SOL    HW129768   3.336   3.759   6.313
 9623SOL    HW229769   3.408   3.877   6.399
 9624SOL     OW29770   5.919   3.289   3.274
 9624SOL    HW129771   5.970   3.212   3.313
 9624SOL    HW229772   5.822   3.279   3.296
 9625SOL     OW29773   5.976   5.851   0.059
 9625SOL    HW129774   5.927   5.789   7.014
 9625SOL    HW229775   5.920   5.932   0.076
 9626SOL     OW29776   3.426   6.572   6.480
 9626SOL    HW129777   3.432   6.656   6.535
 9626SOL    HW229778   3.491   6.504   6.516
 9627SOL     OW29779   1.310   6.404   6.927
 9627SOL    HW129780   1.264   6.344   6.862
 9627SOL    HW229781   1.252   6.483   6.946
 9628SOL     OW29782   4.075   6.036   2.020
 9628SOL    HW129783   4.011   5.993   1.957
 9628SOL    HW229784   4.049   6.131   2.035
 9629SOL     OW29785   2.717   6.627   0.922
 9629SOL    HW129786   2.670   6.627   0.834
 9629SOL    HW229787   2.693   6.544   0.972
 9630SOL     OW29788   5.999   1.042   5.917
 9630SOL    HW129789   5.981   1.095   5.834
 9630SOL    HW229790   6.038   0.954   5.892
 9631SOL     OW29791   5.923   5.687   6.823
 9631SOL    HW129792   5.949   5.728   6.736
 9631SOL    HW229793   6.005   5.662   6.874
 9632SOL     OW29794   1.583   6.277   1.932
 9632SOL    HW129795   1.530   6.270   2.016
 9632SOL    HW229796   1.614   6.186   1.904
 9633SOL     OW29797   6.650   5.325   6.736
 9633SOL    HW129798   6.697   5.396   6.789
 9633SOL    HW229799   6.555   5.352   6.721
 9634SOL     OW29800   0.945   6.270   4.727
 9634SOL    HW129801   0.899   6.181   4.730
 9634SOL    HW229802   0.936   6.309   4.635
 9635SOL     OW29803   1.984   5.298   5.471
 9635SOL    HW129804   1.995   5.377   5.530
 9635SOL    HW229805   2.059   5.294   5.405
 9636SOL     OW29806   4.231   1.549   6.415
 9636SOL    HW129807   4.220   1.492   6.334
 9636SOL    HW229808   4.233   1.646   6.388
 9637SOL     OW29809   2.143   1.654   6.911
 9637SOL    HW129810   2.174   1.569   6.953
 9637SOL    HW229811   2.045   1.649   6.891
 9638SOL     OW29812   6.450   2.258   5.421
 9638SOL    HW129813   6.424   2.162   5.411
 9638SOL    HW229814   6.392   2.315   5.364
 9639SOL     OW29815   4.201   1.102   2.627
 9639SOL    HW129816   4.270   1.058   2.569
 9639SOL    HW229817   4.245   1.143   2.706
 9640SOL     OW29818   2.069   2.018   1.922
 9640SOL    HW129819   2.146   2.082   1.920
 9640SOL    HW229820   2.039   1.999   1.829
 9641SOL     OW29821   6.322   5.811   0.377
 9641SOL    HW129822   6.225   5.795   0.359
 9641SOL    HW229823   6.377   5.772   0.303
 9642SOL     OW29824   3.437   0.128   4.094
 9642SOL    HW129825   3.363   0.195   4.102
 9642SOL    HW229826   3.480   0.136   4.004
 9643SOL     OW29827   4.549   4.527   3.581
 9643SOL    HW129828   4.529   4.468   3.503
 9643SOL    HW229829   4.469   4.581   3.604
 9644SOL     OW29830   2.217   1.808   6.136
 9644SOL    HW129831   2.265   1.861   6.066
 9644SOL    HW229832   2.253   1.830   6.226
 9645SOL     OW29833   3.090   5.303   5.174
 9645SOL    HW129834   3.028   5.346   5.240
 9645SOL    HW229835   3.044   5.225   5.132
 9646SOL     OW29836   4.477   4.718   3.327
 9646SOL    HW129837   4.500   4.625   3.356
 9646SOL    HW229838   4.382   4.721   3.297
 9647SOL     OW29839   6.424   3.092   0.254
 9647SOL    HW129840   6.338   3.108   0.205
 9647SOL    HW229841   6.405   3.040   0.337
 9648SOL     OW29842   4.685   2.983   1.234
 9648SOL    HW129843   4.771   3.023   1.266
 9648SOL    HW229844   4.634   3.051   1.182
 9649SOL     OW29845   2.101   5.888   0.571
 9649SOL    HW129846   2.024   5.839   0.532
 9649SOL    HW229847   2.123   5.967   0.513
 9650SOL     OW29848   6.848   6.609   1.909
 9650SOL    HW129849   6.833   6.653   1.820
 9650SOL    HW229850   6.921   6.542   1.901
 9651SOL     OW29851   0.220   1.890   5.613
 9651SOL    HW129852   0.300   1.846   5.652
 9651SOL    HW229853   0.157   1.917   5.686
 9652SOL     OW29854   0.891   5.886   3.064
 9652SOL    HW129855   0.970   5.832   3.092
 9652SOL    HW229856   0.813   5.826   3.049
 9653SOL     OW29857   6.094   4.965   4.442
 9653SOL    HW129858   6.086   4.873   4.481
 9653SOL    HW229859   6.029   5.026   4.488
 9654SOL     OW29860   2.206   2.833   2.235
 9654SOL    HW129861   2.293   2.801   2.197
 9654SOL    HW229862   2.140   2.758   2.235
 9655SOL     OW29863   6.135   2.906   6.540
 9655SOL    HW129864   6.106   2.927   6.446
 9655SOL    HW229865   6.235   2.908   6.545
 9656SOL     OW29866   3.514   0.977   2.711
 9656SOL    HW129867   3.495   0.950   2.806
 9656SOL    HW229868   3.529   1.076   2.706
 9657SOL     OW29869   0.078   0.485   4.806
 9657SOL    HW129870   0.083   0.585   4.798
 9657SOL    HW229871   7.003   0.454   4.780
 9658SOL     OW29872   6.311   2.137   2.800
 9658SOL    HW129873   6.391   2.197   2.805
 9658SOL    HW229874   6.240   2.171   2.862
 9659SOL     OW29875   0.635   5.412   6.887
 9659SOL    HW129876   0.629   5.317   6.917
 9659SOL    HW229877   0.585   5.423   6.801
 9660SOL     OW29878   0.573   5.614   0.440
 9660SOL    HW129879   0.557   5.572   0.351
 9660SOL    HW229880   0.547   5.710   0.436
 9661SOL     OW29881   4.171   6.605   1.082
 9661SOL    HW129882   4.259   6.565   1.107
 9661SOL    HW229883   4.130   6.551   1.008
 9662SOL     OW29884   5.184   0.788   4.294
 9662SOL    HW129885   5.209   0.732   4.373
 9662SOL    HW229886   5.098   0.836   4.313
 9663SOL     OW29887   2.564   5.329   2.553
 9663SOL    HW129888   2.478   5.321   2.502
 9663SOL    HW229889   2.578   5.247   2.608
 9664SOL     OW29890   2.824   5.865   1.449
 9664SOL    HW129891   2.858   5.959   1.454
 9664SOL    HW229892   2.896   5.802   1.476
 9665SOL     OW29893   5.066   4.071   4.646
 9665SOL    HW129894   5.120   4.085   4.728
 9665SOL    HW229895   4.972   4.048   4.671
 9666SOL     OW29896   6.072   4.589   4.243
 9666SOL    HW129897   5.977   4.591   4.211
 9666SOL    HW229898   6.121   4.515   4.197
 9667SOL     OW29899   4.097   3.611   3.662
 9667SOL    HW129900   4.086   3.671   3.583
 9667SOL    HW229901   4.130   3.522   3.632
 9668SOL     OW29902   0.611   1.177   5.197
 9668SOL    HW129903   0.634   1.274   5.200
 9668SOL    HW229904   0.621   1.137   5.288
 9669SOL     OW29905   1.826   5.769   0.532
 9669SOL    HW129906   1.871   5.688   0.495
 9669SOL    HW229907   1.827   5.766   0.631
 9670SOL     OW29908   5.642   4.922   0.530
 9670SOL    HW129909   5.607   4.912   0.623
 9670SOL    HW229910   5.622   4.838   0.479
 9671SOL     OW29911   6.958   0.084   6.339
 9671SOL    HW129912   6.916   7.011   6.324
 9671SOL    HW229913   0.040   0.078   6.325
 9672SOL     OW29914   1.153   6.682   4.934
 9672SOL    HW129915   1.086   6.725   4.995
 9672SOL    HW229916   1.106   6.620   4.871
 9673SOL     OW29917   2.750   3.098   6.256
 9673SOL    HW129918   2.785   3.014   6.298
 9673SOL    HW229919   2.753   3.088   6.156
 9674SOL     OW29920   3.040   6.891   2.131
 9674SOL    HW129921   3.106   6.940   2.075
 9674SOL    HW229922   3.006   6.952   2.203
 9675SOL     OW29923   6.960   2.320   2.355
 9675SOL    HW129924   0.016   2.320   2.423
 9675SOL    HW229925   6.871   2.314   2.401
 9676SOL     OW29926   0.382   3.793   4.523
 9676SOL    HW129927   0.302   3.734   4.535
 9676SOL    HW229928   0.385   3.827   4.429
 9677SOL     OW29929   2.162   3.561   5.037
 9677SOL    HW129930   2.215   3.520   5.111
 9677SOL    HW229931   2.067   3.571   5.066
 9678SOL     OW29932   3.007   3.186   3.092
 9678SOL    HW129933   3.105   3.188   3.071
 9678SOL    HW229934   2.971   3.094   3.075
 9679SOL     OW29935   0.864   3.276   1.664
 9679SOL    HW129936   0.938   3.284   1.597
 9679SOL    HW229937   0.902   3.259   1.755
 9680SOL     OW29938   5.944   5.134   3.868
 9680SOL    HW129939   5.934   5.071   3.791
 9680SOL    HW229940   6.039   5.162   3.877
 9681SOL     OW29941   1.538   1.057   3.376
 9681SOL    HW129942   1.438   1.058   3.380
 9681SOL    HW229943   1.567   1.007   3.295
 9682SOL     OW29944   6.562   4.554   3.013
 9682SOL    HW129945   6.503   4.596   2.945
 9682SOL    HW229946   6.518   4.472   3.050
 9683SOL     OW29947   4.417   6.337   6.605
 9683SOL    HW129948   4.459   6.374   6.687
 9683SOL    HW229949   4.479   6.273   6.560
 9684SOL     OW29950   1.349   4.417   3.954
 9684SOL    HW129951   1.410   4.469   4.014
 9684SOL    HW229952   1.392   4.328   3.934
 9685SOL     OW29953   1.944   2.164   0.115
 9685SOL    HW129954   1.955   2.098   0.189
 9685SOL    HW229955   2.032   2.209   0.098
 9686SOL     OW29956   5.850   0.837   1.681
 9686SOL    HW129957   5.898   0.754   1.655
 9686SOL    HW229958   5.760   0.840   1.637
 9687SOL     OW29959   3.591   6.824   3.718
 9687SOL    HW129960   3.644   6.740   3.728
 9687SOL    HW229961   3.571   6.839   3.622
 9688SOL     OW29962   0.455   1.810   3.283
 9688SOL    HW129963   0.356   1.805   3.298
 9688SOL    HW229964   0.485   1.905   3.292
 9689SOL     OW29965   2.056   6.044   6.033
 9689SOL    HW129966   2.147   6.061   5.996
 9689SOL    HW229967   1.987   6.072   5.966
 9690SOL     OW29968   6.425   4.297   1.432
 9690SOL    HW129969   6.518   4.306   1.467
 9690SOL    HW229970   6.426   4.306   1.332
 9691SOL     OW29971   1.469   4.306   1.429
 9691SOL    HW129972   1.452   4.378   1.361
 9691SOL    HW229973   1.413   4.321   1.509
 9692SOL     OW29974   2.713   5.819   0.952
 9692SOL    HW129975   2.649   5.895   0.959
 9692SOL    HW229976   2.775   5.820   1.031
 9693SOL     OW29977   5.281   5.886   1.586
 9693SOL    HW129978   5.334   5.819   1.535
 9693SOL    HW229979   5.186   5.886   1.554
 9694SOL     OW29980   2.159   2.297   0.076
 9694SOL    HW129981   2.238   2.263   0.024
 9694SOL    HW229982   2.190   2.339   0.161
 9695SOL     OW29983   6.208   3.866   1.292
 9695SOL    HW129984   6.160   3.812   1.223
 9695SOL    HW229985   6.242   3.951   1.251
 9696SOL     OW29986   4.316   3.298   1.298
 9696SOL    HW129987   4.299   3.280   1.395
 9696SOL    HW229988   4.349   3.392   1.286
 9697SOL     OW29989   0.690   6.052   0.053
 9697SOL    HW129990   0.687   5.975   0.117
 9697SOL    HW229991   0.601   6.060   0.007
 9698SOL     OW29992   5.586   1.837   5.156
 9698SOL    HW129993   5.619   1.801   5.243
 9698SOL    HW229994   5.490   1.861   5.164
 9699SOL     OW29995   1.879   3.147   0.449
 9699SOL    HW129996   1.934   3.087   0.391
 9699SOL    HW229997   1.938   3.219   0.487
 9700SOL     OW29998   3.561   4.113   4.087
 9700SOL    HW129999   3.645   4.164   4.107
 9700SOL    HW230000   3.527   4.073   4.172
 9701SOL     OW30001   5.396   4.612   4.763
 9701SOL    HW130002   5.494   4.625   4.750
 9701SOL    HW230003   5.363   4.542   4.699
 9702SOL     OW30004   4.093   0.726   1.101
 9702SOL    HW130005   4.052   0.636   1.114
 9702SOL    HW230006   4.095   0.748   1.003
 9703SOL     OW30007   2.920   6.479   3.890
 9703SOL    HW130008   2.928   6.566   3.841
 9703SOL    HW230009   2.848   6.424   3.848
 9704SOL     OW30010   2.990   0.487   3.109
 9704SOL    HW130011   3.025   0.541   3.185
 9704SOL    HW230012   3.032   0.396   3.110
 9705SOL     OW30013   3.686   3.976   0.565
 9705SOL    HW130014   3.749   3.950   0.492
 9705SOL    HW230015   3.656   3.894   0.614
 9706SOL     OW30016   5.659   2.683   2.976
 9706SOL    HW130017   5.723   2.615   3.012
 9706SOL    HW230018   5.565   2.656   2.999
 9707SOL     OW30019   2.664   5.102   2.724
 9707SOL    HW130020   2.725   5.067   2.653
 9707SOL    HW230021   2.590   5.037   2.740
 9708SOL     OW30022   2.944   1.355   2.663
 9708SOL    HW130023   2.876   1.399   2.721
 9708SOL    HW230024   2.964   1.413   2.585
 9709SOL     OW30025   1.952   5.186   2.614
 9709SOL    HW130026   2.042   5.151   2.586
 9709SOL    HW230027   1.906   5.117   2.670
 9710SOL     OW30028   0.053   0.497   3.384
 9710SOL    HW130029   0.016   0.435   3.315
 9710SOL    HW230030   0.099   0.444   3.455
 9711SOL     OW30031   0.760   4.070   5.161
 9711SOL    HW130032   0.723   4.074   5.068
 9711SOL    HW230033   0.860   4.068   5.157
 9712SOL     OW30034   4.473   2.037   4.224
 9712SOL    HW130035   4.384   2.082   4.237
 9712SOL    HW230036   4.502   1.996   4.310
 9713SOL     OW30037   6.823   4.944   2.595
 9713SOL    HW130038   6.773   4.898   2.668
 9713SOL    HW230039   6.887   4.880   2.553
 9714SOL     OW30040   1.885   1.989   1.692
 9714SOL    HW130041   1.821   1.996   1.615
 9714SOL    HW230042   1.842   1.938   1.766
 9715SOL     OW30043   5.429   5.385   5.087
 9715SOL    HW130044   5.513   5.346   5.050
 9715SOL    HW230045   5.374   5.422   5.012
 9716SOL     OW30046   4.316   1.374   6.612
 9716SOL    HW130047   4.279   1.434   6.541
 9716SOL    HW230048   4.415   1.388   6.620
 9717SOL     OW30049   5.662   4.647   3.944
 9717SOL    HW130050   5.684   4.727   3.889
 9717SOL    HW230051   5.683   4.564   3.892
 9718SOL     OW30052   4.626   3.375   1.651
 9718SOL    HW130053   4.694   3.360   1.722
 9718SOL    HW230054   4.636   3.305   1.580
 9719SOL     OW30055   0.301   1.825   0.236
 9719SOL    HW130056   0.394   1.861   0.224
 9719SOL    HW230057   0.305   1.738   0.283
 9720SOL     OW30058   0.050   0.072   2.053
 9720SOL    HW130059   0.132   0.022   2.027
 9720SOL    HW230060   6.989   0.040   1.999
 9721SOL     OW30061   6.884   3.792   2.630
 9721SOL    HW130062   6.853   3.887   2.622
 9721SOL    HW230063   6.805   3.731   2.640
 9722SOL     OW30064   0.653   0.136   4.266
 9722SOL    HW130065   0.659   0.236   4.269
 9722SOL    HW230066   0.739   0.097   4.298
 9723SOL     OW30067   0.050   1.425   3.900
 9723SOL    HW130068   6.968   1.433   3.918
 9723SOL    HW230069   0.072   1.330   3.880
 9724SOL     OW30070   3.972   2.825   1.389
 9724SOL    HW130071   4.016   2.736   1.376
 9724SOL    HW230072   4.037   2.890   1.427
 9725SOL     OW30073   4.299   2.983   5.590
 9725SOL    HW130074   4.354   3.047   5.537
 9725SOL    HW230075   4.359   2.911   5.626
 9726SOL     OW30076   5.853   6.570   5.161
 9726SOL    HW130077   5.816   6.658   5.191
 9726SOL    HW230078   5.820   6.549   5.069
 9727SOL     OW30079   1.746   2.274   6.083
 9727SOL    HW130080   1.658   2.319   6.098
 9727SOL    HW230081   1.763   2.265   5.985
 9728SOL     OW30082   3.199   4.938   6.850
 9728SOL    HW130083   3.200   4.865   6.918
 9728SOL    HW230084   3.141   5.013   6.882
 9729SOL     OW30085   3.364   5.394   2.437
 9729SOL    HW130086   3.407   5.479   2.405
 9729SOL    HW230087   3.269   5.393   2.408
 9730SOL     OW30088   6.478   3.314   3.289
 9730SOL    HW130089   6.474   3.408   3.321
 9730SOL    HW230090   6.399   3.295   3.231
 9731SOL     OW30091   4.577   5.274   0.831
 9731SOL    HW130092   4.664   5.323   0.821
 9731SOL    HW230093   4.553   5.231   0.744
 9732SOL     OW30094   6.582   5.721   3.113
 9732SOL    HW130095   6.506   5.656   3.105
 9732SOL    HW230096   6.551   5.811   3.083
 9733SOL     OW30097   5.546   4.477   6.517
 9733SOL    HW130098   5.626   4.529   6.486
 9733SOL    HW230099   5.535   4.396   6.460
 9734SOL     OW30100   5.245   2.643   5.093
 9734SOL    HW130101   5.210   2.558   5.132
 9734SOL    HW230102   5.318   2.624   5.028
 9735SOL     OW30103   1.486   3.958   0.653
 9735SOL    HW130104   1.439   3.986   0.737
 9735SOL    HW230105   1.542   3.878   0.671
 9736SOL     OW30106   3.385   1.368   0.914
 9736SOL    HW130107   3.294   1.332   0.896
 9736SOL    HW230108   3.380   1.435   0.988
 9737SOL     OW30109   4.058   2.218   5.139
 9737SOL    HW130110   4.096   2.166   5.216
 9737SOL    HW230111   4.119   2.293   5.116
 9738SOL     OW30112   1.778   0.425   2.400
 9738SOL    HW130113   1.821   0.361   2.464
 9738SOL    HW230114   1.679   0.419   2.409
 9739SOL     OW30115   5.324   4.835   1.824
 9739SOL    HW130116   5.228   4.862   1.834
 9739SOL    HW230117   5.334   4.739   1.848
 9740SOL     OW30118   6.779   4.073   3.168
 9740SOL    HW130119   6.810   3.981   3.191
 9740SOL    HW230120   6.784   4.131   3.250
 9741SOL     OW30121   4.343   2.186   1.521
 9741SOL    HW130122   4.413   2.256   1.513
 9741SOL    HW230123   4.358   2.134   1.605
 9742SOL     OW30124   4.750   1.949   4.341
 9742SOL    HW130125   4.837   1.998   4.352
 9742SOL    HW230126   4.675   2.015   4.344
 9743SOL     OW30127   1.846   2.608   5.564
 9743SOL    HW130128   1.828   2.575   5.471
 9743SOL    HW230129   1.944   2.622   5.575
 9744SOL     OW30130   1.492   0.314   1.886
 9744SOL    HW130131   1.398   0.338   1.909
 9744SOL    HW230132   1.555   0.347   1.957
 9745SOL     OW30133   0.365   1.983   4.621
 9745SOL    HW130134   0.464   1.995   4.624
 9745SOL    HW230135   0.343   1.886   4.613
 9746SOL     OW30136   5.755   1.816   4.496
 9746SOL    HW130137   5.724   1.820   4.401
 9746SOL    HW230138   5.781   1.722   4.519
 9747SOL     OW30139   0.640   0.052   6.780
 9747SOL    HW130140   0.694   6.990   6.751
 9747SOL    HW230141   0.637   0.119   6.706
 9748SOL     OW30142   6.990   6.024   4.040
 9748SOL    HW130143   6.962   6.034   3.945
 9748SOL    HW230144   6.946   6.095   4.095
 9749SOL     OW30145   0.820   4.130   4.540
 9749SOL    HW130146   0.873   4.184   4.475
 9749SOL    HW230147   0.814   4.035   4.509
 9750SOL     OW30148   4.092   4.846   3.446
 9750SOL    HW130149   4.003   4.834   3.404
 9750SOL    HW230150   4.115   4.944   3.448
 9751SOL     OW30151   1.892   2.443   0.512
 9751SOL    HW130152   1.860   2.398   0.429
 9751SOL    HW230153   1.822   2.506   0.546
 9752SOL     OW30154   3.440   1.678   5.985
 9752SOL    HW130155   3.346   1.713   5.978
 9752SOL    HW230156   3.460   1.623   5.905
 9753SOL     OW30157   6.638   6.065   5.230
 9753SOL    HW130158   6.567   6.053   5.160
 9753SOL    HW230159   6.660   5.976   5.271
 9754SOL     OW30160   0.073   2.233   6.330
 9754SOL    HW130161   0.002   2.242   6.261
 9754SOL    HW230162   0.078   2.137   6.360
 9755SOL     OW30163   4.002   4.891   5.241
 9755SOL    HW130164   3.964   4.907   5.149
 9755SOL    HW230165   4.034   4.797   5.248
 9756SOL     OW30166   5.978   2.401   5.812
 9756SOL    HW130167   6.077   2.413   5.823
 9756SOL    HW230168   5.931   2.481   5.849
 9757SOL     OW30169   6.092   2.345   3.748
 9757SOL    HW130170   6.036   2.421   3.713
 9757SOL    HW230171   6.146   2.377   3.826
 9758SOL     OW30172   2.457   0.485   0.275
 9758SOL    HW130173   2.402   0.420   0.222
 9758SOL    HW230174   2.396   0.549   0.322
 9759SOL     OW30175   3.378   6.241   1.287
 9759SOL    HW130176   3.313   6.212   1.357
 9759SOL    HW230177   3.336   6.234   1.196
 9760SOL     OW30178   5.524   4.248   6.373
 9760SOL    HW130179   5.599   4.182   6.382
 9760SOL    HW230180   5.486   4.244   6.281
 9761SOL     OW30181   5.620   5.982   2.742
 9761SOL    HW130182   5.602   5.903   2.683
 9761SOL    HW230183   5.591   5.960   2.836
 9762SOL     OW30184   2.209   1.810   3.703
 9762SOL    HW130185   2.278   1.834   3.635
 9762SOL    HW230186   2.139   1.882   3.706
 9763SOL     OW30187   2.266   1.518   1.473
 9763SOL    HW130188   2.315   1.596   1.433
 9763SOL    HW230189   2.169   1.525   1.452
 9764SOL     OW30190   1.374   2.360   1.941
 9764SOL    HW130191   1.436   2.437   1.923
 9764SOL    HW230192   1.307   2.353   1.866
 9765SOL     OW30193   6.861   1.455   5.520
 9765SOL    HW130194   6.763   1.467   5.532
 9765SOL    HW230195   6.902   1.541   5.487
 9766SOL     OW30196   2.664   0.400   1.965
 9766SOL    HW130197   2.614   0.363   2.044
 9766SOL    HW230198   2.714   0.482   1.992
 9767SOL     OW30199   4.815   0.419   5.259
 9767SOL    HW130200   4.901   0.407   5.209
 9767SOL    HW230201   4.799   0.516   5.276
 9768SOL     OW30202   4.508   2.483   2.916
 9768SOL    HW130203   4.566   2.464   2.836
 9768SOL    HW230204   4.443   2.555   2.892
 9769SOL     OW30205   0.336   2.163   1.814
 9769SOL    HW130206   0.409   2.096   1.801
 9769SOL    HW230207   0.335   2.193   1.909
 9770SOL     OW30208   6.100   4.421   6.212
 9770SOL    HW130209   6.145   4.468   6.137
 9770SOL    HW230210   6.140   4.449   6.299
 9771SOL     OW30211   3.582   5.519   5.251
 9771SOL    HW130212   3.640   5.513   5.332
 9771SOL    HW230213   3.486   5.517   5.278
 9772SOL     OW30214   6.683   0.303   1.993
 9772SOL    HW130215   6.725   0.393   1.984
 9772SOL    HW230216   6.752   0.232   1.979
 9773SOL     OW30217   5.582   5.538   3.518
 9773SOL    HW130218   5.579   5.457   3.577
 9773SOL    HW230219   5.512   5.603   3.548
 9774SOL     OW30220   6.900   5.087   3.270
 9774SOL    HW130221   6.983   5.040   3.298
 9774SOL    HW230222   6.906   5.111   3.173
 9775SOL     OW30223   2.845   2.197   5.031
 9775SOL    HW130224   2.821   2.144   5.113
 9775SOL    HW230225   2.943   2.218   5.033
 9776SOL     OW30226   0.280   5.075   4.946
 9776SOL    HW130227   0.239   4.999   4.998
 9776SOL    HW230228   0.342   5.037   4.877
 9777SOL     OW30229   5.511   5.030   6.928
 9777SOL    HW130230   5.514   5.128   6.949
 9777SOL    HW230231   5.548   5.015   6.836
 9778SOL     OW30232   4.410   0.686   3.479
 9778SOL    HW130233   4.317   0.692   3.441
 9778SOL    HW230234   4.462   0.767   3.452
 9779SOL     OW30235   2.901   2.021   6.054
 9779SOL    HW130236   2.857   2.100   6.096
 9779SOL    HW230237   2.975   1.988   6.112
 9780SOL     OW30238   3.761   4.494   0.579
 9780SOL    HW130239   3.714   4.407   0.566
 9780SOL    HW230240   3.768   4.513   0.677
 9781SOL     OW30241   1.953   6.105   4.005
 9781SOL    HW130242   1.984   6.017   4.041
 9781SOL    HW230243   1.872   6.135   4.055
 9782SOL     OW30244   6.583   0.656   1.460
 9782SOL    HW130245   6.666   0.708   1.481
 9782SOL    HW230246   6.503   0.709   1.487
 9783SOL     OW30247   5.220   1.410   2.491
 9783SOL    HW130248   5.248   1.506   2.482
 9783SOL    HW230249   5.262   1.370   2.572
 9784SOL     OW30250   5.145   1.030   4.132
 9784SOL    HW130251   5.210   1.106   4.128
 9784SOL    HW230252   5.187   0.952   4.176
 9785SOL     OW30253   1.165   2.866   1.081
 9785SOL    HW130254   1.124   2.920   1.008
 9785SOL    HW230255   1.099   2.855   1.155
 9786SOL     OW30256   2.563   6.986   5.096
 9786SOL    HW130257   2.491   6.924   5.066
 9786SOL    HW230258   2.624   6.938   5.159
 9787SOL     OW30259   5.643   4.651   1.834
 9787SOL    HW130260   5.620   4.744   1.808
 9787SOL    HW230261   5.730   4.624   1.794
 9788SOL     OW30262   0.343   1.110   5.459
 9788SOL    HW130263   0.338   1.206   5.432
 9788SOL    HW230264   0.437   1.077   5.449
 9789SOL     OW30265   1.308   6.076   4.613
 9789SOL    HW130266   1.329   6.167   4.576
 9789SOL    HW230267   1.231   6.083   4.677
 9790SOL     OW30268   6.643   1.711   4.192
 9790SOL    HW130269   6.682   1.734   4.103
 9790SOL    HW230270   6.700   1.642   4.236
 9791SOL     OW30271   1.139   2.598   1.566
 9791SOL    HW130272   1.188   2.605   1.653
 9791SOL    HW230273   1.052   2.646   1.573
 9792SOL     OW30274   4.016   5.650   1.943
 9792SOL    HW130275   3.932   5.631   1.893
 9792SOL    HW230276   4.060   5.731   1.905
 9793SOL     OW30277   5.014   5.982   2.467
 9793SOL    HW130278   5.075   5.918   2.420
 9793SOL    HW230279   4.968   5.934   2.542
 9794SOL     OW30280   3.737   3.257   6.485
 9794SOL    HW130281   3.801   3.203   6.538
 9794SOL    HW230282   3.660   3.200   6.456
 9795SOL     OW30283   2.533   4.507   4.130
 9795SOL    HW130284   2.614   4.523   4.186
 9795SOL    HW230285   2.487   4.594   4.113
 9796SOL     OW30286   3.741   4.866   0.290
 9796SOL    HW130287   3.750   4.936   0.361
 9796SOL    HW230288   3.648   4.865   0.255
 9797SOL     OW30289   4.811   3.015   4.774
 9797SOL    HW130290   4.721   2.994   4.736
 9797SOL    HW230291   4.879   2.953   4.736
 9798SOL     OW30292   2.162   1.852   1.667
 9798SOL    HW130293   2.121   1.784   1.728
 9798SOL    HW230294   2.224   1.807   1.604
 9799SOL     OW30295   3.309   4.056   2.097
 9799SOL    HW130296   3.250   4.072   2.177
 9799SOL    HW230297   3.403   4.078   2.121
 9800SOL     OW30298   3.496   4.869   0.135
 9800SOL    HW130299   3.446   4.944   0.178
 9800SOL    HW230300   3.477   4.869   0.036
 9801SOL     OW30301   4.591   5.373   6.887
 9801SOL    HW130302   4.676   5.336   6.849
 9801SOL    HW230303   4.561   5.315   6.963
 9802SOL     OW30304   0.561   4.685   1.233
 9802SOL    HW130305   0.639   4.628   1.258
 9802SOL    HW230306   0.479   4.629   1.228
 9803SOL     OW30307   5.559   0.565   6.753
 9803SOL    HW130308   5.541   0.651   6.705
 9803SOL    HW230309   5.473   0.527   6.787
 9804SOL     OW30310   6.114   5.123   4.211
 9804SOL    HW130311   6.109   5.058   4.287
 9804SOL    HW230312   6.086   5.214   4.243
 9805SOL     OW30313   3.221   4.242   1.107
 9805SOL    HW130314   3.202   4.236   1.009
 9805SOL    HW230315   3.151   4.192   1.158
 9806SOL     OW30316   6.569   2.227   2.703
 9806SOL    HW130317   6.604   2.321   2.709
 9806SOL    HW230318   6.644   2.163   2.721
 9807SOL     OW30319   3.445   2.337   1.079
 9807SOL    HW130320   3.543   2.351   1.065
 9807SOL    HW230321   3.400   2.426   1.092
 9808SOL     OW30322   1.175   2.018   5.038
 9808SOL    HW130323   1.261   1.983   5.000
 9808SOL    HW230324   1.112   2.040   4.963
 9809SOL     OW30325   0.923   0.655   4.349
 9809SOL    HW130326   0.865   0.735   4.333
 9809SOL    HW230327   0.968   0.628   4.264
 9810SOL     OW30328   3.901   1.239   3.470
 9810SOL    HW130329   3.897   1.179   3.390
 9810SOL    HW230330   3.891   1.184   3.553
 9811SOL     OW30331   1.288   0.058   2.728
 9811SOL    HW130332   1.292   0.071   2.629
 9811SOL    HW230333   1.368   0.100   2.770
 9812SOL     OW30334   5.147   2.864   5.175
 9812SOL    HW130335   5.063   2.875   5.122
 9812SOL    HW230336   5.192   2.778   5.150
 9813SOL     OW30337   6.639   4.804   0.915
 9813SOL    HW130338   6.598   4.859   0.988
 9813SOL    HW230339   6.576   4.798   0.838
 9814SOL     OW30340   6.566   0.960   5.444
 9814SOL    HW130341   6.471   0.977   5.419
 9814SOL    HW230342   6.605   0.889   5.385
 9815SOL     OW30343   6.664   4.101   2.916
 9815SOL    HW130344   6.694   4.081   3.010
 9815SOL    HW230345   6.646   4.015   2.868
 9816SOL     OW30346   6.615   0.918   6.180
 9816SOL    HW130347   6.690   0.938   6.244
 9816SOL    HW230348   6.627   0.826   6.144
 9817SOL     OW30349   2.120   0.553   0.119
 9817SOL    HW130350   2.127   0.554   0.019
 9817SOL    HW230351   2.043   0.494   0.145
 9818SOL     OW30352   0.864   6.925   3.234
 9818SOL    HW130353   0.894   6.847   3.288
 9818SOL    HW230354   0.928   6.940   3.158
 9819SOL     OW30355   6.848   2.609   4.295
 9819SOL    HW130356   6.834   2.680   4.364
 9819SOL    HW230357   6.921   2.547   4.324
 9820SOL     OW30358   3.584   2.464   5.898
 9820SOL    HW130359   3.604   2.556   5.865
 9820SOL    HW230360   3.651   2.399   5.859
 9821SOL     OW30361   3.739   2.933   1.549
 9821SOL    HW130362   3.731   3.031   1.529
 9821SOL    HW230363   3.763   2.884   1.465
 9822SOL     OW30364   3.474   6.341   4.660
 9822SOL    HW130365   3.420   6.354   4.744
 9822SOL    HW230366   3.536   6.264   4.672
 9823SOL     OW30367   3.852   6.816   3.291
 9823SOL    HW130368   3.783   6.828   3.219
 9823SOL    HW230369   3.943   6.832   3.253
 9824SOL     OW30370   1.043   6.248   5.839
 9824SOL    HW130371   0.971   6.223   5.905
 9824SOL    HW230372   1.014   6.220   5.747
 9825SOL     OW30373   0.011   6.689   5.131
 9825SOL    HW130374   6.989   6.744   5.057
 9825SOL    HW230375   6.995   6.595   5.123
 9826SOL     OW30376   2.084   5.559   5.342
 9826SOL    HW130377   1.990   5.582   5.316
 9826SOL    HW230378   2.088   5.542   5.440
 9827SOL     OW30379   1.893   4.649   1.576
 9827SOL    HW130380   1.990   4.666   1.564
 9827SOL    HW230381   1.841   4.731   1.550
 9828SOL     OW30382   4.264   1.776   5.086
 9828SOL    HW130383   4.202   1.805   5.158
 9828SOL    HW230384   4.219   1.788   4.997
 9829SOL     OW30385   5.008   4.959   5.380
 9829SOL    HW130386   5.103   4.967   5.410
 9829SOL    HW230387   5.004   4.966   5.281
 9830SOL     OW30388   5.424   1.601   3.725
 9830SOL    HW130389   5.384   1.577   3.636
 9830SOL    HW230390   5.351   1.622   3.789
 9831SOL     OW30391   0.595   4.138   2.510
 9831SOL    HW130392   0.685   4.122   2.551
 9831SOL    HW230393   0.557   4.051   2.476
 9832SOL     OW30394   4.503   5.744   4.447
 9832SOL    HW130395   4.475   5.678   4.377
 9832SOL    HW230396   4.533   5.694   4.529
 9833SOL     OW30397   3.814   3.817   3.594
 9833SOL    HW130398   3.732   3.829   3.538
 9833SOL    HW230399   3.895   3.819   3.535
 9834SOL     OW30400   2.637   6.074   5.556
 9834SOL    HW130401   2.658   6.154   5.612
 9834SOL    HW230402   2.714   6.010   5.558
 9835SOL     OW30403   4.158   3.623   4.211
 9835SOL    HW130404   4.190   3.668   4.294
 9835SOL    HW230405   4.149   3.690   4.138
 9836SOL     OW30406   6.761   3.411   5.873
 9836SOL    HW130407   6.826   3.368   5.810
 9836SOL    HW230408   6.786   3.506   5.887
 9837SOL     OW30409   5.733   1.585   3.444
 9837SOL    HW130410   5.790   1.580   3.526
 9837SOL    HW230411   5.710   1.492   3.414
 9838SOL     OW30412   1.105   6.303   1.201
 9838SOL    HW130413   1.158   6.307   1.286
 9838SOL    HW230414   1.134   6.378   1.141
 9839SOL     OW30415   5.022   6.634   4.034
 9839SOL    HW130416   5.025   6.688   3.950
 9839SOL    HW230417   5.108   6.645   4.083
 9840SOL     OW30418   6.363   1.821   6.416
 9840SOL    HW130419   6.437   1.803   6.352
 9840SOL    HW230420   6.358   1.919   6.435
 9841SOL     OW30421   6.728   6.061   3.194
 9841SOL    HW130422   6.652   6.010   3.152
 9841SOL    HW230423   6.701   6.157   3.204
 9842SOL     OW30424   3.271   0.405   0.192
 9842SOL    HW130425   3.311   0.419   0.283
 9842SOL    HW230426   3.344   0.383   0.127
 9843SOL     OW30427   7.016   0.468   1.732
 9843SOL    HW130428   6.980   0.379   1.702
 9843SOL    HW230429   6.979   0.490   1.823
 9844SOL     OW30430   4.415   0.299   4.515
 9844SOL    HW130431   4.363   0.268   4.435
 9844SOL    HW230432   4.370   0.378   4.556
 9845SOL     OW30433   1.143   3.762   1.852
 9845SOL    HW130434   1.178   3.776   1.945
 9845SOL    HW230435   1.082   3.838   1.828
 9846SOL     OW30436   6.103   2.208   1.263
 9846SOL    HW130437   6.005   2.219   1.279
 9846SOL    HW230438   6.153   2.222   1.349
 9847SOL     OW30439   4.131   3.737   6.660
 9847SOL    HW130440   4.058   3.782   6.609
 9847SOL    HW230441   4.096   3.703   6.747
 9848SOL     OW30442   3.244   3.594   5.633
 9848SOL    HW130443   3.338   3.590   5.601
 9848SOL    HW230444   3.199   3.675   5.596
 9849SOL     OW30445   1.368   2.272   4.707
 9849SOL    HW130446   1.342   2.282   4.803
 9849SOL    HW230447   1.371   2.363   4.664
 9850SOL     OW30448   1.872   6.820   3.904
 9850SOL    HW130449   1.949   6.878   3.931
 9850SOL    HW230450   1.872   6.736   3.958
 9851SOL     OW30451   3.439   5.395   3.758
 9851SOL    HW130452   3.454   5.460   3.832
 9851SOL    HW230453   3.522   5.343   3.741
 9852SOL     OW30454   1.593   6.997   0.375
 9852SOL    HW130455   1.528   6.964   0.306
 9852SOL    HW230456   1.592   6.935   0.454
 9853SOL     OW30457   0.232   4.295   3.462
 9853SOL    HW130458   0.225   4.356   3.541
 9853SOL    HW230459   0.308   4.325   3.404
 9854SOL     OW30460   0.614   3.776   6.562
 9854SOL    HW130461   0.710   3.765   6.586
 9854SOL    HW230462   0.581   3.865   6.596
 9855SOL     OW30463   0.841   5.633   0.591
 9855SOL    HW130464   0.761   5.681   0.554
 9855SOL    HW230465   0.921   5.653   0.533
 9856SOL     OW30466   5.282   3.233   3.029
 9856SOL    HW130467   5.316   3.183   2.949
 9856SOL    HW230468   5.331   3.202   3.111
 9857SOL     OW30469   4.704   0.169   5.322
 9857SOL    HW130470   4.739   0.263   5.311
 9857SOL    HW230471   4.604   0.170   5.314
 9858SOL     OW30472   6.230   6.173   2.069
 9858SOL    HW130473   6.138   6.177   2.030
 9858SOL    HW230474   6.249   6.080   2.101
 9859SOL     OW30475   0.320   5.462   3.071
 9859SOL    HW130476   0.251   5.533   3.088
 9859SOL    HW230477   0.274   5.378   3.040
 9860SOL     OW30478   1.770   3.257   3.985
 9860SOL    HW130479   1.748   3.353   4.003
 9860SOL    HW230480   1.869   3.245   3.980
 9861SOL     OW30481   3.787   2.100   2.918
 9861SOL    HW130482   3.855   2.142   2.978
 9861SOL    HW230483   3.772   2.005   2.947
 9862SOL     OW30484   1.414   3.675   6.733
 9862SOL    HW130485   1.482   3.608   6.763
 9862SOL    HW230486   1.353   3.633   6.665
 9863SOL     OW30487   4.283   0.046   2.120
 9863SOL    HW130488   4.195   0.091   2.104
 9863SOL    HW230489   4.340   0.056   2.039
 9864SOL     OW30490   2.252   5.738   5.910
 9864SOL    HW130491   2.217   5.649   5.937
 9864SOL    HW230492   2.350   5.743   5.929
 9865SOL     OW30493   1.600   5.059   5.488
 9865SOL    HW130494   1.588   5.068   5.389
 9865SOL    HW230495   1.698   5.059   5.510
 9866SOL     OW30496   6.847   5.366   5.800
 9866SOL    HW130497   6.912   5.311   5.853
 9866SOL    HW230498   6.761   5.316   5.789
 9867SOL     OW30499   4.020   1.233   1.884
 9867SOL    HW130500   3.949   1.287   1.929
 9867SOL    HW230501   4.061   1.287   1.811
 9868SOL     OW30502   2.320   4.586   3.522
 9868SOL    HW130503   2.253   4.649   3.560
 9868SOL    HW230504   2.388   4.638   3.469
 9869SOL     OW30505   0.363   2.421   1.369
 9869SOL    HW130506   0.415   2.438   1.453
 9869SOL    HW230507   0.308   2.338   1.380
 9870SOL     OW30508   2.116   2.565   2.424
 9870SOL    HW130509   2.190   2.626   2.450
 9870SOL    HW230510   2.032   2.593   2.471
 9871SOL     OW30511   5.567   5.445   3.262
 9871SOL    HW130512   5.537   5.470   3.354
 9871SOL    HW230513   5.648   5.497   3.237
 9872SOL     OW30514   0.873   4.902   5.962
 9872SOL    HW130515   0.948   4.851   6.002
 9872SOL    HW230516   0.854   4.867   5.870
 9873SOL     OW30517   0.962   1.096   5.223
 9873SOL    HW130518   0.965   1.180   5.170
 9873SOL    HW230519   1.054   1.057   5.230
 9874SOL     OW30520   0.646   1.852   4.165
 9874SOL    HW130521   0.625   1.906   4.247
 9874SOL    HW230522   0.693   1.910   4.098
 9875SOL     OW30523   6.469   6.162   0.558
 9875SOL    HW130524   6.452   6.232   0.627
 9875SOL    HW230525   6.479   6.073   0.603
 9876SOL     OW30526   0.153   6.937   3.511
 9876SOL    HW130527   0.229   6.979   3.461
 9876SOL    HW230528   0.102   6.878   3.449
 9877SOL     OW30529   1.162   6.339   5.534
 9877SOL    HW130530   1.080   6.283   5.547
 9877SOL    HW230531   1.212   6.306   5.454
 9878SOL     OW30532   3.181   2.576   6.757
 9878SOL    HW130533   3.124   2.524   6.693
 9878SOL    HW230534   3.135   2.662   6.781
 9879SOL     OW30535   6.929   5.558   5.606
 9879SOL    HW130536   6.961   5.637   5.659
 9879SOL    HW230537   6.910   5.482   5.667
 9880SOL     OW30538   2.590   0.978   1.127
 9880SOL    HW130539   2.510   1.010   1.178
 9880SOL    HW230540   2.663   1.046   1.132
 9881SOL     OW30541   6.125   1.278   3.429
 9881SOL    HW130542   6.102   1.364   3.383
 9881SOL    HW230543   6.215   1.248   3.400
 9882SOL     OW30544   3.598   3.140   4.536
 9882SOL    HW130545   3.685   3.096   4.512
 9882SOL    HW230546   3.582   3.130   4.634
 9883SOL     OW30547   2.085   6.684   2.484
 9883SOL    HW130548   2.144   6.760   2.455
 9883SOL    HW230549   2.117   6.649   2.572
 9884SOL     OW30550   3.297   3.118   5.788
 9884SOL    HW130551   3.310   3.118   5.689
 9884SOL    HW230552   3.201   3.132   5.809
 9885SOL     OW30553   4.868   2.579   5.329
 9885SOL    HW130554   4.900   2.542   5.242
 9885SOL    HW230555   4.777   2.544   5.349
 9886SOL     OW30556   3.416   5.928   1.163
 9886SOL    HW130557   3.510   5.960   1.165
 9886SOL    HW230558   3.393   5.885   1.250
 9887SOL     OW30559   3.040   1.951   0.125
 9887SOL    HW130560   3.043   1.852   0.135
 9887SOL    HW230561   2.976   1.975   0.051
 9888SOL     OW30562   6.398   6.477   3.745
 9888SOL    HW130563   6.365   6.404   3.804
 9888SOL    HW230564   6.498   6.477   3.744
 9889SOL     OW30565   6.823   5.544   2.807
 9889SOL    HW130566   6.784   5.465   2.854
 9889SOL    HW230567   6.803   5.627   2.859
 9890SOL     OW30568   0.961   3.387   2.391
 9890SOL    HW130569   0.922   3.357   2.478
 9890SOL    HW230570   1.055   3.356   2.384
 9891SOL     OW30571   4.560   6.562   1.870
 9891SOL    HW130572   4.595   6.602   1.954
 9891SOL    HW230573   4.586   6.620   1.792
 9892SOL     OW30574   1.651   5.636   3.942
 9892SOL    HW130575   1.659   5.727   3.903
 9892SOL    HW230576   1.632   5.643   4.040
 9893SOL     OW30577   5.672   4.643   4.777
 9893SOL    HW130578   5.766   4.666   4.751
 9893SOL    HW230579   5.672   4.565   4.839
 9894SOL     OW30580   4.482   3.647   5.307
 9894SOL    HW130581   4.402   3.642   5.247
 9894SOL    HW230582   4.563   3.618   5.257
 9895SOL     OW30583   5.417   1.997   6.622
 9895SOL    HW130584   5.323   1.989   6.588
 9895SOL    HW230585   5.423   2.069   6.691
 9896SOL     OW30586   3.790   3.477   7.004
 9896SOL    HW130587   3.756   3.559   0.035
 9896SOL    HW230588   3.716   3.439   6.949
 9897SOL     OW30589   6.893   1.274   3.264
 9897SOL    HW130590   6.938   1.266   3.175
 9897SOL    HW230591   6.834   1.355   3.264
 9898SOL     OW30592   1.850   4.586   6.949
 9898SOL    HW130593   1.879   4.637   0.013
 9898SOL    HW230594   1.838   4.650   6.872
 9899SOL     OW30595   5.038   5.043   2.600
 9899SOL    HW130596   5.033   4.961   2.656
 9899SOL    HW230597   5.132   5.075   2.595
 9900SOL     OW30598   1.897   4.161   4.029
 9900SOL    HW130599   1.843   4.079   4.048
 9900SOL    HW230600   1.929   4.201   4.114
 9901SOL     OW30601   2.776   1.817   6.320
 9901SOL    HW130602   2.744   1.728   6.288
 9901SOL    HW230603   2.875   1.824   6.308
 9902SOL     OW30604   4.757   4.036   6.655
 9902SOL    HW130605   4.788   3.947   6.623
 9902SOL    HW230606   4.666   4.055   6.617
 9903SOL     OW30607   3.513   1.337   1.652
 9903SOL    HW130608   3.452   1.259   1.647
 9903SOL    HW230609   3.493   1.400   1.576
 9904SOL     OW30610   0.637   0.255   1.748
 9904SOL    HW130611   0.577   0.336   1.753
 9904SOL    HW230612   0.633   0.217   1.656
 9905SOL     OW30613   1.855   6.570   6.104
 9905SOL    HW130614   1.807   6.560   6.017
 9905SOL    HW230615   1.809   6.638   6.161
 9906SOL     OW30616   3.797   3.909   5.725
 9906SOL    HW130617   3.870   3.973   5.748
 9906SOL    HW230618   3.835   3.817   5.716
 9907SOL     OW30619   1.105   7.006   2.923
 9907SOL    HW130620   1.026   7.008   2.861
 9907SOL    HW230621   1.183   0.031   2.877
 9908SOL     OW30622   6.603   3.658   5.042
 9908SOL    HW130623   6.544   3.701   5.110
 9908SOL    HW230624   6.636   3.727   4.978
 9909SOL     OW30625   3.503   0.051   2.422
 9909SOL    HW130626   3.405   0.054   2.442
 9909SOL    HW230627   3.543   0.142   2.436
 9910SOL     OW30628   0.985   4.553   0.947
 9910SOL    HW130629   0.998   4.622   0.876
 9910SOL    HW230630   0.987   4.462   0.906
 9911SOL     OW30631   4.063   5.028   2.666
 9911SOL    HW130632   4.150   4.986   2.694
 9911SOL    HW230633   4.009   5.049   2.748
 9912SOL     OW30634   4.044   6.946   1.000
 9912SOL    HW130635   4.055   6.934   0.901
 9912SOL    HW230636   4.012   0.022   1.020
 9913SOL     OW30637   4.265   2.254   2.751
 9913SOL    HW130638   4.222   2.168   2.777
 9913SOL    HW230639   4.297   2.302   2.833
 9914SOL     OW30640   2.167   5.270   5.230
 9914SOL    HW130641   2.220   5.233   5.154
 9914SOL    HW230642   2.218   5.344   5.273
 9915SOL     OW30643   6.228   3.685   3.838
 9915SOL    HW130644   6.134   3.720   3.832
 9915SOL    HW230645   6.290   3.761   3.858
 9916SOL     OW30646   2.791   3.046   0.627
 9916SOL    HW130647   2.881   3.004   0.640
 9916SOL    HW230648   2.720   2.977   0.639
 9917SOL     OW30649   2.314   2.835   4.846
 9917SOL    HW130650   2.358   2.878   4.925
 9917SOL    HW230651   2.217   2.855   4.848
 9918SOL     OW30652   2.357   0.595   5.037
 9918SOL    HW130653   2.416   0.521   5.004
 9918SOL    HW230654   2.354   0.668   4.970
 9919SOL     OW30655   0.772   5.423   2.160
 9919SOL    HW130656   0.736   5.329   2.158
 9919SOL    HW230657   0.867   5.423   2.130
 9920SOL     OW30658   3.847   6.604   2.762
 9920SOL    HW130659   3.852   6.511   2.726
 9920SOL    HW230660   3.862   6.602   2.861
 9921SOL     OW30661   4.938   6.849   3.207
 9921SOL    HW130662   4.926   6.750   3.208
 9921SOL    HW230663   4.902   6.888   3.292
 9922SOL     OW30664   5.063   2.974   2.041
 9922SOL    HW130665   4.997   2.946   1.971
 9922SOL    HW230666   5.117   3.050   2.006
 9923SOL     OW30667   6.344   0.890   6.276
 9923SOL    HW130668   6.302   0.805   6.243
 9923SOL    HW230669   6.443   0.884   6.266
 9924SOL     OW30670   4.622   0.857   3.388
 9924SOL    HW130671   4.639   0.892   3.297
 9924SOL    HW230672   4.669   0.770   3.400
 9925SOL     OW30673   3.396   2.107   4.462
 9925SOL    HW130674   3.463   2.174   4.495
 9925SOL    HW230675   3.367   2.049   4.537
 9926SOL     OW30676   1.433   0.543   6.059
 9926SOL    HW130677   1.368   0.618   6.046
 9926SOL    HW230678   1.497   0.567   6.132
 9927SOL     OW30679   1.197   2.963   2.168
 9927SOL    HW130680   1.210   2.968   2.267
 9927SOL    HW230681   1.250   2.887   2.132
 9928SOL     OW30682   0.236   3.294   2.515
 9928SOL    HW130683   0.313   3.258   2.569
 9928SOL    HW230684   0.170   3.338   2.577
 9929SOL     OW30685   1.115   4.280   5.466
 9929SOL    HW130686   1.172   4.200   5.486
 9929SOL    HW230687   1.152   4.329   5.388
 9930SOL     OW30688   0.011   5.477   0.004
 9930SOL    HW130689   6.992   5.559   6.977
 9930SOL    HW230690   0.110   5.474   7.011
 9931SOL     OW30691   2.731   5.137   6.559
 9931SOL    HW130692   2.759   5.193   6.637
 9931SOL    HW230693   2.754   5.041   6.576
 9932SOL     OW30694   2.231   2.350   1.165
 9932SOL    HW130695   2.328   2.346   1.188
 9932SOL    HW230696   2.218   2.325   1.069
 9933SOL     OW30697   0.502   1.642   2.215
 9933SOL    HW130698   0.554   1.686   2.288
 9933SOL    HW230699   0.493   1.544   2.234
 9934SOL     OW30700   5.090   0.778   6.474
 9934SOL    HW130701   5.000   0.755   6.510
 9934SOL    HW230702   5.145   0.820   6.547
 9935SOL     OW30703   2.669   2.421   0.835
 9935SOL    HW130704   2.593   2.466   0.881
 9935SOL    HW230705   2.742   2.403   0.901
 9936SOL     OW30706   5.260   6.568   6.223
 9936SOL    HW130707   5.309   6.499   6.275
 9936SOL    HW230708   5.219   6.526   6.142
 9937SOL     OW30709   1.799   6.490   3.400
 9937SOL    HW130710   1.705   6.488   3.432
 9937SOL    HW230711   1.804   6.449   3.309
 9938SOL     OW30712   6.950   0.997   3.328
 9938SOL    HW130713   6.975   1.090   3.299
 9938SOL    HW230714   6.879   1.002   3.398
 9939SOL     OW30715   2.668   4.077   1.698
 9939SOL    HW130716   2.760   4.045   1.723
 9939SOL    HW230717   2.648   4.161   1.749
 9940SOL     OW30718   6.866   1.368   3.628
 9940SOL    HW130719   6.850   1.345   3.532
 9940SOL    HW230720   6.945   1.429   3.635
 9941SOL     OW30721   5.718   3.914   0.932
 9941SOL    HW130722   5.765   3.986   0.983
 9941SOL    HW230723   5.785   3.854   0.888
 9942SOL     OW30724   6.218   5.862   3.034
 9942SOL    HW130725   6.136   5.813   3.005
 9942SOL    HW230726   6.206   5.960   3.018
 9943SOL     OW30727   1.784   3.593   5.237
 9943SOL    HW130728   1.796   3.573   5.334
 9943SOL    HW230729   1.813   3.514   5.183
 9944SOL     OW30730   1.858   5.938   6.370
 9944SOL    HW130731   1.818   5.926   6.279
 9944SOL    HW230732   1.904   5.853   6.397
 9945SOL     OW30733   6.804   3.612   6.960
 9945SOL    HW130734   6.798   3.706   6.929
 9945SOL    HW230735   6.791   3.550   6.882
 9946SOL     OW30736   4.734   2.196   1.681
 9946SOL    HW130737   4.678   2.271   1.717
 9946SOL    HW230738   4.733   2.197   1.581
 9947SOL     OW30739   0.844   1.275   2.628
 9947SOL    HW130740   0.924   1.229   2.590
 9947SOL    HW230741   0.870   1.361   2.670
 9948SOL     OW30742   6.054   0.653   5.136
 9948SOL    HW130743   6.084   0.708   5.214
 9948SOL    HW230744   6.117   0.665   5.060
 9949SOL     OW30745   6.829   3.829   3.290
 9949SOL    HW130746   6.804   3.784   3.204
 9949SOL    HW230747   6.852   3.759   3.358
 9950SOL     OW30748   4.518   4.114   5.511
 9950SOL    HW130749   4.453   4.050   5.470
 9950SOL    HW230750   4.575   4.155   5.439
 9951SOL     OW30751   0.083   1.953   3.018
 9951SOL    HW130752   0.172   1.927   2.980
 9951SOL    HW230753   0.012   1.937   2.949
 9952SOL     OW30754   1.626   4.595   1.426
 9952SOL    HW130755   1.686   4.524   1.465
 9952SOL    HW230756   1.642   4.602   1.328
 9953SOL     OW30757   6.354   3.860   4.002
 9953SOL    HW130758   6.406   3.936   3.963
 9953SOL    HW230759   6.293   3.894   4.073
 9954SOL     OW30760   3.176   1.338   1.292
 9954SOL    HW130761   3.186   1.291   1.380
 9954SOL    HW230762   3.084   1.375   1.285
 9955SOL     OW30763   5.450   5.712   1.439
 9955SOL    HW130764   5.424   5.616   1.428
 9955SOL    HW230765   5.537   5.728   1.394
 9956SOL     OW30766   1.971   3.269   3.466
 9956SOL    HW130767   1.932   3.230   3.549
 9956SOL    HW230768   1.926   3.356   3.446
 9957SOL     OW30769   5.497   0.302   0.431
 9957SOL    HW130770   5.520   0.358   0.512
 9957SOL    HW230771   5.494   0.206   0.457
 9958SOL     OW30772   6.098   5.478   6.742
 9958SOL    HW130773   6.102   5.379   6.730
 9958SOL    HW230774   6.066   5.500   6.834
 9959SOL     OW30775   5.906   4.836   0.624
 9959SOL    HW130776   5.822   4.859   0.576
 9959SOL    HW230777   5.886   4.824   0.721
 9960SOL     OW30778   6.486   0.057   0.111
 9960SOL    HW130779   6.470   7.014   0.032
 9960SOL    HW230780   6.517   0.147   0.079
 9961SOL     OW30781   3.282   5.574   0.633
 9961SOL    HW130782   3.291   5.656   0.690
 9961SOL    HW230783   3.219   5.510   0.677
 9962SOL     OW30784   3.268   0.301   1.096
 9962SOL    HW130785   3.343   0.352   1.138
 9962SOL    HW230786   3.181   0.344   1.121
 9963SOL     OW30787   0.901   0.192   6.077
 9963SOL    HW130788   0.842   0.114   6.097
 9963SOL    HW230789   0.916   0.245   6.160
 9964SOL     OW30790   4.524   4.798   5.760
 9964SOL    HW130791   4.543   4.716   5.707
 9964SOL    HW230792   4.514   4.876   5.699
 9965SOL     OW30793   2.993   5.148   4.084
 9965SOL    HW130794   3.009   5.164   3.986
 9965SOL    HW230795   2.962   5.054   4.097
 9966SOL     OW30796   3.578   5.409   3.166
 9966SOL    HW130797   3.507   5.397   3.235
 9966SOL    HW230798   3.535   5.411   3.075
 9967SOL     OW30799   0.176   0.551   2.975
 9967SOL    HW130800   0.173   0.650   2.963
 9967SOL    HW230801   0.247   0.528   3.042
 9968SOL     OW30802   4.648   6.997   0.268
 9968SOL    HW130803   4.694   6.928   0.212
 9968SOL    HW230804   4.697   7.010   0.354
 9969SOL     OW30805   0.086   5.927   3.691
 9969SOL    HW130806   0.172   5.976   3.701
 9969SOL    HW230807   0.102   5.828   3.697
 9970SOL     OW30808   6.604   3.238   2.250
 9970SOL    HW130809   6.554   3.213   2.332
 9970SOL    HW230810   6.595   3.336   2.233
 9971SOL     OW30811   6.991   5.415   4.609
 9971SOL    HW130812   0.009   5.410   4.703
 9971SOL    HW230813   7.012   5.330   4.561
 9972SOL     OW30814   2.916   4.484   5.947
 9972SOL    HW130815   2.984   4.461   5.877
 9972SOL    HW230816   2.826   4.451   5.918
 9973SOL     OW30817   2.465   1.912   3.490
 9973SOL    HW130818   2.467   1.866   3.401
 9973SOL    HW230819   2.550   1.963   3.503
 9974SOL     OW30820   1.738   2.309   3.337
 9974SOL    HW130821   1.818   2.357   3.375
 9974SOL    HW230822   1.732   2.326   3.239
 9975SOL     OW30823   2.816   4.666   6.466
 9975SOL    HW130824   2.911   4.661   6.434
 9975SOL    HW230825   2.777   4.573   6.468
 9976SOL     OW30826   4.388   5.614   5.781
 9976SOL    HW130827   4.396   5.579   5.874
 9976SOL    HW230828   4.295   5.603   5.748
 9977SOL     OW30829   4.240   0.360   5.474
 9977SOL    HW130830   4.148   0.400   5.476
 9977SOL    HW230831   4.269   0.337   5.567
 9978SOL     OW30832   0.904   2.576   6.950
 9978SOL    HW130833   0.955   2.572   0.019
 9978SOL    HW230834   0.812   2.611   6.968
 9979SOL     OW30835   3.305   4.164   5.074
 9979SOL    HW130836   3.210   4.145   5.097
 9979SOL    HW230837   3.312   4.252   5.027
 9980SOL     OW30838   1.321   1.518   0.866
 9980SOL    HW130839   1.237   1.565   0.895
 9980SOL    HW230840   1.298   1.426   0.836
 9981SOL     OW30841   5.730   1.209   0.285
 9981SOL    HW130842   5.746   1.202   0.384
 9981SOL    HW230843   5.741   1.119   0.243
 9982SOL     OW30844   2.048   2.296   4.604
 9982SOL    HW130845   2.041   2.343   4.692
 9982SOL    HW230846   2.057   2.197   4.620
 9983SOL     OW30847   1.077   4.029   2.348
 9983SOL    HW130848   1.003   3.963   2.335
 9983SOL    HW230849   1.111   4.023   2.442
 9984SOL     OW30850   0.266   5.184   0.832
 9984SOL    HW130851   0.205   5.156   0.906
 9984SOL    HW230852   0.313   5.104   0.795
 9985SOL     OW30853   5.032   4.550   6.922
 9985SOL    HW130854   4.962   4.561   6.992
 9985SOL    HW230855   5.026   4.626   6.857
 9986SOL     OW30856   5.657   5.240   0.217
 9986SOL    HW130857   5.595   5.212   0.291
 9986SOL    HW230858   5.725   5.169   0.202
 9987SOL     OW30859   5.839   2.211   1.343
 9987SOL    HW130860   5.787   2.261   1.412
 9987SOL    HW230861   5.776   2.169   1.278
 9988SOL     OW30862   6.202   0.056   3.704
 9988SOL    HW130863   6.247   0.041   3.616
 9988SOL    HW230864   6.129   7.005   3.716
 9989SOL     OW30865   6.848   5.925   2.608
 9989SOL    HW130866   6.885   5.949   2.518
 9989SOL    HW230867   6.762   5.876   2.596
 9990SOL     OW30868   6.721   0.388   3.220
 9990SOL    HW130869   6.666   0.309   3.195
 9990SOL    HW230870   6.810   0.383   3.173
 9991SOL     OW30871   1.998   4.178   2.569
 9991SOL    HW130872   1.961   4.119   2.497
 9991SOL    HW230873   1.925   4.203   2.633
 9992SOL     OW30874   2.423   5.029   0.378
 9992SOL    HW130875   2.432   5.084   0.461
 9992SOL    HW230876   2.437   4.933   0.400
 9993SOL     OW30877   4.030   0.392   5.171
 9993SOL    HW130878   3.950   0.415   5.114
 9993SOL    HW230879   4.103   0.357   5.112
 9994SOL     OW30880   5.941   5.077   5.234
 9994SOL    HW130881   6.021   5.100   5.179
 9994SOL    HW230882   5.864   5.134   5.207
 9995SOL     OW30883   3.733   1.648   6.351
 9995SOL    HW130884   3.685   1.659   6.264
 9995SOL    HW230885   3.733   1.734   6.401
 9996SOL     OW30886   3.166   4.179   0.844
 9996SOL    HW130887   3.133   4.085   0.841
 9996SOL    HW230888   3.164   4.218   0.753
 9997SOL     OW30889   6.656   2.147   3.303
 9997SOL    HW130890   6.563   2.112   3.292
 9997SOL    HW230891   6.653   2.238   3.344
 9998SOL     OW30892   5.239   3.947   2.514
 9998SOL    HW130893   5.204   3.870   2.568
 9998SOL    HW230894   5.287   3.912   2.434
 9999SOL     OW30895   0.812   6.675   4.251
 9999SOL    HW130896   0.905   6.710   4.243
 9999SOL    HW230897   0.800   6.598   4.188
10000SOL     OW30898   4.402   2.282   1.132
10000SOL    HW130899   4.443   2.373   1.141
10000SOL    HW230900   4.303   2.292   1.123
10001SOL     OW30901   3.790   6.462   1.177
10001SOL    HW130902   3.756   6.530   1.112
10001SOL    HW230903   3.723   6.388   1.186
10002SOL     OW30904   2.636   0.126   1.888
10002SOL    HW130905   2.655   0.218   1.922
10002SOL    HW230906   2.699   0.061   1.931
10003SOL     OW30907   1.053   0.787   2.920
10003SOL    HW130908   1.065   0.815   2.824
10003SOL    HW230909   1.136   0.741   2.951
10004SOL     OW30910   0.102   4.817   4.503
10004SOL    HW130911   0.058   4.742   4.454
10004SOL    HW230912   0.162   4.867   4.440
10005SOL     OW30913   2.573   5.084   3.531
10005SOL    HW130914   2.594   5.048   3.441
10005SOL    HW230915   2.614   5.025   3.601
10006SOL     OW30916   5.298   0.980   5.244
10006SOL    HW130917   5.215   1.017   5.203
10006SOL    HW230918   5.344   0.920   5.179
10007SOL     OW30919   0.788   5.328   3.829
10007SOL    HW130920   0.718   5.283   3.886
10007SOL    HW230921   0.872   5.274   3.831
10008SOL     OW30922   3.819   1.499   5.884
10008SOL    HW130923   3.811   1.537   5.975
10008SOL    HW230924   3.792   1.567   5.816
10009SOL     OW30925   0.759   4.283   2.052
10009SOL    HW130926   0.680   4.242   2.007
10009SOL    HW230927   0.821   4.211   2.083
10010SOL     OW30928   2.325   4.195   1.164
10010SOL    HW130929   2.332   4.097   1.180
10010SOL    HW230930   2.380   4.244   1.231
10011SOL     OW30931   2.212   3.158   6.819
10011SOL    HW130932   2.294   3.215   6.813
10011SOL    HW230933   2.183   3.151   6.915
10012SOL     OW30934   5.494   2.065   3.096
10012SOL    HW130935   5.394   2.076   3.101
10012SOL    HW230936   5.527   2.026   3.182
10013SOL     OW30937   0.643   6.148   4.459
10013SOL    HW130938   0.661   6.246   4.471
10013SOL    HW230939   0.642   6.126   4.362
10014SOL     OW30940   0.887   0.954   2.526
10014SOL    HW130941   0.969   0.926   2.576
10014SOL    HW230942   0.806   0.934   2.581
10015SOL     OW30943   4.141   6.421   6.038
10015SOL    HW130944   4.079   6.362   6.090
10015SOL    HW230945   4.091   6.460   5.960
10016SOL     OW30946   2.723   0.770   4.176
10016SOL    HW130947   2.742   0.868   4.166
10016SOL    HW230948   2.797   0.717   4.135
10017SOL     OW30949   2.658   2.163   2.682
10017SOL    HW130950   2.697   2.183   2.592
10017SOL    HW230951   2.712   2.091   2.727
10018SOL     OW30952   6.760   4.110   4.897
10018SOL    HW130953   6.694   4.182   4.917
10018SOL    HW230954   6.846   4.129   4.944
10019SOL     OW30955   0.507   2.403   1.629
10019SOL    HW130956   0.476   2.310   1.609
10019SOL    HW230957   0.445   2.445   1.696
10020SOL     OW30958   6.518   1.391   1.847
10020SOL    HW130959   6.524   1.310   1.905
10020SOL    HW230960   6.586   1.384   1.773
10021SOL     OW30961   0.918   3.248   2.127
10021SOL    HW130962   0.944   3.296   2.211
10021SOL    HW230963   0.853   3.175   2.149
10022SOL     OW30964   1.571   5.226   5.931
10022SOL    HW130965   1.652   5.181   5.892
10022SOL    HW230966   1.491   5.205   5.875
10023SOL     OW30967   0.883   0.880   5.965
10023SOL    HW130968   0.882   0.980   5.974
10023SOL    HW230969   0.938   0.855   5.885
10024SOL     OW30970   1.204   4.907   2.875
10024SOL    HW130971   1.231   4.812   2.861
10024SOL    HW230972   1.242   4.964   2.803
10025SOL     OW30973   1.306   3.678   0.619
10025SOL    HW130974   1.305   3.588   0.663
10025SOL    HW230975   1.394   3.692   0.575
10026SOL     OW30976   5.366   1.523   4.860
10026SOL    HW130977   5.413   1.611   4.849
10026SOL    HW230978   5.271   1.532   4.830
10027SOL     OW30979   2.785   2.055   5.295
10027SOL    HW130980   2.821   2.136   5.341
10027SOL    HW230981   2.795   1.975   5.355
10028SOL     OW30982   4.332   0.047   1.565
10028SOL    HW130983   4.234   0.028   1.566
10028SOL    HW230984   4.349   0.133   1.518
10029SOL     OW30985   0.097   4.695   4.753
10029SOL    HW130986   0.070   4.758   4.825
10029SOL    HW230987   0.103   4.744   4.666
10030SOL     OW30988   2.464   0.263   4.370
10030SOL    HW130989   2.493   0.252   4.465
10030SOL    HW230990   2.501   0.349   4.334
10031SOL     OW30991   2.883   5.747   2.764
10031SOL    HW130992   2.846   5.826   2.812
10031SOL    HW230993   2.968   5.718   2.807
10032SOL     OW30994   3.107   6.336   4.950
10032SOL    HW130995   3.144   6.423   4.917
10032SOL    HW230996   3.111   6.268   4.877
10033SOL     OW30997   3.263   1.487   4.489
10033SOL    HW130998   3.292   1.396   4.517
10033SOL    HW230999   3.180   1.481   4.433
10034SOL     OW31000   2.644   1.070   3.211
10034SOL    HW131001   2.548   1.078   3.238
10034SOL    HW231002   2.660   1.125   3.130
10035SOL     OW31003   6.604   2.508   2.753
10035SOL    HW131004   6.653   2.535   2.669
10035SOL    HW231005   6.657   2.537   2.833
10036SOL     OW31006   0.787   1.105   0.199
10036SOL    HW131007   0.809   1.178   0.135
10036SOL    HW231008   0.871   1.072   0.242
10037SOL     OW31009   5.840   6.669   6.619
10037SOL    HW131010   5.926   6.653   6.668
10037SOL    HW231011   5.782   6.729   6.674
10038SOL     OW31012   4.169   6.586   6.263
10038SOL    HW131013   4.224   6.557   6.184
10038SOL    HW231014   4.230   6.613   6.338
10039SOL     OW31015   0.185   5.658   2.508
10039SOL    HW131016   0.257   5.645   2.575
10039SOL    HW231017   0.114   5.718   2.546
10040SOL     OW31018   2.948   6.968   1.337
10040SOL    HW131019   2.940   0.047   1.364
10040SOL    HW231020   2.952   6.961   1.237
10041SOL     OW31021   6.331   5.624   4.936
10041SOL    HW131022   6.401   5.677   4.889
10041SOL    HW231023   6.281   5.569   4.870
10042SOL     OW31024   0.024   0.523   5.101
10042SOL    HW131025   6.990   0.607   5.083
10042SOL    HW231026   0.062   0.488   5.015
10043SOL     OW31027   0.482   0.876   3.807
10043SOL    HW131028   0.454   0.793   3.856
10043SOL    HW231029   0.476   0.859   3.708
10044SOL     OW31030   3.015   1.611   6.403
10044SOL    HW131031   3.054   1.663   6.479
10044SOL    HW231032   3.089   1.579   6.344
10045SOL     OW31033   4.009   6.783   5.315
10045SOL    HW131034   4.076   6.722   5.271
10045SOL    HW231035   3.931   6.797   5.254
10046SOL     OW31036   0.183   2.704   1.626
10046SOL    HW131037   0.129   2.775   1.672
10046SOL    HW231038   0.265   2.684   1.681
10047SOL     OW31039   0.362   1.532   3.544
10047SOL    HW131040   0.378   1.437   3.569
10047SOL    HW231041   0.422   1.591   3.599
10048SOL     OW31042   3.699   2.559   1.657
10048SOL    HW131043   3.720   2.647   1.700
10048SOL    HW231044   3.698   2.488   1.727
10049SOL     OW31045   1.934   6.825   4.397
10049SOL    HW131046   1.907   6.769   4.319
10049SOL    HW231047   1.990   6.901   4.366
10050SOL     OW31048   5.226   2.283   3.892
10050SOL    HW131049   5.242   2.356   3.825
10050SOL    HW231050   5.284   2.204   3.871
10051SOL     OW31051   5.867   2.630   5.900
10051SOL    HW131052   5.819   2.708   5.860
10051SOL    HW231053   5.920   2.661   5.979
10052SOL     OW31054   1.164   3.997   1.187
10052SOL    HW131055   1.230   4.045   1.129
10052SOL    HW231056   1.209   3.965   1.270
10053SOL     OW31057   3.156   6.222   3.679
10053SOL    HW131058   3.150   6.193   3.775
10053SOL    HW231059   3.225   6.167   3.632
10054SOL     OW31060   3.759   5.519   4.024
10054SOL    HW131061   3.765   5.617   4.009
10054SOL    HW231062   3.668   5.497   4.059
10055SOL     OW31063   6.614   3.247   6.062
10055SOL    HW131064   6.674   3.303   6.006
10055SOL    HW231065   6.662   3.219   6.145
10056SOL     OW31066   6.634   5.190   1.728
10056SOL    HW131067   6.692   5.217   1.652
10056SOL    HW231068   6.692   5.156   1.803
10057SOL     OW31069   2.606   2.182   3.761
10057SOL    HW131070   2.695   2.223   3.742
10057SOL    HW231071   2.571   2.139   3.677
10058SOL     OW31072   0.477   5.400   3.590
10058SOL    HW131073   0.576   5.404   3.581
10058SOL    HW231074   0.434   5.443   3.510
10059SOL     OW31075   5.330   6.986   0.961
10059SOL    HW131076   5.277   6.926   0.901
10059SOL    HW231077   5.389   6.930   1.020
10060SOL     OW31078   2.195   2.666   1.717
10060SOL    HW131079   2.187   2.571   1.746
10060SOL    HW231080   2.272   2.709   1.764
10061SOL     OW31081   6.079   2.014   4.973
10061SOL    HW131082   5.986   2.046   4.993
10061SOL    HW231083   6.091   2.008   4.874
10062SOL     OW31084   6.188   6.130   2.935
10062SOL    HW131085   6.150   6.223   2.943
10062SOL    HW231086   6.273   6.134   2.883
10063SOL     OW31087   0.930   3.003   2.533
10063SOL    HW131088   0.986   3.039   2.458
10063SOL    HW231089   0.897   2.912   2.509
10064SOL     OW31090   5.831   6.390   4.725
10064SOL    HW131091   5.911   6.337   4.697
10064SOL    HW231092   5.771   6.332   4.780
10065SOL     OW31093   1.207   6.329   3.219
10065SOL    HW131094   1.293   6.380   3.211
10065SOL    HW231095   1.149   6.372   3.288
10066SOL     OW31096   0.807   0.593   3.878
10066SOL    HW131097   0.732   0.528   3.892
10066SOL    HW231098   0.830   0.596   3.781
10067SOL     OW31099   3.750   5.124   3.441
10067SOL    HW131100   3.702   5.079   3.366
10067SOL    HW231101   3.755   5.062   3.519
10068SOL     OW31102   5.062   3.666   5.390
10068SOL    HW131103   5.124   3.591   5.415
10068SOL    HW231104   5.082   3.746   5.446
10069SOL     OW31105   3.774   0.713   3.783
10069SOL    HW131106   3.685   0.736   3.824
10069SOL    HW231107   3.772   0.618   3.751
10070SOL     OW31108   1.070   6.540   4.692
10070SOL    HW131109   1.062   6.619   4.632
10070SOL    HW231110   1.031   6.460   4.647
10071SOL     OW31111   5.463   5.767   5.010
10071SOL    HW131112   5.401   5.780   5.087
10071SOL    HW231113   5.413   5.730   4.932
10072SOL     OW31114   1.280   0.177   3.166
10072SOL    HW131115   1.190   0.149   3.199
10072SOL    HW231116   1.337   0.096   3.152
10073SOL     OW31117   0.231   5.598   6.634
10073SOL    HW131118   0.288   5.536   6.687
10073SOL    HW231119   0.225   5.565   6.540
10074SOL     OW31120   2.096   6.640   5.447
10074SOL    HW131121   2.007   6.676   5.475
10074SOL    HW231122   2.157   6.636   5.526
10075SOL     OW31123   1.218   2.264   4.156
10075SOL    HW131124   1.167   2.217   4.084
10075SOL    HW231125   1.171   2.349   4.179
10076SOL     OW31126   5.373   0.524   4.756
10076SOL    HW131127   5.370   0.618   4.789
10076SOL    HW231128   5.447   0.474   4.802
10077SOL     OW31129   3.821   1.481   6.549
10077SOL    HW131130   3.769   1.526   6.476
10077SOL    HW231131   3.760   1.424   6.604
10078SOL     OW31132   5.746   6.562   5.778
10078SOL    HW131133   5.704   6.625   5.844
10078SOL    HW231134   5.811   6.503   5.826
10079SOL     OW31135   0.084   4.283   0.145
10079SOL    HW131136   0.089   4.289   0.245
10079SOL    HW231137   0.176   4.286   0.107
10080SOL     OW31138   1.750   3.060   6.093
10080SOL    HW131139   1.835   3.112   6.099
10080SOL    HW231140   1.708   3.054   6.184
10081SOL     OW31141   0.151   0.620   6.728
10081SOL    HW131142   0.251   0.617   6.727
10081SOL    HW231143   0.121   0.707   6.766
10082SOL     OW31144   6.540   0.969   1.465
10082SOL    HW131145   6.573   0.993   1.374
10082SOL    HW231146   6.599   1.012   1.534
10083SOL     OW31147   4.915   0.747   4.369
10083SOL    HW131148   4.876   0.837   4.386
10083SOL    HW231149   4.910   0.692   4.452
10084SOL     OW31150   2.603   1.283   6.186
10084SOL    HW131151   2.683   1.227   6.169
10084SOL    HW231152   2.531   1.259   6.122
10085SOL     OW31153   0.613   5.227   2.795
10085SOL    HW131154   0.572   5.148   2.840
10085SOL    HW231155   0.541   5.292   2.770
10086SOL     OW31156   6.313   3.704   2.010
10086SOL    HW131157   6.357   3.662   2.090
10086SOL    HW231158   6.215   3.684   2.012
10087SOL     OW31159   1.430   6.942   4.135
10087SOL    HW131160   1.390   6.865   4.087
10087SOL    HW231161   1.380   6.958   4.220
10088SOL     OW31162   0.526   0.113   4.581
10088SOL    HW131163   0.428   0.124   4.594
10088SOL    HW231164   0.542   0.057   4.499
10089SOL     OW31165   1.392   3.424   2.075
10089SOL    HW131166   1.424   3.398   1.984
10089SOL    HW231167   1.442   3.505   2.106
10090SOL     OW31168   0.417   4.883   0.399
10090SOL    HW131169   0.472   4.966   0.396
10090SOL    HW231170   0.468   4.810   0.444
10091SOL     OW31171   0.701   2.496   4.260
10091SOL    HW131172   0.778   2.551   4.227
10091SOL    HW231173   0.734   2.428   4.326
10092SOL     OW31174   1.958   4.387   5.158
10092SOL    HW131175   1.978   4.298   5.116
10092SOL    HW231176   2.043   4.426   5.195
10093SOL     OW31177   6.904   4.723   6.464
10093SOL    HW131178   6.818   4.769   6.486
10093SOL    HW231179   6.905   4.699   6.367
10094SOL     OW31180   1.564   1.251   1.779
10094SOL    HW131181   1.526   1.158   1.782
10094SOL    HW231182   1.638   1.255   1.712
10095SOL     OW31183   6.791   0.648   6.118
10095SOL    HW131184   6.812   0.669   6.022
10095SOL    HW231185   6.875   0.653   6.172
10096SOL     OW31186   0.445   5.030   2.446
10096SOL    HW131187   0.525   5.068   2.494
10096SOL    HW231188   0.420   5.091   2.371
10097SOL     OW31189   1.087   1.580   6.717
10097SOL    HW131190   1.043   1.600   6.804
10097SOL    HW231191   1.175   1.626   6.713
10098SOL     OW31192   2.959   4.973   6.442
10098SOL    HW131193   2.860   4.985   6.433
10098SOL    HW231194   3.005   5.061   6.433
10099SOL     OW31195   6.831   4.842   4.608
10099SOL    HW131196   6.920   4.886   4.594
10099SOL    HW231197   6.835   4.785   4.690
10100SOL     OW31198   5.445   1.224   5.284
10100SOL    HW131199   5.513   1.182   5.344
10100SOL    HW231200   5.389   1.153   5.242
10101SOL     OW31201   0.160   4.520   1.992
10101SOL    HW131202   0.222   4.492   2.066
10101SOL    HW231203   0.104   4.596   2.023
10102SOL     OW31204   3.018   1.240   2.906
10102SOL    HW131205   2.957   1.296   2.962
10102SOL    HW231206   3.006   1.265   2.810
10103SOL     OW31207   2.679   2.183   6.805
10103SOL    HW131208   2.762   2.220   6.764
10103SOL    HW231209   2.665   2.224   6.895
10104SOL     OW31210   1.427   6.283   5.162
10104SOL    HW131211   1.479   6.234   5.232
10104SOL    HW231212   1.365   6.348   5.207
10105SOL     OW31213   2.305   0.788   6.418
10105SOL    HW131214   2.375   0.767   6.350
10105SOL    HW231215   2.347   0.834   6.496
10106SOL     OW31216   5.415   5.752   0.288
10106SOL    HW131217   5.432   5.744   0.386
10106SOL    HW231218   5.498   5.783   0.242
10107SOL     OW31219   5.728   1.320   5.732
10107SOL    HW131220   5.672   1.282   5.806
10107SOL    HW231221   5.780   1.399   5.766
10108SOL     OW31222   6.323   6.510   0.474
10108SOL    HW131223   6.354   6.541   0.384
10108SOL    HW231224   6.382   6.548   0.544
10109SOL     OW31225   5.141   5.053   3.157
10109SOL    HW131226   5.206   5.080   3.085
10109SOL    HW231227   5.164   5.101   3.241
10110SOL     OW31228   3.082   0.903   5.692
10110SOL    HW131229   3.039   0.823   5.733
10110SOL    HW231230   3.174   0.914   5.729
10111SOL     OW31231   0.623   2.288   3.058
10111SOL    HW131232   0.700   2.344   3.091
10111SOL    HW231233   0.615   2.297   2.959
10112SOL     OW31234   4.444   3.890   5.744
10112SOL    HW131235   4.387   3.931   5.673
10112SOL    HW231236   4.525   3.849   5.701
10113SOL     OW31237   3.840   6.495   6.721
10113SOL    HW131238   3.903   6.419   6.704
10113SOL    HW231239   3.777   6.504   6.643
10114SOL     OW31240   4.342   1.048   1.381
10114SOL    HW131241   4.257   0.996   1.394
10114SOL    HW231242   4.349   1.077   1.286
10115SOL     OW31243   1.422   1.874   3.796
10115SOL    HW131244   1.394   1.861   3.891
10115SOL    HW231245   1.364   1.942   3.753
10116SOL     OW31246   1.408   1.170   1.083
10116SOL    HW131247   1.348   1.156   1.162
10116SOL    HW231248   1.472   1.094   1.076
10117SOL     OW31249   4.785   0.734   5.597
10117SOL    HW131250   4.700   0.683   5.607
10117SOL    HW231251   4.772   0.827   5.633
10118SOL     OW31252   6.778   5.350   1.988
10118SOL    HW131253   6.845   5.365   2.060
10118SOL    HW231254   6.758   5.253   1.980
10119SOL     OW31255   2.359   1.165   5.986
10119SOL    HW131256   2.443   1.129   5.945
10119SOL    HW231257   2.317   1.094   6.043
10120SOL     OW31258   6.819   2.951   3.493
10120SOL    HW131259   6.825   2.935   3.592
10120SOL    HW231260   6.749   2.890   3.454
10121SOL     OW31261   6.744   4.778   4.985
10121SOL    HW131262   6.832   4.823   4.970
10121SOL    HW231263   6.722   4.778   5.082
10122SOL     OW31264   5.180   3.441   0.357
10122SOL    HW131265   5.163   3.540   0.353
10122SOL    HW231266   5.170   3.401   0.266
10123SOL     OW31267   0.219   6.802   0.376
10123SOL    HW131268   0.130   6.846   0.391
10123SOL    HW231269   0.208   6.725   0.313
10124SOL     OW31270   3.334   4.335   0.473
10124SOL    HW131271   3.294   4.352   0.562
10124SOL    HW231272   3.263   4.304   0.409
10125SOL     OW31273   1.348   0.022   1.592
10125SOL    HW131274   1.361   7.017   1.689
10125SOL    HW231275   1.388   0.112   1.573
10126SOL     OW31276   6.353   5.410   0.782
10126SOL    HW131277   6.442   5.365   0.777
10126SOL    HW231278   6.296   5.364   0.850
10127SOL     OW31279   3.696   5.128   5.214
10127SOL    HW131280   3.662   5.208   5.165
10127SOL    HW231281   3.665   5.131   5.309
10128SOL     OW31282   0.189   2.061   0.908
10128SOL    HW131283   0.143   2.137   0.861
10128SOL    HW231284   0.283   2.053   0.873
10129SOL     OW31285   5.761   2.243   3.269
10129SOL    HW131286   5.675   2.191   3.275
10129SOL    HW231287   5.756   2.322   3.329
10130SOL     OW31288   6.350   5.233   1.683
10130SOL    HW131289   6.344   5.317   1.630
10130SOL    HW231290   6.445   5.203   1.688
10131SOL     OW31291   0.447   1.082   0.806
10131SOL    HW131292   0.444   1.047   0.712
10131SOL    HW231293   0.436   1.007   0.871
10132SOL     OW31294   3.237   0.059   2.499
10132SOL    HW131295   3.196   0.002   2.571
10132SOL    HW231296   3.169   0.077   2.429
10133SOL     OW31297   5.126   5.402   3.458
10133SOL    HW131298   5.036   5.420   3.499
10133SOL    HW231299   5.145   5.471   3.388
10134SOL     OW31300   7.015   1.440   3.042
10134SOL    HW131301   0.092   1.416   3.020
10134SOL    HW231302   7.012   1.528   3.090
10135SOL     OW31303   4.391   4.989   3.409
10135SOL    HW131304   4.409   5.016   3.504
10135SOL    HW231305   4.427   4.897   3.393
10136SOL     OW31306   5.893   6.730   3.162
10136SOL    HW131307   5.905   6.810   3.103
10136SOL    HW231308   5.804   6.688   3.144
10137SOL     OW31309   6.206   4.821   4.136
10137SOL    HW131310   6.146   4.901   4.150
10137SOL    HW231311   6.158   4.739   4.166
10138SOL     OW31312   5.465   2.351   6.259
10138SOL    HW131313   5.550   2.305   6.233
10138SOL    HW231314   5.414   2.375   6.176
10139SOL     OW31315   4.009   3.321   3.167
10139SOL    HW131316   3.991   3.252   3.097
10139SOL    HW231317   4.090   3.374   3.141
10140SOL     OW31318   0.538   4.810   6.315
10140SOL    HW131319   0.491   4.732   6.272
10140SOL    HW231320   0.615   4.776   6.369
10141SOL     OW31321   1.567   0.625   3.671
10141SOL    HW131322   1.666   0.624   3.655
10141SOL    HW231323   1.547   0.583   3.760
10142SOL     OW31324   4.575   5.886   4.750
10142SOL    HW131325   4.645   5.944   4.708
10142SOL    HW231326   4.618   5.812   4.801
10143SOL     OW31327   4.553   6.814   1.168
10143SOL    HW131328   4.461   6.836   1.136
10143SOL    HW231329   4.620   6.844   1.100
10144SOL     OW31330   3.095   5.481   3.794
10144SOL    HW131331   3.064   5.387   3.813
10144SOL    HW231332   3.098   5.495   3.695
10145SOL     OW31333   2.800   6.501   5.822
10145SOL    HW131334   2.777   6.406   5.843
10145SOL    HW231335   2.860   6.504   5.742
10146SOL     OW31336   4.822   5.021   4.276
10146SOL    HW131337   4.899   5.019   4.212
10146SOL    HW231338   4.747   4.965   4.239
10147SOL     OW31339   4.629   4.972   4.969
10147SOL    HW131340   4.715   5.024   4.975
10147SOL    HW231341   4.646   4.884   4.924
10148SOL     OW31342   5.294   5.796   0.796
10148SOL    HW131343   5.344   5.762   0.717
10148SOL    HW231344   5.354   5.854   0.852
10149SOL     OW31345   4.327   2.747   1.040
10149SOL    HW131346   4.312   2.806   1.119
10149SOL    HW231347   4.330   2.803   0.957
10150SOL     OW31348   4.709   4.556   1.405
10150SOL    HW131349   4.781   4.533   1.470
10150SOL    HW231350   4.632   4.493   1.417
10151SOL     OW31351   1.958   0.466   5.586
10151SOL    HW131352   1.876   0.461   5.529
10151SOL    HW231353   2.018   0.538   5.551
10152SOL     OW31354   0.135   5.647   3.695
10152SOL    HW131355   0.060   5.646   3.761
10152SOL    HW231356   0.148   5.555   3.657
10153SOL     OW31357   5.414   6.320   4.432
10153SOL    HW131358   5.379   6.404   4.474
10153SOL    HW231359   5.486   6.282   4.490
10154SOL     OW31360   6.883   5.114   6.168
10154SOL    HW131361   6.853   5.022   6.142
10154SOL    HW231362   6.806   5.165   6.205
10155SOL     OW31363   3.719   1.046   6.019
10155SOL    HW131364   3.784   1.113   5.984
10155SOL    HW231365   3.668   1.086   6.095
10156SOL     OW31366   5.986   0.587   2.252
10156SOL    HW131367   5.890   0.614   2.254
10156SOL    HW231368   6.031   0.617   2.336
10157SOL     OW31369   5.664   0.771   6.146
10157SOL    HW131370   5.689   0.697   6.083
10157SOL    HW231371   5.745   0.799   6.198
10158SOL     OW31372   4.263   3.476   6.839
10158SOL    HW131373   4.172   3.516   6.856
10158SOL    HW231374   4.252   3.386   6.797
10159SOL     OW31375   1.137   1.489   6.005
10159SOL    HW131376   1.141   1.588   5.994
10159SOL    HW231377   1.097   1.448   5.923
10160SOL     OW31378   0.340   6.054   3.648
10160SOL    HW131379   0.430   6.010   3.650
10160SOL    HW231380   0.342   6.130   3.584
10161SOL     OW31381   3.032   5.564   5.839
10161SOL    HW131382   3.062   5.468   5.835
10161SOL    HW231383   2.993   5.590   5.751
10162SOL     OW31384   3.146   1.774   6.618
10162SOL    HW131385   3.078   1.838   6.654
10162SOL    HW231386   3.215   1.823   6.566
10163SOL     OW31387   5.767   3.591   5.630
10163SOL    HW131388   5.685   3.647   5.619
10163SOL    HW231389   5.843   3.649   5.658
10164SOL     OW31390   0.029   2.611   4.854
10164SOL    HW131391   0.013   2.710   4.856
10164SOL    HW231392   6.976   2.565   4.910
10165SOL     OW31393   0.344   2.005   3.845
10165SOL    HW131394   0.349   1.962   3.935
10165SOL    HW231395   0.249   2.027   3.824
10166SOL     OW31396   1.889   0.937   2.269
10166SOL    HW131397   1.961   0.998   2.234
10166SOL    HW231398   1.923   0.843   2.270
10167SOL     OW31399   4.911   0.259   0.170
10167SOL    HW131400   4.828   0.285   0.121
10167SOL    HW231401   4.987   0.317   0.142
10168SOL     OW31402   0.018   4.001   4.011
10168SOL    HW131403   6.984   3.968   4.091
10168SOL    HW231404   6.972   4.049   3.950
10169SOL     OW31405   6.452   3.964   4.298
10169SOL    HW131406   6.462   4.058   4.266
10169SOL    HW231407   6.355   3.941   4.305
10170SOL     OW31408   1.745   4.402   5.007
10170SOL    HW131409   1.767   4.347   4.927
10170SOL    HW231410   1.822   4.402   5.070
10171SOL     OW31411   6.373   4.317   6.255
10171SOL    HW131412   6.453   4.371   6.228
10171SOL    HW231413   6.366   4.236   6.196
10172SOL     OW31414   5.308   0.632   2.509
10172SOL    HW131415   5.294   0.533   2.503
10172SOL    HW231416   5.231   0.680   2.467
10173SOL     OW31417   2.146   1.663   2.101
10173SOL    HW131418   2.202   1.745   2.110
10173SOL    HW231419   2.203   1.585   2.078
10174SOL     OW31420   6.975   4.747   2.446
10174SOL    HW131421   6.925   4.662   2.463
10174SOL    HW231422   0.057   4.730   2.452
10175SOL     OW31423   5.994   2.651   5.421
10175SOL    HW131424   5.977   2.748   5.434
10175SOL    HW231425   5.966   2.624   5.329
10176SOL     OW31426   2.081   3.811   7.015
10176SOL    HW131427   2.171   3.838   6.981
10176SOL    HW231428   2.010   3.853   6.959
10177SOL     OW31429   2.589   6.519   6.834
10177SOL    HW131430   2.621   6.432   6.796
10177SOL    HW231431   2.629   6.594   6.783
10178SOL     OW31432   5.673   2.592   4.644
10178SOL    HW131433   5.742   2.591   4.716
10178SOL    HW231434   5.704   2.536   4.568
10179SOL     OW31435   1.330   2.880   6.264
10179SOL    HW131436   1.308   2.782   6.261
10179SOL    HW231437   1.261   2.928   6.317
10180SOL     OW31438   2.725   5.723   5.783
10180SOL    HW131439   2.690   5.631   5.763
10180SOL    HW231440   2.728   5.777   5.699
10181SOL     OW31441   5.536   3.374   1.570
10181SOL    HW131442   5.543   3.473   1.571
10181SOL    HW231443   5.580   3.338   1.487
10182SOL     OW31444   5.941   1.292   1.145
10182SOL    HW131445   5.983   1.339   1.223
10182SOL    HW231446   6.010   1.236   1.100
10183SOL     OW31447   1.738   2.069   6.647
10183SOL    HW131448   1.753   2.079   6.548
10183SOL    HW231449   1.662   2.128   6.675
10184SOL     OW31450   4.124   1.139   5.636
10184SOL    HW131451   4.042   1.091   5.603
10184SOL    HW231452   4.206   1.094   5.600
10185SOL     OW31453   4.753   6.847   0.907
10185SOL    HW131454   4.710   6.757   0.900
10185SOL    HW231455   4.835   6.840   0.963
10186SOL     OW31456   4.511   2.113   2.866
10186SOL    HW131457   4.605   2.144   2.854
10186SOL    HW231458   4.453   2.191   2.892
10187SOL     OW31459   0.747   2.333   1.779
10187SOL    HW131460   0.665   2.365   1.731
10187SOL    HW231461   0.725   2.250   1.831
10188SOL     OW31462   4.049   5.984   0.794
10188SOL    HW131463   3.975   6.032   0.746
10188SOL    HW231464   4.128   5.975   0.733
10189SOL     OW31465   1.559   6.790   5.226
10189SOL    HW131466   1.607   6.877   5.231
10189SOL    HW231467   1.614   6.719   5.269
10190SOL     OW31468   5.078   2.519   0.211
10190SOL    HW131469   4.999   2.466   0.181
10190SOL    HW231470   5.048   2.606   0.250
10191SOL     OW31471   6.408   4.361   0.557
10191SOL    HW131472   6.416   4.384   0.654
10191SOL    HW231473   6.314   4.376   0.527
10192SOL     OW31474   3.336   0.976   5.737
10192SOL    HW131475   3.321   1.074   5.727
10192SOL    HW231476   3.420   0.960   5.788
10193SOL     OW31477   4.942   3.809   0.488
10193SOL    HW131478   4.844   3.826   0.481
10193SOL    HW231479   4.981   3.869   0.558
10194SOL     OW31480   5.347   3.532   5.384
10194SOL    HW131481   5.291   3.485   5.316
10194SOL    HW231482   5.413   3.467   5.423
10195SOL     OW31483   6.856   4.259   1.802
10195SOL    HW131484   6.844   4.265   1.703
10195SOL    HW231485   6.952   4.274   1.825
10196SOL     OW31486   0.228   1.884   4.340
10196SOL    HW131487   0.200   1.980   4.333
10196SOL    HW231488   0.266   1.867   4.431
10197SOL     OW31489   5.718   0.534   5.983
10197SOL    HW131490   5.816   0.553   5.968
10197SOL    HW231491   5.703   0.435   5.983
10198SOL     OW31492   4.205   6.750   2.929
10198SOL    HW131493   4.299   6.717   2.944
10198SOL    HW231494   4.177   6.728   2.835
10199SOL     OW31495   1.571   2.554   5.219
10199SOL    HW131496   1.491   2.580   5.272
10199SOL    HW231497   1.547   2.551   5.122
10200SOL     OW31498   5.806   3.453   1.601
10200SOL    HW131499   5.707   3.441   1.611
10200SOL    HW231500   5.854   3.380   1.649
10201SOL     OW31501   1.369   3.277   0.511
10201SOL    HW131502   1.458   3.281   0.466
10201SOL    HW231503   1.301   3.326   0.455
10202SOL     OW31504   3.422   0.625   5.523
10202SOL    HW131505   3.398   0.626   5.620
10202SOL    HW231506   3.346   0.587   5.470
10203SOL     OW31507   6.398   2.665   4.590
10203SOL    HW131508   6.385   2.585   4.532
10203SOL    HW231509   6.452   2.734   4.541
10204SOL     OW31510   5.330   6.584   6.712
10204SOL    HW131511   5.370   6.510   6.766
10204SOL    HW231512   5.353   6.571   6.616
10205SOL     OW31513   0.829   0.704   6.195
10205SOL    HW131514   0.825   0.750   6.283
10205SOL    HW231515   0.869   0.765   6.126
10206SOL     OW31516   1.206   0.957   5.236
10206SOL    HW131517   1.189   0.862   5.207
10206SOL    HW231518   1.282   0.994   5.184
10207SOL     OW31519   1.253   2.004   5.300
10207SOL    HW131520   1.232   2.015   5.203
10207SOL    HW231521   1.275   2.093   5.339
10208SOL     OW31522   6.771   4.968   5.852
10208SOL    HW131523   6.865   4.964   5.819
10208SOL    HW231524   6.749   5.062   5.878
10209SOL     OW31525   6.645   6.697   6.417
10209SOL    HW131526   6.646   6.607   6.373
10209SOL    HW231527   6.608   6.765   6.354
10210SOL     OW31528   3.896   6.399   2.034
10210SOL    HW131529   3.955   6.480   2.023
10210SOL    HW231530   3.841   6.410   2.117
10211SOL     OW31531   4.696   5.894   5.508
10211SOL    HW131532   4.672   5.948   5.427
10211SOL    HW231533   4.776   5.838   5.488
10212SOL     OW31534   0.672   0.538   6.031
10212SOL    HW131535   0.623   0.486   6.100
10212SOL    HW231536   0.729   0.607   6.075
10213SOL     OW31537   5.738   1.450   0.728
10213SOL    HW131538   5.698   1.538   0.703
10213SOL    HW231539   5.835   1.462   0.750
10214SOL     OW31540   0.775   2.690   0.861
10214SOL    HW131541   0.814   2.598   0.869
10214SOL    HW231542   0.682   2.683   0.825
10215SOL     OW31543   3.277   3.436   2.101
10215SOL    HW131544   3.339   3.372   2.146
10215SOL    HW231545   3.239   3.499   2.169
10216SOL     OW31546   6.510   6.806   2.875
10216SOL    HW131547   6.492   6.901   2.850
10216SOL    HW231548   6.601   6.799   2.916
10217SOL     OW31549   3.560   0.872   3.897
10217SOL    HW131550   3.469   0.910   3.912
10217SOL    HW231551   3.627   0.946   3.892
10218SOL     OW31552   1.387   2.545   2.291
10218SOL    HW131553   1.460   2.611   2.277
10218SOL    HW231554   1.309   2.568   2.234
10219SOL     OW31555   0.023   0.230   2.680
10219SOL    HW131556   0.058   0.159   2.618
10219SOL    HW231557   0.100   0.281   2.718
10220SOL     OW31558   3.418   2.728   1.538
10220SOL    HW131559   3.473   2.731   1.622
10220SOL    HW231560   3.476   2.698   1.462
10221SOL     OW31561   0.651   5.879   3.979
10221SOL    HW131562   0.703   5.793   3.976
10221SOL    HW231563   0.682   5.939   3.905
10222SOL     OW31564   2.904   3.583   4.214
10222SOL    HW131565   2.967   3.508   4.192
10222SOL    HW231566   2.895   3.591   4.313
10223SOL     OW31567   0.275   5.605   1.668
10223SOL    HW131568   0.179   5.611   1.698
10223SOL    HW231569   0.287   5.658   1.584
10224SOL     OW31570   5.666   4.046   3.289
10224SOL    HW131571   5.578   4.093   3.292
10224SOL    HW231572   5.728   4.086   3.357
10225SOL     OW31573   2.194   3.769   5.831
10225SOL    HW131574   2.197   3.868   5.843
10225SOL    HW231575   2.196   3.724   5.920
10226SOL     OW31576   4.656   2.467   6.846
10226SOL    HW131577   4.650   2.380   6.796
10226SOL    HW231578   4.565   2.495   6.875
10227SOL     OW31579   5.348   3.838   1.294
10227SOL    HW131580   5.285   3.892   1.350
10227SOL    HW231581   5.394   3.770   1.352
10228SOL     OW31582   5.514   0.652   1.270
10228SOL    HW131583   5.416   0.658   1.288
10228SOL    HW231584   5.533   0.684   1.177
10229SOL     OW31585   6.498   3.343   4.662
10229SOL    HW131586   6.590   3.338   4.623
10229SOL    HW231587   6.491   3.425   4.719
10230SOL     OW31588   0.246   6.198   2.557
10230SOL    HW131589   0.242   6.102   2.586
10230SOL    HW231590   0.198   6.209   2.470
10231SOL     OW31591   1.293   5.197   2.878
10231SOL    HW131592   1.205   5.207   2.832
10231SOL    HW231593   1.287   5.234   2.971
10232SOL     OW31594   5.088   4.755   3.822
10232SOL    HW131595   5.127   4.833   3.772
10232SOL    HW231596   5.075   4.780   3.918
10233SOL     OW31597   3.779   4.156   5.936
10233SOL    HW131598   3.688   4.128   5.905
10233SOL    HW231599   3.771   4.234   5.998
10234SOL     OW31600   0.630   1.490   1.802
10234SOL    HW131601   0.712   1.464   1.750
10234SOL    HW231602   0.555   1.429   1.778
10235SOL     OW31603   1.477   0.934   2.706
10235SOL    HW131604   1.452   0.946   2.802
10235SOL    HW231605   1.573   0.905   2.700
10236SOL     OW31606   2.580   6.614   1.723
10236SOL    HW131607   2.529   6.628   1.638
10236SOL    HW231608   2.665   6.666   1.719
10237SOL     OW31609   0.414   3.229   5.902
10237SOL    HW131610   0.418   3.142   5.852
10237SOL    HW231611   0.501   3.277   5.893
10238SOL     OW31612   3.454   6.922   1.563
10238SOL    HW131613   3.376   6.877   1.521
10238SOL    HW231614   3.536   6.866   1.549
10239SOL     OW31615   1.081   2.601   4.382
10239SOL    HW131616   1.122   2.668   4.321
10239SOL    HW231617   1.144   2.524   4.394
10240SOL     OW31618   2.331   6.496   0.804
10240SOL    HW131619   2.290   6.578   0.764
10240SOL    HW231620   2.351   6.512   0.901
10241SOL     OW31621   4.009   2.512   1.715
10241SOL    HW131622   3.941   2.546   1.650
10241SOL    HW231623   3.979   2.424   1.752
10242SOL     OW31624   6.401   2.936   6.618
10242SOL    HW131625   6.474   2.873   6.593
10242SOL    HW231626   6.369   2.915   6.711
10243SOL     OW31627   2.681   5.445   1.218
10243SOL    HW131628   2.767   5.400   1.246
10243SOL    HW231629   2.681   5.456   1.119
10244SOL     OW31630   2.885   4.238   1.474
10244SOL    HW131631   2.920   4.272   1.561
10244SOL    HW231632   2.833   4.311   1.428
10245SOL     OW31633   4.698   3.885   0.691
10245SOL    HW131634   4.631   3.844   0.753
10245SOL    HW231635   4.664   3.881   0.597
10246SOL     OW31636   3.251   3.002   4.133
10246SOL    HW131637   3.201   2.961   4.209
10246SOL    HW231638   3.310   3.075   4.169
10247SOL     OW31639   0.550   2.892   4.495
10247SOL    HW131640   0.638   2.882   4.448
10247SOL    HW231641   0.542   2.822   4.566
10248SOL     OW31642   1.348   0.492   3.562
10248SOL    HW131643   1.328   0.581   3.520
10248SOL    HW231644   1.438   0.496   3.607
10249SOL     OW31645   2.862   5.465   6.464
10249SOL    HW131646   2.868   5.439   6.368
10249SOL    HW231647   2.919   5.403   6.518
10250SOL     OW31648   4.141   2.311   1.145
10250SOL    HW131649   4.124   2.393   1.092
10250SOL    HW231650   4.114   2.326   1.240
10251SOL     OW31651   1.748   0.474   4.355
10251SOL    HW131652   1.657   0.443   4.384
10251SOL    HW231653   1.816   0.448   4.424
10252SOL     OW31654   5.869   4.307   6.328
10252SOL    HW131655   5.944   4.362   6.288
10252SOL    HW231656   5.895   4.210   6.326
10253SOL     OW31657   3.430   6.316   6.115
10253SOL    HW131658   3.390   6.388   6.173
10253SOL    HW231659   3.429   6.230   6.165
10254SOL     OW31660   5.791   0.865   5.607
10254SOL    HW131661   5.874   0.837   5.559
10254SOL    HW231662   5.737   0.785   5.630
10255SOL     OW31663   3.872   4.675   1.690
10255SOL    HW131664   3.879   4.672   1.790
10255SOL    HW231665   3.949   4.626   1.649
10256SOL     OW31666   3.772   1.495   2.930
10256SOL    HW131667   3.740   1.418   2.985
10256SOL    HW231668   3.715   1.575   2.947
10257SOL     OW31669   3.873   5.093   2.876
10257SOL    HW131670   3.786   5.046   2.863
10257SOL    HW231671   3.893   5.100   2.974
10258SOL     OW31672   2.049   1.081   2.112
10258SOL    HW131673   2.012   1.040   2.029
10258SOL    HW231674   2.143   1.112   2.096
10259SOL     OW31675   1.676   4.425   3.750
10259SOL    HW131676   1.723   4.430   3.838
10259SOL    HW231677   1.641   4.333   3.736
10260SOL     OW31678   1.072   0.398   3.820
10260SOL    HW131679   1.007   0.357   3.756
10260SOL    HW231680   1.028   0.476   3.865
10261SOL     OW31681   6.789   3.787   1.043
10261SOL    HW131682   6.702   3.796   1.093
10261SOL    HW231683   6.827   3.697   1.059
10262SOL     OW31684   4.345   1.404   0.721
10262SOL    HW131685   4.274   1.469   0.696
10262SOL    HW231686   4.434   1.442   0.699
10263SOL     OW31687   6.180   0.721   2.008
10263SOL    HW131688   6.188   0.660   2.086
10263SOL    HW231689   6.105   0.691   1.950
10264SOL     OW31690   0.126   6.215   6.537
10264SOL    HW131691   0.032   6.246   6.549
10264SOL    HW231692   0.147   6.145   6.605
10265SOL     OW31693   2.003   1.617   0.755
10265SOL    HW131694   2.066   1.575   0.820
10265SOL    HW231695   1.974   1.549   0.688
10266SOL     OW31696   2.646   3.555   1.762
10266SOL    HW131697   2.551   3.551   1.793
10266SOL    HW231698   2.674   3.650   1.750
10267SOL     OW31699   5.835   1.113   1.341
10267SOL    HW131700   5.866   1.187   1.281
10267SOL    HW231701   5.745   1.082   1.312
10268SOL     OW31702   3.862   0.199   1.399
10268SOL    HW131703   3.909   0.178   1.485
10268SOL    HW231704   3.926   0.238   1.334
10269SOL     OW31705   2.913   2.281   0.504
10269SOL    HW131706   2.887   2.253   0.412
10269SOL    HW231707   2.860   2.230   0.571
10270SOL     OW31708   2.915   7.004   2.345
10270SOL    HW131709   2.929   0.084   2.362
10270SOL    HW231710   2.830   6.974   2.389
10271SOL     OW31711   1.317   1.967   6.827
10271SOL    HW131712   1.321   1.938   6.732
10271SOL    HW231713   1.404   2.009   6.853
10272SOL     OW31714   6.253   0.212   4.483
10272SOL    HW131715   6.288   0.197   4.575
10272SOL    HW231716   6.156   0.234   4.487
10273SOL     OW31717   2.414   5.372   3.210
10273SOL    HW131718   2.350   5.449   3.217
10273SOL    HW231719   2.484   5.392   3.141
10274SOL     OW31720   1.014   4.908   5.471
10274SOL    HW131721   1.077   4.926   5.546
10274SOL    HW231722   1.035   4.969   5.394
10275SOL     OW31723   0.146   0.037   2.524
10275SOL    HW131724   0.093   0.097   2.463
10275SOL    HW231725   0.230   0.009   2.477
10276SOL     OW31726   3.322   5.490   5.577
10276SOL    HW131727   3.268   5.415   5.616
10276SOL    HW231728   3.411   5.494   5.623
10277SOL     OW31729   0.384   6.327   4.406
10277SOL    HW131730   0.452   6.320   4.478
10277SOL    HW231731   0.323   6.248   4.410
10278SOL     OW31732   6.714   0.730   4.853
10278SOL    HW131733   6.802   0.773   4.876
10278SOL    HW231734   6.641   0.797   4.859
10279SOL     OW31735   2.250   6.054   4.266
10279SOL    HW131736   2.277   5.965   4.302
10279SOL    HW231737   2.321   6.088   4.204
10280SOL     OW31738   6.324   4.081   0.873
10280SOL    HW131739   6.365   4.078   0.781
10280SOL    HW231740   6.287   4.172   0.889
10281SOL     OW31741   6.960   1.953   3.412
10281SOL    HW131742   6.925   1.864   3.384
10281SOL    HW231743   6.945   2.020   3.338
10282SOL     OW31744   4.956   3.415   3.455
10282SOL    HW131745   4.941   3.493   3.394
10282SOL    HW231746   4.957   3.446   3.550
10283SOL     OW31747   0.739   3.082   1.280
10283SOL    HW131748   0.668   3.153   1.284
10283SOL    HW231749   0.698   2.996   1.250
10284SOL     OW31750   0.162   2.989   3.872
10284SOL    HW131751   0.104   2.950   3.943
10284SOL    HW231752   0.143   2.944   3.785
10285SOL     OW31753   5.718   5.717   5.112
10285SOL    HW131754   5.763   5.642   5.065
10285SOL    HW231755   5.622   5.721   5.083
10286SOL     OW31756   2.831   1.349   3.664
10286SOL    HW131757   2.748   1.353   3.609
10286SOL    HW231758   2.853   1.441   3.698
10287SOL     OW31759   2.462   5.575   2.738
10287SOL    HW131760   2.496   5.483   2.717
10287SOL    HW231761   2.473   5.634   2.658
10288SOL     OW31762   3.313   6.956   5.561
10288SOL    HW131763   3.269   6.963   5.472
10288SOL    HW231764   3.408   6.987   5.554
10289SOL     OW31765   3.029   5.271   6.569
10289SOL    HW131766   3.103   5.220   6.525
10289SOL    HW231767   3.051   5.284   6.666
10290SOL     OW31768   3.121   2.979   2.081
10290SOL    HW131769   3.165   3.043   2.018
10290SOL    HW231770   3.025   2.969   2.056
10291SOL     OW31771   2.003   1.509   2.648
10291SOL    HW131772   1.983   1.599   2.609
10291SOL    HW231773   1.975   1.438   2.584
10292SOL     OW31774   6.101   6.623   6.706
10292SOL    HW131775   6.155   6.540   6.714
10292SOL    HW231776   6.160   6.701   6.686
10293SOL     OW31777   1.202   4.030   4.280
10293SOL    HW131778   1.257   4.017   4.363
10293SOL    HW231779   1.257   4.007   4.200
10294SOL     OW31780   3.578   1.451   2.131
10294SOL    HW131781   3.530   1.477   2.215
10294SOL    HW231782   3.514   1.452   2.054
10295SOL     OW31783   0.709   2.354   6.823
10295SOL    HW131784   0.652   2.387   6.748
10295SOL    HW231785   0.796   2.404   6.823
10296SOL     OW31786   5.530   1.150   5.542
10296SOL    HW131787   5.567   1.126   5.632
10296SOL    HW231788   5.537   1.248   5.528
10297SOL     OW31789   3.557   1.419   0.030
10297SOL    HW131790   3.587   1.508   0.063
10297SOL    HW231791   3.494   1.430   6.970
10298SOL     OW31792   0.749   2.395   2.785
10298SOL    HW131793   0.757   2.434   2.693
10298SOL    HW231794   0.822   2.432   2.843
10299SOL     OW31795   4.103   6.286   3.163
10299SOL    HW131796   4.101   6.365   3.102
10299SOL    HW231797   4.195   6.274   3.200
10300SOL     OW31798   0.686   3.704   1.613
10300SOL    HW131799   0.625   3.752   1.550
10300SOL    HW231800   0.706   3.761   1.692
10301SOL     OW31801   4.075   0.322   6.382
10301SOL    HW131802   4.133   0.246   6.355
10301SOL    HW231803   4.089   0.399   6.319
10302SOL     OW31804   2.682   6.034   4.881
10302SOL    HW131805   2.628   6.117   4.874
10302SOL    HW231806   2.712   6.021   4.975
10303SOL     OW31807   0.812   5.947   4.581
10303SOL    HW131808   0.757   5.897   4.647
10303SOL    HW231809   0.762   6.028   4.550
10304SOL     OW31810   6.025   6.497   0.508
10304SOL    HW131811   6.101   6.485   0.445
10304SOL    HW231812   6.053   6.559   0.581
10305SOL     OW31813   2.484   4.438   6.093
10305SOL    HW131814   2.412   4.434   6.163
10305SOL    HW231815   2.444   4.421   6.003
10306SOL     OW31816   4.691   0.612   1.189
10306SOL    HW131817   4.633   0.596   1.109
10306SOL    HW231818   4.667   0.699   1.231
10307SOL     OW31819   2.320   0.276   4.729
10307SOL    HW131820   2.317   0.355   4.667
10307SOL    HW231821   2.337   0.193   4.676
10308SOL     OW31822   2.845   5.190   2.304
10308SOL    HW131823   2.806   5.276   2.337
10308SOL    HW231824   2.841   5.122   2.377
10309SOL     OW31825   6.838   1.474   4.714
10309SOL    HW131826   6.850   1.468   4.813
10309SOL    HW231827   6.926   1.495   4.671
10310SOL     OW31828   2.174   4.055   5.764
10310SOL    HW131829   2.104   4.061   5.692
10310SOL    HW231830   2.239   4.130   5.752
10311SOL     OW31831   5.112   5.598   0.740
10311SOL    HW131832   5.178   5.655   0.789
10311SOL    HW231833   5.146   5.504   0.735
10312SOL     OW31834   4.417   0.644   1.868
10312SOL    HW131835   4.475   0.674   1.944
10312SOL    HW231836   4.456   0.562   1.827
10313SOL     OW31837   4.597   6.848   3.151
10313SOL    HW131838   4.644   6.777   3.203
10313SOL    HW231839   4.585   6.818   3.057
10314SOL     OW31840   0.505   0.441   1.256
10314SOL    HW131841   0.488   0.523   1.201
10314SOL    HW231842   0.489   0.462   1.352
10315SOL     OW31843   5.814   5.351   3.649
10315SOL    HW131844   5.863   5.390   3.571
10315SOL    HW231845   5.878   5.331   3.723
10316SOL     OW31846   0.449   1.769   6.772
10316SOL    HW131847   0.414   1.853   6.730
10316SOL    HW231848   0.434   1.692   6.710
10317SOL     OW31849   3.861   5.710   5.775
10317SOL    HW131850   3.911   5.626   5.755
10317SOL    HW231851   3.807   5.698   5.858
10318SOL     OW31852   6.193   6.765   0.356
10318SOL    HW131853   6.250   6.824   0.299
10318SOL    HW231854   6.222   6.773   0.451
10319SOL     OW31855   0.587   4.613   4.177
10319SOL    HW131856   0.668   4.594   4.233
10319SOL    HW231857   0.544   4.527   4.149
10320SOL     OW31858   0.667   6.932   4.092
10320SOL    HW131859   0.715   6.847   4.114
10320SOL    HW231860   0.678   6.997   4.167
10321SOL     OW31861   5.118   2.356   2.389
10321SOL    HW131862   5.211   2.327   2.411
10321SOL    HW231863   5.062   2.275   2.369
10322SOL     OW31864   4.508   4.523   4.800
10322SOL    HW131865   4.445   4.539   4.876
10322SOL    HW231866   4.463   4.546   4.714
10323SOL     OW31867   0.738   4.349   5.335
10323SOL    HW131868   0.785   4.340   5.423
10323SOL    HW231869   0.725   4.258   5.295
10324SOL     OW31870   3.431   3.229   2.203
10324SOL    HW131871   3.465   3.137   2.185
10324SOL    HW231872   3.500   3.296   2.174
10325SOL     OW31873   6.786   5.711   3.354
10325SOL    HW131874   6.700   5.696   3.306
10325SOL    HW231875   6.844   5.772   3.300
10326SOL     OW31876   5.503   3.442   6.862
10326SOL    HW131877   5.539   3.517   6.806
10326SOL    HW231878   5.579   3.387   6.897
10327SOL     OW31879   2.525   4.332   1.319
10327SOL    HW131880   2.470   4.399   1.370
10327SOL    HW231881   2.617   4.369   1.305
10328SOL     OW31882   6.107   2.683   1.884
10328SOL    HW131883   6.064   2.673   1.974
10328SOL    HW231884   6.092   2.601   1.830
10329SOL     OW31885   3.774   1.677   2.699
10329SOL    HW131886   3.765   1.579   2.679
10329SOL    HW231887   3.867   1.706   2.677
10330SOL     OW31888   4.085   0.933   1.401
10330SOL    HW131889   4.076   0.836   1.421
10330SOL    HW231890   4.032   0.986   1.468
10331SOL     OW31891   6.344   5.591   6.808
10331SOL    HW131892   6.247   5.613   6.824
10331SOL    HW231893   6.350   5.505   6.759
10332SOL     OW31894   1.111   1.175   6.931
10332SOL    HW131895   1.096   1.220   6.843
10332SOL    HW231896   1.146   1.242   6.997
10333SOL     OW31897   0.805   5.186   4.676
10333SOL    HW131898   0.779   5.251   4.605
10333SOL    HW231899   0.784   5.093   4.645
10334SOL     OW31900   3.155   6.891   3.760
10334SOL    HW131901   3.215   6.953   3.709
10334SOL    HW231902   3.202   6.804   3.774
10335SOL     OW31903   0.480   2.441   5.431
10335SOL    HW131904   0.402   2.386   5.464
10335SOL    HW231905   0.499   2.514   5.496
10336SOL     OW31906   5.258   0.022   3.565
10336SOL    HW131907   5.182   0.056   3.619
10336SOL    HW231908   5.223   6.983   3.490
10337SOL     OW31909   6.387   5.352   6.678
10337SOL    HW131910   6.305   5.302   6.708
10337SOL    HW231911   6.363   5.412   6.602
10338SOL     OW31912   1.277   6.275   1.847
10338SOL    HW131913   1.188   6.320   1.842
10338SOL    HW231914   1.341   6.334   1.897
10339SOL     OW31915   6.050   2.032   5.566
10339SOL    HW131916   6.052   1.998   5.472
10339SOL    HW231917   6.141   2.022   5.607
10340SOL     OW31918   2.578   3.418   6.469
10340SOL    HW131919   2.655   3.391   6.412
10340SOL    HW231920   2.505   3.454   6.410
10341SOL     OW31921   2.253   2.824   2.801
10341SOL    HW131922   2.302   2.739   2.822
10341SOL    HW231923   2.164   2.823   2.847
10342SOL     OW31924   1.096   1.322   3.411
10342SOL    HW131925   1.133   1.281   3.328
10342SOL    HW231926   1.170   1.331   3.479
10343SOL     OW31927   2.599   5.343   1.483
10343SOL    HW131928   2.603   5.432   1.528
10343SOL    HW231929   2.613   5.354   1.385
10344SOL     OW31930   4.385   5.499   6.027
10344SOL    HW131931   4.300   5.502   6.078
10344SOL    HW231932   4.460   5.533   6.084
10345SOL     OW31933   1.606   3.604   4.302
10345SOL    HW131934   1.507   3.613   4.299
10345SOL    HW231935   1.642   3.659   4.378
10346SOL     OW31936   7.007   5.835   1.197
10346SOL    HW131937   6.952   5.879   1.125
10346SOL    HW231938   0.079   5.808   1.159
10347SOL     OW31939   4.763   1.547   3.547
10347SOL    HW131940   4.763   1.600   3.632
10347SOL    HW231941   4.676   1.559   3.500
10348SOL     OW31942   6.509   4.017   0.659
10348SOL    HW131943   6.554   3.938   0.698
10348SOL    HW231944   6.553   4.042   0.573
10349SOL     OW31945   0.787   6.564   6.754
10349SOL    HW131946   0.766   6.610   6.668
10349SOL    HW231947   0.748   6.616   6.830
10350SOL     OW31948   3.298   6.971   6.178
10350SOL    HW131949   3.229   6.899   6.176
10350SOL    HW231950   3.301   0.001   6.090
10351SOL     OW31951   4.581   5.110   5.862
10351SOL    HW131952   4.521   5.162   5.924
10351SOL    HW231953   4.556   5.013   5.865
10352SOL     OW31954   3.637   3.425   6.155
10352SOL    HW131955   3.692   3.455   6.233
10352SOL    HW231956   3.637   3.497   6.086
10353SOL     OW31957   6.986   1.913   4.644
10353SOL    HW131958   6.931   1.871   4.571
10353SOL    HW231959   6.939   1.993   4.679
10354SOL     OW31960   5.782   1.680   1.639
10354SOL    HW131961   5.711   1.610   1.648
10354SOL    HW231962   5.814   1.706   1.730
10355SOL     OW31963   2.063   5.520   2.215
10355SOL    HW131964   2.038   5.593   2.279
10355SOL    HW231965   2.044   5.551   2.122
10356SOL     OW31966   0.131   3.681   4.502
10356SOL    HW131967   0.036   3.693   4.529
10356SOL    HW231968   0.136   3.664   4.404
10357SOL     OW31969   2.379   1.618   0.315
10357SOL    HW131970   2.454   1.603   0.251
10357SOL    HW231971   2.296   1.642   0.265
10358SOL     OW31972   0.409   1.644   1.833
10358SOL    HW131973   0.500   1.607   1.816
10358SOL    HW231974   0.355   1.577   1.884
10359SOL     OW31975   0.369   1.329   1.251
10359SOL    HW131976   0.349   1.418   1.209
10359SOL    HW231977   0.287   1.272   1.247
10360SOL     OW31978   5.991   5.931   3.726
10360SOL    HW131979   5.986   6.031   3.717
10360SOL    HW231980   5.902   5.892   3.704
10361SOL     OW31981   1.897   4.785   1.233
10361SOL    HW131982   1.852   4.799   1.145
10361SOL    HW231983   1.994   4.766   1.218
10362SOL     OW31984   1.615   5.128   4.223
10362SOL    HW131985   1.698   5.180   4.205
10362SOL    HW231986   1.573   5.159   4.308
10363SOL     OW31987   5.473   0.789   4.116
10363SOL    HW131988   5.454   0.881   4.082
10363SOL    HW231989   5.414   0.771   4.196
10364SOL     OW31990   1.143   4.287   1.260
10364SOL    HW131991   1.159   4.229   1.340
10364SOL    HW231992   1.086   4.365   1.286
10365SOL     OW31993   4.132   5.925   6.870
10365SOL    HW131994   4.143   5.825   6.867
10365SOL    HW231995   4.212   5.966   6.913
10366SOL     OW31996   3.493   6.410   3.609
10366SOL    HW131997   3.455   6.414   3.516
10366SOL    HW231998   3.431   6.358   3.668
10367SOL     OW31999   6.907   2.168   3.234
10367SOL    HW132000   6.934   2.249   3.182
10367SOL    HW232001   6.811   2.177   3.261
10368SOL     OW32002   2.180   0.308   1.238
10368SOL    HW132003   2.175   0.407   1.256
10368SOL    HW232004   2.276   0.280   1.239
10369SOL     OW32005   4.037   2.602   0.552
10369SOL    HW132006   3.946   2.609   0.510
10369SOL    HW232007   4.068   2.693   0.579
10370SOL     OW32008   3.277   0.549   4.955
10370SOL    HW132009   3.227   0.628   4.991
10370SOL    HW232010   3.358   0.580   4.905
10371SOL     OW32011   4.851   6.571   5.983
10371SOL    HW132012   4.788   6.645   6.004
10371SOL    HW232013   4.812   6.513   5.911
10372SOL     OW32014   0.942   0.432   3.012
10372SOL    HW132015   0.891   0.348   3.030
10372SOL    HW232016   1.006   0.448   3.087
10373SOL     OW32017   1.153   5.866   5.028
10373SOL    HW132018   1.252   5.871   5.043
10373SOL    HW232019   1.115   5.795   5.088
10374SOL     OW32020   2.941   2.312   4.021
10374SOL    HW132021   2.868   2.309   4.090
10374SOL    HW232022   3.029   2.295   4.065
10375SOL     OW32023   6.254   2.204   0.200
10375SOL    HW132024   6.304   2.135   0.147
10375SOL    HW232025   6.316   2.280   0.222
10376SOL     OW32026   0.343   1.902   3.575
10376SOL    HW132027   0.434   1.861   3.577
10376SOL    HW232028   0.326   1.949   3.662
10377SOL     OW32029   1.107   6.878   4.326
10377SOL    HW132030   1.121   6.782   4.302
10377SOL    HW232031   1.190   6.916   4.366
10378SOL     OW32032   6.865   6.908   6.740
10378SOL    HW132033   6.893   6.832   6.682
10378SOL    HW232034   6.915   6.990   6.715
10379SOL     OW32035   5.196   1.626   4.436
10379SOL    HW132036   5.231   1.697   4.374
10379SOL    HW232037   5.099   1.611   4.418
10380SOL     OW32038   4.575   0.522   2.803
10380SOL    HW132039   4.519   0.439   2.793
10380SOL    HW232040   4.631   0.533   2.722
10381SOL     OW32041   4.424   5.158   4.899
10381SOL    HW132042   4.491   5.084   4.890
10381SOL    HW232043   4.349   5.127   4.957
10382SOL     OW32044   2.326   5.638   0.925
10382SOL    HW132045   2.316   5.539   0.913
10382SOL    HW232046   2.246   5.684   0.885
10383SOL     OW32047   6.477   2.936   6.337
10383SOL    HW132048   6.577   2.937   6.346
10383SOL    HW232049   6.436   2.968   6.423
10384SOL     OW32050   6.020   0.077   0.268
10384SOL    HW132051   5.927   0.109   0.286
10384SOL    HW232052   6.066   0.141   0.207
10385SOL     OW32053   5.659   2.245   6.851
10385SOL    HW132054   5.680   2.182   6.926
10385SOL    HW232055   5.561   2.267   6.852
10386SOL     OW32056   5.998   2.728   6.154
10386SOL    HW132057   5.970   2.805   6.210
10386SOL    HW232058   6.079   2.754   6.101
10387SOL     OW32059   2.152   3.127   3.339
10387SOL    HW132060   2.169   3.058   3.409
10387SOL    HW232061   2.079   3.188   3.369
10388SOL     OW32062   1.285   4.603   2.848
10388SOL    HW132063   1.242   4.519   2.814
10388SOL    HW232064   1.366   4.622   2.793
10389SOL     OW32065   0.349   5.764   3.054
10389SOL    HW132066   0.440   5.778   3.016
10389SOL    HW232067   0.338   5.818   3.137
10390SOL     OW32068   1.682   3.097   3.407
10390SOL    HW132069   1.614   3.075   3.476
10390SOL    HW232070   1.774   3.089   3.447
10391SOL     OW32071   3.285   6.273   5.135
10391SOL    HW132072   3.280   6.233   5.226
10391SOL    HW232073   3.192   6.287   5.100
10392SOL     OW32074   6.634   4.845   6.941
10392SOL    HW132075   6.621   4.750   6.914
10392SOL    HW232076   6.583   4.863   0.008
10393SOL     OW32077   1.696   0.919   3.844
10393SOL    HW132078   1.653   0.891   3.759
10393SOL    HW232079   1.718   1.017   3.840
10394SOL     OW32080   2.689   6.766   6.697
10394SOL    HW132081   2.769   6.812   6.734
10394SOL    HW232082   2.637   6.829   6.640
10395SOL     OW32083   1.495   1.239   5.141
10395SOL    HW132084   1.498   1.320   5.081
10395SOL    HW232085   1.486   1.268   5.236
10396SOL     OW32086   0.434   0.356   5.081
10396SOL    HW132087   0.533   0.370   5.093
10396SOL    HW232088   0.404   0.281   5.140
10397SOL     OW32089   4.022   1.701   2.575
10397SOL    HW132090   4.087   1.688   2.650
10397SOL    HW232091   4.050   1.780   2.521
10398SOL     OW32092   6.667   3.011   2.816
10398SOL    HW132093   6.598   2.979   2.752
10398SOL    HW232094   6.750   3.036   2.766
10399SOL     OW32095   6.437   1.990   5.353
10399SOL    HW132096   6.433   1.901   5.398
10399SOL    HW232097   6.372   1.991   5.277
10400SOL     OW32098   2.396   4.678   1.693
10400SOL    HW132099   2.453   4.668   1.774
10400SOL    HW232100   2.424   4.759   1.641
10401SOL     OW32101   1.150   5.965   1.584
10401SOL    HW132102   1.137   5.879   1.633
10401SOL    HW232103   1.067   6.021   1.593
10402SOL     OW32104   0.458   2.572   4.157
10402SOL    HW132105   0.540   2.522   4.185
10402SOL    HW232106   0.465   2.667   4.186
10403SOL     OW32107   4.912   1.533   2.253
10403SOL    HW132108   4.978   1.599   2.218
10403SOL    HW232109   4.944   1.440   2.234
10404SOL     OW32110   0.131   6.614   3.484
10404SOL    HW132111   0.211   6.637   3.539
10404SOL    HW232112   0.151   6.536   3.425
10405SOL     OW32113   1.539   6.884   6.966
10405SOL    HW132114   1.533   6.914   6.870
10405SOL    HW232115   1.583   6.795   6.970
10406SOL     OW32116   2.348   5.165   5.672
10406SOL    HW132117   2.310   5.128   5.587
10406SOL    HW232118   2.383   5.090   5.728
10407SOL     OW32119   1.173   1.017   6.070
10407SOL    HW132120   1.230   0.936   6.054
10407SOL    HW232121   1.123   1.039   5.986
10408SOL     OW32122   3.905   5.119   3.132
10408SOL    HW132123   3.896   5.216   3.156
10408SOL    HW232124   3.886   5.063   3.212
10409SOL     OW32125   5.965   4.761   2.170
10409SOL    HW132126   5.953   4.670   2.210
10409SOL    HW232127   5.875   4.803   2.156
10410SOL     OW32128   6.109   0.073   0.529
10410SOL    HW132129   6.158   7.008   0.559
10410SOL    HW232130   6.090   0.066   0.431
10411SOL     OW32131   1.551   4.314   2.518
10411SOL    HW132132   1.617   4.363   2.462
10411SOL    HW232133   1.464   4.307   2.468
10412SOL     OW32134   0.268   2.474   6.744
10412SOL    HW132135   0.359   2.463   6.704
10412SOL    HW232136   0.218   2.543   6.693
10413SOL     OW32137   0.137   1.864   6.126
10413SOL    HW132138   0.114   1.794   6.194
10413SOL    HW232139   0.218   1.914   6.156
10414SOL     OW32140   5.581   0.420   4.891
10414SOL    HW132141   5.572   0.339   4.950
10414SOL    HW232142   5.636   0.489   4.937
10415SOL     OW32143   0.587   5.515   3.063
10415SOL    HW132144   0.657   5.444   3.055
10415SOL    HW232145   0.497   5.473   3.055
10416SOL     OW32146   4.974   0.053   6.979
10416SOL    HW132147   5.072   0.069   6.965
10416SOL    HW232148   4.940   0.117   0.031
10417SOL     OW32149   4.234   4.754   4.645
10417SOL    HW132150   4.263   4.761   4.741
10417SOL    HW232151   4.136   4.769   4.639
10418SOL     OW32152   6.729   3.766   6.667
10418SOL    HW132153   6.746   3.672   6.637
10418SOL    HW232154   6.632   3.788   6.655
10419SOL     OW32155   2.214   1.730   3.970
10419SOL    HW132156   2.176   1.729   3.877
10419SOL    HW232157   2.139   1.727   4.036
10420SOL     OW32158   5.215   3.350   4.053
10420SOL    HW132159   5.138   3.295   4.019
10420SOL    HW232160   5.242   3.415   3.983
10421SOL     OW32161   1.365   4.626   3.550
10421SOL    HW132162   1.431   4.638   3.624
10421SOL    HW232163   1.391   4.681   3.471
10422SOL     OW32164   5.951   3.571   5.361
10422SOL    HW132165   5.999   3.641   5.309
10422SOL    HW232166   5.968   3.584   5.459
10423SOL     OW32167   2.154   5.131   3.543
10423SOL    HW132168   2.128   5.152   3.638
10423SOL    HW232169   2.234   5.185   3.518
10424SOL     OW32170   3.242   1.544   0.580
10424SOL    HW132171   3.257   1.633   0.624
10424SOL    HW232172   3.189   1.558   0.497
10425SOL     OW32173   2.365   3.125   0.627
10425SOL    HW132174   2.351   3.029   0.653
10425SOL    HW232175   2.449   3.133   0.574
10426SOL     OW32176   5.907   2.333   6.087
10426SOL    HW132177   5.953   2.365   6.169
10426SOL    HW232178   5.965   2.349   6.007
10427SOL     OW32179   5.397   1.038   3.953
10427SOL    HW132180   5.354   1.045   3.863
10427SOL    HW232181   5.388   1.125   4.002
10428SOL     OW32182   1.923   6.984   4.989
10428SOL    HW132183   1.989   0.042   5.003
10428SOL    HW232184   1.963   6.915   4.929
10429SOL     OW32185   1.419   2.983   1.116
10429SOL    HW132186   1.399   3.076   1.145
10429SOL    HW232187   1.337   2.926   1.128
10430SOL     OW32188   3.495   0.390   4.249
10430SOL    HW132189   3.499   0.392   4.349
10430SOL    HW232190   3.584   0.415   4.211
10431SOL     OW32191   3.912   0.830   3.269
10431SOL    HW132192   4.002   0.865   3.293
10431SOL    HW232193   3.910   0.731   3.282
10432SOL     OW32194   1.246   5.337   6.763
10432SOL    HW132195   1.245   5.428   6.803
10432SOL    HW232196   1.157   5.318   6.722
10433SOL     OW32197   3.931   6.358   3.913
10433SOL    HW132198   3.862   6.405   3.967
10433SOL    HW232199   4.022   6.392   3.939
10434SOL     OW32200   4.619   0.762   6.326
10434SOL    HW132201   4.634   0.665   6.311
10434SOL    HW232202   4.559   0.775   6.404
10435SOL     OW32203   2.589   1.472   0.781
10435SOL    HW132204   2.616   1.563   0.749
10435SOL    HW232205   2.630   1.455   0.870
10436SOL     OW32206   0.556   3.333   4.974
10436SOL    HW132207   0.625   3.345   5.045
10436SOL    HW232208   0.506   3.248   4.989
10437SOL     OW32209   6.344   6.623   5.267
10437SOL    HW132210   6.391   6.543   5.306
10437SOL    HW232211   6.246   6.617   5.288
10438SOL     OW32212   6.594   6.057   0.154
10438SOL    HW132213   6.539   6.130   0.113
10438SOL    HW232214   6.680   6.095   0.187
10439SOL     OW32215   6.584   5.479   5.375
10439SOL    HW132216   6.659   5.414   5.368
10439SOL    HW232217   6.611   5.556   5.433
10440SOL     OW32218   6.130   2.574   0.479
10440SOL    HW132219   6.082   2.487   0.484
10440SOL    HW232220   6.078   2.637   0.421
10441SOL     OW32221   4.576   2.270   6.665
10441SOL    HW132222   4.584   2.314   6.576
10441SOL    HW232223   4.625   2.183   6.664
10442SOL     OW32224   1.972   1.398   4.692
10442SOL    HW132225   1.910   1.450   4.632
10442SOL    HW232226   2.000   1.456   4.769
10443SOL     OW32227   1.325   0.686   0.852
10443SOL    HW132228   1.230   0.688   0.882
10443SOL    HW232229   1.379   0.749   0.908
10444SOL     OW32230   4.058   4.833   4.286
10444SOL    HW132231   4.143   4.885   4.282
10444SOL    HW232232   4.023   4.832   4.380
10445SOL     OW32233   1.304   3.075   3.843
10445SOL    HW132234   1.292   3.165   3.886
10445SOL    HW232235   1.232   3.062   3.774
10446SOL     OW32236   2.268   5.064   5.447
10446SOL    HW132237   2.172   5.063   5.421
10446SOL    HW232238   2.318   4.996   5.395
10447SOL     OW32239   0.679   1.634   2.666
10447SOL    HW132240   0.700   1.570   2.740
10447SOL    HW232241   0.654   1.723   2.705
10448SOL     OW32242   2.438   6.405   2.311
10448SOL    HW132243   2.451   6.428   2.215
10448SOL    HW232244   2.454   6.308   2.325
10449SOL     OW32245   4.241   5.238   4.624
10449SOL    HW132246   4.160   5.201   4.579
10449SOL    HW232247   4.322   5.186   4.597
10450SOL     OW32248   0.043   1.021   4.488
10450SOL    HW132249   0.014   1.091   4.422
10450SOL    HW232250   0.060   0.935   4.439
10451SOL     OW32251   3.352   1.783   3.991
10451SOL    HW132252   3.366   1.787   4.090
10451SOL    HW232253   3.330   1.875   3.957
10452SOL     OW32254   6.098   3.030   4.630
10452SOL    HW132255   6.038   2.956   4.599
10452SOL    HW232256   6.055   3.076   4.708
10453SOL     OW32257   3.952   5.941   3.895
10453SOL    HW132258   3.883   5.943   3.967
10453SOL    HW232259   4.037   5.984   3.928
10454SOL     OW32260   6.392   1.400   6.732
10454SOL    HW132261   6.490   1.400   6.749
10454SOL    HW232262   6.371   1.458   6.653
10455SOL     OW32263   0.311   5.906   3.296
10455SOL    HW132264   0.376   5.861   3.357
10455SOL    HW232265   0.225   5.924   3.345
10456SOL     OW32266   0.859   5.796   6.461
10456SOL    HW132267   0.869   5.775   6.364
10456SOL    HW232268   0.920   5.872   6.486
10457SOL     OW32269   4.013   2.031   6.273
10457SOL    HW132270   4.093   2.087   6.250
10457SOL    HW232271   3.934   2.065   6.223
10458SOL     OW32272   1.144   5.892   0.000
10458SOL    HW132273   1.090   5.832   6.958
10458SOL    HW232274   1.127   5.987   6.992
10459SOL     OW32275   5.821   5.665   1.704
10459SOL    HW132276   5.867   5.753   1.690
10459SOL    HW232277   5.724   5.681   1.720
10460SOL     OW32278   6.219   0.614   0.721
10460SOL    HW132279   6.240   0.623   0.818
10460SOL    HW232280   6.297   0.575   0.673
10461SOL     OW32281   6.939   4.467   6.592
10461SOL    HW132282   6.927   4.556   6.549
10461SOL    HW232283   6.962   4.479   6.689
10462SOL     OW32284   3.520   3.651   6.013
10462SOL    HW132285   3.506   3.626   5.917
10462SOL    HW232286   3.605   3.702   6.021
10463SOL     OW32287   4.949   2.677   6.533
10463SOL    HW132288   5.042   2.712   6.522
10463SOL    HW232289   4.949   2.599   6.595
10464SOL     OW32290   6.609   4.609   2.636
10464SOL    HW132291   6.526   4.566   2.601
10464SOL    HW232292   6.586   4.696   2.680
10465SOL     OW32293   5.690   4.901   1.386
10465SOL    HW132294   5.786   4.926   1.378
10465SOL    HW232295   5.635   4.962   1.329
10466SOL     OW32296   6.339   4.061   6.094
10466SOL    HW132297   6.300   3.979   6.052
10466SOL    HW232298   6.380   4.118   6.023
10467SOL     OW32299   0.520   2.765   6.732
10467SOL    HW132300   0.462   2.700   6.681
10467SOL    HW232301   0.480   2.856   6.726
10468SOL     OW32302   1.253   4.744   3.857
10468SOL    HW132303   1.330   4.685   3.830
10468SOL    HW232304   1.167   4.695   3.842
10469SOL     OW32305   1.355   1.621   4.272
10469SOL    HW132306   1.311   1.545   4.224
10469SOL    HW232307   1.385   1.690   4.206
10470SOL     OW32308   2.100   3.485   2.904
10470SOL    HW132309   2.090   3.437   2.991
10470SOL    HW232310   2.032   3.558   2.897
10471SOL     OW32311   2.591   5.969   6.788
10471SOL    HW132312   2.628   5.983   6.696
10471SOL    HW232313   2.525   6.041   6.808
10472SOL     OW32314   3.675   4.891   6.648
10472SOL    HW132315   3.674   4.796   6.616
10472SOL    HW232316   3.690   4.952   6.570
10473SOL     OW32317   5.727   4.820   1.060
10473SOL    HW132318   5.787   4.877   1.116
10473SOL    HW232319   5.633   4.828   1.093
10474SOL     OW32320   5.915   0.273   4.943
10474SOL    HW132321   5.942   0.361   4.902
10474SOL    HW232322   5.949   0.198   4.886
10475SOL     OW32323   1.097   5.124   1.269
10475SOL    HW132324   1.026   5.158   1.208
10475SOL    HW232325   1.085   5.165   1.360
10476SOL     OW32326   5.092   6.656   1.552
10476SOL    HW132327   5.069   6.745   1.591
10476SOL    HW232328   5.109   6.590   1.626
10477SOL     OW32329   6.809   5.867   3.608
10477SOL    HW132330   6.906   5.867   3.633
10477SOL    HW232331   6.794   5.804   3.532
10478SOL     OW32332   6.458   0.880   6.542
10478SOL    HW132333   6.437   0.827   6.460
10478SOL    HW232334   6.411   0.968   6.538
10479SOL     OW32335   0.901   2.779   1.991
10479SOL    HW132336   0.963   2.703   2.010
10479SOL    HW232337   0.809   2.744   1.975
10480SOL     OW32338   2.855   0.898   3.810
10480SOL    HW132339   2.790   0.842   3.861
10480SOL    HW232340   2.858   0.990   3.850
10481SOL     OW32341   0.079   1.085   0.983
10481SOL    HW132342   0.144   1.092   0.908
10481SOL    HW232343   0.005   1.022   0.958
10482SOL     OW32344   5.376   2.761   3.745
10482SOL    HW132345   5.349   2.847   3.790
10482SOL    HW232346   5.400   2.694   3.815
10483SOL     OW32347   6.841   6.296   0.194
10483SOL    HW132348   6.823   6.302   0.292
10483SOL    HW232349   6.772   6.349   0.144
10484SOL     OW32350   6.452   1.067   2.175
10484SOL    HW132351   6.447   1.002   2.252
10484SOL    HW232352   6.387   1.040   2.104
10485SOL     OW32353   5.118   3.050   5.530
10485SOL    HW132354   5.041   3.041   5.593
10485SOL    HW232355   5.168   2.963   5.525
10486SOL     OW32356   5.263   3.039   2.438
10486SOL    HW132357   5.305   3.063   2.350
10486SOL    HW232358   5.328   2.985   2.492
10487SOL     OW32359   5.747   6.666   1.944
10487SOL    HW132360   5.698   6.700   1.863
10487SOL    HW232361   5.736   6.730   2.019
10488SOL     OW32362   3.068   3.336   0.119
10488SOL    HW132363   3.025   3.426   0.120
10488SOL    HW232364   3.158   3.341   0.161
10489SOL     OW32365   1.456   5.828   4.987
10489SOL    HW132366   1.451   5.920   4.950
10489SOL    HW232367   1.550   5.808   5.013
10490SOL     OW32368   6.921   0.364   4.157
10490SOL    HW132369   6.878   0.289   4.208
10490SOL    HW232370   0.003   0.350   4.154
10491SOL     OW32371   0.508   4.950   5.698
10491SOL    HW132372   0.426   4.941   5.641
10491SOL    HW232373   0.506   5.037   5.747
10492SOL     OW32374   4.172   4.293   5.600
10492SOL    HW132375   4.244   4.347   5.642
10492SOL    HW232376   4.174   4.306   5.501
10493SOL     OW32377   3.120   0.941   0.596
10493SOL    HW132378   3.024   0.916   0.594
10493SOL    HW232379   3.173   0.864   0.632
10494SOL     OW32380   5.436   2.568   4.771
10494SOL    HW132381   5.521   2.580   4.720
10494SOL    HW232382   5.455   2.526   4.860
10495SOL     OW32383   1.585   6.605   0.297
10495SOL    HW132384   1.535   6.540   0.354
10495SOL    HW232385   1.520   6.660   0.245
10496SOL     OW32386   6.435   0.685   5.187
10496SOL    HW132387   6.458   0.609   5.127
10496SOL    HW232388   6.518   0.737   5.208
10497SOL     OW32389   0.964   1.588   6.955
10497SOL    HW132390   0.935   1.548   0.025
10497SOL    HW232391   0.957   1.688   6.961
10498SOL     OW32392   3.087   5.083   5.848
10498SOL    HW132393   3.049   5.081   5.756
10498SOL    HW232394   3.028   5.031   5.910
10499SOL     OW32395   3.134   5.361   2.869
10499SOL    HW132396   3.041   5.328   2.885
10499SOL    HW232397   3.171   5.317   2.787
10500SOL     OW32398   1.513   2.285   6.875
10500SOL    HW132399   1.474   2.266   6.785
10500SOL    HW232400   1.441   2.318   6.936
10501SOL     OW32401   1.421   2.259   2.961
10501SOL    HW132402   1.360   2.243   2.883
10501SOL    HW232403   1.366   2.278   3.043
10502SOL     OW32404   3.208   6.069   5.316
10502SOL    HW132405   3.282   6.035   5.375
10502SOL    HW232406   3.169   5.992   5.265
10503SOL     OW32407   2.604   3.783   5.850
10503SOL    HW132408   2.530   3.715   5.852
10503SOL    HW232409   2.574   3.866   5.896
10504SOL     OW32410   2.778   3.054   1.092
10504SOL    HW132411   2.700   3.052   1.154
10504SOL    HW232412   2.833   3.136   1.111
10505SOL     OW32413   0.196   0.094   1.348
10505SOL    HW132414   0.296   0.089   1.340
10505SOL    HW232415   0.170   0.178   1.395
10506SOL     OW32416   0.450   4.346   5.368
10506SOL    HW132417   0.405   4.377   5.284
10506SOL    HW232418   0.549   4.359   5.358
10507SOL     OW32419   1.121   0.314   4.683
10507SOL    HW132420   1.044   0.250   4.682
10507SOL    HW232421   1.117   0.372   4.601
10508SOL     OW32422   5.428   4.240   2.549
10508SOL    HW132423   5.337   4.244   2.509
10508SOL    HW232424   5.466   4.149   2.537
10509SOL     OW32425   1.559   0.332   5.311
10509SOL    HW132426   1.647   0.377   5.296
10509SOL    HW232427   1.525   0.353   5.403
10510SOL     OW32428   6.195   6.196   0.099
10510SOL    HW132429   6.217   6.247   0.182
10510SOL    HW232430   6.239   6.106   0.102
10511SOL     OW32431   6.423   1.855   0.261
10511SOL    HW132432   6.454   1.927   0.324
10511SOL    HW232433   6.450   1.879   0.168
10512SOL     OW32434   3.420   6.062   6.589
10512SOL    HW132435   3.340   6.004   6.604
10512SOL    HW232436   3.503   6.007   6.591
10513SOL     OW32437   6.644   2.608   6.856
10513SOL    HW132438   6.624   2.649   6.767
10513SOL    HW232439   6.583   2.530   6.871
10514SOL     OW32440   6.401   3.723   1.483
10514SOL    HW132441   6.382   3.693   1.577
10514SOL    HW232442   6.332   3.790   1.455
10515SOL     OW32443   6.195   2.270   4.295
10515SOL    HW132444   6.233   2.194   4.347
10515SOL    HW232445   6.208   2.253   4.197
10516SOL     OW32446   3.628   0.052   0.125
10516SOL    HW132447   3.700   0.007   0.176
10516SOL    HW232448   3.619   0.009   0.035
10517SOL     OW32449   0.278   2.522   2.876
10517SOL    HW132450   0.239   2.446   2.824
10517SOL    HW232451   0.301   2.491   2.968
10518SOL     OW32452   0.507   6.558   2.061
10518SOL    HW132453   0.577   6.599   2.120
10518SOL    HW232454   0.550   6.526   1.977
10519SOL     OW32455   3.398   3.775   5.178
10519SOL    HW132456   3.309   3.791   5.220
10519SOL    HW232457   3.419   3.848   5.113
10520SOL     OW32458   3.974   4.012   6.327
10520SOL    HW132459   3.950   3.977   6.418
10520SOL    HW232460   3.922   4.095   6.307
10521SOL     OW32461   6.360   4.898   2.046
10521SOL    HW132462   6.302   4.868   2.121
10521SOL    HW232463   6.322   4.981   2.005
10522SOL     OW32464   6.344   6.963   1.984
10522SOL    HW132465   6.402   6.921   1.915
10522SOL    HW232466   6.352   0.046   1.978
10523SOL     OW32467   7.011   5.704   6.871
10523SOL    HW132468   0.040   5.726   6.957
10523SOL    HW232469   6.960   5.784   6.839
10524SOL     OW32470   4.228   0.657   4.112
10524SOL    HW132471   4.166   0.690   4.182
10524SOL    HW232472   4.285   0.584   4.149
10525SOL     OW32473   3.015   6.286   4.647
10525SOL    HW132474   2.996   6.306   4.551
10525SOL    HW232475   3.043   6.370   4.694
10526SOL     OW32476   5.717   6.807   2.169
10526SOL    HW132477   5.696   6.903   2.185
10526SOL    HW232478   5.742   6.763   2.255
10527SOL     OW32479   1.521   2.632   4.448
10527SOL    HW132480   1.518   2.732   4.438
10527SOL    HW232481   1.616   2.602   4.452
10528SOL     OW32482   6.272   4.830   5.589
10528SOL    HW132483   6.354   4.780   5.618
10528SOL    HW232484   6.195   4.767   5.584
10529SOL     OW32485   6.018   6.168   4.011
10529SOL    HW132486   6.018   6.195   3.915
10529SOL    HW232487   6.076   6.229   4.064
10530SOL     OW32488   1.780   1.713   5.636
10530SOL    HW132489   1.761   1.642   5.704
10530SOL    HW232490   1.701   1.722   5.575
10531SOL     OW32491   2.459   2.313   5.729
10531SOL    HW132492   2.525   2.316   5.805
10531SOL    HW232493   2.368   2.292   5.765
10532SOL     OW32494   3.426   3.124   5.112
10532SOL    HW132495   3.484   3.052   5.075
10532SOL    HW232496   3.331   3.107   5.086
10533SOL     OW32497   2.214   0.954   6.094
10533SOL    HW132498   2.297   0.899   6.105
10533SOL    HW232499   2.158   0.948   6.177
10534SOL     OW32500   5.678   5.776   1.313
10534SOL    HW132501   5.727   5.730   1.239
10534SOL    HW232502   5.742   5.802   1.385
10535SOL     OW32503   0.631   1.404   2.450
10535SOL    HW132504   0.699   1.460   2.403
10535SOL    HW232505   0.671   1.367   2.534
10536SOL     OW32506   4.744   6.680   4.030
10536SOL    HW132507   4.671   6.718   3.972
10536SOL    HW232508   4.831   6.722   4.005
10537SOL     OW32509   0.615   5.110   1.136
10537SOL    HW132510   0.547   5.177   1.164
10537SOL    HW232511   0.571   5.023   1.117
10538SOL     OW32512   4.908   4.275   6.774
10538SOL    HW132513   5.007   4.287   6.778
10538SOL    HW232514   4.886   4.183   6.741
10539SOL     OW32515   0.766   3.574   5.810
10539SOL    HW132516   0.847   3.519   5.791
10539SOL    HW232517   0.746   3.632   5.731
10540SOL     OW32518   2.898   0.874   6.780
10540SOL    HW132519   2.889   0.838   6.688
10540SOL    HW232520   2.995   0.880   6.804
10541SOL     OW32521   4.508   2.519   0.740
10541SOL    HW132522   4.410   2.527   0.759
10541SOL    HW232523   4.546   2.442   0.791
10542SOL     OW32524   1.505   2.571   0.053
10542SOL    HW132525   1.602   2.557   0.075
10542SOL    HW232526   1.494   2.659   0.007
10543SOL     OW32527   2.242   0.952   5.755
10543SOL    HW132528   2.208   1.024   5.815
10543SOL    HW232529   2.330   0.918   5.789
10544SOL     OW32530   0.387   2.463   2.223
10544SOL    HW132531   0.395   2.444   2.321
10544SOL    HW232532   0.325   2.540   2.209
10545SOL     OW32533   5.506   0.763   2.833
10545SOL    HW132534   5.499   0.781   2.931
10545SOL    HW232535   5.419   0.784   2.789
10546SOL     OW32536   3.846   0.497   4.996
10546SOL    HW132537   3.808   0.540   5.078
10546SOL    HW232538   3.863   0.567   4.927
10547SOL     OW32539   4.342   1.157   0.843
10547SOL    HW132540   4.250   1.119   0.850
10547SOL    HW232541   4.339   1.242   0.790
10548SOL     OW32542   4.662   4.272   5.347
10548SOL    HW132543   4.716   4.271   5.263
10548SOL    HW232544   4.721   4.293   5.425
10549SOL     OW32545   1.555   1.095   1.485
10549SOL    HW132546   1.529   1.042   1.566
10549SOL    HW232547   1.618   1.168   1.511
10550SOL     OW32548   4.963   6.832   5.481
10550SOL    HW132549   4.979   6.797   5.573
10550SOL    HW232550   5.022   6.911   5.464
10551SOL     OW32551   1.978   2.880   5.891
10551SOL    HW132552   1.928   2.963   5.913
10551SOL    HW232553   2.052   2.867   5.956
10552SOL     OW32554   3.146   2.009   4.958
10552SOL    HW132555   3.180   2.003   4.864
10552SOL    HW232556   3.122   2.104   4.978
10553SOL     OW32557   2.926   4.473   6.217
10553SOL    HW132558   2.924   4.491   6.119
10553SOL    HW232559   2.974   4.547   6.263
10554SOL     OW32560   6.390   4.605   5.408
10554SOL    HW132561   6.364   4.690   5.362
10554SOL    HW232562   6.335   4.530   5.372
10555SOL     OW32563   3.261   2.176   1.228
10555SOL    HW132564   3.330   2.194   1.157
10555SOL    HW232565   3.307   2.164   1.316
10556SOL     OW32566   2.079   3.319   4.257
10556SOL    HW132567   2.124   3.231   4.276
10556SOL    HW232568   2.082   3.376   4.339
10557SOL     OW32569   6.503   2.020   3.761
10557SOL    HW132570   6.588   2.041   3.712
10557SOL    HW232571   6.500   2.071   3.846
10558SOL     OW32572   5.066   5.963   5.193
10558SOL    HW132573   4.997   5.995   5.259
10558SOL    HW232574   5.128   6.038   5.172
10559SOL     OW32575   4.795   2.494   1.044
10559SOL    HW132576   4.704   2.475   1.081
10559SOL    HW232577   4.834   2.411   1.005
10560SOL     OW32578   0.082   2.763   4.448
10560SOL    HW132579   0.142   2.817   4.508
10560SOL    HW232580   0.014   2.715   4.503
10561SOL     OW32581   2.960   4.739   5.888
10561SOL    HW132582   2.939   4.647   5.921
10561SOL    HW232583   2.942   4.806   5.961
10562SOL     OW32584   3.273   1.204   0.614
10562SOL    HW132585   3.228   1.148   0.544
10562SOL    HW232586   3.287   1.150   0.697
10563SOL     OW32587   1.783   1.577   3.875
10563SOL    HW132588   1.865   1.567   3.817
10563SOL    HW232589   1.805   1.551   3.968
10564SOL     OW32590   6.951   2.327   2.090
10564SOL    HW132591   6.952   2.323   2.190
10564SOL    HW232592   6.968   2.236   2.052
10565SOL     OW32593   5.120   1.561   5.147
10565SOL    HW132594   5.103   1.656   5.121
10565SOL    HW232595   5.211   1.553   5.187
10566SOL     OW32596   4.198   4.560   6.642
10566SOL    HW132597   4.140   4.639   6.663
10566SOL    HW232598   4.294   4.586   6.652
10567SOL     OW32599   1.709   5.174   3.752
10567SOL    HW132600   1.677   5.096   3.698
10567SOL    HW232601   1.630   5.225   3.787
10568SOL     OW32602   4.178   1.707   3.449
10568SOL    HW132603   4.118   1.638   3.490
10568SOL    HW232604   4.226   1.666   3.372
10569SOL     OW32605   6.328   2.980   3.116
10569SOL    HW132606   6.270   2.909   3.154
10569SOL    HW232607   6.317   3.064   3.168
10570SOL     OW32608   1.019   4.243   1.811
10570SOL    HW132609   0.970   4.302   1.747
10570SOL    HW232610   1.014   4.282   1.903
10571SOL     OW32611   5.856   6.947   4.918
10571SOL    HW132612   5.901   7.009   4.854
10571SOL    HW232613   5.843   6.858   4.875
10572SOL     OW32614   6.195   3.075   1.900
10572SOL    HW132615   6.154   3.162   1.928
10572SOL    HW232616   6.213   3.018   1.980
10573SOL     OW32617   6.175   4.537   5.894
10573SOL    HW132618   6.101   4.476   5.866
10573SOL    HW232619   6.251   4.530   5.830
10574SOL     OW32620   1.066   2.190   3.136
10574SOL    HW132621   1.149   2.239   3.163
10574SOL    HW232622   0.990   2.254   3.132
10575SOL     OW32623   0.868   6.753   5.915
10575SOL    HW132624   0.893   6.809   5.836
10575SOL    HW232625   0.885   6.657   5.895
10576SOL     OW32626   1.461   4.691   3.285
10576SOL    HW132627   1.442   4.618   3.219
10576SOL    HW232628   1.488   4.774   3.236
10577SOL     OW32629   0.876   3.146   5.569
10577SOL    HW132630   0.930   3.070   5.605
10577SOL    HW232631   0.800   3.110   5.515
10578SOL     OW32632   5.681   0.647   5.728
10578SOL    HW132633   5.584   0.635   5.705
10578SOL    HW232634   5.696   0.619   5.823
10579SOL     OW32635   4.898   0.678   0.683
10579SOL    HW132636   4.915   0.580   0.680
10579SOL    HW232637   4.828   0.698   0.751
10580SOL     OW32638   6.289   6.252   0.370
10580SOL    HW132639   6.345   6.197   0.432
10580SOL    HW232640   6.273   6.342   0.411
10581SOL     OW32641   4.352   1.332   4.034
10581SOL    HW132642   4.291   1.312   3.957
10581SOL    HW232643   4.322   1.415   4.079
10582SOL     OW32644   3.583   4.376   0.018
10582SOL    HW132645   3.643   4.309   0.063
10582SOL    HW232646   3.610   4.468   0.045
10583SOL     OW32647   4.607   1.479   0.657
10583SOL    HW132648   4.626   1.401   0.598
10583SOL    HW232649   4.692   1.529   0.675
10584SOL     OW32650   6.277   0.452   1.649
10584SOL    HW132651   6.236   0.404   1.727
10584SOL    HW232652   6.336   0.388   1.598
10585SOL     OW32653   1.933   4.548   6.493
10585SOL    HW132654   1.994   4.623   6.468
10585SOL    HW232655   1.971   4.499   6.573
10586SOL     OW32656   4.133   1.316   0.501
10586SOL    HW132657   4.178   1.392   0.547
10586SOL    HW232658   4.194   1.280   0.430
10587SOL     OW32659   5.878   3.563   0.790
10587SOL    HW132660   5.838   3.472   0.781
10587SOL    HW232661   5.956   3.571   0.727
10588SOL     OW32662   0.981   5.389   3.126
10588SOL    HW132663   0.885   5.369   3.106
10588SOL    HW232664   1.012   5.330   3.201
10589SOL     OW32665   6.187   1.416   4.045
10589SOL    HW132666   6.261   1.471   4.084
10589SOL    HW232667   6.215   1.381   3.956
10590SOL     OW32668   1.928   0.856   4.431
10590SOL    HW132669   1.982   0.916   4.371
10590SOL    HW232670   1.866   0.801   4.376
10591SOL     OW32671   1.326   2.494   0.759
10591SOL    HW132672   1.409   2.544   0.734
10591SOL    HW232673   1.265   2.555   0.810
10592SOL     OW32674   6.477   2.129   0.009
10592SOL    HW132675   6.440   2.101   6.937
10592SOL    HW232676   6.527   2.053   0.049
10593SOL     OW32677   2.182   4.781   1.238
10593SOL    HW132678   2.231   4.704   1.197
10593SOL    HW232679   2.213   4.867   1.197
10594SOL     OW32680   0.968   2.059   4.598
10594SOL    HW132681   0.908   1.980   4.586
10594SOL    HW232682   0.991   2.069   4.695
10595SOL     OW32683   1.931   6.194   5.800
10595SOL    HW132684   1.943   6.271   5.864
10595SOL    HW232685   1.947   6.226   5.707
10596SOL     OW32686   3.598   0.669   2.042
10596SOL    HW132687   3.547   0.754   2.029
10596SOL    HW232688   3.621   0.660   2.139
10597SOL     OW32689   2.128   0.280   3.945
10597SOL    HW132690   2.085   0.369   3.942
10597SOL    HW232691   2.227   0.291   3.960
10598SOL     OW32692   1.846   1.988   6.959
10598SOL    HW132693   1.907   2.052   7.006
10598SOL    HW232694   1.809   1.922   0.008
10599SOL     OW32695   4.924   0.870   6.809
10599SOL    HW132696   4.902   0.817   6.890
10599SOL    HW232697   5.017   0.848   6.779
10600SOL     OW32698   1.688   2.444   5.760
10600SOL    HW132699   1.715   2.513   5.693
10600SOL    HW232700   1.733   2.463   5.848
10601SOL     OW32701   3.326   6.470   5.771
10601SOL    HW132702   3.265   6.435   5.842
10601SOL    HW232703   3.386   6.396   5.740
10602SOL     OW32704   4.144   0.995   2.041
10602SOL    HW132705   4.205   0.975   1.965
10602SOL    HW232706   4.121   1.092   2.041
10603SOL     OW32707   0.981   5.493   4.514
10603SOL    HW132708   0.891   5.518   4.550
10603SOL    HW232709   1.046   5.566   4.535
10604SOL     OW32710   6.726   4.339   5.180
10604SOL    HW132711   6.721   4.437   5.196
10604SOL    HW232712   6.689   4.318   5.089
10605SOL     OW32713   2.126   4.718   6.399
10605SOL    HW132714   2.058   4.791   6.400
10605SOL    HW232715   2.181   4.724   6.316
10606SOL     OW32716   0.523   0.936   3.059
10606SOL    HW132717   0.501   0.845   3.093
10606SOL    HW232718   0.622   0.948   3.058
10607SOL     OW32719   5.870   4.758   0.248
10607SOL    HW132720   5.892   4.854   0.266
10607SOL    HW232721   5.801   4.753   0.176
10608SOL     OW32722   5.944   0.798   2.581
10608SOL    HW132723   6.024   0.758   2.536
10608SOL    HW232724   5.867   0.734   2.576
10609SOL     OW32725   3.962   6.942   2.112
10609SOL    HW132726   3.868   6.946   2.081
10609SOL    HW232727   4.000   0.018   2.117
10610SOL     OW32728   1.765   3.563   4.890
10610SOL    HW132729   1.827   3.503   4.941
10610SOL    HW232730   1.699   3.508   4.840
10611SOL     OW32731   5.119   2.335   6.115
10611SOL    HW132732   5.202   2.355   6.064
10611SOL    HW232733   5.128   2.246   6.160
10612SOL     OW32734   1.016   6.810   0.892
10612SOL    HW132735   1.007   6.712   0.909
10612SOL    HW232736   1.069   6.852   0.966
10613SOL     OW32737   0.632   6.693   6.585
10613SOL    HW132738   0.636   6.629   6.509
10613SOL    HW232739   0.661   6.784   6.555
10614SOL     OW32740   6.685   0.821   4.199
10614SOL    HW132741   6.750   0.892   4.171
10614SOL    HW232742   6.726   0.731   4.184
10615SOL     OW32743   6.668   5.792   5.258
10615SOL    HW132744   6.739   5.728   5.228
10615SOL    HW232745   6.579   5.762   5.223
10616SOL     OW32746   3.010   6.231   7.002
10616SOL    HW132747   2.988   6.319   6.960
10616SOL    HW232748   2.957   6.220   0.069
10617SOL     OW32749   0.543   2.161   6.516
10617SOL    HW132750   0.622   2.107   6.547
10617SOL    HW232751   0.554   2.183   6.419
10618SOL     OW32752   6.053   4.005   1.472
10618SOL    HW132753   6.095   4.095   1.465
10618SOL    HW232754   6.092   3.944   1.403
10619SOL     OW32755   0.478   4.318   3.788
10619SOL    HW132756   0.529   4.364   3.716
10619SOL    HW232757   0.503   4.221   3.789
10620SOL     OW32758   1.375   5.940   4.379
10620SOL    HW132759   1.353   5.988   4.464
10620SOL    HW232760   1.473   5.926   4.372
10621SOL     OW32761   2.729   6.260   0.751
10621SOL    HW132762   2.711   6.291   0.844
10621SOL    HW232763   2.661   6.192   0.725
10622SOL     OW32764   4.615   1.737   1.632
10622SOL    HW132765   4.624   1.736   1.532
10622SOL    HW232766   4.518   1.742   1.656
10623SOL     OW32767   6.620   1.050   3.873
10623SOL    HW132768   6.700   1.099   3.840
10623SOL    HW232769   6.549   1.050   3.801
10624SOL     OW32770   2.733   1.357   4.346
10624SOL    HW132771   2.773   1.420   4.279
10624SOL    HW232772   2.651   1.315   4.307
10625SOL     OW32773   0.078   3.330   0.096
10625SOL    HW132774   7.001   3.300   0.076
10625SOL    HW232775   0.128   3.256   0.142
10626SOL     OW32776   6.730   1.650   1.383
10626SOL    HW132777   6.689   1.585   1.319
10626SOL    HW232778   6.690   1.636   1.474
10627SOL     OW32779   6.298   5.210   4.496
10627SOL    HW132780   6.318   5.221   4.399
10627SOL    HW232781   6.251   5.123   4.511
10628SOL     OW32782   7.009   6.356   6.225
10628SOL    HW132783   6.956   6.300   6.162
10628SOL    HW232784   6.984   6.332   6.319
10629SOL     OW32785   2.787   5.694   6.122
10629SOL    HW132786   2.873   5.647   6.101
10629SOL    HW232787   2.710   5.634   6.098
10630SOL     OW32788   6.896   1.294   2.847
10630SOL    HW132789   6.932   1.205   2.874
10630SOL    HW232790   6.902   1.357   2.924
10631SOL     OW32791   1.139   0.190   5.064
10631SOL    HW132792   1.080   0.168   5.141
10631SOL    HW232793   1.133   0.116   4.996
10632SOL     OW32794   0.252   3.051   4.843
10632SOL    HW132795   0.168   2.996   4.849
10632SOL    HW232796   0.319   3.018   4.908
10633SOL     OW32797   0.927   5.205   0.376
10633SOL    HW132798   0.846   5.234   0.428
10633SOL    HW232799   0.999   5.272   0.387
10634SOL     OW32800   3.830   6.915   1.436
10634SOL    HW132801   3.854   6.836   1.379
10634SOL    HW232802   3.826   6.997   1.379
10635SOL     OW32803   1.670   0.899   0.848
10635SOL    HW132804   1.631   0.843   0.921
10635SOL    HW232805   1.634   0.869   0.760
10636SOL     OW32806   6.680   1.162   1.003
10636SOL    HW132807   6.672   1.249   1.052
10636SOL    HW232808   6.711   1.179   0.909
10637SOL     OW32809   3.889   4.688   5.654
10637SOL    HW132810   3.959   4.717   5.718
10637SOL    HW232811   3.815   4.642   5.704
10638SOL     OW32812   6.713   0.507   5.265
10638SOL    HW132813   6.682   0.468   5.352
10638SOL    HW232814   6.638   0.504   5.199
10639SOL     OW32815   2.983   1.888   5.126
10639SOL    HW132816   2.993   1.941   5.210
10639SOL    HW232817   3.041   1.928   5.055
10640SOL     OW32818   3.565   6.480   0.659
10640SOL    HW132819   3.581   6.468   0.757
10640SOL    HW232820   3.491   6.547   0.646
10641SOL     OW32821   4.230   0.931   6.342
10641SOL    HW132822   4.308   0.991   6.360
10641SOL    HW232823   4.207   0.880   6.425
10642SOL     OW32824   6.974   3.707   0.657
10642SOL    HW132825   6.946   3.797   0.693
10642SOL    HW232826   6.982   3.712   0.557
10643SOL     OW32827   4.020   3.469   5.282
10643SOL    HW132828   3.965   3.533   5.336
10643SOL    HW232829   3.963   3.394   5.250
10644SOL     OW32830   3.646   1.802   5.065
10644SOL    HW132831   3.574   1.741   5.099
10644SOL    HW232832   3.645   1.887   5.118
10645SOL     OW32833   2.131   6.720   5.185
10645SOL    HW132834   2.145   6.692   5.279
10645SOL    HW232835   2.036   6.749   5.172
10646SOL     OW32836   1.175   4.126   6.421
10646SOL    HW132837   1.093   4.070   6.431
10646SOL    HW232838   1.256   4.070   6.439
10647SOL     OW32839   0.181   4.936   0.510
10647SOL    HW132840   0.164   5.034   0.499
10647SOL    HW232841   0.243   4.904   0.438
10648SOL     OW32842   5.185   4.832   6.318
10648SOL    HW132843   5.132   4.763   6.368
10648SOL    HW232844   5.201   4.911   6.377
10649SOL     OW32845   0.600   4.468   6.014
10649SOL    HW132846   0.629   4.451   6.108
10649SOL    HW232847   0.603   4.567   5.996
10650SOL     OW32848   3.060   0.831   4.257
10650SOL    HW132849   3.006   0.777   4.192
10650SOL    HW232850   3.050   0.929   4.234
10651SOL     OW32851   2.993   0.187   5.737
10651SOL    HW132852   2.941   0.256   5.685
10651SOL    HW232853   2.950   0.097   5.725
10652SOL     OW32854   3.989   0.898   0.127
10652SOL    HW132855   3.905   0.849   0.150
10652SOL    HW232856   3.974   0.996   0.136
10653SOL     OW32857   5.433   2.690   4.014
10653SOL    HW132858   5.479   2.778   4.000
10653SOL    HW232859   5.501   2.620   4.039
10654SOL     OW32860   4.439   0.770   1.416
10654SOL    HW132861   4.396   0.761   1.506
10654SOL    HW232862   4.454   0.867   1.397
10655SOL     OW32863   3.598   5.971   1.471
10655SOL    HW132864   3.502   5.992   1.456
10655SOL    HW232865   3.626   5.896   1.411
10656SOL     OW32866   6.224   2.769   5.984
10656SOL    HW132867   6.272   2.849   6.019
10656SOL    HW232868   6.260   2.745   5.893
10657SOL     OW32869   6.178   0.229   1.834
10657SOL    HW132870   6.275   0.218   1.855
10657SOL    HW232871   6.126   0.231   1.920
10658SOL     OW32872   0.620   6.311   4.808
10658SOL    HW132873   0.672   6.291   4.891
10658SOL    HW232874   0.676   6.290   4.728
10659SOL     OW32875   5.353   0.905   1.051
10659SOL    HW132876   5.380   0.996   1.085
10659SOL    HW232877   5.269   0.876   1.097
10660SOL     OW32878   5.256   4.983   5.575
10660SOL    HW132879   5.261   5.080   5.550
10660SOL    HW232880   5.276   4.972   5.672
10661SOL     OW32881   0.958   0.381   2.363
10661SOL    HW132882   0.975   0.423   2.274
10661SOL    HW232883   0.944   0.283   2.352
10662SOL     OW32884   5.802   1.233   0.928
10662SOL    HW132885   5.751   1.294   0.868
10662SOL    HW232886   5.841   1.286   1.004
10663SOL     OW32887   0.514   1.039   0.141
10663SOL    HW132888   0.607   1.062   0.170
10663SOL    HW232889   0.492   0.946   0.170
10664SOL     OW32890   2.242   4.665   6.645
10664SOL    HW132891   2.178   4.592   6.668
10664SOL    HW232892   2.232   4.689   6.548
10665SOL     OW32893   5.878   0.915   6.840
10665SOL    HW132894   5.823   0.886   6.918
10665SOL    HW232895   5.969   0.873   6.845
10666SOL     OW32896   0.695   0.199   7.007
10666SOL    HW132897   0.671   0.200   0.087
10666SOL    HW232898   0.613   0.216   6.952
10667SOL     OW32899   3.325   2.102   5.154
10667SOL    HW132900   3.300   2.199   5.150
10667SOL    HW232901   3.261   2.049   5.099
10668SOL     OW32902   2.091   0.992   6.563
10668SOL    HW132903   2.010   1.048   6.580
10668SOL    HW232904   2.091   0.914   6.625
10669SOL     OW32905   0.873   6.338   6.868
10669SOL    HW132906   0.839   6.422   6.826
10669SOL    HW232907   0.837   6.330   6.961
10670SOL     OW32908   6.996   4.997   5.410
10670SOL    HW132909   6.980   4.899   5.396
10670SOL    HW232910   6.988   5.018   5.508
10671SOL     OW32911   1.763   1.879   3.407
10671SOL    HW132912   1.780   1.819   3.485
10671SOL    HW232913   1.828   1.856   3.334
10672SOL     OW32914   0.433   2.487   1.103
10672SOL    HW132915   0.514   2.440   1.069
10672SOL    HW232916   0.425   2.473   1.201
10673SOL     OW32917   3.207   3.352   4.679
10673SOL    HW132918   3.236   3.420   4.612
10673SOL    HW232919   3.253   3.370   4.766
10674SOL     OW32920   4.429   1.750   2.342
10674SOL    HW132921   4.520   1.731   2.306
10674SOL    HW232922   4.423   1.719   2.437
10675SOL     OW32923   0.497   1.281   6.629
10675SOL    HW132924   0.595   1.270   6.649
10675SOL    HW232925   0.446   1.291   6.714
10676SOL     OW32926   6.697   0.280   0.098
10676SOL    HW132927   6.729   0.240   0.012
10676SOL    HW232928   6.737   0.232   0.175
10677SOL     OW32929   6.542   1.204   0.163
10677SOL    HW132930   6.581   1.137   0.226
10677SOL    HW232931   6.615   1.263   0.127
10678SOL     OW32932   1.988   5.538   2.634
10678SOL    HW132933   2.062   5.483   2.595
10678SOL    HW232934   1.962   5.502   2.724
10679SOL     OW32935   5.234   5.139   3.409
10679SOL    HW132936   5.165   5.087   3.459
10679SOL    HW232937   5.208   5.236   3.408
10680SOL     OW32938   1.534   2.301   3.616
10680SOL    HW132939   1.619   2.276   3.662
10680SOL    HW232940   1.522   2.244   3.534
10681SOL     OW32941   0.748   1.986   6.533
10681SOL    HW132942   0.742   1.929   6.615
10681SOL    HW232943   0.837   1.971   6.489
10682SOL     OW32944   6.436   1.618   2.913
10682SOL    HW132945   6.382   1.631   2.995
10682SOL    HW232946   6.377   1.590   2.837
10683SOL     OW32947   2.076   0.518   4.132
10683SOL    HW132948   2.086   0.571   4.216
10683SOL    HW232949   1.994   0.461   4.138
10684SOL     OW32950   6.001   6.017   0.608
10684SOL    HW132951   6.033   6.025   0.514
10684SOL    HW232952   6.032   5.930   0.646
10685SOL     OW32953   6.861   2.569   2.047
10685SOL    HW132954   6.792   2.586   2.118
10685SOL    HW232955   6.910   2.485   2.069
10686SOL     OW32956   4.262   4.290   0.787
10686SOL    HW132957   4.244   4.301   0.689
10686SOL    HW232958   4.186   4.328   0.839
10687SOL     OW32959   7.014   5.288   1.312
10687SOL    HW132960   7.012   5.365   1.377
10687SOL    HW232961   0.091   5.274   1.280
10688SOL     OW32962   6.506   5.746   1.400
10688SOL    HW132963   6.575   5.693   1.449
10688SOL    HW232964   6.430   5.765   1.462
10689SOL     OW32965   0.977   0.823   1.615
10689SOL    HW132966   0.925   0.908   1.626
10689SOL    HW232967   0.915   0.750   1.587
10690SOL     OW32968   4.675   5.877   2.498
10690SOL    HW132969   4.597   5.823   2.466
10690SOL    HW232970   4.696   5.948   2.432
10691SOL     OW32971   6.677   1.475   1.164
10691SOL    HW132972   6.696   1.487   1.066
10691SOL    HW232973   6.580   1.458   1.178
10692SOL     OW32974   5.584   6.180   4.588
10692SOL    HW132975   5.652   6.203   4.659
10692SOL    HW232976   5.527   6.105   4.621
10693SOL     OW32977   4.639   2.667   3.291
10693SOL    HW132978   4.549   2.688   3.327
10693SOL    HW232979   4.709   2.703   3.353
10694SOL     OW32980   3.226   6.410   0.611
10694SOL    HW132981   3.279   6.495   0.602
10694SOL    HW232982   3.129   6.433   0.625
10695SOL     OW32983   6.002   2.648   5.117
10695SOL    HW132984   6.062   2.703   5.059
10695SOL    HW232985   5.907   2.664   5.091
10696SOL     OW32986   6.812   6.646   2.186
10696SOL    HW132987   6.841   6.564   2.236
10696SOL    HW232988   6.810   6.626   2.088
10697SOL     OW32989   2.689   6.477   3.031
10697SOL    HW132990   2.693   6.560   2.975
10697SOL    HW232991   2.599   6.471   3.074
10698SOL     OW32992   3.097   0.688   3.295
10698SOL    HW132993   3.188   0.695   3.336
10698SOL    HW232994   3.028   0.688   3.367
10699SOL     OW32995   1.943   2.419   2.961
10699SOL    HW132996   1.887   2.372   3.029
10699SOL    HW232997   2.034   2.379   2.959
10700SOL     OW32998   0.412   1.312   1.664
10700SOL    HW132999   0.442   1.232   1.613
10700SOL    HW233000   0.363   1.374   1.603
10701SOL     OW33001   3.493   6.863   0.842
10701SOL    HW133002   3.504   6.778   0.892
10701SOL    HW233003   3.534   6.855   0.751
10702SOL     OW33004   4.965   2.944   1.090
10702SOL    HW133005   4.989   2.851   1.118
10702SOL    HW233006   4.945   2.999   1.171
10703SOL     OW33007   3.763   3.339   4.127
10703SOL    HW133008   3.665   3.324   4.133
10703SOL    HW233009   3.800   3.356   4.218
10704SOL     OW33010   5.616   6.468   2.471
10704SOL    HW133011   5.691   6.425   2.522
10704SOL    HW233012   5.578   6.401   2.407
10705SOL     OW33013   1.444   3.372   6.002
10705SOL    HW133014   1.476   3.466   6.016
10705SOL    HW233015   1.476   3.338   5.914
10706SOL     OW33016   3.397   2.152   1.496
10706SOL    HW133017   3.393   2.246   1.463
10706SOL    HW233018   3.458   2.146   1.575
10707SOL     OW33019   6.237   6.949   6.421
10707SOL    HW133020   6.138   6.957   6.413
10707SOL    HW233021   6.277   6.939   6.330
10708SOL     OW33022   4.708   1.134   1.454
10708SOL    HW133023   4.684   1.137   1.551
10708SOL    HW233024   4.708   1.227   1.416
10709SOL     OW33025   0.697   0.018   6.091
10709SOL    HW133026   0.700   6.991   6.001
10709SOL    HW233027   0.610   0.066   6.101
10710SOL     OW33028   6.522   5.823   4.309
10710SOL    HW133029   6.530   5.891   4.236
10710SOL    HW233030   6.547   5.733   4.274
10711SOL     OW33031   2.324   5.647   5.134
10711SOL    HW133032   2.342   5.577   5.066
10711SOL    HW233033   2.282   5.606   5.214
10712SOL     OW33034   4.090   1.384   5.787
10712SOL    HW133035   3.992   1.397   5.803
10712SOL    HW233036   4.105   1.294   5.745
10713SOL     OW33037   2.141   5.938   0.829
10713SOL    HW133038   2.091   5.863   0.872
10713SOL    HW233039   2.123   5.938   0.731
10714SOL     OW33040   6.669   5.692   5.516
10714SOL    HW133041   6.696   5.744   5.436
10714SOL    HW233042   6.749   5.671   5.571
10715SOL     OW33043   6.233   0.907   3.348
10715SOL    HW133044   6.170   0.984   3.338
10715SOL    HW233045   6.192   0.836   3.405
10716SOL     OW33046   6.795   0.898   2.130
10716SOL    HW133047   6.830   0.847   2.209
10716SOL    HW233048   6.844   0.985   2.123
10717SOL     OW33049   0.152   6.341   2.220
10717SOL    HW133050   0.054   6.340   2.238
10717SOL    HW233051   0.181   6.435   2.199
10718SOL     OW33052   0.652   3.888   5.884
10718SOL    HW133053   0.746   3.919   5.889
10718SOL    HW233054   0.639   3.830   5.803
10719SOL     OW33055   3.639   6.641   2.399
10719SOL    HW133056   3.727   6.606   2.367
10719SOL    HW233057   3.597   6.574   2.461
10720SOL     OW33058   0.427   2.959   6.496
10720SOL    HW133059   0.431   3.014   6.579
10720SOL    HW233060   0.332   2.934   6.477
10721SOL     OW33061   4.949   2.080   4.812
10721SOL    HW133062   5.032   2.025   4.805
10721SOL    HW233063   4.920   2.108   4.721
10722SOL     OW33064   6.937   4.775   0.853
10722SOL    HW133065   6.946   4.677   0.839
10722SOL    HW233066   6.841   4.800   0.853
10723SOL     OW33067   6.143   4.942   0.518
10723SOL    HW133068   6.084   4.903   0.588
10723SOL    HW233069   6.180   4.868   0.461
10724SOL     OW33070   3.214   0.282   5.594
10724SOL    HW133071   3.157   0.280   5.676
10724SOL    HW233072   3.302   0.239   5.614
10725SOL     OW33073   6.929   0.304   5.249
10725SOL    HW133074   6.997   0.349   5.192
10725SOL    HW233075   6.849   0.364   5.260
10726SOL     OW33076   5.916   1.025   3.796
10726SOL    HW133077   5.985   1.028   3.869
10726SOL    HW233078   5.826   1.047   3.834
10727SOL     OW33079   2.989   6.997   0.096
10727SOL    HW133080   3.033   0.070   0.100
10727SOL    HW233081   3.039   6.937   0.034
10728SOL     OW33082   5.767   5.680   3.933
10728SOL    HW133083   5.753   5.754   3.999
10728SOL    HW233084   5.724   5.597   3.966
10729SOL     OW33085   5.735   2.925   4.058
10729SOL    HW133086   5.729   3.021   4.088
10729SOL    HW233087   5.796   2.919   3.979
10730SOL     OW33088   1.215   5.661   3.696
10730SOL    HW133089   1.290   5.713   3.735
10730SOL    HW233090   1.190   5.699   3.607
10731SOL     OW33091   4.868   5.747   6.643
10731SOL    HW133092   4.775   5.773   6.668
10731SOL    HW233093   4.888   5.782   6.551
10732SOL     OW33094   6.424   6.048   2.801
10732SOL    HW133095   6.393   5.954   2.789
10732SOL    HW233096   6.451   6.085   2.712
10733SOL     OW33097   0.409   1.652   6.030
10733SOL    HW133098   0.455   1.591   6.094
10733SOL    HW233099   0.327   1.690   6.074
10734SOL     OW33100   1.062   0.446   4.931
10734SOL    HW133101   1.087   0.405   4.843
10734SOL    HW233102   1.027   0.375   4.992
10735SOL     OW33103   0.313   0.322   1.871
10735SOL    HW133104   0.397   0.304   1.921
10735SOL    HW233105   0.315   0.275   1.783
10736SOL     OW33106   5.339   5.821   3.128
10736SOL    HW133107   5.363   5.724   3.120
10736SOL    HW233108   5.241   5.832   3.114
10737SOL     OW33109   6.725   1.042   1.660
10737SOL    HW133110   6.796   0.984   1.620
10737SOL    HW233111   6.683   0.994   1.737
10738SOL     OW33112   2.468   6.612   1.444
10738SOL    HW133113   2.565   6.611   1.420
10738SOL    HW233114   2.418   6.671   1.381
10739SOL     OW33115   5.396   3.289   4.256
10739SOL    HW133116   5.320   3.282   4.191
10739SOL    HW233117   5.418   3.385   4.271
10740SOL     OW33118   2.933   0.382   6.065
10740SOL    HW133119   2.953   0.423   5.976
10740SOL    HW233120   2.957   0.447   6.137
10741SOL     OW33121   1.240   2.055   3.645
10741SOL    HW133122   1.142   2.050   3.664
10741SOL    HW233123   1.265   2.149   3.622
10742SOL     OW33124   6.341   6.571   1.974
10742SOL    HW133125   6.392   6.485   1.980
10742SOL    HW233126   6.402   6.645   1.947
10743SOL     OW33127   3.574   2.030   5.856
10743SOL    HW133128   3.502   2.017   5.788
10743SOL    HW233129   3.537   2.080   5.935
10744SOL     OW33130   2.703   1.694   0.685
10744SOL    HW133131   2.629   1.732   0.630
10744SOL    HW233132   2.784   1.752   0.677
10745SOL     OW33133   2.539   4.807   1.446
10745SOL    HW133134   2.587   4.753   1.515
10745SOL    HW233135   2.539   4.903   1.474
10746SOL     OW33136   2.342   5.399   6.579
10746SOL    HW133137   2.428   5.366   6.616
10746SOL    HW233138   2.356   5.433   6.486
10747SOL     OW33139   6.771   1.324   4.507
10747SOL    HW133140   6.795   1.377   4.589
10747SOL    HW233141   6.672   1.306   4.508
10748SOL     OW33142   3.211   6.379   2.546
10748SOL    HW133143   3.138   6.395   2.480
10748SOL    HW233144   3.230   6.464   2.596
10749SOL     OW33145   6.115   4.497   1.703
10749SOL    HW133146   6.096   4.573   1.766
10749SOL    HW233147   6.127   4.413   1.755
10750SOL     OW33148   3.980   2.170   4.510
10750SOL    HW133149   4.024   2.124   4.433
10750SOL    HW233150   4.035   2.249   4.538
10751SOL     OW33151   6.263   5.988   4.419
10751SOL    HW133152   6.354   5.949   4.433
10751SOL    HW233153   6.254   6.073   4.471
10752SOL     OW33154   6.736   6.280   0.461
10752SOL    HW133155   6.649   6.264   0.507
10752SOL    HW233156   6.748   6.377   0.444
10753SOL     OW33157   5.026   6.696   5.258
10753SOL    HW133158   4.988   6.729   5.345
10753SOL    HW233159   4.963   6.629   5.217
10754SOL     OW33160   1.381   5.101   2.154
10754SOL    HW133161   1.332   5.015   2.160
10754SOL    HW233162   1.445   5.098   2.077
10755SOL     OW33163   0.503   2.124   1.574
10755SOL    HW133164   0.519   2.081   1.662
10755SOL    HW233165   0.586   2.119   1.518
10756SOL     OW33166   1.135   0.264   0.176
10756SOL    HW133167   1.124   0.298   0.082
10756SOL    HW233168   1.231   0.239   0.191
10757SOL     OW33169   0.220   2.702   2.570
10757SOL    HW133170   0.311   2.743   2.575
10757SOL    HW233171   0.151   2.774   2.575
10758SOL     OW33172   0.760   0.814   0.082
10758SOL    HW133173   0.839   0.756   0.100
10758SOL    HW233174   0.776   0.905   0.121
10759SOL     OW33175   3.165   3.083   5.039
10759SOL    HW133176   3.086   3.115   4.987
10759SOL    HW233177   3.170   2.983   5.036
10760SOL     OW33178   0.561   4.916   6.803
10760SOL    HW133179   0.461   4.908   6.801
10760SOL    HW233180   0.601   4.829   6.775
10761SOL     OW33181   1.169   1.760   5.915
10761SOL    HW133182   1.099   1.810   5.966
10761SOL    HW233183   1.260   1.793   5.943
10762SOL     OW33184   2.026   5.980   6.727
10762SOL    HW133185   2.096   6.050   6.714
10762SOL    HW233186   1.964   6.006   6.801
10763SOL     OW33187   4.424   0.706   2.949
10763SOL    HW133188   4.372   0.679   3.030
10763SOL    HW233189   4.502   0.644   2.937
10764SOL     OW33190   5.137   6.223   4.707
10764SOL    HW133191   5.137   6.184   4.615
10764SOL    HW233192   5.152   6.150   4.774
10765SOL     OW33193   1.071   2.161   1.050
10765SOL    HW133194   1.166   2.157   1.019
10765SOL    HW233195   1.062   2.232   1.119
10766SOL     OW33196   2.610   5.219   6.341
10766SOL    HW133197   2.620   5.190   6.436
10766SOL    HW233198   2.585   5.316   6.339
10767SOL     OW33199   1.599   4.480   0.047
10767SOL    HW133200   1.675   4.534   0.011
10767SOL    HW233201   1.634   4.407   0.104
10768SOL     OW33202   5.621   6.162   6.704
10768SOL    HW133203   5.653   6.209   6.621
10768SOL    HW233204   5.572   6.226   6.763
10769SOL     OW33205   2.925   3.348   4.478
10769SOL    HW133206   2.979   3.291   4.541
10769SOL    HW233207   2.920   3.303   4.389
10770SOL     OW33208   5.977   0.166   3.085
10770SOL    HW133209   5.885   0.200   3.105
10770SOL    HW233210   6.026   0.233   3.029
10771SOL     OW33211   4.961   5.928   5.668
10771SOL    HW133212   5.034   5.994   5.688
10771SOL    HW233213   4.874   5.976   5.659
10772SOL     OW33214   5.562   5.266   2.295
10772SOL    HW133215   5.471   5.239   2.324
10772SOL    HW233216   5.616   5.184   2.276
10773SOL     OW33217   0.648   3.571   0.522
10773SOL    HW133218   0.731   3.577   0.577
10773SOL    HW233219   0.654   3.491   0.461
10774SOL     OW33220   1.127   2.982   0.707
10774SOL    HW133221   1.106   3.030   0.792
10774SOL    HW233222   1.045   2.933   0.675
10775SOL     OW33223   2.382   3.765   0.502
10775SOL    HW133224   2.338   3.708   0.572
10775SOL    HW233225   2.312   3.810   0.447
10776SOL     OW33226   0.705   3.411   3.448
10776SOL    HW133227   0.754   3.348   3.508
10776SOL    HW233228   0.608   3.409   3.469
10777SOL     OW33229   1.190   6.990   1.032
10777SOL    HW133230   1.144   0.050   1.078
10777SOL    HW233231   1.288   7.007   1.030
10778SOL     OW33232   4.703   0.098   3.176
10778SOL    HW133233   4.726   0.119   3.271
10778SOL    HW233234   4.662   0.007   3.171
10779SOL     OW33235   5.878   3.158   5.852
10779SOL    HW133236   5.857   3.211   5.770
10779SOL    HW233237   5.958   3.197   5.897
10780SOL     OW33238   2.062   5.251   4.667
10780SOL    HW133239   2.035   5.280   4.575
10780SOL    HW233240   2.161   5.258   4.677
10781SOL     OW33241   5.630   2.097   5.126
10781SOL    HW133242   5.651   2.125   5.219
10781SOL    HW233243   5.671   2.008   5.108
10782SOL     OW33244   1.087   2.636   5.428
10782SOL    HW133245   1.010   2.647   5.366
10782SOL    HW233246   1.055   2.600   5.516
10783SOL     OW33247   1.496   3.056   3.631
10783SOL    HW133248   1.539   2.965   3.633
10783SOL    HW233249   1.421   3.058   3.698
10784SOL     OW33250   4.515   5.339   3.621
10784SOL    HW133251   4.456   5.410   3.659
10784SOL    HW233252   4.546   5.367   3.530
10785SOL     OW33253   1.911   5.532   1.614
10785SOL    HW133254   1.999   5.510   1.572
10785SOL    HW233255   1.909   5.495   1.707
10786SOL     OW33256   4.696   1.677   2.229
10786SOL    HW133257   4.773   1.617   2.250
10786SOL    HW233258   4.664   1.659   2.136
10787SOL     OW33259   3.620   2.151   3.856
10787SOL    HW133260   3.558   2.136   3.779
10787SOL    HW233261   3.712   2.170   3.822
10788SOL     OW33262   2.093   3.518   0.357
10788SOL    HW133263   2.086   3.548   0.452
10788SOL    HW233264   2.059   3.590   0.296
10789SOL     OW33265   6.906   1.160   2.072
10789SOL    HW133266   6.971   1.194   2.140
10789SOL    HW233267   6.923   1.203   1.984
10790SOL     OW33268   6.832   2.092   5.646
10790SOL    HW133269   6.800   2.119   5.555
10790SOL    HW233270   6.846   1.993   5.648
10791SOL     OW33271   1.706   1.938   3.740
10791SOL    HW133272   1.611   1.921   3.769
10791SOL    HW233273   1.719   2.037   3.729
10792SOL     OW33274   3.740   1.714   2.262
10792SOL    HW133275   3.743   1.811   2.284
10792SOL    HW233276   3.756   1.702   2.164
10793SOL     OW33277   3.242   1.964   4.651
10793SOL    HW133278   3.180   2.042   4.665
10793SOL    HW233279   3.193   1.879   4.671
10794SOL     OW33280   5.264   1.827   0.295
10794SOL    HW133281   5.258   1.925   0.280
10794SOL    HW233282   5.181   1.782   0.262
10795SOL     OW33283   6.772   3.663   3.098
10795SOL    HW133284   6.731   3.630   3.014
10795SOL    HW233285   6.849   3.604   3.123
10796SOL     OW33286   0.256   0.981   6.258
10796SOL    HW133287   0.168   0.981   6.210
10796SOL    HW233288   0.249   0.924   6.340
10797SOL     OW33289   4.600   4.339   0.192
10797SOL    HW133290   4.610   4.307   0.287
10797SOL    HW233291   4.680   4.313   0.140
10798SOL     OW33292   2.239   6.393   6.798
10798SOL    HW133293   2.182   6.473   6.820
10798SOL    HW233294   2.325   6.399   6.848
10799SOL     OW33295   3.255   1.044   3.103
10799SOL    HW133296   3.275   1.105   3.026
10799SOL    HW233297   3.190   0.974   3.074
10800SOL     OW33298   1.831   6.746   5.491
10800SOL    HW133299   1.845   6.828   5.435
10800SOL    HW233300   1.776   6.680   5.439
10801SOL     OW33301   2.606   6.258   6.727
10801SOL    HW133302   2.621   6.226   6.820
10801SOL    HW233303   2.685   6.233   6.670
10802SOL     OW33304   0.276   4.954   4.291
10802SOL    HW133305   0.276   5.004   4.205
10802SOL    HW233306   0.255   5.016   4.366
10803SOL     OW33307   0.242   4.599   3.915
10803SOL    HW133308   0.291   4.521   3.878
10803SOL    HW233309   0.222   4.584   4.012
10804SOL     OW33310   4.857   4.617   1.161
10804SOL    HW133311   4.892   4.536   1.114
10804SOL    HW233312   4.805   4.589   1.242
10805SOL     OW33313   3.873   6.102   0.592
10805SOL    HW133314   3.919   6.152   0.519
10805SOL    HW233315   3.788   6.061   0.557
10806SOL     OW33316   5.723   4.074   6.407
10806SOL    HW133317   5.718   3.983   6.446
10806SOL    HW233318   5.755   4.068   6.312
10807SOL     OW33319   4.326   1.757   4.352
10807SOL    HW133320   4.229   1.751   4.329
10807SOL    HW233321   4.371   1.670   4.330
10808SOL     OW33322   0.524   2.007   0.483
10808SOL    HW133323   0.547   2.105   0.488
10808SOL    HW233324   0.608   1.954   0.470
10809SOL     OW33325   2.731   1.148   2.388
10809SOL    HW133326   2.754   1.120   2.480
10809SOL    HW233327   2.703   1.244   2.389
10810SOL     OW33328   1.827   1.141   6.614
10810SOL    HW133329   1.830   1.141   6.514
10810SOL    HW233330   1.741   1.101   6.645
10811SOL     OW33331   4.534   5.155   6.477
10811SOL    HW133332   4.559   5.114   6.390
10811SOL    HW233333   4.523   5.084   6.546
10812SOL     OW33334   6.193   2.672   2.195
10812SOL    HW133335   6.224   2.646   2.287
10812SOL    HW233336   6.226   2.605   2.129
10813SOL     OW33337   3.348   5.518   2.953
10813SOL    HW133338   3.316   5.525   3.047
10813SOL    HW233339   3.299   5.446   2.905
10814SOL     OW33340   1.771   5.447   4.416
10814SOL    HW133341   1.740   5.453   4.321
10814SOL    HW233342   1.691   5.450   4.477
10815SOL     OW33343   4.763   1.882   4.661
10815SOL    HW133344   4.717   1.908   4.747
10815SOL    HW233345   4.696   1.884   4.587
10816SOL     OW33346   2.494   1.986   1.607
10816SOL    HW133347   2.549   2.064   1.578
10816SOL    HW233348   2.485   1.987   1.707
10817SOL     OW33349   4.137   0.694   1.905
10817SOL    HW133350   4.230   0.658   1.907
10817SOL    HW233351   4.076   0.627   1.863
10818SOL     OW33352   4.173   2.816   0.142
10818SOL    HW133353   4.123   2.835   0.058
10818SOL    HW233354   4.140   2.731   0.183
10819SOL     OW33355   0.990   3.654   5.550
10819SOL    HW133356   0.983   3.582   5.620
10819SOL    HW233357   0.966   3.742   5.591
10820SOL     OW33358   0.208   6.897   4.737
10820SOL    HW133359   0.193   6.989   4.774
10820SOL    HW233360   0.185   6.829   4.806
10821SOL     OW33361   0.253   0.522   0.793
10821SOL    HW133362   0.329   0.476   0.747
10821SOL    HW233363   0.266   0.621   0.788
10822SOL     OW33364   0.426   4.065   6.714
10822SOL    HW133365   0.429   4.151   6.766
10822SOL    HW233366   0.423   4.085   6.616
10823SOL     OW33367   2.067   2.128   1.343
10823SOL    HW133368   2.145   2.137   1.281
10823SOL    HW233369   2.087   2.060   1.413
10824SOL     OW33370   5.129   0.636   3.603
10824SOL    HW133371   5.213   0.582   3.613
10824SOL    HW233372   5.060   0.602   3.666
10825SOL     OW33373   3.401   0.724   2.325
10825SOL    HW133374   3.374   0.764   2.413
10825SOL    HW233375   3.471   0.655   2.340
10826SOL     OW33376   6.671   3.091   1.360
10826SOL    HW133377   6.736   3.147   1.309
10826SOL    HW233378   6.721   3.022   1.412
10827SOL     OW33379   1.048   3.099   4.271
10827SOL    HW133380   1.110   3.169   4.235
10827SOL    HW233381   1.009   3.047   4.196
10828SOL     OW33382   2.013   5.583   0.433
10828SOL    HW133383   2.087   5.562   0.369
10828SOL    HW233384   2.023   5.527   0.516
10829SOL     OW33385   2.051   3.495   1.547
10829SOL    HW133386   2.142   3.452   1.545
10829SOL    HW233387   2.046   3.559   1.624
10830SOL     OW33388   5.468   0.863   3.519
10830SOL    HW133389   5.371   0.876   3.540
10830SOL    HW233390   5.485   0.886   3.423
10831SOL     OW33391   5.619   3.125   2.438
10831SOL    HW133392   5.531   3.135   2.392
10831SOL    HW233393   5.672   3.209   2.428
10832SOL     OW33394   0.662   3.570   3.007
10832SOL    HW133395   0.757   3.554   2.980
10832SOL    HW233396   0.614   3.618   2.934
10833SOL     OW33397   2.988   6.681   3.720
10833SOL    HW133398   3.037   6.766   3.743
10833SOL    HW233399   3.053   6.613   3.686
10834SOL     OW33400   6.800   0.976   5.600
10834SOL    HW133401   6.877   0.945   5.544
10834SOL    HW233402   6.716   0.976   5.544
10835SOL     OW33403   0.424   2.845   1.676
10835SOL    HW133404   0.370   2.872   1.596
10835SOL    HW233405   0.520   2.837   1.650
10836SOL     OW33406   1.863   2.764   0.703
10836SOL    HW133407   1.832   2.744   0.796
10836SOL    HW233408   1.787   2.802   0.650
10837SOL     OW33409   1.007   5.827   0.972
10837SOL    HW133410   1.075   5.776   0.919
10837SOL    HW233411   1.041   5.840   1.065
10838SOL     OW33412   6.291   6.648   0.017
10838SOL    HW133413   6.217   6.709   7.003
10838SOL    HW233414   6.295   6.648   0.116
10839SOL     OW33415   1.408   1.470   6.884
10839SOL    HW133416   1.355   1.484   6.967
10839SOL    HW233417   1.375   1.532   6.813
10840SOL     OW33418   3.076   6.757   2.470
10840SOL    HW133419   3.067   6.834   2.406
10840SOL    HW233420   3.007   6.688   2.448
10841SOL     OW33421   5.212   2.930   0.104
10841SOL    HW133422   5.234   2.865   0.177
10841SOL    HW233423   5.224   2.887   0.015
10842SOL     OW33424   5.853   2.815   1.511
10842SOL    HW133425   5.846   2.716   1.521
10842SOL    HW233426   5.924   2.850   1.572
10843SOL     OW33427   0.386   1.769   1.537
10843SOL    HW133428   0.379   1.765   1.637
10843SOL    HW233429   0.303   1.812   1.500
10844SOL     OW33430   4.103   0.400   3.028
10844SOL    HW133431   4.041   0.323   3.012
10844SOL    HW233432   4.070   0.480   2.978
10845SOL     OW33433   2.324   2.859   0.689
10845SOL    HW133434   2.316   2.764   0.719
10845SOL    HW233435   2.260   2.915   0.741
10846SOL     OW33436   3.323   1.778   1.217
10846SOL    HW133437   3.398   1.828   1.260
10846SOL    HW233438   3.251   1.842   1.190
10847SOL     OW33439   4.867   2.774   5.532
10847SOL    HW133440   4.857   2.699   5.467
10847SOL    HW233441   4.961   2.810   5.528
10848SOL     OW33442   1.241   0.657   6.852
10848SOL    HW133443   1.328   0.628   6.813
10848SOL    HW233444   1.253   0.742   6.902
10849SOL     OW33445   2.053   5.167   3.871
10849SOL    HW133446   2.020   5.108   3.944
10849SOL    HW233447   1.977   5.192   3.811
10850SOL     OW33448   5.920   0.541   1.854
10850SOL    HW133449   5.859   0.613   1.889
10850SOL    HW233450   5.947   0.563   1.760
10851SOL     OW33451   4.718   2.035   6.709
10851SOL    HW133452   4.691   1.962   6.772
10851SOL    HW233453   4.812   2.019   6.678
10852SOL     OW33454   6.671   0.426   6.006
10852SOL    HW133455   6.715   0.495   6.065
10852SOL    HW233456   6.708   0.433   5.914
10853SOL     OW33457   2.622   0.633   4.548
10853SOL    HW133458   2.599   0.725   4.514
10853SOL    HW233459   2.621   0.569   4.471
10854SOL     OW33460   0.064   0.604   1.059
10854SOL    HW133461   6.987   0.579   1.035
10854SOL    HW233462   0.118   0.522   1.075
10855SOL     OW33463   6.621   5.465   1.497
10855SOL    HW133464   6.666   5.469   1.587
10855SOL    HW233465   6.686   5.429   1.430
10856SOL     OW33466   5.468   0.078   6.598
10856SOL    HW133467   5.408   0.004   6.567
10856SOL    HW233468   5.452   0.160   6.542
10857SOL     OW33469   6.393   0.265   4.730
10857SOL    HW133470   6.458   0.274   4.655
10857SOL    HW233471   6.434   0.215   4.805
10858SOL     OW33472   2.007   1.953   0.336
10858SOL    HW133473   2.089   1.971   0.390
10858SOL    HW233474   1.926   1.978   0.390
10859SOL     OW33475   1.523   5.140   2.588
10859SOL    HW133476   1.503   5.231   2.624
10859SOL    HW233477   1.605   5.144   2.532
10860SOL     OW33478   6.062   2.447   1.721
10860SOL    HW133479   6.096   2.372   1.664
10860SOL    HW233480   6.003   2.506   1.666
10861SOL     OW33481   1.831   3.779   1.553
10861SOL    HW133482   1.905   3.805   1.615
10861SOL    HW233483   1.831   3.839   1.474
10862SOL     OW33484   3.489   4.443   5.450
10862SOL    HW133485   3.478   4.379   5.374
10862SOL    HW233486   3.567   4.416   5.506
10863SOL     OW33487   1.967   0.632   3.375
10863SOL    HW133488   2.059   0.653   3.409
10863SOL    HW233489   1.974   0.574   3.294
10864SOL     OW33490   3.038   3.635   1.903
10864SOL    HW133491   3.014   3.709   1.965
10864SOL    HW233492   3.138   3.630   1.895
10865SOL     OW33493   3.366   1.734   2.730
10865SOL    HW133494   3.297   1.682   2.679
10865SOL    HW233495   3.432   1.671   2.771
10866SOL     OW33496   0.909   3.629   4.069
10866SOL    HW133497   0.905   3.720   4.109
10866SOL    HW233498   0.888   3.635   3.971
10867SOL     OW33499   4.457   2.859   0.080
10867SOL    HW133500   4.443   2.877   7.000
10867SOL    HW233501   4.372   2.880   0.130
10868SOL     OW33502   1.449   6.689   4.993
10868SOL    HW133503   1.457   6.732   5.083
10868SOL    HW233504   1.353   6.681   4.969
10869NA      NA33505   6.874   1.108   6.452
10870NA      NA33506   4.429   4.661   5.398
10871NA      NA33507   0.971   4.836   2.922
10872NA      NA33508   5.658   3.677   2.981
10873NA      NA33509   3.749   2.701   5.598
10874NA      NA33510   2.440   4.881   6.974
10875NA      NA33511   1.732   5.494   6.785
10876NA      NA33512   4.138   4.887   1.497
10877NA      NA33513   5.206   4.455   0.732
10878NA      NA33514   3.397   1.384   0.664
10879NA      NA33515   5.545   6.857   1.589
10880NA      NA33516   2.315   6.619   5.083
10881NA      NA33517   4.341   4.692   2.760
10882NA      NA33518   4.330   3.842   6.592
   7.01681   7.01681   7.01681
